default_name
 66402
  27.5150166  41.2884019  58.2204776  27.7169198  40.9028830  57.2211226
  28.3766872  41.5906904  56.6922311  26.7800075  40.8049632  56.6727559
  28.3839198  39.5458830  57.2851226  28.6349198  39.0088830  58.3721226
  28.6959198  38.9388830  56.1901226  28.4763729  39.3308985  55.2855662
  29.3389198  37.6318830  56.2391226  29.8077827  37.4873281  57.2124523
  28.3109198  36.5208830  56.0221226  27.5229407  36.6646464  56.7613927
  27.8991879  36.6562453  55.0219957  28.8759198  35.1158830  56.1511226
  29.6768298  34.9903474  55.4225042  29.2777075  34.9923853  57.1568149
  27.8319198  34.0448830  55.9121226  26.6489198  34.3408830  55.7471226
  28.2659198  32.7908830  55.8901226  27.6127959  32.0363415  55.7345665
  29.2473296  32.5968744  56.0290355  30.4419198  37.5338830  55.1921226
  30.2739198  36.8768830  54.1661226  31.5719198  38.1838830  55.4581226
  31.6692340  38.6972405  56.3224682  32.6709198  38.2238830  54.5041226
  32.4381921  37.5757346  53.6592317  32.9089198  39.6428830  53.9811226
  33.8097736  39.6582377  53.3676686  32.0554572  39.9571493  53.3803411
  33.1439198  40.8968830  55.2601226  33.9249198  37.6798830  55.1701226
  33.9999198  37.5558830  56.3931226  34.9119198  37.3518830  54.3411226
  34.7581902  37.4260397  53.3456492  36.1979198  36.8558830  54.8051226
  36.2085679  36.8513507  55.8950608  36.4679198  35.4358830  54.3081226
  35.7857046  34.7424146  54.7998373  36.3145483  35.3924677  53.2298405
  38.1539198  34.8778830  54.6441226  37.3119198  37.7768830  54.3311226
  37.2939198  38.2548830  53.1931226  38.2579198  38.0408830  55.2331226
  38.0740563  37.7826716  56.1920911  39.4919198  38.7728830  54.9351226
  39.8900057  39.2127344  55.8495391  40.5589198  37.8488830  54.3301226
  40.5608768  36.9168897  54.8953525  40.2939198  37.5508830  52.8631226
  40.2922747  38.4824185  52.2971381  41.0741692  36.8940639  52.4785468
  39.3250398  37.0621998  52.7603567  41.8449198  38.4688830  54.4451226
  42.5130568  37.8923228  54.0672714  39.2459198  39.9818830  54.0361226
  40.0939198  40.3488830  53.2191226  38.0909198  40.6248830  54.1901226
  37.3237037  40.2038849  54.6943442  37.8849198  41.9318830  53.5871226
  38.7433662  42.5681655  53.8023282  37.7229198  41.8278830  52.0771226
  37.5975204  42.8310383  51.6696257  38.6230876  41.3766486  51.6597674
  36.5979198  41.0368830  51.7381226  36.5180061  40.9870054  50.7827557
  36.6649198  42.6008830  54.2011226  35.9449198  42.0118830  55.0101226
  36.4519198  43.8528830  53.7931226  37.0638445  44.2759408  53.1099905
  35.3789198  44.6608830  54.3521226  35.2554275  44.4782589  55.4195950
  35.6679198  46.1508830  54.1181226  35.7001636  46.3415415  53.0454111
  34.5849198  47.0098830  54.7531226  34.5523825  46.8201042  55.8259814
  34.8059012  48.0626911  54.5774436  33.6193494  46.7632440  54.3116000
  37.0469198  46.5218830  54.6721226  36.9768737  46.4936286  55.7595030
  37.7474566  45.7584474  54.3337239  37.5349198  47.8808830  54.2351226
  36.8350852  48.6449348  54.5735841  38.5170902  48.0712416  54.6677935
  37.6056659  47.9097542  53.1478042  34.0539198  44.2538830  53.7281226
  34.0009198  43.8078830  52.5751226  32.9729198  44.4018830  54.4901226
  33.0755708  44.6051514  55.4741165  31.6309198  44.2248830  53.9591226
  31.5808055  44.6680391  52.9645370  31.2439198  42.7448830  53.8561226
  30.2166525  42.6612508  53.5014018  31.9114613  42.2420950  53.1563423
  31.3309198  41.7988830  55.3811226  30.6329198  44.9658830  54.8341226
  30.9119198  45.2898830  55.9911226  29.4659198  45.2398830  54.2581226
  29.3573801  44.9698935  53.2909493  28.3739198  45.9638830  54.9011226
  27.5832443  46.1483426  54.1738633  27.7879198  45.1618830  56.0691226
  27.4554672  44.1931776  55.6960484  28.5665508  45.0146626  56.8175609
  26.6929198  45.8428830  56.6551226  26.3441601  45.3219820  57.3821911
  28.7889198  47.3468830  55.3861226  28.0739198  47.9568830  56.1891226
  29.9249198  47.8588830  54.9211226  30.5291214  47.3146521  54.3220796
  30.3559198  49.1918830  55.3061226  30.1627039  49.3538053  56.3665697
  31.8549198  49.3548830  55.0521226  32.3007093  48.5524281  55.6398616
  32.0124190  49.1584472  53.9916006  32.5109198  50.6868830  55.4271226
  32.0860646  51.4684028  54.7971816  32.2829198  51.0328830  56.8821226
  32.7079404  50.2519968  57.5127358  32.7634649  51.9844585  57.1094573
  31.2128469  51.1118380  57.0739835  33.9979198  50.6238830  55.1411226
  34.1565113  50.4298911  54.0803138  34.4605984  51.5736472  55.4094091
  34.4476274  49.8227359  55.7276594  29.5589198  50.2448830  54.5411226
  28.8579198  49.9478830  53.5701226  29.6439198  51.4868830  55.0131226
  30.1252260  51.6481506  55.8862987  29.0109198  52.6218830  54.3531226
  28.5039990  52.2918308  53.4463723  27.9749198  53.2628830  55.2891226
  27.1413257  52.5642922  55.3611713  28.4432897  53.3709884  56.2674083
  27.4659198  54.6078830  54.8231226  28.0869198  55.7818830  55.2251226
  28.9523365  55.7186406  55.8847844  27.6279198  57.0138830  54.8051226
  28.1272118  57.9278765  55.1267203  26.5309198  57.0838830  53.9761226
  26.0719198  58.3118830  53.5571226  26.5892260  59.0433348  53.9020459
  25.8939198  55.9338830  53.5641226  25.0259597  55.9890261  52.9070800
  26.3619198  54.7048830  53.9891226  25.8618040  53.7908430  53.6689427
  30.0129198  53.6698830  53.8931226  30.0049198  54.0558830  52.7201226
  30.8879198  54.1408830  54.7791226  30.8949779  53.7790324  55.7220509
  31.8149198  55.2198830  54.4441226  31.8865095  55.3143782  53.3605891
  31.3399198  56.5528830  55.0201226  30.3829530  56.7846422  54.5525742
  31.1952592  56.4093734  56.0909066  32.3049198  57.6988830  54.7901226
  33.1650997  57.5665643  55.4463871  32.6348134  57.6804553  53.7514058
  31.6809198  59.0498830  55.0761226  30.5069198  59.1408830  55.4351226
  32.4639198  60.1078830  54.9141226  32.1000712  61.0333683  55.0907368
  33.4204926  59.9832945  54.6148779  33.2039198  54.8738830  54.9611226
  33.3469198  54.3348830  56.0621226  34.2159198  55.1848830  54.1601226
  34.0076966  55.5242342  53.2319076  35.6099198  55.0318830  54.5411226
  35.7140714  55.1679316  55.6175716  36.1199198  53.6378830  54.1731226
  35.2816399  52.9958409  54.4436184  36.2570060  53.6193401  53.0919364
  37.3919198  53.1308830  54.8571226  37.2819199  53.2275515  55.9372412
  37.6269198  51.6738830  54.5011226  37.7374858  51.5764766  53.4211291
  38.5339601  51.3211216  54.9919769  36.7782762  51.0764736  54.8342989
  38.6019198  53.9668830  54.4871226  38.4377422  55.0000435  54.7932672
  39.4839157  53.5743138  54.9931599  38.7550145  53.9280143  53.4086282
  36.4409198  56.0978830  53.8401226  36.3449198  56.2798830  52.6261226
  37.2569198  56.8148830  54.6071226  37.3475384  56.6721730  55.6028743
  38.0209198  57.8888830  53.9921226  38.4945325  57.5248548  53.0803805
  37.1129198  59.0708830  53.6341226  37.7609368  59.8758601  53.2874455
  36.4721539  58.7429235  52.8156107  36.2549198  59.5708830  54.7771226
  35.5019035  58.8205998  55.0182501  36.9044871  59.7230641  55.6390984
  35.5859198  60.8938830  54.4641226  36.0969198  61.6308830  53.5941226
  34.5459198  61.1958830  55.0851226  34.1912425  62.0512860  54.8327957
  39.1369198  58.3658830  54.9051226  38.9039198  58.6688830  56.0751226
  34.2756558  60.5226755  55.7137942  35.6133344  62.4508966  53.4672535
  36.8835490  61.2516253  53.1962594  40.3419198  58.4488830  54.3511226
  40.5476559  57.9480371  53.4985234  41.4039198  59.2278830  54.9661226
  41.4199649  59.0435425  56.0403015  42.7609198  58.8428830  54.3851226
  42.7643197  57.7709300  54.1876273  42.9094947  59.3843983  53.4508921
  43.9059198  59.1658830  55.3181226  43.7999198  60.0558830  56.1591226
  45.0099198  58.4448830  55.1741226  45.8050554  58.6195848  55.7719006
  45.0503351  57.7244982  54.4673601  41.1099198  60.7028830  54.7241226
  40.1009198  61.0438830  54.0991226  41.9799198  61.5808830  55.2181226
  42.7937641  61.2789018  55.7344210  41.7539198  63.0108830  55.0601226
  41.5655327  63.2387943  54.0109963  40.5449198  63.4638830  55.8841226
  39.8358177  62.6365053  55.8572978  40.8825584  63.6192664  56.9087963
  39.8729198  64.7188830  55.3801226  40.5079198  65.9498830  55.4531226
  41.5104955  65.9999782  55.8778953  39.8919198  67.0998830  54.9991226
  40.4049344  68.0599539  55.0555290  38.6199198  67.0278830  54.4721226
  38.0009198  68.1688830  54.0211226  38.5435142  68.9545080  54.1210438
  37.9659198  65.8178830  54.3951226  36.9605816  65.7604559  53.9778724
  38.5909198  64.6738830  54.8501226  38.0771093  63.7140782  54.7965155
  42.9989198  63.7708830  55.4871226  43.6349198  63.4148830  56.4831226
  43.3349198  64.8138830  54.7351226  42.8250230  64.9897676  53.8812085
  44.4519198  65.6918830  55.0671226  44.2477395  66.1992105  56.0100057
  45.7539198  64.8988830  55.2101226  46.6027095  65.5808965  55.1599944
  45.7609353  64.3807834  56.1690927  46.0349198  63.6248830  53.9691226
  44.6139198  66.7738830  54.0071226  44.5619198  66.4918830  52.8091226
  44.8069198  67.9968830  54.3681226  44.8547536  68.2619142  55.3415545
  44.9619198  69.0348830  53.3631226  44.8864493  68.5933792  52.3694027
  44.1786794  69.7825040  53.4884141  45.9370648  69.5085003  53.4766076
  31.6527749  24.4783700  60.7891338  31.4649198  24.6978830  59.7381226
  30.6999000  25.4702531  59.6588289  31.1222307  23.7946175  59.2333706
  32.7209198  25.1888830  59.0511226  33.7869198  25.2998830  59.6721226
  32.6809198  25.4968830  57.7991226  31.8386569  25.3863204  57.2527998
  33.8839198  25.9708830  57.1261226  34.5919876  26.3539309  57.8609787
  34.5489198  24.8308830  56.3551226  34.4632516  23.9037565  56.9218648
  34.0763636  24.7055752  55.3809108  36.0079198  25.0428830  56.0991226
  36.5699198  26.2958830  55.9751226  36.0570590  27.1633498  56.0427612
  37.8669198  26.1758830  55.7571226  38.4929653  27.0589206  55.6290191
  38.1679198  24.8898830  55.7371226  39.0864893  24.4965960  55.5899656
  37.0239198  24.1608830  55.9501226  37.0675984  23.0719643  55.9713214
  33.5359198  27.1188830  56.1881226  32.7219198  26.9608830  55.2791226
  34.1499198  28.2788830  56.4211226  34.7827799  28.3671932  57.2032919
  33.8889198  29.4598830  55.6061226  33.1471698  29.2269455  54.8421552
  33.3529198  30.5978830  56.4771226  32.4420765  30.1848981  56.9106053
  34.0799968  30.7820556  57.2680332  33.0279198  31.9148830  55.7661226
  32.7474009  31.7023995  54.7344924  31.8819198  32.6248830  56.4661226
  32.1618886  32.8381267  57.4977444  31.6626669  33.5591119  55.9491649
  30.9976996  31.9876080  56.4544720  34.2439198  32.8238830  55.7001226
  35.0428713  32.3236341  55.1528320  33.9788394  33.7496887  55.1895177
  34.5834986  33.0512579  56.7106105  35.1489198  29.8968830  54.8701226
  35.1159198  30.1258830  53.6571226  36.2609198  30.0158830  55.5921226
  36.2388196  29.8103932  56.5807504  37.5099198  30.4848830  55.0131226
  37.4644427  30.3843730  53.9287201  37.7719198  31.9548830  55.3581226
  36.8727237  32.3927598  55.7914926  38.5894573  32.0199887  56.0761015
  38.2229198  32.9758830  53.9391226  38.6539198  29.6118830  55.5081226
  38.5579198  28.9538830  56.5471226  39.7459198  29.6248830  54.7521226
  39.7952789  30.2639864  53.9716037  40.8759198  28.7568830  55.0001226
  40.5004638  27.8227736  55.4179403  41.3654498  28.5571343  54.0469384
  41.8859198  29.3538830  55.9571226  41.5689198  30.1988830  56.7971226
  43.1269198  28.8998830  55.8181226  43.3338792  28.2512713  55.0720864
  44.1969198  29.2628830  56.7321226  43.7878971  29.7958375  57.5904694
  44.9129198  28.0078830  57.2321226  45.4001283  27.5240579  56.3855765
  45.6653210  28.3038659  57.9631401  44.0019198  27.1038830  57.8321226
  44.4760817  26.3266686  58.1366027  45.1949198  30.2048830  56.0631226
  45.1899198  30.4058830  54.8461226  46.0619198  30.7878830  56.8881226
  45.9344523  30.6557391  57.8812940  47.1369198  31.6688830  56.4391226
  47.6694187  32.0653971  57.3035997  48.1329198  30.9108830  55.5561226
  48.2170222  29.8756217  55.8866676  47.8023935  30.9344792  54.5177125
  49.5159198  31.4808830  55.5781226  50.6429198  30.7048830  55.4181226
  50.6351498  29.7052278  55.2741475  51.7169198  31.4718830  55.4831226
  52.7132971  31.0425240  55.3783271  51.3269198  32.7178830  55.6801226
  51.9305945  33.5225719  55.7704133  49.9549198  32.7508830  55.7441226
  49.4394153  33.6978321  55.9042592  46.6089198  32.8938830  55.7031226
  47.2929198  33.4438830  54.8341226  45.3979198  33.3308830  56.0311226
  44.8240072  32.8184946  56.6854787  44.8489198  34.5338830  55.4281226
  44.9953618  34.5066358  54.3483488  43.3529198  34.6378830  55.7151226
  43.3052820  34.9321442  56.7635692  42.9286455  35.4288296  55.0966609
  42.5559198  33.3488830  55.5111226  42.8606420  32.6201799  56.2622797
  41.0709198  33.6188830  55.6431226  40.7653429  34.3471994  54.8919390
  40.5178958  32.6913113  55.4952174  40.8596604  34.0126595  56.6373107
  42.8739198  32.7298830  54.1681226  43.9376497  32.4975147  54.1172999
  42.2961324  31.8140414  54.0436348  42.6174601  33.4313965  53.3742674
  45.5679198  35.7688830  55.9561226  45.9569198  35.8388830  57.1241226
  45.7429198  36.7518830  55.0771226  45.4066485  36.6338029  54.1320945
  46.4509198  37.9818830  55.4101226  46.4867466  38.1414060  56.4877905
  47.8929198  37.9738830  54.8651226  47.8636925  37.8248775  53.7857513
  48.5859198  39.2918830  55.1761226  48.6159441  39.4413756  56.2554055
  49.6028954  39.2695184  54.7845095  48.0361818  40.1104914  54.7116121
  48.6739198  36.8068830  55.4461226  48.1867772  35.8709228  55.1726766
  49.6897274  36.8161588  55.0509663  48.7062285  36.8953333  56.5320478
  45.6749198  39.1648830  54.8511226  45.1689198  39.1158830  53.7261226
  45.5799198  40.2248830  55.6461226  45.8937032  40.1394574  56.6023348
  45.0169198  41.4948830  55.2161226  45.0749590  41.5651342  54.1299387
  43.5529198  41.6308830  55.6371226  43.0208787  40.7665959  55.2395810
  43.5262323  41.6038198  56.7264597  42.8869198  42.9048830  55.1461226
  43.4616667  43.7628904  55.4948203  42.8890849  42.8854275  54.0562988
  41.4489198  43.0258830  55.6021226  41.0729198  42.3278830  56.5651226
  40.6949198  43.8168830  54.9981226  39.8007105  43.8255840  55.3466814
  45.8369198  42.6248830  55.8181226  46.4189198  42.4748830  56.8961226
  41.1351362  44.2828982  54.2836171  40.1468082  42.4588022  56.7831830
  41.7732460  41.7814715  56.9282959  45.8829198  43.7548830  55.1191226
  45.4113668  43.8034179  54.2272810  46.6289198  44.9198830  55.5691226
  46.5227768  45.0328212  56.6480470  48.1149198  44.7818830  55.2361226
  48.2380323  44.6770866  54.1581796  48.6482427  45.6690234  55.5776614
  48.5192717  43.9010269  55.7348122  46.0549198  46.1698830  54.9221226
  46.2669198  46.4088830  53.7301226  45.3429198  46.9658830  55.7111226
  45.1959353  46.6921389  56.6721424  44.7249198  48.1978830  55.2421226
  44.8057101  48.2599272  54.1568933  43.2449198  48.2388830  55.6251226
  42.7810603  47.5327908  54.9363792  43.1526428  47.8649506  56.6448086
  42.5449198  49.5928830  55.5141226  42.9154958  50.2476457  56.3028304
  42.8139198  50.2218830  54.1721226  42.4431802  49.5678684  53.3828724
  42.3067265  51.1849048  54.1134297  43.8867851  50.3686816  54.0475814
  41.0529198  49.4308830  55.7421226  40.8793312  49.0199258  56.7366479
  40.5648221  50.4020757  55.6605964  40.6417441  48.7541565  54.9930733
  45.4659198  49.3868830  55.8341226  45.5769198  49.5088830  57.0581226
  45.9689198  50.2588830  54.9641226  45.8251696  50.0956590  53.9778198
  46.7429198  51.4248830  55.3651226  46.8975114  51.4059585  56.4439379
  48.1079198  51.4418830  54.6761226  47.9352644  51.4189009  53.6001295
  48.5671878  52.3917996  54.9496759  49.0279198  50.3088830  55.0621226
  48.7479198  49.0058830  54.6861226  47.8447586  48.8065472  54.1093517
  49.5889198  47.9698830  55.0291226  49.3519363  46.9483997  54.7316121
  50.7319198  48.2288830  55.7481226  51.5739198  47.1968830  56.0901226
  51.2671276  46.3429072  55.7767482  51.0369198  49.5168830  56.1291226
  51.9413621  49.7241714  56.7010633  50.1889198  50.5478830  55.7821226
  50.4266480  51.5707951  56.0740749  45.9809198  52.6948830  55.0171226
  45.5919198  52.8958830  53.8621226  45.7749198  53.5448830  56.0171226
  45.9856977  53.2351038  56.9550506  45.2419198  54.8878830  55.8371226
  45.0232853  55.0526290  54.7820601  43.9559198  55.0858830  56.6391226
  44.1991299  54.5985650  57.5832991  43.8497705  56.1585206  56.8012368
  42.6419198  54.5198830  56.0971226  41.9627650  54.3372905  56.9298949
  42.0059198  55.4968830  55.1331226  42.6843401  55.6796277  54.2997865
  41.0719916  55.0801692  54.7559906  41.8025025  56.4358383  55.6479864
  42.8489198  53.1798830  55.4311226  43.2562188  52.4732347  56.1542098
  41.8947722  52.8077595  55.0579902  43.5453427  53.2903983  54.5999304
  46.3119198  55.8678830  56.2951226  46.3649198  56.2218830  57.4771226
  47.1589198  56.3058830  55.3651226  46.9965621  56.1061047  54.3884815
  48.3739198  57.0248830  55.7311226  48.4148667  57.2376449  56.7993711
  49.6279198  56.2208830  55.3411226  49.6541836  56.1073641  54.2573685
  50.8859198  56.9398830  55.8061226  50.8605932  57.0533682  56.8899033
  51.7631919  56.3584058  55.5226120  50.9363320  57.9236136  55.3393954
  49.5709198  54.8158830  55.9181226  48.6905576  54.3003643  55.5343192
  50.4673653  54.2672433  55.6291944  49.5138980  54.8710315  57.0052325
  48.4109198  58.4028830  55.0871226  48.8509198  58.5558830  53.9421226
  47.9549198  59.4138830  55.8201226  47.3692910  59.2466742  56.6258394
  48.2559198  60.7908830  55.4601226  48.2788618  60.8915677  54.3750256
  47.1929198  61.7348830  56.0151226  46.8480904  61.3667293  56.9813808
  47.6187402  62.7308039  56.1372636  45.7179198  61.8998830  54.9891226
  49.6289198  61.1628830  56.0001226  49.7619198  61.6628830  57.1201226
  50.6549198  60.9168830  55.1921226  50.4818007  60.6828771  54.2249771
  52.0249198  60.9718830  55.6491226  52.1177283  60.3236683  56.5205028
  52.6641996  60.5982373  54.8492417  52.4719198  62.3708830  56.0251226
  51.6799198  63.2628830  56.3301226  53.7919198  62.5518830  55.9941226
  54.3812461  61.8001474  55.6659650  54.4299198  63.7738830  56.4671226
  54.2715656  63.8882211  57.5394798  55.9339198  63.7128830  56.1991226
  56.0655295  63.6137875  55.1216449  56.3590966  64.6600895  56.5309728
  56.6399198  62.5678830  56.9021226  56.4021890  62.6031753  57.9652968
  56.2683776  61.6350321  56.4780415  58.1429198  62.5978830  56.7061226
  58.6649198  63.6388830  56.2581226  58.8019198  61.5788830  57.0001226
  59.7427974  61.6791232  56.8392489  53.8379198  65.0178830  55.8201226
  53.6369198  65.0608830  54.6021226  58.2567642  60.8636719  57.3359164
  59.6173403  63.5667122  56.1578262  58.0275791  64.3372176  56.0936757
  53.5519198  66.0328830  56.6321226  53.6613302  65.8984277  57.6271354
  53.0549198  67.3188830  56.1591226  53.2445827  67.4080334  55.0894594
  51.5529198  67.4598830  56.4021226  51.3898218  67.3369138  57.4728125
  51.2753309  68.4716943  56.1066867  50.6999198  66.4588830  55.6421226
  50.9811229  66.4935230  54.5895896  50.8993529  65.4632324  56.0383656
  49.2189198  66.7718830  55.7811226  48.6488475  66.0640301  55.1794076
  48.9320162  66.6717974  56.8279123  48.9019198  68.1238830  55.3371226
  49.6576747  68.6636595  54.9401653  47.7019198  68.6808830  55.4191226
  46.6689198  68.0298830  55.9281226  46.7875162  67.0851509  56.2650444
  45.7664060  68.4805866  55.9774662  47.5329198  69.9248830  54.9801226
  48.3157814  70.4304552  54.5907327  46.6224947  70.3583090  55.0381474
  53.8139198  68.4218830  56.8801226  54.3259198  68.2068830  57.9841226
  53.8919198  69.5838830  56.2621226  53.5101421  69.6886640  55.3329477
  54.5169198  70.7338830  56.8811226  53.9011383  71.6160924  56.7061401
  54.6068544  70.5611051  57.9535772  55.9009198  70.9738830  56.3011226
  56.1569198  70.6758830  55.1361226  56.7749198  71.5118830  57.1481226
  56.4900317  71.6466180  58.1076978  58.1089198  71.9468830  56.7561226
  58.2118770  71.8757748  55.6733287  58.3599198  73.3968830  57.1771226
  58.3064424  73.5020209  58.2607210  59.3485345  73.6991619  56.8316254
  57.3819198  74.3838830  56.6001226  56.0389198  74.3288830  56.9291226
  55.6916929  73.5534873  57.6119806  55.1429198  75.2388830  56.4051226
  54.0863278  75.1775237  56.6657931  55.5849198  76.2238830  55.5531226
  54.8807077  76.9460332  55.1399830  56.9199198  76.2968830  55.2221226
  57.2726167  77.0753103  54.5455459  57.8119198  75.3828830  55.7481226
  58.8696857  75.4443711  55.4922898  59.1309198  71.0238830  57.4011226
  59.0989198  70.8108830  58.6171226  60.0319198  70.4768830  56.5881226
  59.9869291  70.6864603  55.6011309  61.0599198  69.5558830  57.0521226
  61.1022554  69.5764198  58.1411061  60.7609198  68.1238830  56.6011226
  60.7654992  68.0599779  55.5130075  61.5082298  67.4424882  57.0077290
  59.4249198  67.6158830  57.0551226  58.2609198  68.0948830  56.4841226
  58.3274151  68.8459605  55.6970007  57.0329198  67.6378830  56.8951226
  56.1237959  68.0280715  56.4375776  56.9509198  66.6868830  57.8851226
  55.9772311  66.3239146  58.2141884  58.1009198  66.1928830  58.4611226
  58.0395658  65.4361573  59.2432365  59.3319198  66.6578830  58.0461226
  60.2429901  66.2691721  58.5010452  62.4079198  70.0078830  56.5171226
  62.5599198  70.2158830  55.3091226  63.3859198  70.1428830  57.4131226
  63.1982342  69.9250584  58.3813302  64.7049198  70.6538830  57.0631226
  64.7766329  70.7735749  55.9820906  64.9539198  72.0098830  57.7221226
  65.0687395  71.8400103  58.7926640  65.8910274  72.3862765  57.3119310
  63.8589198  73.0238830  57.4881226  62.6729198  72.9678830  58.2001226
  62.5395154  72.1730219  58.9339473  61.6729198  73.8908830  57.9961226
  60.7435466  73.8299848  58.5623900  61.8509198  74.8938830  57.0731226
  60.8549198  75.8188830  56.8671226  60.0838573  75.6690534  57.4190406
  63.0189198  74.9758830  56.3551226  63.1605896  75.7700706  55.6221177
  64.0169198  74.0448830  56.5661226  64.9478019  74.1065462  56.0024239
  65.7969198  69.6668830  57.4571226  66.8599198  70.0688830  57.9381226
  65.5489198  68.3768830  57.2611226  64.6503229  68.0874336  56.9021767
  66.5279198  67.3468830  57.5851226  66.7225590  67.3413737  58.6575891
  66.0319198  65.9508830  57.1681226  65.9087742  65.9286291  56.0853298
  67.0289198  64.8798830  57.5871226  67.1522451  64.9012181  58.6699131
  66.6598377  63.9003291  57.2832284  67.9896886  65.0700227  57.1087182
  64.7639198  65.6868830  57.7801226  64.4573611  64.8156858  57.5181348
  67.8619198  67.6268830  56.9011226  67.9049198  67.9638830  55.7181226
  68.9589198  67.5088830  57.5701226  68.9607603  67.2338843  58.5419619
  70.2339198  67.7738830  56.9271226  70.0655312  68.0570620  55.8881060
  70.7416386  68.5863804  57.4469014  70.8528535  66.8773748  56.9630961
  26.5289525  42.3035154  48.8201984  26.7139198  41.9088830  47.8211226
  27.4019832  42.5676602  47.2913306  25.7734638  41.8502139  47.2732180
  27.3229198  40.5248830  47.8861226  27.5509198  39.9798830  48.9741226
  27.6089198  39.9048830  46.7921226  27.4072848  40.3056548  45.8872333
  28.1959198  38.5718830  46.8421226  28.6570677  38.4076485  47.8160162
  27.1219198  37.5058830  46.6241226  26.3402835  37.6828354  47.3629269
  26.7169908  37.6589623  45.6237730  27.6269198  36.0768830  46.7531226
  28.4220826  35.9164819  46.0250510  28.0224312  35.9367516  47.7591226
  26.5379198  35.0518830  46.5141226  25.3689198  35.3978830  46.3481226
  26.9179198  33.7808830  46.4921226  26.2332013  33.0548897  46.3365724
  27.8901617  33.5451855  46.6310247  29.2939198  38.4268830  45.7951226
  29.0989198  37.7768830  44.7691226  30.4509198  39.0278830  46.0621226
  30.5704279  39.5355886  46.9270227  31.5509198  39.0208830  45.1081226
  31.2905765  38.3839842  44.2627348  31.8499198  40.4288830  44.5861226
  32.7516371  40.4061888  43.9741667  31.0115892  40.7793774  43.9840797
  32.1379198  41.6718830  45.8661226  32.7799198  38.4238830  45.7751226
  32.8499198  38.2978830  46.9981226  33.7529198  38.0548830  44.9471226
  33.6026477  38.1359801  43.9516625  35.0169198  37.5048830  45.4111226
  35.0272782  37.4998689  46.5010615  35.2269198  36.0748830  44.9141226
  34.5150422  35.4109864  45.4046028  35.0734642  36.0383031  43.8355989
  36.8869198  35.4458830  45.2511226  36.1689198  38.3768830  44.9381226
  36.1719198  38.8558830  43.8001226  37.1249198  38.5998830  45.8411226
  36.9299559  38.3485121  46.7997159  38.3899198  39.2788830  45.5441226
  38.8062663  39.7007086  46.4589001  39.4159198  38.3108830  44.9391226
  39.3779138  37.3795079  45.5040971  39.1389198  38.0248830  43.4721226
  39.1772180  38.9557876  42.9063934  39.8905355  37.3354537  43.0875969
  38.1500923  37.5780348  43.3689363  40.7279198  38.8758830  45.0551226
  41.3710783  38.2716638  44.6771457  38.1959198  40.4978830  44.6441226
  39.0579198  40.8288830  43.8281226  37.0689198  41.1898830  44.7981226
  36.2846662  40.8013373  45.3021840  36.9179198  42.5048830  44.1951226
  37.8018990  43.1050596  44.4106867  36.7529198  42.4068830  42.6851226
  36.6710886  43.4143094  42.2770846  37.6334645  41.9173447  42.2690779
  35.5959198  41.6648830  42.3451226  35.5151351  41.6180561  41.3896746
  35.7279198  43.2238830  44.8081226  34.9829198  42.6658830  45.6171226
  35.5689198  44.4848830  44.4001226  36.1991096  44.8821705  43.7181236
  34.5299198  45.3378830  44.9591226  34.3983176  45.1608850  46.0265737
  34.8839198  46.8138830  44.7251226  34.9248727  47.0036378  43.6525480
  33.8379198  47.7178830  45.3601226  33.7967109  47.5290195  46.4328449
  34.1035666  48.7604482  45.1852218  32.8629966  47.5127833  44.9179031
  36.2759198  47.1248830  45.2801226  36.2042629  47.0988733  46.3674540
  36.9439294  46.3329265  44.9414968  36.8209198  48.4628830  44.8441226
  36.1536376  49.2554257  45.1828120  37.8100243  48.6115399  45.2773344
  36.8933019  48.4894795  43.7568539  33.1899198  44.9868830  44.3341226
  33.1189198  44.5438830  43.1811226  32.1149198  45.1808830  45.0961226
  32.2251327  45.3789112  46.0803671  30.7679198  45.0608830  44.5641226
  30.7378369  45.5061581  43.5696759  30.3179198  43.5988830  44.4601226
  29.2884533  43.5595008  44.1041072  30.9641504  43.0681329  43.7609872
  30.3639198  42.6498830  45.9861226  29.8009198  45.8448830  45.4381226
  30.0939198  46.1558830  46.5951226  28.6479198  46.1678830  44.8611226
  28.5288601  45.9050584  43.8932138  27.5869198  46.9368830  45.5051226
  26.8051924  47.1551287  44.7775442  26.9669198  46.1608830  46.6721226
  26.5941386  45.2070162  46.2989315  27.7379493  45.9810414  47.4213025
  25.9009198  46.8878830  47.2571226  25.5297848  46.3823650  47.9839721
  28.0609198  48.3008830  45.9891226  27.3709198  48.9408830  46.7931226
  29.2179198  48.7648830  45.5251226  29.7983993  48.1961430  44.9253913
  29.7049198  50.0778830  45.9111226  29.5189130  50.2471162  46.9717172
  31.2089198  50.1768830  45.6571226  31.6208006  49.3557191  46.2437600
  31.3573482  49.9750775  44.5963005  31.9209198  51.4798830  46.0331226
  31.5295493  52.2789921  45.4035556  31.7079198  51.8348830  47.4891226
  32.0994825  51.0363996  48.1193620  32.2284846  52.7650983  47.7167461
  30.6421952  51.9591435  47.6811927  33.4039198  51.3538830  45.7481226
  33.5548503  51.1537161  44.6873434  33.9063486  52.2830343  46.0170918
  33.8187837  50.5341388  46.3346432  28.9529198  51.1638830  45.1451226
  28.2409198  50.8978830  44.1751226  29.0909198  52.4018830  45.6171226
  29.5788192  52.5423777  46.4902290  28.5069198  53.5618830  44.9581226
  27.9869957  53.2536088  44.0510696  27.4989198  54.2458830  45.8931226
  26.6363431  53.5832553  45.9637295  27.9702063  54.3335134  46.8720557
  27.0479198  55.6118830  45.4271226  27.7179198  56.7588830  45.8301226
  28.5785936  56.6588942  46.4914412  27.3129198  58.0088830  45.4091226
  27.8521087  58.9004700  45.7292003  26.2199198  58.1258830  44.5791226
  25.8139198  59.3718830  44.1611226  26.3615498  60.0804523  44.5069990
  25.5349198  57.0038830  44.1681226  24.6699192  57.0961626  43.5113434
  25.9499198  55.7558830  44.5931226  25.4113870  54.8640623  44.2725942
  29.5529198  54.5668830  44.4981226  29.5619198  54.9528830  43.3261226
  30.4479198  54.9998830  45.3851226  30.4400546  54.6369849  46.3276418
  31.4189198  56.0378830  45.0511226  31.4948190  56.1293408  43.9676218
  31.0009198  57.3898830  45.6271226  30.0545655  57.6618007  45.1596040
  30.8503402  57.2524678  46.6978900  32.0139198  58.4948830  45.3971226
  32.8670759  58.3258459  46.0541249  32.3437493  58.4630727  44.3587091
  31.4479198  59.8698830  45.6831226  30.2789198  60.0108830  46.0411226
  32.2749198  60.8948830  45.5211226  31.9500880  61.8347285  45.6979733
  33.2254098  60.7304905  45.2217145  32.7919198  55.6338830  45.5691226
  32.9119198  55.0888830  46.6701226  33.8169198  55.9018830  44.7681226
  33.6241811  56.2501861  43.8398790  35.2029198  55.6888830  45.1501226
  35.3119169  55.8199788  46.2267064  35.6529198  54.2748830  44.7821226
  34.7880913  53.6681977  45.0506443  35.7905165  54.2521155  43.7010820
  36.9019198  53.7138830  45.4671226  36.7947995  53.8141477  46.5472027
  37.0759198  52.2488830  45.1101226  37.1835745  52.1478572  44.0301675
  37.9667665  51.8579184  45.6016910  36.2025457  51.6873478  45.4417795
  38.1469198  54.4978830  45.0971226  38.0267044  55.5371794  45.4029179
  39.0112851  54.0683397  45.6035477  38.2985467  54.4522183  44.0186872
  36.0789198  56.7188830  44.4501226  35.9909198  56.9048830  43.2351226
  36.9239198  57.4008830  45.2171226  37.0079549  57.2545760  46.2129297
  37.7339198  58.4408830  44.6021226  38.1915159  58.0570142  43.6903388
  36.8769198  59.6608830  44.2441226  37.5588694  60.4378839  43.8987048
  36.2237375  59.3609128  43.4246894  36.0399198  60.1958830  45.3861226
  35.2549579  59.4787115  45.6261240  36.6945968  60.3194478  46.2488096
  35.4289198  61.5468830  45.0731226  35.9709198  62.2608830  44.2041226
  34.4019198  61.8928830  45.6941226  34.0843487  62.7628755  45.4422480
  38.8689198  58.8698830  45.5171226  38.6479198  59.1828830  46.6871226
  34.1027151  61.2314135  46.3221462  35.5231737  63.1010365  44.0774794
  36.7405086  61.8481803  43.8062198  40.0759198  58.9008830  44.9631226
  40.2611423  58.3911405  44.1110929  41.1699198  59.6348830  45.5791226
  41.1773750  59.4506235  46.6534094  42.5099198  59.1918830  44.9991226
  42.4677584  58.1207311  44.8017517  42.6817032  59.7264643  44.0648778
  43.6669198  59.4658830  45.9321226  43.5979198  60.3598830  46.7731226
  44.7389198  58.6978830  45.7881226  45.5408691  58.8381947  46.3858598
  44.7482216  57.9763748  45.0814118  40.9389198  61.1208830  45.3371226
  39.9459198  61.5038830  44.7111226  41.8449198  61.9608830  45.8311226
  42.6449702  61.6240614  46.3474266  41.6809198  63.3988830  45.6731226
  41.5027236  63.6350016  44.6240309  40.4919198  63.9028830  46.4971226
  39.7479117  63.1067252  46.4709680  40.8366182  64.0438302  47.5215331
  39.8739198  65.1858830  45.9931226  40.5609198  66.3888830  46.0661226
  41.5648079  66.3966260  46.4906789  39.9939198  67.5638830  45.6121226
  40.5473562  68.5012373  45.6684860  38.7209198  67.5458830  45.0841226
  38.1509198  68.7128830  44.6331226  38.7261787  69.4747791  44.7340739
  38.0159198  66.3648830  45.0071226  37.0090132  66.3499165  44.5899707
  38.5919198  65.1958830  45.4621226  38.0383649  64.2584756  45.4078592
  42.9569198  64.1058830  46.1011226  43.5759198  63.7228830  47.0971226
  43.3369198  65.1338830  45.3491226  42.8359291  65.3315499  44.4947015
  44.4909198  65.9628830  45.6821226  44.3075621  66.4783938  46.6248462
  45.7579198  65.1158830  45.8261226  46.6347510  65.7615049  45.7767400
  45.7422874  64.5979241  46.7850670  45.9839198  63.8308830  44.5851226
  44.6989198  67.0378830  44.6231226  44.6349198  66.7608830  43.4251226
  44.9439198  68.2518830  44.9851226  45.0022711  68.5144103  45.9586594
  45.1439198  69.2818830  43.9811226  45.0504165  68.8442329  42.9872312
  44.3933124  70.0623320  44.1059766  46.1383600  69.7132818  44.0955070
  29.9461506  25.3332509  51.3920828  29.7679198  25.5608830  50.3411226
  29.0371964  26.3657955  50.2620184  29.3862369  24.6734472  49.8362713
  31.0439198  25.9968830  49.6541226  32.1129198  26.0608830  50.2761226
  31.0179198  26.3058830  48.4021226  30.1720270  26.2314840  47.8552867
  32.2399198  26.7268830  47.7301226  32.9628916  27.0793869  48.4657528
  32.8569198  25.5598830  46.9591226  32.7327852  24.6379857  47.5272733
  32.3797809  25.4527509  45.9849762  34.3239198  25.7108830  46.7031226
  34.9379198  26.9378830  46.5801226  34.4625457  27.8264005  46.6483563
  36.2279198  26.7628830  46.3621226  36.8902280  27.6189316  46.2331747
  36.4749198  25.4658830  46.3431226  37.3762670  25.0341260  46.1973184
  35.3009198  24.7858830  46.5551226  35.2985068  23.6960911  46.5763118
  31.9419198  27.8898830  46.7911226  31.1229198  27.7668830  45.8821226
  32.6039198  29.0228830  47.0251226  33.2384559  29.0844190  47.8084977
  32.3949198  30.2128830  46.2101226  31.6447479  30.0120428  45.4452667
  31.9069198  31.3728830  47.0811226  30.9794401  30.9988759  47.5147116
  32.6412791  31.5259598  47.8719348  31.6379198  32.7028830  46.3701226
  31.3488351  32.5022726  45.3384800  30.5239198  33.4608830  47.0691226
  30.8124873  33.6622765  48.1007564  30.3449210  34.4034733  46.5518376
  29.6132764  32.8619738  47.0574233  32.8919198  33.5598830  46.3051226
  33.6692773  33.0263788  45.7581418  32.6666401  34.4962515  45.7946677
  33.2402175  33.7723462  47.3158882  33.6719198  30.5968830  45.4751226
  33.6499198  30.8258830  44.2621226  34.7879198  30.6678830  46.1971226
  34.7566312  30.4624558  47.1855153  36.0559198  31.0828830  45.6191226
  36.0070688  30.9848450  44.5346406  36.3799198  32.5408830  45.9651226
  35.4996486  33.0164608  46.3976127  37.1986402  32.5709265  46.6840762
  36.8749198  33.5418830  44.5461226  37.1609198  30.1628830  46.1151226
  37.0369198  29.5088830  47.1531226  38.2529198  30.1288830  45.3591226
  38.3291199  30.7645704  44.5779732  39.3459198  29.2138830  45.6081226
  38.9310263  28.2963783  46.0254328  39.8271023  28.9938753  44.6551487
  40.3789198  29.7668830  46.5651226  40.0979198  30.6248830  47.4061226
  41.5999198  29.2608830  46.4271226  41.7797518  28.6045383  45.6808174
  42.6839198  29.5778830  47.3421226  42.2975865  30.1275929  48.2004144
  43.3449198  28.2928830  47.8421226  43.8113372  27.7888985  46.9956277
  44.1089607  28.5560046  48.5736337  42.3959198  27.4288830  48.4411226
  42.8361081  26.6319075  48.7455304  43.7209198  30.4758830  46.6731226
  43.7259198  30.6768830  45.4571226  44.6119198  31.0218830  47.4991226
  44.4787192  30.8942531  48.4921319  45.7239198  31.8568830  47.0511226
  46.2728031  32.2300491  47.9157458  46.6869198  31.0558830  46.1681226
  46.7274127  30.0183382  46.4997255  46.3587687  31.0922307  45.1293273
  48.0929198  31.5678830  46.1911226  49.1859198  30.7438830  46.0311226
  49.1351827  29.7455773  45.8865153  50.2919198  31.4638830  46.0971226
  51.2692338  30.9925657  45.9931210  49.9549198  32.7258830  46.2941226
  50.5926096  33.5038276  46.3849729  48.5859198  32.8178830  46.3571226
  48.1115277  33.7861820  46.5166545  45.2489198  33.1028830  46.3141226
  45.9569198  33.6238830  45.4461226  44.0579198  33.5908830  46.6421226
  43.4630950  33.1038739  47.2971836  43.5599198  34.8168830  46.0381226
  43.7050074  34.7831438  44.9583493  42.0699198  34.9838830  46.3251226
  42.0337646  35.2806555  47.3733202  41.6803951  35.7917529  45.7056739
  41.2189198  33.7298830  46.1211226  41.4914714  32.9894530  46.8731730
  39.7469198  34.0628830  46.2511226  39.4734978  34.8029631  45.4990450
  39.1550841  33.1595784  46.1032303  39.5514574  34.4660678  47.2447709
  41.5109198  33.0978830  44.7771226  42.5638765  32.8207301  44.7264496
  40.8949274  32.2073372  44.6522915  41.2845334  33.8098117  43.9833936
  44.3309198  36.0198830  46.5671226  44.7219198  36.0718830  47.7361226
  44.5489198  36.9938830  45.6891226  44.2098958  36.8889446  44.7435275
  45.3069198  38.1928830  46.0221226  45.3483882  38.3524506  47.0995815
  46.7489198  38.1238830  45.4781226  46.7145227  37.9757865  44.3987786
  47.4959198  39.4108830  45.7891226  47.5311336  39.5594326  46.8683788
  48.5114434  39.3456244  45.3985415  46.9815394  40.2516826  45.3237513
  47.4789198  36.9248830  46.0591226  46.9527794  36.0105583  45.7847348
  48.4945966  36.8912376  45.6649549  47.5138779  37.0113826  47.1451229
  44.5829198  39.4078830  45.4631226  44.0759198  39.3808830  44.3371226
  44.5329198  40.4708830  46.2581226  44.8424544  40.3720972  47.2144327
  44.0239198  41.7638830  45.8281226  44.0856158  41.8317369  44.7419879
  42.5669198  41.9618830  46.2481226  41.9984875  41.1215684  45.8495560
  42.5379818  41.9354174  47.3374170  41.9569198  43.2638830  45.7571226
  42.5667641  44.0971668  46.1061624  41.9590181  43.2442541  44.6673018
  40.5249198  43.4448830  46.2121226  40.1189198  42.7638830  47.1751226
  39.8059198  44.2678830  45.6071226  38.9123780  44.3145584  45.9543741
  44.8909198  42.8578830  46.4301226  45.4659198  42.6828830  47.5091226
  40.2666604  44.7149869  44.8934735  39.1988984  42.9337266  47.3921173
  40.7952926  42.1887564  47.5393564  44.9859198  43.9848830  45.7321226
  44.5166616  44.0542654  44.8404488  45.7809198  45.1168830  46.1831226
  45.6797048  45.2348236  47.2619853  47.2599198  44.9158830  45.8501226
  47.3784338  44.8053591  44.7722363  47.8303379  45.7798429  46.1911456
  47.6266422  44.0189806  46.3493020  45.2609198  46.3898830  45.5351226
  45.4839198  46.6208830  44.3431226  44.5829198  47.2158830  46.3241226
  44.4234380  46.9484160  47.2849172  44.0189198  48.4728830  45.8551226
  44.1031900  48.5317920  44.7699832  42.5409198  48.5768830  46.2371226
  42.0477986  47.8914961  45.5477928  42.4319547  48.2069259  47.2566119
  41.8999198  49.9588830  46.1261226  42.2978576  50.5967761  46.9153239
  42.1959198  50.5768830  44.7841226  41.7978506  49.9397446  43.9943794
  41.7302367  51.5606776  44.7259152  43.2740975  50.6779097  44.6599184
  40.4019198  49.8618830  46.3531226  40.2099453  49.4587384  47.3474664
  39.9565780  50.8533952  46.2714187  39.9622115  49.2037743  45.6036904
  44.8089198  49.6298830  46.4471226  44.9239198  49.7468830  47.6711226
  45.3489198  50.4788830  45.5781226  45.1991526  50.3213463  44.5917903
  46.1719198  51.6108830  45.9791226  46.3247832  51.5856007  47.0580539
  47.5369198  51.5698830  45.2911226  47.3660905  51.5549396  44.2146964
  48.0349919  52.4994834  45.5665627  48.4069198  50.3998830  45.6781226
  48.0729198  49.1098830  45.3011226  47.1628319  48.9499860  44.7229595
  48.8679198  48.0388830  45.6441226  48.5872844  47.0283679  45.3471296
  50.0209198  48.2488830  46.3651226  50.8179198  47.1808830  46.7071226
  50.4751353  46.3411475  46.3925709  50.3799198  49.5218830  46.7451226
  51.2925118  49.6904216  47.3168489  49.5769198  50.5878830  46.3981226
  49.8580330  51.5997119  46.6901461  45.4649198  52.9128830  45.6311226
  45.0849198  53.1298830  44.4761226  45.2949198  53.7698830  46.6311226
  45.4909588  53.4507924  47.5691254  44.8199198  55.1358830  46.4511226
  44.6093589  55.3109085  45.3960731  43.5429198  55.3868830  47.2521226
  43.7648885  54.8879729  48.1954772  43.4832970  56.4628458  47.4159798
  42.2049198  54.8788830  46.7091226  41.5184655  54.7259844  47.5418912
  41.6119198  55.8818830  45.7451226  42.2976468  56.0349652  44.9117901
  40.6608982  55.5057748  45.3680267  41.4491893  56.8288726  46.2597389
  42.3559198  53.5308830  46.0431226  42.7320952  52.8076585  46.7666817
  41.3873408  53.1994349  45.6688255  43.0573984  53.6118291  45.2127767
  45.9299198  56.0688830  46.9101226  45.9969198  56.4198830  48.0921226
  46.7949198  56.4698830  45.9801226  46.6252200  56.2768085  45.0033813
  48.0389198  57.1368830  46.3471226  48.0887133  57.3492518  47.4150736
  49.2589198  56.2798830  45.9581226  49.2807546  56.1646840  44.8744475
  50.5459198  56.9448830  46.4231226  50.5250199  57.0600084  47.5068247
  51.3977790  56.3264484  46.1403241  50.6383056  57.9252927  45.9558290
  49.1409198  54.8788830  46.5341226  48.2398703  54.4017280  46.1487201
  50.0134780  54.2924588  46.2462886  49.0846339  54.9359542  47.6211717
  48.1349198  58.5118830  45.7031226  48.5819198  58.6468830  44.5591226
  47.7229198  59.5408830  46.4361226  47.1306104  59.3980931  47.2416535
  48.0819198  60.9038830  46.0771226  48.1101796  61.0033794  44.9920415
  47.0599198  61.8928830  46.6311226  46.6995286  61.5405881  47.5976141
  47.5277697  62.8698581  46.7525150  45.5939198  62.1208830  45.6041226
  49.4699198  61.2178830  46.6181226  49.6229198  61.7108830  47.7381226
  50.4839198  60.9278830  45.8101226  50.3016655  60.7008528  44.8429928
  51.8549198  60.9248830  46.2681226  51.9194720  60.2735469  47.1397266
  52.4782287  60.5241294  45.4687592  52.3609198  62.3038830  46.6441226
  51.6079198  63.2288830  46.9491226  53.6869198  62.4278830  46.6141226
  54.2433409  61.6518235  46.2851447  54.3769198  63.6208830  47.0881226
  54.2234384  63.7405859  48.1606028  55.8769198  63.4968830  46.8201226
  56.0047406  63.3924550  45.7426924  56.3419643  64.4250194  47.1523823
  56.5329198  62.3228830  47.5231226  56.2961781  62.3668378  48.5861947
  56.1221384  61.4073517  47.0974933  58.0359198  62.2888830  47.3281226
  58.6019198  63.3068830  46.8811226  58.6509198  61.2428830  47.6231226
  59.5953082  61.3029877  47.4628199  53.8379198  64.8898830  46.4401226
  53.6409198  64.9418830  45.2221226  58.0756683  60.5516541  47.9589311
  59.5504738  63.1943423  46.7813589  57.9949494  64.0317784  46.7167124
  53.5959198  65.9158830  47.2521226  53.6985912  65.7759498  48.2470983
  53.1549198  67.2218830  46.7801226  53.3499282  67.3039843  45.7108564
  51.6589198  67.4268830  47.0211226  51.4899571  67.3115237  48.0917500
  51.4257693  68.4496950  46.7251554  50.7639198  66.4638830  46.2611226
  51.0470342  66.4867244  45.2087798  50.9209357  65.4606767  46.6573867
  49.2979198  66.8388830  46.3991226  48.6985302  66.1562692  45.7967360
  49.0059111  66.7511404  47.4456080  49.0399198  68.2028830  45.9551226
  49.8182210  68.7098066  45.5584173  47.8639198  68.8108830  46.0361226
  46.8039198  68.2038830  46.5451226  46.8825746  67.2551437  46.8824759
  45.9211242  68.6921368  46.5939068  47.7489198  70.0608830  45.5971226
  48.5531646  70.5324331  45.2086244  46.8578628  70.5329592  45.6542209
  53.9589198  68.2918830  47.5011226  54.4599198  68.0548830  48.6051226
  54.0869198  69.4488830  46.8831226  53.7106740  69.5692516  45.9535798
  54.7599198  70.5718830  47.5021226  54.1821076  71.4792688  47.3263862
  54.8417405  70.3958845  48.5747033  56.1529198  70.7528830  46.9231226
  56.3969198  70.4438830  45.7591226  57.0479198  71.2528830  47.7711226
  56.7680795  71.4000272  48.7303605  58.3999198  71.6308830  47.3801226
  58.5006941  71.5552833  46.2974276  58.7119198  73.0688830  47.8011226
  58.6627977  73.1765163  48.8846822  59.7126334  73.3284574  47.4557338
  57.7779198  74.0958830  47.2241226  56.4329198  74.0988830  47.5521226
  56.0519628  73.3395343  48.2350290  55.5779198  75.0458830  47.0271226
  54.5194952  75.0282690  47.2869837  56.0609198  76.0118830  46.1761226
  55.3885503  76.7637501  45.7629459  57.3979198  76.0278830  45.8461226
  57.7830712  76.7910232  45.1698272  58.2509198  75.0768830  46.3721226
  59.3104273  75.0941886  46.1166931  59.3819198  70.6648830  48.0251226
  59.3399198  70.4538830  49.2411226  60.2589198  70.0798830  47.2121226
  60.2241454  70.2913493  46.2251210  61.2459198  69.1158830  47.6771226
  61.2878861  69.1348776  48.7661484  60.8869198  67.6978830  47.2261226
  60.8897692  67.6347203  46.1379583  61.6038053  66.9846050  47.6328286
  59.5309198  67.2478830  47.6781226  58.3879198  67.7758830  47.1081226
  58.4863851  68.5244954  46.3220031  57.1419198  67.3708830  47.5181226
  56.2505526  67.7991727  47.0597198  57.0189198  66.4248830  48.5071226
  56.0301970  66.1040668  48.8351534  58.1459198  65.8818830  49.0841226
  58.0517003  65.1283698  49.8660694  59.3959198  66.2938830  48.6701226
  60.2892048  65.8667201  49.1258347  62.6129198  69.5098830  47.1421226
  62.7749198  69.7118830  45.9351226  63.5949198  69.6028830  48.0391226
  63.3976487  69.3924245  49.0070537  64.9349198  70.0578830  47.6901226
  65.0119157  70.1750072  46.6091727  65.2419198  71.4018830  48.3501226
  65.3479370  71.2267472  49.4207239  66.1947234  71.7383873  47.9414295
  64.1909198  72.4618830  48.1151226  63.0019198  72.4558830  48.8261226
  62.8331431  71.6664669  49.5585406  62.0429198  73.4218830  48.6221226
  61.1126247  73.4021155  49.1898041  62.2639198  74.4158830  47.7001226
  61.3079198  75.3818830  47.4921226  60.5302106  75.2646337  48.0425958
  63.4349198  74.4478830  46.9821226  63.6109928  75.2348883  46.2488277
  64.3919198  73.4748830  47.1941226  65.3250848  73.4964550  46.6312391
  65.9839198  69.0258830  48.0841226  67.0629198  69.3818830  48.5661226
  65.6809198  67.7468830  47.8891226  64.7704914  67.4957000  47.5311748
  66.6149198  66.6768830  48.2131226  66.8100745  66.6629099  49.2854185
  66.0609198  65.3028830  47.7961226  65.9367076  65.2866708  46.7133444
  67.0109198  64.1898830  48.2141226  67.1352720  64.2051696  49.2968980
  66.6000087  63.2273043  47.9096664  67.9788750  64.3388687  47.7356181
  64.7819198  65.0928830  48.4071226  64.4391010  64.2352935  48.1451762
  67.9599198  66.8998830  47.5301226  68.9159198  67.3578830  48.1551226
  68.0969198  66.6048830  46.2821226  67.3882419  66.8362720  45.6007019
  69.2949198  65.9218830  45.8251226  69.9575521  65.7435724  46.6720136
  69.0202790  64.9691226  45.3724409  69.8070544  66.5397764  45.0875416
  27.0450116  41.7712319  53.5447695  27.2379198  41.3818830  52.5451226
  27.9110516  42.0561682  52.0156594  26.2986154  41.3032663  51.9977418
  27.8769198  40.0118830  52.6081226  28.1179198  39.4698830  53.6951226
  28.1749198  39.3988830  51.5131226  27.9624562  39.7955674  50.6089102
  28.7909198  38.0778830  51.5611226  29.2578320  37.9230929  52.5338159
  27.7389198  36.9888830  51.3451226  26.9551053  37.1488497  52.0854906
  27.3287415  37.1330133  50.3455826  28.2749198  35.5718830  51.4731226
  29.0719663  35.4302199  50.7432259  28.6753302  35.4384048  52.4780888
  27.2079198  34.5238830  51.2341226  26.0309198  34.8448830  51.0711226
  27.6159198  33.2608830  51.2111226  26.9472011  32.5201282  51.0555615
  28.5931868  33.0464983  51.3492880  29.8899198  37.9578830  50.5131226
  29.7069198  37.3038830  49.4871226  31.0329198  38.5838830  50.7771226
  31.1414975  39.0953774  51.6412312  32.1319198  38.6008830  49.8221226
  31.8849933  37.9584237  48.9769170  32.3989198  40.0148830  49.3001226
  33.2992295  40.0119423  48.6856854  31.5515576  40.3474368  48.7005517
  32.6619198  41.2628830  50.5801226  33.3749198  38.0298830  50.4871226
  33.4489198  37.9048830  51.7101226  34.3539198  37.6828830  49.6571226
  34.2011074  37.7626431  48.6619412  35.6299198  37.1588830  50.1191226
  35.6414367  37.1528380  51.2090446  35.8699198  35.7338830  49.6201226
  35.1743278  35.0540740  50.1121702  35.7140378  35.6947948  48.5420350
  37.5439198  35.1408830  49.9541226  36.7619198  38.0568830  49.6441226
  36.7529198  38.5358830  48.5061226  37.7149198  38.2998830  50.5451226
  37.5272446  38.0440194  51.5039819  38.9639198  39.0058830  50.2461226
  39.3725426  39.4367574  51.1601652  40.0099198  38.0608830  49.6391226
  39.9933915  37.1288453  50.2040410  39.7369198  37.7688830  48.1721226
  39.7537495  38.7004568  47.6064490  40.5029775  37.0962626  47.7863293
  38.7580450  37.3003055  48.0704372  41.3089198  38.6538830  49.7531226
  41.9644026  38.0639021  49.3738271  38.7419198  40.2208830  49.3471226
  39.5959198  40.5708830  48.5301226  37.6009198  40.8878830  49.5041226
  36.8260920  40.4829691  50.0098755  37.4209198  42.1998830  48.9011226
  38.2925301  42.8182931  49.1155137  37.2549198  42.0998830  47.3911226
  37.1492117  43.1055710  46.9842852  38.1453312  41.6308709  46.9724398
  36.1139198  41.3318830  47.0531226  36.0318620  41.2841265  46.0978291
  36.2169198  42.8928830  49.5171226  35.4849198  42.3188830  50.3261226
  36.0299198  44.1498830  49.1091226  36.6488684  44.5607266  48.4248642
  34.9739198  44.9798830  49.6711226  34.8483661  44.7995185  50.7387387
  35.2949198  46.4638830  49.4371226  35.3298104  46.6546400  48.3645114
  34.2309198  47.3448830  50.0741226  34.1957543  47.1550115  51.1468821
  34.4736679  48.3929690  49.8989375  33.2598497  47.1188410  49.6336376
  36.6809198  46.8048830  49.9891226  36.6117340  46.7767424  51.0765610
  37.3647460  46.0272666  49.6488376  37.1969198  48.1538830  49.5531226
  36.5138087  48.9321006  49.8934703  38.1834599  48.3229353  49.9847001
  37.2668185  48.1826254  48.4657460  33.6399198  44.6008830  49.0481226
  33.5769198  44.1568830  47.8941226  32.5629198  44.7718830  49.8121226
  32.6705927  44.9722398  50.7961770  31.2169198  44.6228830  49.2821226
  31.1751919  45.0678855  48.2879744  30.7989198  43.1508830  49.1781226
  29.7697215  43.0890147  48.8245375  31.4550295  42.6349911  48.4770693
  30.8689198  42.2028830  50.7031226  30.2359198  45.3848830  50.1581226
  30.5229198  45.7018830  51.3151226  29.0739198  45.6828830  49.5831226
  28.9581913  45.4173434  48.6155509  27.9989198  46.4288830  50.2291226
  27.2111671  46.6309971  49.5033852  27.3979198  45.6388830  51.3971226
  27.0452674  44.6772290  51.0243532  28.1738136  45.4756538  52.1450832
  26.3169198  46.3428830  51.9841226  25.9579224  45.8293679  52.7114622
  28.4429198  47.8028830  50.7131226  27.7419198  48.4278830  51.5181226
  29.5889198  48.2918830  50.2481226  30.1805798  47.7350052  49.6481852
  30.0489198  49.6148830  50.6331226  29.8607685  49.7802774  51.6939444
  31.5499198  49.7458830  50.3771226  31.9791197  48.9338044  50.9639914
  31.7019903  49.5466317  49.3163335  32.2349198  51.0638830  50.7521226
  31.8261064  51.8546754  50.1231395  32.0159198  51.4138830  52.2081226
  32.4249128  50.6237200  52.8377781  32.5168990  52.3548562  52.4354768
  30.9479918  51.5155109  52.4012597  33.7189198  50.9698830  50.4641226
  33.8718850  50.7733554  49.4029544  34.2018558  51.9095134  50.7323925
  34.1525105  50.1590356  51.0494640  29.2729198  50.6838830  49.8691226
  28.5649198  50.4028830  48.8991226  29.3839198  51.9248830  50.3411226
  29.8685590  52.0749889  51.2144452  28.7749198  53.0728830  49.6831226
  28.2605817  52.7548092  48.7762684  27.7529198  53.7338830  50.6211226
  26.9048782  53.0527886  50.6920812  28.2230925  53.8310494  51.5996911
  27.2719198  55.0908830  50.1561226  27.9179198  56.2508830  50.5581226
  28.7823173  56.1691272  51.2170858  27.4849198  57.4918830  50.1391226
  28.0050610  58.3946602  50.4593540  26.3889198  57.5858830  49.3111226
  25.9549198  58.8228830  48.8941226  26.4873253  59.5432307  49.2394386
  25.7269198  56.4498830  48.9001226  24.8593346  56.5239541  48.2444475
  26.1689198  55.2108830  49.3241226  25.6485800  54.3079631  49.0046194
  29.7969198  54.0998830  49.2221226  29.7959198  54.4868830  48.0501226
  30.6839198  54.5508830  50.1081226  30.6862230  54.1871194  51.0503381
  31.6329198  55.6108830  49.7721226  31.7047607  55.7049114  48.6885652
  31.1859198  56.9528830  50.3501226  30.2331845  57.2047143  49.8843161
  31.0400751  56.8116089  51.4210432  32.1749198  58.0798830  50.1191226
  33.0331658  57.9301906  50.7741850  32.5029805  58.0551938  49.0799553
  31.5789198  59.4418830  50.4061226  30.4079198  59.5578830  50.7661226
  32.3839198  60.4848830  50.2441226  32.0390361  61.4174556  50.4215065
  33.3375897  60.3410855  49.9442272  33.0139198  55.2358830  50.2881226
  33.1479198  54.6928830  51.3881226  34.0319198  55.5268830  49.4851226
  33.8303575  55.8717742  48.5574793  35.4229198  55.3438830  49.8651226
  35.5306254  55.4771047  50.9415754  35.9029198  53.9398830  49.4961226
  35.0514014  53.3157050  49.7670794  36.0381885  53.9194980  48.4147407
  37.1649198  53.4048830  50.1781226  37.0580723  53.5024838  51.2584737
  37.3689198  51.9438830  49.8201226  37.4763179  51.8455325  48.7398950
  38.2688604  51.5715588  50.3095941  36.5082711  51.3639885  50.1534493
  38.3919198  54.2158830  49.8071226  38.2499284  55.2519193  50.1146396
  39.2662311  53.8043155  50.3113975  38.5425580  54.1750165  48.7283562
  36.2749198  56.3928830  49.1631226  36.1809198  56.5768830  47.9491226
  37.1069198  57.0918830  49.9301226  37.1967566  56.9464678  50.9255537
  37.8929198  58.1488830  49.3141226  38.3568255  57.7752053  48.4012942
  37.0089198  59.3508830  48.9581226  37.6734339  60.1422834  48.6114159
  36.3605903  59.0371423  48.1399932  36.1629198  59.8678830  50.1021226
  35.3943037  59.1335326  50.3430785  36.8158453  60.0058056  50.9639606
  35.5219198  61.2048830  49.7901226  36.0469198  61.9308830  48.9211226
  34.4889198  61.5278830  50.4131226  34.1515753  62.3906103  50.1619664
  39.0199198  58.6028830  50.2271226  38.7939198  58.9098830  51.3971226
  34.2057683  60.8598990  51.0416936  35.5804563  62.7609021  48.7952136
  36.8251318  61.5355614  48.5223446  40.2259198  58.6608830  49.6711226
  40.4202175  58.1567186  48.8177962  41.3039198  59.4168830  50.2851226
  41.3174594  59.2315849  51.3591713  42.6519198  59.0038830  49.7021226
  42.6331779  57.9321738  49.5041643  42.8107612  59.5426567  48.7679961
  43.8039198  59.3028830  50.6341226  43.7179198  60.1938830  51.4751226
  44.8929198  58.5578830  50.4881226  45.6924533  58.7152490  51.0848486
  44.9169134  57.8371290  49.7809884  41.0409198  60.8978830  50.0441226
  40.0389198  61.2598830  49.4201226  41.9289198  61.7568830  50.5371226
  42.7368388  61.4369317  51.0519015  41.7339198  63.1918830  50.3801226
  41.5484631  63.4247444  49.3315614  40.5359198  63.6698830  51.2071226
  39.8093552  62.8577089  51.1831143  40.8799679  63.8187696  52.2306282
  39.8889198  64.9388830  50.7041226  40.5499198  66.1558830  50.7761226
  41.5544111  66.1847654  51.1983339  39.9569198  67.3188830  50.3241226
  40.4896015  68.2682221  50.3798657  38.6839198  67.2728830  49.7981226
  38.0879198  68.4278830  49.3481226  38.6467214  69.2020097  49.4484626
  38.0039198  66.0778830  49.7221226  36.9964987  66.0417385  49.3075182
  38.6059198  64.9208830  50.1751226  38.0726898  63.9717749  50.1207202
  42.9949198  63.9258830  50.8061226  43.6239198  63.5548830  51.8011226
  43.3519198  64.9618830  50.0541226  42.8454600  65.1494634  49.2006524
  44.4869198  65.8148830  50.3861226  44.2936295  66.3250163  51.3297868
  45.7729198  64.9958830  50.5271226  46.6351855  65.6606339  50.4751290
  45.7712495  64.4781623  51.4863215  46.0249198  63.7168830  49.2851226
  44.6699198  66.8948830  49.3261226  44.4109198  68.0718830  49.5771226
  45.1009198  66.5718830  48.1541226  44.4810669  66.5115389  47.3589871
  46.5099198  66.2838830  47.9521226  47.0423513  66.3911614  48.8971669
  46.6238426  65.2638151  47.5852662  46.9226081  66.9802036  47.2221048
  30.8331314  24.8773237  56.1019258  30.6489198  25.1008830  55.0511226
  29.9004574  25.8893923  54.9726658  30.2865359  24.2051718  54.5466641
  31.9139198  25.5648830  54.3631226  32.9819198  25.6528830  54.9831226
  31.8789198  25.8748830  53.1111226  31.0338355  25.7828325  52.5657249
  33.0909198  26.3238830  52.4371226  33.8078530  26.6912304  53.1713990
  33.7309198  25.1698830  51.6641226  33.6270657  24.2453027  52.2319825
  33.2547425  25.0531806  50.6906054  35.1939198  25.3518830  51.4061226
  35.7809198  26.5928830  51.2831226  35.2865265  27.4708629  51.3525946
  37.0749198  26.4458830  51.0631226  37.7184628  27.3161659  50.9344411
  37.3499198  25.1538830  51.0421226  38.2598670  24.7414483  50.8938203
  36.1909198  24.4488830  51.2561226  36.2117912  23.3592854  51.2771636
  32.7659198  27.4798830  51.5001226  31.9479198  27.3388830  50.5911226
  33.4039198  28.6268830  51.7331226  34.0397368  28.7018861  52.5142824
  33.1669198  29.8118830  50.9191226  32.4193606  29.5944579  50.1562460
  32.6559198  30.9618830  51.7911226  31.7373148  30.5684837  52.2264400
  33.3883610  31.1304217  52.5805683  32.3579198  32.2848830  51.0811226
  32.0715661  32.0783184  50.0498935  31.2289198  33.0188830  51.7821226
  31.5147397  33.2262194  52.8133439  31.0290043  33.9575219  51.2653135
  30.3312664  32.4006510  51.7717285  33.5929198  33.1688830  51.0141226
  34.3808139  32.6523306  50.4659476  33.3465762  34.1001037  50.5039814
  33.9381065  33.3889311  52.0243324  34.4349198  30.2238830  50.1821226
  34.4059198  30.4538830  48.9681226  35.5499198  30.3188830  50.9021226
  35.5253631  30.1124529  51.8904965  36.8079198  30.7618830  50.3211226
  36.7586651  30.6634032  49.2366988  37.1009198  32.2258830  50.6671226
  36.2110896  32.6824333  51.1005547  37.9194745  32.2732190  51.3853339
  37.5719198  33.2378830  49.2481226  37.9339198  29.8648830  50.8151226
  37.8259198  29.2078830  51.8531226  39.0249198  29.8548830  50.0571226
  39.0859359  30.4921330  49.2759128  40.1379198  28.9638830  50.3041226
  39.7437500  28.0373054  50.7214755  40.6225275  28.7549498  49.3503922
  41.1599198  29.5388830  51.2601226  40.8619198  30.3898830  52.1011226
  42.3919198  29.0588830  51.1191226  42.5846871  28.4067967  50.3723137
  43.4699198  29.3988830  52.0321226  43.0729258  29.9400136  52.8910013
  44.1599198  28.1288830  52.5311226  44.6364412  27.6354782  51.6840227
  44.9187663  28.4087992  53.2618065  43.2309198  27.2438830  53.1311226
  43.6890283  26.4568317  53.4349099  44.4869198  30.3198830  51.3621226
  44.4849198  30.5218830  50.1461226  45.3669198  30.8848830  52.1861226
  45.2374958  30.7545414  53.1792791  46.4599198  31.7428830  51.7371226
  47.0021087  32.1267468  52.6012863  47.4379198  30.9638830  50.8521226
  47.5011889  29.9270986  51.1825381  47.1071580  30.9942819  49.8139643
  48.8329198  31.5058830  50.8731226  49.9439198  30.7058830  50.7111226
  49.9153147  29.7067781  50.5659645  51.0329198  31.4498830  50.7761226
  52.0198016  30.9991452  50.6712481  50.6699198  32.7038830  50.9731226
  51.2911628  33.4952279  51.0621736  49.2989198  32.7668830  51.0391226
  48.8044937  33.7248249  51.2003408  45.9569198  32.9788830  51.0021226
  46.6509198  33.5158830  50.1331226  44.7559198  33.4418830  51.3321226
  44.1728770  32.9417466  51.9878848  44.2309198  34.6558830  50.7301226
  44.3754183  34.6254041  49.6501734  42.7369198  34.7918830  51.0191226
  42.6943634  35.0884920  52.0671261  42.3293586  35.5904442  50.3992082
  41.9139198  33.5188830  50.8161226  42.2039441  32.7843183  51.5673891
  40.4349198  33.8198830  50.9491226  40.1440329  34.5540790  50.1978304
  39.8625480  32.9039867  50.8020671  40.2326830  34.2184297  51.9432862
  42.2169198  32.8948830  49.4711226  43.2757688  32.6417312  49.4177153
  41.6209916  31.9906941  49.3469719  41.9725484  33.6021429  48.6785539
  44.9759198  35.8748830  51.2571226  45.3679198  35.9358830  52.4261226
  45.1709198  36.8548830  50.3801226  44.8311454  36.7437468  49.4355055
  45.9049198  38.0698830  50.7121226  45.9454919  38.2287033  51.7897261
  47.3459198  38.0318830  50.1651226  47.3124645  37.8842256  49.0856888
  48.0659198  39.3348830  50.4761226  48.1001817  39.4830112  51.5554674
  49.0817944  39.2919619  50.0833670  47.5325491  40.1648843  50.0127489
  48.1029198  36.8488830  50.7441226  47.5959440  35.9234723  50.4708228
  49.1181408  36.8371783  50.3475260  48.1386017  36.9359715  51.8300523
  45.1529198  39.2688830  50.1551226  44.6449198  39.2318830  49.0301226
  45.0819198  40.3308830  50.9501226  45.3956509  40.2384933  51.9057042
  44.5439198  41.6118830  50.5221226  44.6026250  41.6816579  49.4359438
  43.0839198  41.7778830  50.9441226  42.5333264  40.9255195  50.5460990
  43.0570345  41.7505394  52.0334479  42.4449198  43.0668830  50.4541226
  43.0372830  43.9131835  50.8019473  42.4452435  43.0472777  49.3642994
  41.0099198  43.2168830  50.9121226  40.6209198  42.5268830  51.8761226
  40.2719198  44.0238830  50.3091226  39.3783660  44.0509509  50.6584192
  45.3889198  42.7238830  51.1231226  45.9679198  42.5608830  52.2011226
  40.7211500  44.4810907  49.5945373  39.6978979  42.6765875  52.0951935
  41.3104847  41.9665930  52.2387415  45.4579198  43.8528830  50.4251226
  44.9862239  43.9118548  49.5339859  46.2279198  45.0018830  50.8751226
  46.1253845  45.1162451  51.9542459  47.7109198  44.8338830  50.5401226
  47.8305877  44.7273157  49.4619654  48.2625649  45.7097806  50.8815773
  48.0978886  43.9446663  51.0377651  45.6799198  46.2638830  50.2291226
  45.8959198  46.4998830  49.0361226  44.9859198  47.0748830  51.0191226
  44.8342445  46.8035343  51.9800929  44.3939198  48.3188830  50.5521226
  44.4754268  48.3797934  49.4668827  42.9149198  48.3918830  50.9361226
  42.4348808  47.6961464  50.2479276  42.8166382  48.0194791  51.9558069
  42.2439198  49.7598830  50.8271226  42.6297993  50.4063011  51.6153748
  42.5239198  50.3838830  49.4841226  42.1378917  49.7382165  48.6953286
  42.0372270  51.3575024  49.4267109  43.5994345  50.5078677  49.3576463
  40.7489198  49.6288830  51.0561226  40.5675183  49.2205543  52.0503362
  40.2811938  50.6101672  50.9760291  40.3231062  48.9617347  50.3066595
  45.1599198  49.4928830  51.1431226  45.2749198  49.6118830  52.3671226
  45.6799198  50.3538830  50.2731226  45.5316950  50.1936861  49.2869859
  46.4789198  51.5028830  50.6731226  46.6340506  51.4803473  51.7517911
  47.8429198  51.4918830  49.9831226  47.6689247  51.4735667  48.9072558
  48.3222531  52.4316865  50.2571828  48.7389198  50.3398830  50.3671226
  48.4319198  49.0438830  49.9911226  47.5239967  48.8644515  49.4152931
  49.2509198  47.9898830  50.3321226  48.9920395  46.9735314  50.0352854
  50.3999198  48.2248830  51.0511226  51.2199198  47.1738830  51.3911226
  50.8944755  46.3272442  51.0766574  50.7329198  49.5048830  51.4311226
  51.6429447  49.6929268  52.0008546  49.9059198  50.5538830  51.0861226
  50.1652240  51.5713360  51.3787841  45.7439198  52.7888830  50.3271226
  45.3569198  52.9988830  49.1731226  45.5559198  53.6428830  51.3281226
  45.7607878  53.3282967  52.2657600  45.0509198  54.9968830  51.1491226
  44.8339906  55.1665868  50.0944940  43.7709198  55.2208830  51.9531226
  44.0051355  54.7268495  52.8960824  43.6879725  56.2952624  52.1172221
  42.4439198  54.6838830  51.4121226  41.7623695  54.5153091  52.2458929
  41.8269198  55.6748830  50.4491226  42.5077380  55.8436248  49.6147896
  40.8838177  55.2781246  50.0733009  41.6441652  56.6177041  50.9646705
  42.6229198  53.3398830  50.7451226  43.0159766  52.6246043  51.4676059
  41.6610906  52.9877072  50.3723519  43.3209987  53.4364590  49.9135831
  46.1419198  55.9538830  51.6061226  46.2039198  56.3068830  52.7891226
  46.9969198  56.3738830  50.6751226  46.8298410  56.1771358  49.6986624
  48.2269198  57.0678830  51.0401226  48.2733913  57.2789839  52.1084746
  49.4639198  56.2378830  50.6481226  49.4866220  56.1246051  49.5642629
  50.7369198  56.9298830  51.1121226  50.7151539  57.0431076  52.1960079
  51.6015087  56.3303555  50.8272485  50.8074233  57.9126714  50.6460133
  49.3779198  54.8338830  51.2251226  48.4864506  54.3371196  50.8422246
  50.2622695  54.2665119  50.9350965  49.3232922  54.8900177  52.3123050
  48.2919198  58.4448830  50.3971226  48.7339198  58.5898830  49.2521226
  47.8589198  59.4648830  51.1311226  47.2714807  59.3088026  51.9377536
  48.1869198  60.8348830  50.7721226  48.2106566  60.9348039  49.6869721
  47.1459198  61.8018830  51.3281226  46.7956649  61.4425529  52.2957499
  47.5931795  62.7886679  51.4477645  45.6729198  61.9978830  50.3041226
  49.5689198  61.1788830  51.3101226  49.7139198  61.6748830  52.4311226
  50.5879198  60.9108830  50.5011226  50.4089919  60.6803199  49.5342075
  51.9599198  60.9368830  50.9571226  52.0397589  60.2873140  51.8287791
  52.5904615  60.5493789  50.1568995  52.4369198  62.3268830  51.3321226
  51.6639198  63.2348830  51.6391226  53.7599198  62.4798830  51.3001226
  54.3329809  61.7161063  50.9709640  54.4239198  63.6878830  51.7731226
  54.2693583  63.8046511  52.8457713  55.9259198  63.5958830  51.5031226
  56.0540261  63.4950766  50.4253814  56.3710870  64.5337607  51.8352547
  56.6089198  62.4358830  52.2041226  56.3727203  62.4752265  53.2674959
  56.2171997  61.5116135  51.7794104  58.1119198  62.4338830  52.0071226
  58.6549198  63.4648830  51.5591226  58.7489198  61.4008830  52.3001226
  59.6916396  61.4809213  52.1387154  53.8569198  64.9448830  51.1271226
  53.6569198  64.9928830  49.9101226  58.1886896  60.6973948  52.6358687
  59.6055634  63.3733363  51.4577872  58.0318198  64.1762251  51.3958559
  53.5939198  65.9648830  51.9401226  53.7015044  65.8271747  52.9348896
  53.1239198  67.2608830  51.4691226  53.3149184  67.3470148  50.3994497
  51.6249198  67.4338830  51.7131226  51.4601974  67.3144642  52.7839657
  51.3690657  68.4514817  51.4179420  50.7499198  66.4518830  50.9541226
  51.0311144  66.4811073  49.9014231  50.9292815  65.4522577  51.3499517
  49.2759198  66.7948830  51.0941226  48.6908488  66.1002500  50.4913989
  48.9869369  66.6994390  52.1407738  48.9879198  68.1538830  50.6521226
  49.7545079  68.6782491  50.2552823  47.7989198  68.7358830  50.7351226
  46.7539198  68.1058830  51.2451226  46.8539307  67.1589671  51.5819432
  45.8606706  68.5745776  51.2954309  47.6559198  69.9828830  50.2971226
  48.4490627  70.4721860  49.9077552  46.7547925  70.4352463  50.3557380
  53.9059198  68.3478830  52.1891226  54.4149198  68.1218830  53.2921226
  54.0079198  69.5078830  51.5711226  53.6277406  69.6208645  50.6422532
  54.6579198  70.6448830  52.1901226  54.0611501  71.5401389  52.0155319
  54.7449866  70.4703220  53.2625251  56.0459198  70.8548830  51.6091226
  56.2949198  70.5528830  50.4441226  56.9309198  71.3748830  52.4551226
  56.6491248  71.5167079  53.4145895  58.2739198  71.7818830  52.0621226
  58.3744942  71.7088281  50.9792344  58.5559198  73.2258830  52.4831226
  58.5064968  73.3315839  53.5668587  59.5501424  73.5073066  52.1361036
  57.5979198  74.2338830  51.9081226  56.2549198  74.2068830  52.2391226
  55.8923888  73.4392470  52.9227937  55.3779198  75.1348830  51.7161226
  54.3205118  75.0943166  51.9775485  55.8389198  76.1118830  50.8641226
  55.1498294  76.8491102  50.4521148  57.1749198  76.1568830  50.5321226
  57.5426505  76.9286553  49.8559260  58.0489198  75.2238830  51.0561226
  59.1073044  75.2636080  50.7985499  59.2779198  70.8368830  52.7051226
  59.2419198  70.6248830  53.9211226  60.1659198  70.2718830  51.8901226
  60.1246835  70.4828458  50.9032621  61.1749198  69.3288830  52.3531226
  61.2187925  69.3482161  53.4420673  60.8449198  67.9038830  51.9021226
  60.8472519  67.8401855  50.8139882  61.5781148  67.2068586  52.3079330
  59.4989198  67.4238830  52.3571226  58.3449198  67.9278830  51.7881226
  58.4260729  68.6784897  51.0019269  57.1079198  67.4958830  52.2001226
  56.2067860  67.9050755  51.7433731  57.0069198  66.5468830  53.1891226
  56.0261380  66.2044107  53.5190920  58.1479198  66.0278830  53.7641226
  58.0718672  65.2725656  54.5463066  59.3879198  66.4668830  53.3471226
  60.2913416  66.0581003  53.7996993  62.5309198  69.7528830  51.8161226
  62.6869198  69.9588830  50.6091226  63.5129198  69.8668830  52.7111226
  63.3219222  69.6517367  53.6792814  64.8419198  70.3508830  52.3601226
  64.9144932  70.4700581  51.2790909  65.1209198  71.7008830  53.0201226
  65.2323489  71.5267223  54.0903333  66.0655520  72.0585722  52.6104539
  64.0469198  72.7378830  52.7881226  62.8599198  72.7058830  53.5011226
  62.7098745  71.9133747  54.2342778  61.8789198  73.6508830  53.2981226
  60.9491808  73.6093789  53.8655419  62.0769198  74.6498830  52.3761226
  61.1009198  75.5948830  52.1711226  60.3271559  75.4608776  52.7233288
  63.2459198  74.7078830  51.6571226  63.4037249  75.4998531  50.9250152
  64.2249198  73.7548830  51.8661226  65.1557014  73.7965761  51.3004307
  65.9139198  69.3408830  52.7521226  66.9849198  69.7198830  53.2321226
  65.6379198  68.0558830  52.5561226  64.7333291  67.7850072  52.1977355
  66.5959198  67.0058830  52.8791226  66.7920473  66.9957020  53.9512838
  66.0709198  65.6208830  52.4621226  65.9456054  65.6024944  51.3795061
  67.0449198  64.5288830  52.8781226  67.1703941  64.5463492  53.9607355
  66.6544695  63.5577984  52.5737505  68.0087774  64.6989534  52.3983779
  64.7979198  65.3828830  53.0751226  64.4732165  64.5183063  52.8130630
  67.9339198  67.2588830  52.1931226  67.9809198  67.5948830  51.0101226
  69.0289198  67.1188830  52.8601226  69.0267153  66.8440751  53.8320151
  70.3079198  67.3578830  52.2151226  70.1436709  67.6442296  51.1763115
  70.8327986  68.1600262  52.7339377  70.9086314  66.4490337  52.2503153
  25.5505387  43.4962842  39.4957698  25.7169198  43.0948830  38.4961226
  26.4348642  43.7216888  37.9671910  24.7747361  43.0807926  37.9482263
  26.2609198  41.6838830  38.5591226  26.4639198  41.1258830  39.6461226
  26.5169198  41.0518830  37.4641226  26.3324114  41.4622693  36.5598886
  27.0409198  39.6928830  37.5121226  27.4955307  39.5066378  38.4851287
  25.9179198  38.6778830  37.2951226  25.1462342  38.8907281  38.0349182
  25.5193223  38.8498595  36.2953005  26.3559198  37.2278830  37.4231226
  27.1422551  37.0310457  36.6944027  26.7451042  37.0687144  38.4287582
  25.2199198  36.2548830  37.1841226  24.0679198  36.6548830  37.0191226
  25.5399198  34.9668830  37.1611226  24.8217659  34.2739560  37.0055309
  26.5000922  34.6856845  37.2993172  28.1299198  39.4978830  36.4651226
  27.9039198  38.8578830  35.4391226  29.3139198  40.0438830  36.7311226
  29.4582121  40.5446103  37.5963112  30.4119198  39.9848830  35.7761226
  30.1214276  39.3616267  34.9303891  30.7759198  41.3778830  35.2551226
  31.6757075  41.3138486  34.6432559  29.9548192  41.7672566  34.6532238
  31.1219198  42.6048830  36.5341226  31.6129198  39.3318830  36.4421226
  31.6769198  39.2008830  37.6651226  32.5659198  38.9178830  35.6131226
  32.4193254  39.0071694  34.6178149  33.8029198  38.3078830  36.0761226
  33.8133077  38.3009769  37.1660509  33.9449198  36.8698830  35.5771226
  33.2041375  36.2393157  36.0687788  33.7872373  36.8416384  34.4989582
  35.5749198  36.1638830  35.9121226  34.9939198  39.1258830  35.6021226
  35.0189198  39.6048830  34.4641226  35.9599198  39.3038830  36.5041226
  35.7541792  39.0618961  37.4628783  37.2549198  39.9228830  36.2061226
  37.6916407  40.3248967  37.1203212  38.2349198  38.9078830  35.5991226
  38.1541834  37.9790183  36.1637396  37.9439198  38.6358830  34.1331226
  38.0249257  39.5642644  33.5677505  38.6624085  37.9124836  33.7476795
  36.9353320  38.2354632  34.0305779  39.5719198  39.4108830  35.7151226
  40.1860086  38.7777129  35.3361887  37.1179198  41.1498830  35.3071226
  37.9939198  41.4408830  34.4901226  36.0249198  41.8938830  35.4631226
  35.2237637  41.5431912  35.9683588  35.9359198  43.2148830  34.8601226
  36.8476608  43.7721859  35.0751598  35.7649198  43.1258830  33.3501226
  35.7297335  44.1363039  32.9428013  36.6211032  42.5960145  32.9326429
  34.5739198  42.4388830  33.0111226  34.4898281  42.3965178  32.0557517
  34.7809198  43.9888830  35.4751226  34.0109198  43.4658830  36.2841226
  34.6799198  45.2548830  35.0671226  35.3258368  45.6218066  34.3828291
  33.6829198  46.1558830  35.6281226  33.5456005  45.9845282  36.6957743
  34.1049198  47.6138830  35.3941226  34.1531092  47.8018646  34.3215364
  33.1029198  48.5658830  36.0311226  33.0545166  48.3788036  37.1038570
  33.4167385  49.5949518  35.8560912  32.1188240  48.4067106  35.5903064
  35.5109198  47.8598830  35.9481226  35.4386451  47.8372565  37.0354888
  36.1406208  47.0372742  35.6091671  36.1179198  49.1698830  35.5121226
  35.4889731  49.9930429  35.8511413  37.1131521  49.2716544  35.9448517
  36.1909467  49.1930614  34.4248187  32.3279198  45.8688830  35.0041226
  32.2349198  45.4298830  33.8501226  31.2639198  46.1128830  35.7671226
  31.3841177  46.3059463  36.7511848  29.9119198  46.0558830  35.2361226
  29.9017738  46.5023562  34.2418098  29.3939198  44.6158830  35.1321226
  28.3633068  44.6246719  34.7773565  30.0138633  44.0558713  34.4320105
  29.3969198  43.6658830  36.6571226  28.9839198  46.8828830  36.1111226
  29.2909198  47.1798830  37.2681226  27.8459198  47.2598830  35.5361226
  27.7132192  47.0009995  34.5689260  26.8229198  48.0778830  36.1801226
  26.0512558  48.3320745  35.4534724  26.1689198  47.3308830  37.3481226
  25.7519999  46.3952440  36.9754877  26.9314698  47.1156487  38.0966490
  25.1379198  48.1068830  37.9341226  24.7444214  47.6192426  38.6614229
  27.3599198  49.4178830  36.6651226  26.7019198  50.0898830  37.4691226
  28.5369198  49.8278830  36.2011226  29.0892990  49.2324214  35.6007878
  29.0859198  51.1158830  36.5871226  28.9086917  51.2929380  37.6479435
  30.5929198  51.1448830  36.3321226  30.9659508  50.3053961  36.9188157
  30.7312277  50.9360415  35.2712945  31.3649198  52.4118830  36.7071226
  31.0111181  53.2283526  36.0775969  31.1699198  52.7768830  38.1631226
  31.5239434  51.9610295  38.7933203  31.7338338  53.6816393  38.3900978
  30.1113605  52.9511920  38.3559156  32.8399198  52.2178830  36.4211226
  32.9807312  52.0112264  35.3601963  33.3847700  53.1228630  36.6899173
  33.2170275  51.3797779  37.0071845  28.3849198  52.2368830  35.8221226
  27.6599198  52.0038830  34.8521226  28.5809198  53.4658830  36.2951226
  29.0745721  53.5829627  37.1684490  28.0519198  54.6528830  35.6361226
  27.5175711  54.3701624  34.7291277  27.0769198  55.3828830  36.5731226
  26.1841229  54.7614420  36.6425785  27.5511445  55.4474106  37.5524321
  26.6909198  56.7688830  36.1081226  27.4129198  57.8818830  36.5111226
  28.2684503  57.7413665  37.1717452  27.0659198  59.1508830  36.0911226
  27.6458763  60.0163148  36.4117157  25.9799198  59.3188830  35.2621226
  25.6319198  60.5828830  34.8451226  26.2119178  61.2650451  35.1913259
  25.2429198  58.2308830  34.8501226  24.3832038  58.3640228  34.1934167
  25.5989198  56.9648830  35.2741226  25.0187139  56.0995681  34.9536676
  29.1429198  55.6078830  35.1761226  29.1689198  55.9938830  34.0041226
  30.0569198  55.9978830  36.0621226  30.0319630  55.6357379  37.0046339
  31.0759198  56.9898830  35.7281226  31.1556214  57.0782967  34.6446422
  30.7219198  58.3598830  36.3051226  29.7892827  58.6764078  35.8381114
  30.5654486  58.2292979  37.3759001  31.7859198  59.4158830  36.0751226
  32.6306000  59.2068185  36.7315586  32.1133311  59.3691965  35.0365061
  31.2849198  60.8158830  36.3621226  30.1239198  61.0118830  36.7211226
  32.1589198  61.8008830  36.2001226  31.8786538  62.7548592  36.3775534
  33.1004865  61.5921940  35.9001186  32.4289198  56.5218830  36.2441226
  32.5239198  55.9708830  37.3451226  33.4649198  56.7418830  35.4431226
  33.2878793  57.0991724  34.5151677  34.8399198  56.4648830  35.8241226
  34.9559444  56.5903502  36.9006427  35.2229198  55.0308830  35.4551226
  34.3308285  54.4659342  35.7255023  35.3573736  55.0010933  34.3738573
  36.4449198  54.4118830  36.1381226  36.3443072  54.5165886  37.2184071
  36.5489198  52.9398830  35.7801226  36.6500305  52.8343918  34.6999619
  37.4210219  52.5069809  36.2701577  35.6504658  52.4201333  36.1129005
  37.7249198  55.1368830  35.7681226  37.6538125  56.1803467  36.0750862
  38.5685020  54.6667026  36.2734944  37.8735355  55.0853119  34.6895343
  35.7619198  57.4528830  35.1231226  35.6819198  57.6438830  33.9091226
  36.6389198  58.0938830  35.8901226  36.7174769  57.9426480  36.8856406
  37.4959198  59.0948830  35.2751226  37.9339191  58.6906725  34.3625057
  36.6969198  60.3538830  34.9191226  37.4145285  61.0978182  34.5731496
  36.0295947  60.0851746  34.1002373  35.8869198  60.9278830  36.0621226
  35.0699628  60.2477137  36.3030620  36.5476687  61.0209858  36.9240054
  35.3389198  62.3048830  35.7501226  35.9129198  62.9938830  34.8811226
  34.3299198  62.6978830  36.3711226  34.0529736  63.5816922  36.1194061
  38.6499198  59.4698830  36.1891226  38.4449198  59.7918830  37.3591226
  34.0005631  62.0509671  36.9992173  35.5041517  63.8537668  34.7551012
  36.6626192  62.5465223  34.4827052  39.8579198  59.4448830  35.6341226
  40.0186577  58.9269079  34.7820871  40.9849198  60.1268830  36.2491226
  40.9846867  59.9424643  37.3234079  42.3019198  59.6218830  35.6681226
  42.2095334  58.5539857  35.4702351  42.4978063  60.1483555  34.7340160
  43.4709198  59.8408830  36.6001226  43.4449198  60.7358830  37.4421226
  44.5069198  59.0238830  36.4551226  45.3147325  59.1267163  37.0525870
  44.4826547  58.3031344  35.7479922  40.8239198  61.6218830  36.0081226
  39.8489198  62.0518830  35.3831226  41.7679198  62.4178830  36.5021226
  42.5514490  62.0438281  37.0181306  41.6709198  63.8628830  36.3451226
  41.5031356  64.1074763  35.2962557  40.5079198  64.4218830  37.1701226
  39.7278470  63.6610259  37.1440038  40.8592520  64.5462815  38.1944227
  39.9499198  65.7318830  36.6671226  40.6929198  66.9018830  36.7401226
  41.6967134  66.8624171  37.1631360  40.1809198  68.1018830  36.2881226
  40.7775029  69.0123472  36.3450904  38.9079198  68.1438830  35.7611226
  38.3929198  69.3368830  35.3111226  39.0034221  70.0708500  35.4120135
  38.1479198  66.9968830  35.6841226  37.1410675  67.0293220  35.2678334
  38.6689198  65.8018830  36.1381226  38.0717358  64.8916063  36.0845705
  42.9799198  64.5088830  36.7721226  43.5809198  64.0968830  37.7681226
  43.4069198  65.5178830  36.0211226  42.9147074  65.7390852  35.1673686
  44.5979198  66.2918830  36.3531226  44.4398475  66.8147673  37.2963640
  45.8239198  65.3868830  36.4951226  46.7298376  65.9909505  36.4449764
  45.7853100  64.8696980  37.4538348  45.9889198  64.0928830  35.2531226
  44.8549198  67.3568830  35.2941226  44.7779198  67.0838830  34.0961226
  45.1569198  68.5578830  35.6561226  45.2291693  68.8160222  36.6299006
  45.4029198  69.5788830  34.6531226  45.2873599  69.1474783  33.6588206
  44.6897188  70.3932817  34.7804005  46.4165839  69.9633128  34.7662542
  28.1692277  26.3848941  42.0524180  28.0029198  26.6198830  41.0011226
  27.3104191  27.4577827  40.9207158  27.5810334  25.7507919  40.4963538
  29.2989198  26.9958830  40.3151226  30.3689198  27.0108830  40.9371226
  29.2869198  27.3068830  39.0631226  28.4382173  27.2741436  38.5165592
  30.5279198  27.6708830  38.3911226  31.2672806  27.9872389  39.1268968
  31.0879198  26.4768830  37.6181226  30.9202863  25.5600334  38.1832643
  30.6060002  26.3957704  36.6438155  32.5599198  26.5588830  37.3621226
  33.2309198  27.7568830  37.2391226  32.7982060  28.6668991  37.3078922
  34.5119198  27.5208830  37.0201226  35.2135144  28.3451835  36.8920892
  34.6979198  26.2138830  36.9991226  35.5778700  25.7406174  36.8514498
  33.4929198  25.5888830  37.2121226  33.4396281  24.5003754  37.2324311
  30.2829198  28.8468830  37.4531226  29.4579198  28.7628830  36.5441226
  30.9979198  29.9478830  37.6871226  31.6353852  29.9791871  38.4699108
  30.8439198  31.1468830  36.8731226  30.0846812  30.9814095  36.1087441
  30.4109198  32.3288830  37.7451226  29.4666884  31.9983510  38.1778754
  31.1511024  32.4469831  38.5365024  30.2049198  33.6698830  37.0351226
  29.9065254  33.4841043  36.0033533  29.1279198  34.4778830  37.7351226
  29.4258341  34.6644680  38.7668842  28.9928416  35.4283636  37.2189432
  28.1903855  33.9220194  37.7230586  31.4969198  34.4668830  36.9691226
  32.2479381  33.8977368  36.4212691  31.3152060  35.4129007  36.4590914
  31.8557490  34.6625515  37.9795950  32.1369198  31.4708830  36.1371226
  32.1239198  31.7018830  34.9231226  33.2549198  31.4888830  36.8581226
  33.2148305  31.2847062  37.8464566  34.5409198  31.8448830  36.2791226
  34.4866593  31.7495074  35.1946603  34.9329198  33.2858830  36.6251226
  34.0764670  33.8016641  37.0593549  35.7533954  33.2774614  37.3426523
  35.4729198  34.2638830  35.2061226  35.6029198  30.8738830  36.7731226
  35.4489198  30.2258830  37.8111226  36.6909198  30.7888830  36.0171226
  36.7959555  31.4210320  35.2364469  37.7399198  29.8238830  36.2641226
  37.2832182  28.9263314  36.6811646  38.2095389  29.5824673  35.3105631
  38.7989198  30.3278830  37.2211226  38.5589198  31.1968830  38.0621226
  39.9949198  29.7648830  37.0811226  40.1430594  29.1011331  36.3344030
  41.0929198  30.0298830  37.9951226  40.7331424  30.5966484  38.8538638
  41.6939198  28.7158830  38.4941226  42.1354923  28.1907489  37.6471591
  42.4701046  28.9429610  39.2249254  40.7059198  27.8968830  39.0941226
  41.1086923  27.0801883  39.3980700  42.1709198  30.8798830  37.3261226
  42.1839198  31.0808830  36.1101226  43.0869198  31.3828830  38.1511226
  42.9485218  31.2609749  39.1441401  44.2359198  32.1648830  37.7031226
  44.8020409  32.5113988  38.5677224  45.1599198  31.3208830  36.8191226
  45.1514941  30.2826163  37.1508311  44.8331566  31.3726182  35.7805422
  46.5889198  31.7658830  36.8411226  47.6419198  30.8918830  36.6791226
  47.5450248  29.8971738  36.5332986  48.7799198  31.5598830  36.7451226
  49.7343030  31.0437187  36.6410745  48.5019198  32.8358830  36.9421226
  49.1754674  33.5831460  37.0317413  47.1389198  32.9918830  37.0071226
  46.7106452  33.9812612  37.1677866  43.8189198  33.4328830  36.9671226
  44.5499198  33.9198830  36.0991226  42.6519198  33.9758830  37.2961226
  42.0350467  33.5162668  37.9505842  42.2119198  35.2228830  36.6941226
  42.3547400  35.1830848  35.6142533  40.7309198  35.4598830  36.9821226
  40.7080374  35.7583831  38.0302034  40.3796230  36.2847404  36.3622026
  39.8229198  34.2468830  36.7781226  40.0612075  33.4942799  37.5297265
  38.3679198  34.6478830  36.9091226  38.1287465  35.4001769  36.1574919
  37.7346791  33.7731068  36.7612252  38.1919586  35.0593001  37.9030411
  40.0839198  33.6038830  35.4331226  41.1229613  33.2786854  35.3807917
  39.4274916  32.7427521  35.3079946  39.8895462  34.3264652  34.6405365
  43.0389198  36.3888830  37.2221226  43.4329198  36.4228830  38.3911226
  43.3009198  37.3528830  36.3451226  42.9552551  37.2653158  35.4001637
  44.1149198  38.5148830  36.6781226  44.1650645  38.6706639  37.7557668
  45.5519198  38.3788830  36.1321226  45.5094102  38.2341988  35.0526048
  46.3589198  39.6288830  36.4441226  46.4022665  39.7739815  37.5235523
  47.3698229  39.5165633  36.0522558  45.8841089  40.4936293  35.9805818
  46.2249198  37.1458830  36.7121226  45.6558161  36.2576836  36.4376687
  47.2375615  37.0643428  36.3171447  46.2647594  37.2300220  37.7981402
  43.4479198  39.7618830  36.1201226  42.9389198  39.7598830  34.9951226
  43.4489198  40.8258830  36.9151226  43.7545221  40.7115423  37.8709640
  43.0009198  42.1418830  36.4871226  43.0652542  42.2084315  35.4010602
  41.5549198  42.4068830  36.9081226  40.9478505  41.5940909  36.5094559
  41.5253259  42.3812514  37.9974193  41.0059198  43.7358830  36.4181226
  41.6540808  44.5405011  36.7653658  41.0061357  43.7145247  35.3283323
  39.5839198  43.9838830  36.8741226  39.1479198  43.3228830  37.8381226
  38.9039198  44.8398830  36.2711226  38.0138738  44.9278439  36.6193471
  43.9179198  43.1938830  37.0891226  44.4849198  42.9908830  38.1671226
  39.3843564  45.2658297  35.5575198  38.2369971  43.5352427  38.0560589
  39.7973806  42.7172852  38.2019483  44.0649198  44.3148830  36.3911226
  43.5992816  44.4060323  35.4995104  44.9119198  45.4088830  36.8421226
  44.8169477  45.5309332  37.9210958  46.3799198  45.1388830  36.5081226
  46.4925201  45.0234299  35.4301190  46.9904028  45.9749926  36.8491964
  46.7044718  44.2255413  37.0066928  44.4519198  46.7048830  36.1951226
  44.6839198  46.9258830  35.0031226  43.8139198  47.5618830  36.9841226
  43.6437267  47.3016189  37.9450577  43.3089198  48.8428830  36.5171226
  43.3944759  48.8980321  35.4318863  41.8379198  49.0168830  36.9011226
  41.3121486  48.3551654  36.2127958  41.7137135  48.6524631  37.9208633
  41.2619198  50.4268830  36.7911226  41.6898829  51.0453113  37.5801060
  41.5849198  51.0308830  35.4491226  41.1568600  50.4132149  34.6595976
  41.1654041  52.0352785  35.3917021  42.6665001  51.0817348  35.3238287
  39.7609198  50.3998830  37.0191226  39.5509645  50.0057726  38.0134542
  39.3623336  51.4111489  36.9380579  39.2904605  49.7633178  36.2697550
  44.1529198  49.9618830  37.1091226  44.2739198  50.0728830  38.3331226
  44.7309198  50.7848830  36.2401226  44.5727193  50.6354243  35.2538498
  45.6069198  51.8768830  36.6411226  45.7598116  51.8432744  37.7198226
  46.9679198  51.7728830  35.9511226  46.7954705  51.7662077  34.8748717
  47.5097642  52.6777977  36.2261388  47.7819198  50.5628830  36.3371226
  47.3879198  49.2898830  35.9601226  46.4709369  49.1730475  35.3825489
  48.1319198  48.1828830  36.3021226  47.8049355  47.1867300  36.0040247
  49.2949198  48.3388830  37.0211226  50.0399198  47.2348830  37.3621226
  49.6567559  46.4123752  37.0486485  49.7129198  49.5928830  37.4021226
  50.6329026  49.7179996  37.9731548  48.9599198  50.6958830  37.0571226
  49.2878027  51.6930925  37.3506631  44.9609198  53.2108830  36.2951226
  44.5909198  53.4458830  35.1401226  44.8319198  54.0748830  37.2951226
  45.0138692  53.7466906  38.2328238  44.4209198  55.4608830  37.1161226
  44.2179386  55.6454975  36.0612220  43.1579198  55.7718830  37.9181226
  43.3571337  55.2637480  38.8616330  43.1480168  56.8495322  38.0814450
  41.7979198  55.3258830  37.3761226  41.1056356  55.2038079  38.2091539
  41.2509198  56.3568830  36.4131226  41.9424857  56.4791757  35.5795281
  40.2833471  56.0254703  36.0362016  41.1323272  57.3097567  36.9289403
  41.8849198  53.9728830  36.7091226  42.2278692  53.2323782  37.4317136
  40.9014259  53.6872856  36.3359268  42.5883145  54.0215627  35.8778795
  45.5739198  56.3408830  37.5741226  45.6579198  56.6878830  38.7571226
  46.4559198  56.7018830  36.6441226  46.2760427  56.5178672  35.6674539
  47.7309198  57.3088830  37.0101226  47.7910515  57.5163928  38.0784966
  48.9079198  56.3968830  36.6191226  48.9236726  56.2822105  35.5352862
  50.2249198  57.0008830  37.0841226  50.2100975  57.1154386  38.1679853
  51.0469548  56.3439262  36.7999278  50.3624305  57.9765544  36.6180136
  48.7259198  55.0018830  37.1951226  47.8029964  54.5672599  36.8111730
  49.5697877  54.3757009  36.9054979  48.6742878  55.0610166  38.2822924
  47.8899198  58.6798830  36.3671226  48.3419198  58.7928830  35.2221226
  47.5269198  59.7258830  37.1011226  46.9294450  59.6106503  37.9072520
  47.9489198  61.0708830  36.7421226  47.9808683  61.1693384  35.6570489
  46.9749198  62.1058830  37.2971226  46.5990015  61.7702262  38.2636210
  47.4879995  63.0598438  37.4188112  45.5199198  62.4028830  36.2721226
  49.3499198  61.3188830  37.2821226  49.5269198  61.8038830  38.4021226
  50.3489198  60.9828830  36.4731226  50.1555102  60.7661070  35.5058066
  51.7189198  60.9148830  36.9301226  51.7532163  60.2608675  37.8014358
  52.3218777  60.4853446  36.1300989  52.2899198  62.2678830  37.3061226
  51.5799198  63.2278830  37.6131226  53.6199198  62.3308830  37.2751226
  54.1393354  61.5301245  36.9448311  54.3649198  63.4898830  37.7491226
  54.2179222  63.6161803  38.8217548  55.8569198  63.2958830  37.4801226
  55.9786003  63.1862357  36.4025000  56.3647734  64.2013272  37.8123207
  56.4589198  62.0918830  38.1821226  56.2258952  62.1459718  39.2455486
  56.0052422  61.1969003  37.7563505  57.9579198  61.9878830  37.9851226
  58.5709198  62.9788830  37.5381226  58.5229198  60.9138830  38.2791226
  59.4689208  60.9292042  38.1177957  53.8859198  64.7828830  37.1021226
  53.6899198  64.8448830  35.8851226  57.9159118  60.2505883  38.6153671
  59.5130034  62.8218977  37.4370931  57.9985574  63.7317009  37.3750778
  53.6929198  65.8188830  37.9151226  53.7911251  65.6742261  38.9098736
  53.3119198  67.1438830  37.4441226  53.5090938  67.2167721  36.3745859
  51.8279198  67.4188830  37.6871226  51.6544299  67.3107712  38.7577824
  51.6421800  68.4515811  37.3919356  50.8889198  66.4988830  36.9271226
  51.1722263  66.5089755  35.8746320  50.9991566  65.4892577  37.3228582
  49.4419198  66.9418830  37.0661226  48.8112297  66.2882922  36.4635049
  49.1467641  66.8668009  38.1127101  49.2469198  68.3178830  36.6231226
  50.0472637  68.7888775  36.2259915  48.1009198  68.9788830  36.7061226
  47.0149198  68.4218830  37.2151226  47.0494882  67.4701589  37.5514653
  46.1559202  68.9507624  37.2651828  48.0439198  70.2338830  36.2681226
  48.8689245  70.6677617  35.8792570  47.1759074  70.7469574  36.3264994
  54.1659198  68.1748830  38.1651226  54.6569198  67.9138830  39.2681226
  54.3479198  69.3248830  37.5471226  53.9779986  69.4633633  36.6175631
  55.0729198  70.4148830  38.1671226  54.5386664  71.3488141  37.9926371
  55.1476443  70.2345365  39.2394988  56.4729198  70.5298830  37.5861226
  56.7009198  70.2118830  36.4221226  57.3909198  70.9878830  38.4341226
  57.1188209  71.1479550  39.3935175  58.7589198  71.3028830  38.0421226
  58.8550508  71.2237964  36.9592545  59.1379198  72.7238830  38.4641226
  59.0935505  72.8319361  39.5478454  60.1496778  72.9373632  38.1193445
  58.2519198  73.7948830  37.8881226  56.9099198  73.8598830  38.2171226
  56.4948887  73.1186909  38.9001185  56.0989198  74.8458830  37.6931226
  55.0409610  74.8773803  37.9535683  56.6259198  75.7888830  36.8421226
  55.9889268  76.5714131  36.4298285  57.9619198  75.7428830  36.5111226
  58.3822085  76.4877000  35.8353230  58.7699198  74.7518830  37.0361226
  59.8287254  74.7189630  36.7793213  59.6949198  70.2908830  38.6851226
  59.6439198  70.0818830  39.9021226  60.5429198  69.6668830  37.8721226
  60.5170913  69.8810560  36.8854301  61.4849198  68.6568830  38.3351226
  61.5292889  68.6726277  39.4241050  61.0589198  67.2578830  37.8831226
  61.0573165  67.1954468  36.7949138  61.7423660  66.5116926  38.2883401
  59.6829198  66.8708830  38.3371226  58.5659198  67.4528830  37.7671226
  58.6977074  68.1961911  36.9808498  57.3029198  67.1058830  38.1791226
  56.4325467  67.5765656  37.7219472  57.1359198  66.1658830  39.1671226
  56.1337639  65.8904304  39.4956182  58.2379198  65.5708830  39.7431226
  58.1093143  64.8226445  40.5252351  59.5049198  65.9238830  39.3281226
  60.3776658  65.4548478  39.7824577  62.8679198  68.9868830  37.7991226
  63.0379198  69.1818830  36.5921226  63.8539198  69.0338830  38.6951226
  63.6471633  68.8329601  39.6631004  65.2129198  69.4258830  38.3461226
  65.2947667  69.5397331  37.2651793  65.5829198  70.7528830  39.0061226
  65.6814591  70.5716653  40.0764260  66.5501140  71.0449062  38.5970287
  64.5819198  71.8618830  38.7731226  63.3959198  71.9108830  39.4851226
  63.1919443  71.1308466  40.2186325  62.4819198  72.9198830  39.2811226
  61.5511997  72.9420409  39.8480186  62.7489198  73.9038830  38.3601226
  61.8389198  74.9138830  38.1541226  61.0569116  74.8323082  38.7049478
  63.9199198  73.8818830  37.6411226  64.1324230  74.6607369  36.9087774
  64.8299198  72.8648830  37.8511226  65.7620481  72.8424289  37.2865585
  66.2129198  68.3458830  38.7381226  67.3079198  68.6498830  39.2201226
  65.8499198  67.0818830  38.5421226  64.9287588  66.8734481  38.1841886
  66.7339198  65.9688830  38.8651226  66.9267591  65.9455006  39.9376735
  66.1159198  64.6228830  38.4471226  65.9914831  64.6127437  37.3642962
  67.0129198  63.4668830  38.8651226  67.1374533  63.4760912  39.9479459
  66.5578023  62.5245325  38.5602574  67.9869305  63.5708187  38.3870003
  64.8289198  64.4718830  39.0601226  64.4460507  63.6315957  38.7975794
  68.0869198  66.1298830  38.1811226  68.1599198  66.4628830  36.9981226
  69.1689198  65.9148830  38.8501226  69.1471295  65.6407602  39.8219668
  70.4619198  66.0658830  38.2061226  70.3184907  66.3629162  37.1672290
  71.0400427  66.8301674  38.7254913  70.9989984  65.1180513  38.2416417
  26.0466062  42.9395684  44.2180770  26.2199198  42.5418830  43.2181226
  26.9229958  43.1842529  42.6878932  25.2772745  42.5071416  42.6719432
  26.7949198  41.1428830  43.2801226  27.0119198  40.5898830  44.3661226
  27.0619198  40.5168830  42.1841226  26.8673574  40.9233633  41.2802318
  27.6159198  39.1688830  42.2311226  28.0755355  38.9919223  43.2035101
  26.5149198  38.1308830  42.0151226  25.7397874  38.3275120  42.7558021
  26.1118195  38.2949842  41.0157823  26.9829198  36.6898830  42.1421226
  27.7724972  36.5107225  41.4123487  27.3767318  36.5387933  43.1472027
  25.8689198  35.6928830  41.9041226  24.7079198  36.0678830  41.7411226
  26.2169198  34.4118830  41.8801226  25.5138329  33.7035642  41.7250268
  27.1831445  34.1515817  42.0170690  28.7069198  38.9978830  41.1811226
  28.4929198  38.3538830  40.1551226  29.8789198  39.5688830  41.4461226
  30.0118607  40.0736823  42.3107634  30.9769198  39.5358830  40.4901226
  30.6998163  38.9056994  39.6450300  31.3089198  40.9358830  39.9681226
  32.2067340  40.8909161  39.3516757  30.4768064  41.3082026  39.3705730
  31.6309198  42.1698830  41.2481226  32.1919198  38.9068830  41.1521226
  32.2609198  38.7778830  42.3751226  33.1529198  38.5148830  40.3211226
  33.0030748  38.6016483  39.3260761  34.4039198  37.9318830  40.7821226
  34.4162910  37.9245760  41.8720275  34.5759198  36.4978830  40.2821226
  33.8491532  35.8513999  40.7740263  34.4178682  36.4670132  39.2040842
  36.2209198  35.8268830  40.6151226  35.5759198  38.7758830  40.3071226
  35.5889198  39.2558830  39.1691226  36.5399198  38.9738830  41.2071226
  36.3410676  38.7276015  42.1662381  37.8199198  39.6208830  40.9071226
  38.2487989  40.0323645  41.8208211  38.8209198  38.6278830  40.2991226
  38.7614602  37.6972737  40.8635083  38.5329198  38.3498830  38.8321226
  38.5926579  39.2800153  38.2669812  39.2662678  37.6424333  38.4450637
  37.5330973  37.9276458  38.7312698  40.1459198  39.1588830  40.4121226
  40.7726283  38.5387725  40.0322545  37.6549198  40.8448830  40.0101226
  38.5239198  41.1548830  39.1921226  36.5459198  41.5648830  40.1671226
  35.7528475  41.1952351  40.6715987  36.4269198  42.8838830  39.5661226
  37.3263718  43.4610006  39.7806465  36.2559198  42.7928830  38.0561226
  36.1977646  43.8025368  37.6495315  37.1225589  42.2821031  37.6364315
  35.0789198  42.0798830  37.7191226  34.9936742  42.0362611  36.7639105
  35.2579198  43.6328830  40.1831226  34.4999198  43.0928830  40.9931226
  35.1289198  44.8968830  39.7761226  35.7654280  45.2783539  39.0909681
  34.1139198  45.7748830  40.3391226  33.9824728  45.5999951  41.4069405
  34.5029198  47.2418830  40.1051226  34.5449760  47.4309667  39.0324722
  33.4819198  48.1718830  40.7441226  33.4396306  47.9836967  41.8169218
  33.7731119  49.2075041  40.5686326  32.5006434  47.9915455  40.3051758
  35.9049198  47.5178830  40.6571226  35.8355053  47.4932776  41.7446321
  36.5520658  46.7096282  40.3164970  36.4819198  48.8418830  40.2201226
  35.8355158  49.6507055  40.5608100  37.4755650  48.9656596  40.6507589
  36.5520741  48.8670569  39.1326740  32.7629198  45.4588830  39.7171226
  32.6779198  45.0188830  38.5631226  31.6959198  45.6798830  40.4821226
  31.8135887  45.8750877  41.4660680  30.3439198  45.5938830  39.9531226
  30.3222164  46.0406512  38.9591275  29.8579198  44.1438830  39.8491226
  28.8266710  44.1301999  39.4963650  30.4886856  43.5981680  39.1473893
  29.8839198  43.1928830  41.3731226  29.3999198  46.4008830  40.8311226
  29.7029198  46.7038830  41.9871226  28.2529198  46.7538830  40.2571226
  28.1243956  46.4943023  39.2895490  27.2139198  47.5488830  40.9041226
  26.4358243  47.7875874  40.1790800  26.5779198  46.7868830  42.0721226
  26.1802426  45.8431563  41.6988505  27.3462693  46.5867788  42.8189139
  25.5319198  47.5398830  42.6611226  25.1502220  47.0429381  43.3884138
  27.7229198  48.8998830  41.3891226  27.0519198  49.5558830  42.1941226
  28.8899198  49.3348830  40.9221226  29.4538575  48.7519327  40.3202568
  29.4119198  50.6348830  41.3081226  29.2324833  50.8077900  42.3692564
  30.9169198  50.6958830  41.0511226  31.3087708  49.8645059  41.6370954
  31.0577855  50.4900788  39.9900375  31.6629198  51.9798830  41.4251226
  31.2908795  52.7889468  40.7965507  31.4619198  52.3398830  42.8821226
  31.8341696  51.5314395  43.5113667  32.0065825  53.2563951  43.1089459
  30.4001115  52.4913263  43.0763611  33.1409198  51.8168830  41.1371226
  33.2845327  51.6130014  40.0760349  33.6670228  52.7331653  41.4049727
  33.5363808  50.9870097  41.7228015  28.6859198  51.7398830  40.5451226
  27.9639198  51.4928830  39.5761226  28.8549198  52.9728830  41.0181226
  29.3463699  53.0994625  41.8913658  28.2999198  54.1488830  40.3611226
  27.7704974  53.8557753  39.4545361  27.3109198  54.8568830  41.3001226
  26.4318260  54.2164427  41.3717447  27.7865200  54.9309175  42.2780916
  26.8939198  56.2348830  40.8371226  27.5929198  57.3628830  41.2391226
  28.4526035  57.2407394  41.8980037  27.2179198  58.6238830  40.8201226
  27.7801505  59.5009885  41.1405667  26.1269198  58.7698830  39.9931226
  25.7509198  60.0248830  39.5771226  26.3165849  60.7195645  39.9221446
  25.4129198  57.6648830  39.5821226  24.5494390  57.7795464  38.9268717
  25.7969198  56.4068830  40.0051226  25.2351298  55.5292802  39.6852704
  29.3689198  55.1268830  39.9001226  29.3849198  55.5148830  38.7281226
  30.2759198  55.5368830  40.7851226  30.2605653  55.1743029  41.7276720
  31.2729198  56.5508830  40.4491226  31.3486687  56.6414790  39.3655389
  30.8899198  57.9118830  41.0271226  29.9503605  58.2085632  40.5609590
  30.7370307  57.7772162  42.0979120  31.9309198  58.9908830  40.7971226
  32.7806923  58.8000229  41.4525308  32.2580652  58.9515540  39.7581177
  31.3999198  60.3798830  41.0851226  30.2359198  60.5498830  41.4461226
  32.2529198  61.3838830  40.9221226  31.9525492  62.3316292  41.1000440
  33.1983630  61.1954015  40.6209362  32.6359198  56.1118830  40.9631226
  32.7449198  55.5618830  42.0631226  33.6659198  56.3538830  40.1601226
  33.4792082  56.7068754  39.2324187  35.0469198  56.1068830  40.5381226
  35.1621582  56.2347102  41.6144495  35.4609198  54.6818830  40.1681226
  34.5811884  54.0988247  40.4405471  35.5933749  54.6549423  39.0865359
  36.6969198  54.0878830  40.8481226  36.5960462  54.1903237  41.9285999
  36.8319198  52.6198830  40.4901226  36.9333085  52.5166676  39.4097682
  37.7140683  52.2058967  40.9785179  35.9455173  52.0808200  40.8244909
  37.9599198  54.8408830  40.4771226  37.8667992  55.8820436  40.7860120
  38.8144292  54.3882389  40.9801418  38.1076069  54.7943579  39.3981773
  35.9469198  57.1148830  39.8361226  35.8609198  57.3038830  38.6231226
  36.8109198  57.7738830  40.6031226  36.8938119  57.6245062  41.5985696
  37.6449198  58.7938830  39.9871226  38.0903989  58.3991596  39.0739737
  36.8189198  60.0358830  39.6321226  37.5198459  60.7956094  39.2862649
  36.1565495  59.7538653  38.8136901  35.9979198  60.5908830  40.7771226
  35.1960170  59.8932338  41.0186561  36.6578672  60.6972473  41.6380844
  35.4199198  61.9568830  40.4671226  35.9779198  62.6578830  39.5971226
  34.4039198  62.3278830  41.0901226  34.1078642  63.2058201  40.8396100
  38.7929198  59.1928830  40.8991226  38.5829198  59.5108830  42.0691226
  34.0894276  61.6736271  41.7182331  35.5512172  63.5091620  39.4721352
  36.7359336  62.2262149  39.1971291  39.9989198  59.1948830  40.3421226
  40.1687797  58.6834446  39.4879108  41.1119198  59.8998830  40.9561226
  41.1177054  59.7136615  42.0300813  42.4399198  59.4238830  40.3711226
  42.3719267  58.3543381  40.1722508  42.6224810  59.9556618  39.4373225
  43.6049198  59.6688830  41.3021226  43.5609198  60.5618830  42.1441226
  44.6579198  58.8738830  41.1551226  45.4644148  58.9936931  41.7512024
  44.6476869  58.1529046  40.4478841  40.9189198  61.3918830  40.7151226
  39.9339198  61.8008830  40.0921226  41.8469198  62.2078830  41.2081226
  42.6396880  61.8507970  41.7220366  41.7179198  63.6508830  41.0521226
  41.5422714  63.8925912  40.0038746  40.5449198  64.1828830  41.8801226
  39.7814302  63.4053842  41.8540720  40.8943100  64.3141156  42.9042342
  39.9579198  65.4818830  41.3781226  40.6749198  66.6668830  41.4511226
  41.6796119  66.6487752  41.8734556  40.1369198  67.8558830  41.0001226
  40.7137567  68.7789851  41.0570741  38.8619198  67.8708830  40.4751226
  38.3209198  69.0528830  40.0261226  38.9159031  69.7996125  40.1260701
  38.1269198  66.7078830  40.3981226  37.1191491  66.7179148  39.9829140
  38.6749198  65.5248830  40.8511226  38.0979236  64.6016203  40.7985725
  43.0129198  64.3238830  41.4771226  43.6249198  63.9248830  42.4721226
  43.4169198  65.3428830  40.7261226  42.9184618  65.5547386  39.8736227
  44.5919198  66.1418830  41.0571226  44.4239231  66.6601317  42.0012066
  45.8379198  65.2638830  41.1961226  46.7302504  65.8876931  41.1441001
  45.8128335  64.7457592  42.1547771  46.0289198  63.9748830  39.9531226
  44.8239198  67.2128830  39.9981226  44.7499198  66.9398830  38.8001226
  45.1009198  68.4198830  40.3611226  45.1696940  68.6788225  41.3349397
  45.3229198  69.4468830  39.3581226  45.2145123  69.0138047  38.3637426
  44.5927127  70.2457292  39.4875174  46.3283563  69.8528556  39.4694040
  27.8973485  28.5376772  45.5427158  28.1629198  27.9018830  44.6981226
  27.9215297  28.4143426  43.7668792  27.6022872  26.9688266  44.7546547
  29.6409198  27.5788830  44.7031226  30.3869198  28.0188830  45.5881226
  30.1319198  26.8338830  43.7711226  29.7022368  25.9574041  43.5117838
  31.3629198  27.2258830  43.0971226  32.0968765  27.5583183  43.8312163
  31.9469198  26.0438830  42.3231226  31.8004838  25.1242215  42.8895840
  31.4650657  25.9511226  41.3498230  33.4169198  26.1578830  42.0641226
  34.0609198  27.3698830  41.9411226  33.6086889  28.2702152  42.0117553
  35.3469198  27.1618830  41.7191226  36.0303897  28.0010981  41.5899494
  35.5609198  25.8588830  41.6971226  36.4504244  25.4044826  41.5474509
  34.3709198  25.2088830  41.9121226  34.3408738  24.1194856  41.9324141
  31.0909198  28.3958830  42.1601226  30.2669198  28.2948830  41.2531226
  31.7819198  29.5118830  42.3941226  32.4191229  29.5566315  43.1764710
  31.6009198  30.7078830  41.5811226  30.8439011  30.5268255  40.8180760
  31.1449198  31.8788830  42.4541226  30.2092071  31.5276944  42.8891027
  31.8843820  32.0126690  43.2436775  30.9079198  33.2158830  41.7451226
  30.6117340  33.0236618  40.7138972  29.8149198  34.0008830  42.4471226
  30.1106083  34.1939000  43.4783411  29.6586257  34.9482057  41.9311258
  28.8894693  33.4250927  42.4367607  32.1829198  34.0408830  41.6771226
  32.9449177  33.4883749  41.1274015  31.9799062  34.9831113  41.1681112
  32.5394515  34.2435548  42.6870277  32.8849198  31.0598830  40.8421226
  32.8659198  31.2918830  39.6291226  34.0049198  31.1018830  41.5621226
  33.9717733  30.8954941  42.5502543  35.2819198  31.4858830  40.9801226
  35.2273425  31.3906631  39.8956625  35.6429198  32.9348830  41.3271226
  34.7755176  33.4319339  41.7614648  36.4632272  32.9436012  42.0448410
  36.1589198  33.9248830  39.9071226  36.3649198  30.5378830  41.4731226
  36.2259198  29.8858830  42.5101226  37.4529198  30.4768830  40.7141226
  37.5431173  31.1111785  39.9333327  38.5229198  29.5338830  40.9591226
  38.0864688  28.6267296  41.3770730  38.9962039  29.3024792  40.0048932
  39.5719198  30.0608830  41.9141226  39.3149198  30.9238830  42.7561226
  40.7799198  29.5238830  41.7721226  40.9411128  28.8639453  41.0247282
  41.8739198  29.8118830  42.6851226  41.5033053  30.3700817  43.5448658
  42.5039198  28.5108830  43.1821226  42.9554616  27.9962158  42.3339912
  43.2761647  28.7542762  43.9118469  41.5349198  27.6698830  43.7831226
  41.9559477  26.8619394  44.0857155  42.9319198  30.6858830  42.0141226
  42.9379198  30.8878830  40.7981226  43.8379198  31.2078830  42.8381226
  43.7034151  31.0835852  43.8313788  44.9699198  32.0138830  42.3881226
  45.5299763  32.3716923  43.2520719  45.9099198  31.1908830  41.5021226
  45.9247090  30.1522994  41.8326141  45.5802443  31.2366782  40.4641838
  47.3289198  31.6668830  41.5221226  48.3999198  30.8158830  41.3581226
  48.3241671  29.8193350  41.2123373  49.5229198  31.5078830  41.4221226
  50.4875533  31.0117461  41.3152145  49.2189198  32.7778830  41.6211226
  49.8760441  33.5396234  41.7107830  47.8529198  32.9038830  41.6881226
  47.4032586  33.8835107  41.8500967  44.5239198  33.2728830  41.6541226
  45.2419198  33.7768830  40.7851226  43.3459198  33.7908830  41.9851226
  42.7404133  33.3180911  42.6408124  42.8779198  35.0288830  41.3841226
  43.0194015  34.9924890  40.3039571  41.3929198  35.2338830  41.6751226
  41.3655788  35.5312528  42.7234178  41.0224248  36.0511813  41.0563683
  40.5109198  34.0008830  41.4721226  40.7665866  33.2532095  42.2229353
  39.0479198  34.3708830  41.6061226  38.7913740  35.1182286  40.8552846
  38.4330984  33.4829240  41.4590708  38.8652021  34.7780809  42.6005594
  40.7829198  33.3638830  40.1271226  41.8286421  33.0612284  40.0726757
  40.1450137  32.4887541  40.0033222  40.5713547  34.0820652  39.3349399
  43.6809198  36.2118830  41.9121226  44.0759198  36.2528830  43.0801226
  43.9199198  37.1818830  41.0351226  43.5742443  37.0874724  40.0908268
  44.7099198  38.3608830  41.3671226  44.7584067  38.5177082  42.4446912
  46.1479198  38.2558830  40.8191226  46.1069767  38.1104732  39.7396418
  46.9279198  39.5228830  41.1301226  46.9696907  39.6687253  42.2095142
  47.9404472  39.4326078  40.7367538  46.4337566  40.3771817  40.6674369
  46.8479198  37.0378830  41.3971226  46.2975853  36.1377893  41.1231420
  47.8614255  36.9783196  41.0004390  46.8877379  37.1223322  42.4831169
  44.0149198  39.5938830  40.8111226  43.5039198  39.5808830  39.6861226
  43.9939198  40.6568830  41.6071226  44.3031002  40.5489257  42.5625555
  43.5169198  41.9628830  41.1801226  43.5776725  42.0308017  40.0939388
  42.0659198  42.1968830  41.6041226  41.4755086  41.3713598  41.2065986
  42.0388979  42.1706921  42.6934728  41.4879198  43.5138830  41.1151226
  42.1194800  44.3315797  41.4624041  41.4865270  43.4941771  40.0253020
  40.0619198  43.7308830  41.5741226  39.6419198  43.0598830  42.5381226
  39.3619198  44.5718830  40.9721226  38.4709082  44.6405342  41.3222148
  44.4129198  43.0338830  41.7811226  44.9849198  42.8428830  42.8581226
  39.8314347  45.0079509  40.2573643  38.7270816  43.2525750  42.7579266
  40.3048002  42.4679031  42.9001537  44.5339198  44.1588830  41.0831226
  44.0641990  44.2409854  40.1927738  45.3579198  45.2698830  41.5331226
  45.2624102  45.3884170  42.6124404  46.8299198  45.0328830  41.1961226
  46.9429098  44.9213317  40.1177490  47.4225017  45.8818027  41.5371245
  47.1755026  44.1262728  41.6928416  44.8689198  46.5568830  40.8881226
  45.0939198  46.7828830  39.6961226  44.2139198  47.3988830  41.6791226
  44.0505137  47.1343073  42.6400584  43.6799198  48.6698830  41.2131226
  43.7626459  48.7276108  40.1278010  42.2069198  48.8108830  41.5991226
  41.6950277  48.1386040  40.9105685  42.0916473  48.4427633  42.6185834
  41.5999198  50.2088830  41.4911226  42.0155975  50.8361739  42.2796776
  41.9079198  50.8198830  40.1491226  41.4921283  50.1933501  39.3600264
  41.4668351  51.8150443  40.0925621  42.9879809  50.8939987  40.0223343
  40.1009198  50.1488830  41.7221226  39.9017220  49.7496551  42.7166259
  39.6801043  51.1512222  41.6425511  39.6429604  49.5026234  40.9733097
  44.5009198  49.8058830  41.8041226  44.6219198  49.9188830  43.0281226
  45.0599198  50.6418830  40.9351226  44.9039799  50.4889404  39.9490239
  45.9119198  51.7528830  41.3351226  46.0670684  51.7229572  42.4136088
  47.2739198  51.6778830  40.6431226  47.0984736  51.6681206  39.5673798
  47.7971819  52.5939823  40.9170915  48.1149198  50.4848830  41.0261226
  47.7479198  49.2048830  40.6501226  46.8319508  49.0690869  40.0750924
  48.5159198  48.1138830  40.9891226  48.2096328  47.1112319  40.6908258
  49.6759198  48.2938830  41.7071226  50.4459198  47.2058830  42.0461226
  50.0808325  46.3754512  41.7319664  50.0679198  49.5568830  42.0881226
  50.9857101  49.7015368  42.6580670  49.2909198  50.6438830  41.7441226
  49.5980834  51.6478801  42.0369372  45.2369198  53.0718830  40.9901226
  44.8599198  53.2998830  39.8361226  45.0909198  53.9328830  41.9911226
  45.2811721  53.6077335  42.9282358  44.6499198  55.3098830  41.8141226
  44.4413926  55.4914090  40.7597679  43.3819198  55.5918830  42.6181226
  43.5941319  55.0860812  43.5600514  43.3490956  56.6687019  42.7839047
  42.0309198  55.1178830  42.0781226  41.3428139  54.9808403  42.9122871
  41.4609198  56.1368830  41.1171226  42.1483020  56.2741283  40.2823961
  40.4999205  55.7852453  40.7417134  41.3230977  57.0868154  41.6335855
  42.1459198  53.7668830  41.4111226  42.5053540  53.0339267  42.1333979
  41.1682991  53.4603926  41.0390705  42.8471795  53.8304049  40.5790777
  45.7849198  56.2138830  42.2711226  45.8629198  56.5628830  43.4531226
  46.6569198  56.5938830  41.3391226  46.4796118  56.4058622  40.3627470
  47.9189198  57.2288830  41.7031226  47.9764208  57.4378493  42.7713576
  49.1149198  56.3418830  41.3101226  49.1313380  56.2275631  40.2262589
  50.4199198  56.9738830  41.7731226  50.4044344  57.0881058  42.8570111
  51.2552514  56.3345223  41.4875714  50.5359287  57.9522504  41.3068171
  48.9639198  54.9438830  41.8861226  48.0499098  54.4895487  41.5036724
  49.8205589  54.3359626  41.5950869  48.9128168  55.0018895  42.9733781
  48.0479198  58.6028830  41.0601226  48.4949198  58.7268830  39.9151226
  47.6629198  59.6408830  41.7961226  47.0687612  59.5123505  42.6026921
  48.0549198  60.9948830  41.4371226  48.0828665  61.0945192  40.3520462
  47.0599198  62.0078830  41.9941226  46.6928772  61.6635761  42.9609896
  47.5524069  62.9726596  42.1156237  45.5979198  62.2738830  40.9721226
  49.4519198  61.2718830  41.9741226  49.6209198  61.7608830  43.0951226
  50.4569198  60.9578830  41.1641226  50.2670602  60.7369221  40.1970502
  51.8279198  60.9198830  41.6191226  51.8775108  60.2669298  42.4904962
  52.4389968  60.5033535  40.8183808  52.3699198  62.2848830  41.9941226
  51.6409198  63.2288830  42.3021226  53.6989198  62.3758830  41.9611226
  54.2353345  61.5864952  41.6306297  54.4189198  63.5508830  42.4341226
  54.2712970  63.6739009  43.5070501  55.9149198  63.3888830  42.1621226
  56.0369168  63.2818084  41.0842771  56.4039152  64.3049943  42.4933680
  56.5439198  62.1978830  42.8631226  56.3112060  62.2482155  43.9268010
  56.1096286  61.2924857  42.4391578  58.0449198  62.1268830  42.6641226
  58.6349198  63.1308830  42.2161226  58.6329198  61.0648830  42.9561226
  59.5782103  61.1005560  42.7938501  53.9109198  64.8338830  41.7891226
  53.7119198  64.8918830  40.5721226  58.0405291  60.3883808  43.2921241
  59.5801233  62.9948820  42.1138145  58.0457107  63.8707225  42.0536810
  53.6969198  65.8648830  42.6031226  53.7991664  65.7218691  43.5977039
  53.2879198  67.1818830  42.1331226  53.4814847  67.2598821  41.0632871
  51.7979198  67.4238830  42.3791226  51.6287184  67.3101615  43.4498875
  51.5891308  68.4527800  42.0860728  50.8779198  66.4848830  41.6191226
  51.1586393  66.5032672  40.5660512  51.0110444  65.4771170  42.0125532
  49.4219198  66.8958830  41.7621226  48.8037847  66.2293924  41.1606259
  49.1307806  66.8141631  42.8093376  49.1969198  68.2678830  41.3201226
  49.9870481  68.7563510  40.9236437  48.0369198  68.9048830  41.4051226
  46.9629198  68.3238830  41.9151226  47.0181688  67.3727220  42.2502946
  46.0929108  68.8342836  41.9668460  47.9519198  70.1568830  40.9671226
  48.7664845  70.6082920  40.5762080  47.0731558  70.6511110  41.0272170
  54.1199198  68.2298830  42.8531226  54.6189198  67.9798830  43.9561226
  54.2759198  69.3848830  42.2361226  53.9010629  69.5157573  41.3074388
  54.9779198  70.4898830  42.8551226  54.4229936  71.4119244  42.6819295
  55.0582533  70.3107200  43.9272917  56.3739198  70.6358830  42.2721226
  56.6079198  70.3228830  41.1071226  57.2839198  71.1128830  43.1181226
  57.0101742  71.2664475  44.0781125  58.6439198  71.4568830  42.7241226
  58.7396976  71.3803825  41.6410375  58.9939198  72.8848830  43.1461226
  58.9507809  72.9926554  44.2299230  59.9997604  73.1196992  42.7979187
  58.0829198  73.9368830  42.5721226  56.7399198  73.9728830  42.9041226
  56.3415006  73.2228362  43.5873443  55.9079198  74.9418830  42.3821226
  54.8501786  74.9511371  42.6451792  56.4129198  75.8958830  41.5301226
  55.7584165  76.6642562  41.1186278  57.7489198  75.8788830  41.1971226
  58.1517240  76.6329757  40.5209621  58.5789198  74.9058830  41.7201226
  59.6378758  74.8965292  41.4620054  59.6029198  70.4648830  43.3651226
  59.5589198  70.2538830  44.5821226  60.4629198  69.8598830  42.5501226
  60.4310143  70.0738479  41.5635627  61.4269198  68.8708830  43.0111226
  61.4724808  68.8872044  44.1000473  61.0309198  67.4628830  42.5591226
  61.0288319  67.4015199  41.4708536  61.7308926  66.7311185  42.9624324
  59.6639198  67.0458830  43.0151226  58.5339198  67.6038830  42.4481226
  58.6491455  68.3507120  41.6625850  57.2789198  67.2298830  42.8611226
  56.3973376  67.6811883  42.4058896  57.1349198  66.2858830  43.8491226
  56.1392528  65.9893390  44.1789845  58.2499198  65.7138830  44.4231226
  58.1389070  64.9622519  45.2046768  59.5089198  66.0948830  44.0061226
  60.3924154  65.6449576  44.4590051  62.8019198  69.2308830  42.4731226
  62.9649198  69.4298830  41.2661226  63.7879198  69.2978830  43.3681226
  63.5879071  69.0915384  44.3363768  65.1379198  69.7198830  43.0161226
  65.2150107  69.8359272  41.9350630  65.4799198  71.0548830  43.6761226
  65.5851373  70.8766156  44.7462858  66.4394418  71.3677173  43.2643554
  64.4549198  72.1408830  43.4451226  63.2689198  72.1638830  44.1591226
  63.0822727  71.3785564  44.8916009  62.3339198  73.1538830  43.9581226
  61.4038636  73.1552759  44.5265375  62.5769198  74.1428830  43.0361226
  61.6459198  75.1328830  42.8331226  60.8676824  75.0351499  43.3866517
  63.7469198  74.1468830  42.3161226  63.9410324  74.9308464  41.5841239
  64.6799198  73.1498830  42.5241226  65.6117620  73.1489034  41.9586413
  66.1619198  68.6608830  43.4061226  67.2499198  68.9888830  43.8861226
  65.8259198  67.3898830  43.2101226  64.9090821  67.1620436  42.8529150
  66.7339198  66.2958830  43.5311226  66.9288050  66.2760128  44.6033745
  66.1439198  64.9368830  43.1131226  66.0181192  64.9244789  42.0304774
  67.0659198  63.8008830  43.5291226  67.1918373  63.8123583  44.6117641
  66.6308293  62.8490319  43.2245328  68.0367427  63.9260405  43.0496030
  64.8619198  64.7588830  43.7281226  64.4962163  63.9108757  43.4659302
  68.0819198  66.4858830  42.8441226  68.1439198  66.8208830  41.6601226
  69.1699198  66.2938830  43.5101226  69.1563134  66.0188780  44.4818666
  70.4579198  66.4728830  42.8631226  70.3056952  66.7672854  41.8247318
  71.0207623  67.2491254  43.3815400  71.0152687  65.5367612  42.8968595
  24.0402221  42.8633925  25.1869511  24.0849198  42.3018830  26.1201226
  24.1338939  41.2352661  25.9009690  23.1942283  42.5099429  26.7129791
  25.3049198  42.6858830  26.9291226  26.1029198  43.5378830  26.5151226
  25.5179198  42.1168830  28.0671226  25.4011871  42.6140801  28.9384824
  25.9839198  40.7368830  28.1161226  26.4290762  40.5316327  29.0896765
  24.8189198  39.7708830  27.8981226  24.0565558  40.0166752  28.6373699
  24.4289108  39.9601337  26.8980340  25.1939198  38.3028830  28.0261226
  25.9715850  38.0733207  27.2976730  25.5755404  38.1269380  29.0318617
  24.0179198  37.3788830  27.7861226  22.8839198  37.8288830  27.6211226
  24.2839198  36.0788830  27.7631226  23.5376113  35.4165187  27.6069218
  25.2314397  35.7578820  27.9019234  27.0639198  40.4958830  27.0691226
  26.8119198  39.8658830  26.0431226  28.2699198  40.9908830  27.3351226
  28.4336272  41.4863172  28.1999025  29.3649198  40.8858830  26.3821226
  29.0494736  40.2750573  25.5362592  29.7879198  42.2618830  25.8611226
  30.6830726  42.1592624  25.2477144  28.9834314  42.6866942  25.2607611
  30.1859198  43.4728830  27.1401226  30.5369198  40.1808830  27.0481226
  30.5949198  40.0478830  28.2711226  31.4719198  39.7268830  26.2191226
  31.3296088  39.8214283  25.2236789  32.6819198  39.0658830  26.6831226
  32.6915727  39.0585823  27.7730550  32.7629198  37.6228830  26.1841226
  31.9954029  37.0245142  26.6750115  32.6052562  37.6013917  25.1057997
  34.3609198  36.8478830  26.5201226  33.9069198  39.8328830  26.2101226
  33.9529198  40.3098830  25.0721226  34.8789198  39.9688830  27.1121226
  34.6625635  39.7351068  28.0705787  36.1999198  40.5328830  26.8151226
  36.6527746  40.9152248  27.7299103  37.1349198  39.4768830  26.2091226
  37.0135241  38.5526320  26.7740328  36.8339198  39.2168830  24.7421226
  36.9555646  40.1406391  24.1764578  37.5209333  38.4629580  24.3577939
  35.8090986  38.8603363  24.6386011  38.4919198  39.9218830  26.3251226
  39.0782939  39.2627103  25.9466295  36.1149198  41.7638830  25.9171226
  37.0029198  42.0168830  25.1001226  35.0539198  42.5538830  26.0711226
  34.2377918  42.2371441  26.5748199  35.0219198  43.8768830  25.4691226
  35.9566201  44.3945077  25.6847591  34.8479198  43.7958830  23.9591226
  34.8556612  44.8070978  23.5523254  35.6811618  43.2305281  23.5417720
  33.6289198  43.1598830  23.6191226  33.5435950  43.1216002  22.6636887
  33.9009198  44.6998830  26.0831226  33.1089198  44.2098830  26.8921226
  33.8539198  45.9688830  25.6761226  34.5156143  46.3082275  24.9926719
  32.8959198  46.9108830  26.2361226  32.7505358  46.7457887  27.3036930
  33.3799198  48.3498830  26.0021226  33.4369130  48.5353709  24.9295340
  32.4189198  49.3438830  26.6381226  32.3617513  49.1593056  27.7108591
  32.7764543  50.3585958  26.4631152  31.4292770  49.2266925  26.1965654
  34.7949198  48.5358830  26.5571226  34.7213533  48.5163307  27.6444618
  35.3896343  47.6875417  26.2184027  35.4569198  49.8198830  26.1211226
  34.8629821  50.6687432  26.4599060  36.4553875  49.8797632  26.5542227
  35.5312610  49.8399551  25.0338460  31.5299198  46.6818830  25.6111226
  31.4189198  46.2478830  24.4571226  30.4769198  46.9708830  26.3731226
  30.6046248  47.1588983  27.3572166  29.1239198  46.9718830  25.8411226
  29.1332926  47.4181695  24.8467184  28.5459198  45.5558830  25.7371226
  27.5165006  45.6082159  25.3826416  29.1414868  44.9703126  25.0367604
  28.5069198  44.6058830  27.2621226  28.2319198  47.8378830  26.7171226
  28.5509198  48.1218830  27.8741226  27.1109198  48.2628830  26.1401226
  26.9675110  48.0103443  25.1727770  26.1239198  49.1238830  26.7841226
  25.3645660  49.4114552  26.0569477  25.4369198  48.4058830  27.9521226
  24.9804599  47.4892510  27.5785861  26.1894584  48.1575844  28.7005433
  24.4409198  49.2238830  28.5381226  24.0268293  48.7528442  29.2649316
  26.7169198  50.4398830  27.2701226  26.0879198  51.1388830  28.0741226
  27.9109198  50.7988830  26.8061226  28.4383701  50.1806874  26.2063479
  28.5129198  52.0628830  27.1921226  28.3425472  52.2478348  28.2527192
  30.0209198  52.0278830  26.9381226  30.3571941  51.1732056  27.5251024
  30.1513148  51.8134182  25.8774143  30.8459198  53.2608830  27.3141226
  30.5280262  54.0917232  26.6842424  30.6649198  53.6338830  28.7701226
  30.9830606  52.8036488  29.4006752  31.2666568  54.5137466  28.9978361
  29.6145345  53.8531969  28.9616759  32.3119198  53.0038830  27.0291226
  32.4445730  52.7915776  25.9682602  32.8948095  53.8846570  27.2985256
  32.6523456  52.1502952  27.6152942  27.8619198  53.2118830  26.4271226
  27.1279198  53.0108830  25.4571226  28.1089198  54.4318830  26.9001226
  28.6064520  54.5275779  27.7738523  27.6309198  55.6408830  26.2411226
  27.0851771  55.3815550  25.3339219  26.6879198  56.4108830  27.1781226
  25.7693600  55.8283782  27.2490837  27.1659758  56.4551490  28.1566945
  26.3609198  57.8128830  26.7131226  27.1309198  58.8938830  27.1161226
  27.9801996  58.7173525  27.7761682  26.8379198  60.1758830  26.6961226
  27.4539610  61.0155444  27.0179357  25.7599198  60.3908830  25.8671226
  25.4669198  61.6678830  25.4501226  26.0758994  62.3244447  25.7960564
  24.9769198  59.3348830  25.4541226  24.1237533  59.5032957  24.7969738
  25.2799198  58.0548830  25.8791226  24.6645086  57.2142361  25.5586822
  28.7619198  56.5478830  25.7821226  28.8049198  56.9328830  24.6101226
  29.6919198  56.8988830  26.6691226  29.6513294  56.5381915  27.6116476
  30.7529198  57.8468830  26.3351226  30.8366701  57.9321258  25.2516935
  30.4569198  59.2298830  26.9121226  29.5386211  59.5854600  26.4447985
  30.2945896  59.1055998  27.9827779  31.5639198  60.2398830  26.6831226
  32.3989347  59.9950248  27.3395488  31.8889850  60.1791154  25.6444976
  31.1229198  61.6608830  26.9701226  29.9719198  61.9048830  27.3281226
  32.0389198  62.6068830  26.8091226  31.8001728  63.5721203  26.9863744
  32.9708351  62.3575160  26.5100387  32.0839198  57.3208830  26.8521226
  32.1549198  56.7668830  27.9531226  33.1289198  57.4968830  26.0511226
  32.9680152  57.8613031  25.1230024  34.4899198  57.1618830  26.4331226
  34.6102336  57.2821065  27.5097702  34.8119198  55.7128830  26.0641226
  33.8963496  55.1859580  26.3327870  34.9463965  55.6785035  24.9829963
  36.0059198  55.0418830  26.7481226  35.9086464  55.1505378  27.8283230
  36.0479198  53.5678830  26.3901226  36.1456574  53.4584223  25.3100464
  36.9003926  53.0983794  26.8809965  35.1279204  53.0865398  26.7218006
  37.3159198  55.7118830  26.3781226  37.2891557  56.7575066  26.6848055
  38.1386629  55.2064150  26.8837877  37.4624198  55.6537594  25.2995780
  35.4539198  58.1098830  25.7331226  35.3829198  58.3038830  24.5191226
  36.3569198  58.7128830  26.5001226  36.4277150  58.5587449  27.4957776
  37.2559198  59.6768830  25.8861226  37.6773669  59.2542616  24.9740521
  36.5119198  60.9688830  25.5291226  37.2607570  61.6819747  25.1843875
  35.8344930  60.7294279  24.7094554  35.7259198  61.5758830  26.6721226
  34.8802573  60.9317317  26.9130062  36.3900805  61.6401953  27.5340122
  35.2379198  62.9758830  26.3601226  35.8409198  63.6388830  25.4911226
  34.2459198  63.4108830  26.9811226  34.0069019  64.3058995  26.7301345
  38.4249198  60.0018830  26.8001226  38.2339198  60.3328830  27.9701226
  33.8890248  62.7779300  27.6083988  35.4699433  64.5157303  25.3650744
  36.5703099  63.1592402  25.0925628  39.6309198  59.9258830  26.2461226
  39.7701493  59.4022565  25.3937555  40.7849198  60.5588830  26.8621226
  40.7761159  60.3741554  27.9363188  42.0809198  59.9978830  26.2811226
  41.9444341  58.9347915  26.0828615  42.2993999  60.5159764  25.3473423
  43.2569198  60.1678830  27.2141226  43.2689198  61.0628830  28.0561226
  44.2569198  59.3068830  27.0701226  45.0680813  59.3751452  27.6679997
  44.2020253  58.5874731  26.3633434  40.6879198  62.0598830  26.6211226
  39.7329198  62.5308830  25.9961226  41.6649198  62.8148830  27.1161226
  42.4308312  62.4077227  27.6335195  41.6299198  64.2628830  26.9591226
  41.4736438  64.5148522  25.9102239  40.4909198  64.8698830  27.7831226
  39.6789426  64.1431985  27.7562554  40.8465828  64.9788024  28.8076910
  39.9899198  66.2028830  27.2801226  40.7819198  67.3398830  27.3531226
  41.7830355  67.2573388  27.7762694  40.3219198  68.5608830  26.9011226
  40.9568207  69.4450674  26.9578726  39.0519198  68.6568830  26.3731226
  38.5879198  69.8708830  25.9231226  39.2287578  70.5784212  26.0246899
  38.2439198  67.5438830  26.2961226  37.2392738  67.6189203  25.8800020
  38.7139198  66.3278830  26.7501226  38.0790693  65.4435110  26.6957974
  42.9649198  64.8518830  27.3861226  43.5469198  64.4148830  28.3821226
  43.4349198  65.8418830  26.6351226  42.9533004  66.0845123  25.7811477
  44.6579198  66.5648830  26.9691226  44.5216171  67.0930497  27.9128178
  45.8439198  65.6078830  27.1111226  46.7750035  66.1723623  27.0606698
  45.7832555  65.0930582  28.0699632  45.9549198  64.3088830  25.8691226
  44.9609198  67.6178830  25.9101226  44.8319198  68.8158830  26.1601226
  45.3569198  67.2498830  24.7391226  45.4733543  66.2754293  24.5004128
  45.6479198  68.2468830  23.7241226  45.4754420  69.2427467  24.1322984
  46.6889997  68.1572131  23.4139412  44.9980475  68.0900809  22.8632050
  26.5456373  27.3911652  32.6559039  26.3889198  27.6348830  31.6051226
  25.7330185  28.5019056  31.5266128  25.9297546  26.7855908  31.0991888
  27.6989198  27.9558830  30.9191226  28.7689198  27.9238830  31.5401226
  27.6999198  28.2668830  29.6671226  26.8507450  28.2685866  29.1203150
  28.9549198  28.5778830  28.9951226  29.7066534  28.8637493  29.7308373
  29.4649198  27.3608830  28.2231226  29.2586524  26.4534296  28.7906448
  28.9800168  27.2976668  27.2489702  30.9389198  27.3798830  27.9671226
  31.6599198  28.5478830  27.8451226  31.2654241  29.4751027  27.9139452
  32.9299198  28.2588830  27.6271226  33.6662737  29.0523920  27.4997436
  33.0599198  26.9438830  27.6061226  33.9187418  26.4331104  27.4590308
  31.8299198  26.3718830  27.8181226  31.7297839  25.2866873  27.8387212
  28.7609198  29.7628830  28.0581226  27.9339198  29.7138830  27.1481226
  29.5219198  30.8318830  28.2921226  30.1601662  30.8354244  29.0748922
  29.4199198  32.0368830  27.4781226  28.6545466  31.9044295  26.7134271
  29.0379198  33.2358830  28.3501226  28.0812544  32.9462233  28.7848501
  29.7839538  33.3227637  29.1400498  28.8879198  34.5848830  27.6391226
  28.5816159  34.4112375  26.6075578  27.8459198  35.4378830  28.3391226
  28.1517779  35.6123542  29.3706794  27.7506869  36.3929168  27.8224583
  26.8858667  34.9218717  28.3276848  30.2139198  35.3258830  27.5751226
  30.9405311  34.7249335  27.0283181  30.0739126  36.2788873  27.0649441
  30.5793331  35.5058372  28.5861560  30.7259198  32.3058830  26.7431226
  30.7239198  32.5368830  25.5291226  31.8439198  32.2758830  27.4641226
  31.7946535  32.0728748  28.4522824  33.1439198  32.5768830  26.8861226
  33.0862321  32.4837223  25.8016447  33.5969198  33.9998830  27.2321226
  32.7631289  34.5517497  27.6660987  34.4161077  33.9565413  27.9498640
  34.1779198  34.9538830  25.8141226  34.1629198  31.5618830  27.3811226
  33.9809198  30.9208830  28.4191226  35.2469198  31.4308830  26.6251226
  35.3792849  32.0577292  25.8443264  36.2539198  30.4218830  26.8731226
  35.7589952  29.5446804  27.2898534  36.7134968  30.1605749  25.9199141
  37.3319198  30.8798830  27.8301226  37.1289198  31.7588830  28.6711226
  38.5039198  30.2668830  27.6911226  38.6251089  29.5986732  26.9435209
  39.6109198  30.4848830  28.6061226  39.2743046  31.0658843  29.4647418
  40.1559198  29.1468830  29.1051226  40.5758325  28.6037124  28.2585186
  40.9401913  29.3407561  29.8368544  39.1329198  28.3698830  29.7041226
  39.5004267  27.5368110  30.0083094  40.7249198  31.2878830  27.9371226
  40.7469198  31.4888830  26.7211226  41.6609198  31.7518830  28.7631226
  41.5167451  31.6369470  29.7561497  42.8429198  32.4838830  28.3151226
  43.4229144  32.8060052  29.1799594  43.7299198  31.6018830  27.4321226
  43.6769657  30.5641862  27.7614864  43.4050579  31.6700292  26.3938929
  45.1769198  31.9848830  27.4541226  46.1919198  31.0668830  27.2941226
  46.0529738  30.0769907  27.1495299  47.3569198  31.6858830  27.3601226
  48.2882607  31.1292222  27.2560468  47.1339198  32.9728830  27.5571226
  47.8386791  33.6907093  27.6473416  45.7789198  33.1868830  27.6211226
  45.3931471  34.1935851  27.7818445  42.4809198  33.7678830  27.5791226
  43.2319198  34.2238830  26.7111226  41.3379198  34.3608830  27.9081226
  40.7026656  33.9287527  28.5637253  40.9509198  35.6258830  27.3051226
  41.0917054  35.5793620  26.2252548  39.4819198  35.9258830  27.5931226
  39.4722234  36.2238218  28.6415680  39.1653998  36.7655725  26.9743847
  38.5229198  34.7518830  27.3881226  38.7285145  33.9893400  28.1393614
  37.0869198  35.2148830  27.5191226  36.8804269  35.9771553  26.7678567
  36.4166637  34.3682268  27.3706944  36.9286768  35.6329737  28.5132351
  38.7569198  34.0978830  26.0441226  39.7811450  33.7285493  25.9925979
  38.0643638  33.2655293  25.9190031  38.5940832  34.8277064  25.2510646
  41.8269198  36.7548830  27.8341226  42.2209198  36.7718830  29.0031226
  42.1299198  37.7068830  26.9571226  41.7813094  37.6346501  26.0119493
  42.9929198  38.8328830  27.2911226  43.0489847  38.9865852  28.3687736
  44.4229198  38.6358830  26.7461226  44.3749922  38.4926367  25.6666400
  45.2819198  39.8508830  27.0581226  45.3307014  39.9945079  28.1375174
  46.2874102  39.6957486  26.6669414  44.8443761  40.7347197  26.5939138
  45.0419198  37.3758830  27.3261226  44.4356063  36.5128211  27.0511496
  46.0504362  37.2512211  26.9318466  45.0845458  37.4581319  28.4121792
  42.3799198  40.1078830  26.7331226  41.8719198  40.1278830  25.6071226
  42.4249198  41.1708830  27.5281226  42.7248458  41.0443059  28.4842199
  42.0339198  42.5038830  27.0991226  42.1009780  42.5667233  26.0130041
  40.5999198  42.8308830  27.5201226  39.9584214  42.0447670  27.1218754
  40.5690294  42.8073118  28.6094298  40.1089198  44.1818830  27.0291226
  40.7914338  44.9568429  27.3779960  40.1086246  44.1624565  25.9392962
  38.6989198  44.4908830  27.4851226  38.2339198  43.8478830  28.4481226
  38.0549198  45.3748830  26.8821226  37.1696724  45.5004567  27.2310459
  42.9949198  43.5158830  27.7021226  43.5519198  43.2898830  28.7811226
  38.5523001  45.7799036  26.1679447  37.3330421  44.0994802  28.6660474
  38.8561461  43.2139235  28.8112298  43.1899198  44.6308830  27.0041226
  42.7291900  44.7416841  26.1121862  44.0819198  45.6868830  27.4551226
  43.9913453  45.8118811  28.5341365  45.5369198  45.3548830  27.1221226
  45.6453872  45.2357228  26.0440986  46.1822443  46.1638631  27.4644787
  45.8217838  44.4280638  27.6200764  43.6779198  47.0018830  26.8091226
  43.9199198  47.2128830  25.6171226  43.0769198  47.8848830  27.5981226
  42.8952501  47.6324365  28.5590421  42.6269198  49.1868830  27.1301226
  42.7153161  49.2384784  26.0449391  41.1649198  49.4218830  27.5131226
  40.6124516  48.7833313  26.8238260  41.0241809  49.0625573  28.5325232
  40.6489198  50.8558830  27.4031226  41.1018672  51.4555314  28.1926549
  40.9989198  51.4458830  26.0611226  40.5459087  50.8469982  25.2710487
  40.6225093  52.4671940  26.0033317  42.0818256  51.4507565  25.9370595
  39.1489198  50.8928830  27.6301226  38.9217654  50.5078996  28.6242494
  38.7938899  51.9202496  27.5490486  38.6521629  50.2771131  26.8803499
  43.5179198  50.2678830  27.7231226  43.6429198  50.3738830  28.9471226
  44.1309198  51.0668830  26.8541226  43.9662235  50.9256340  25.8677032
  45.0519198  52.1198830  27.2561226  45.2026527  52.0793808  28.3348897
  46.4069198  51.9578830  26.5671226  46.2347385  51.9588867  25.4908086
  46.9865940  52.8388871  26.8426397  47.1689198  50.7138830  26.9531226
  46.7209198  49.4598830  26.5761226  45.7996460  49.3818824  25.9988271
  47.4179198  48.3218830  26.9181226  47.0485236  47.3405898  26.6202770
  48.5849198  48.4278830  27.6381226  49.2829198  47.2928830  27.9791226
  48.8660071  46.4874110  27.6644826  49.0569198  49.6628830  28.0191226
  49.9811638  49.7488881  28.5905038  48.3519198  50.7968830  27.6731226
  48.7223349  51.7793725  27.9657094  44.4639198  53.4798830  26.9091226
  44.1039198  53.7308830  25.7541226  44.3709198  54.3488830  27.9091226
  44.5374743  54.0123215  28.8467181  44.0189198  55.7508830  27.7311226
  43.8248565  55.9445566  26.6761680  42.7699198  56.1148830  28.5321226
  42.9466422  55.5980167  29.4753711  42.8059339  57.1918527  28.6962545
  41.3929198  55.7278830  27.9891226  40.6956173  55.6353585  28.8217746
  40.8909198  56.7808830  27.0261226  41.5875142  56.8736554  26.1929070
  39.9103382  56.4909005  26.6486697  40.8126627  57.7379425  27.5418873
  41.4219198  54.3728830  27.3221226  41.7320709  53.6181542  28.0448190
  40.4272859  54.1300548  26.9481718  42.1273589  54.3912912  26.4913906
  45.2089198  56.5808830  28.1891226  45.3069198  56.9248830  29.3721226
  46.1059198  56.9038830  27.2601226  45.9188981  56.7266908  26.2835341
  47.4049198  57.4568830  27.6261226  47.4733916  57.6625120  28.6943583
  48.5429198  56.4948830  27.2361226  48.5546850  56.3794987  26.1523111
  49.8839198  57.0418830  27.7021226  49.8730792  57.1571107  28.7859612
  50.6773110  56.3502867  27.4187051  50.0634923  58.0107090  27.2360415
  48.3009198  55.1098830  27.8121226  47.3605754  54.7150553  27.4274596
  49.1174509  54.4480157  27.5234908  48.2508741  55.1715788  28.8992242
  47.6229198  58.8188830  26.9831226  48.0799198  58.9138830  25.8391226
  47.3039198  59.8798830  27.7181226  46.7017564  59.7902364  28.5240147
  47.7829198  61.2058830  27.3591226  47.8190711  61.3027862  26.2740410
  46.8539198  62.2818830  27.9141226  46.4637105  61.9625663  28.8804936
  47.4074382  63.2129324  28.0360426  45.4139198  62.6398830  26.8871226
  49.1939198  61.3938830  27.8991226  49.3899198  61.8708830  29.0201226
  50.1779198  61.0148830  27.0911226  49.9762535  60.8050387  26.1239642
  51.5429198  60.8898830  27.5491226  51.5485485  60.2352173  28.4206043
  52.1274827  60.4347035  26.7496246  52.1709198  62.2168830  27.9251226
  51.5029198  63.2058830  28.2311226  53.5019198  62.2228830  27.8951226
  53.9868039  61.3998100  27.5671933  54.2959198  63.3498830  28.3691226
  54.1538042  63.4830976  29.4415760  55.7789198  63.0918830  28.1011226
  55.8965313  62.9770987  27.0235831  56.3249148  63.9747151  28.4336837
  56.3279198  61.8638830  28.8031226  56.0961825  61.9300926  29.8661442
  55.8371577  60.9880473  28.3786658  57.8219198  61.6958830  28.6081226
  58.4759198  62.6598830  28.1611226  58.3399198  60.5988830  28.9011226
  59.2859475  60.5740840  28.7411362  53.8719198  64.6618830  27.7231226
  53.6799198  64.7318830  26.5051226  57.7046900  59.9615857  29.2355089
  59.4107422  62.4637127  28.0611369  57.9355699  63.4357636  27.9969628
  53.7229198  65.7048830  28.5351226  53.8132563  65.5556081  29.5299370
  53.3999198  67.0458830  28.0641226  53.6009735  67.1112717  26.9948234
  51.9279198  67.3828830  28.3061226  51.7495299  67.2816493  29.3766496
  51.7863178  68.4226965  28.0114416  50.9509198  66.5038830  27.5451226
  51.2345849  66.5025590  26.4926811  51.0178835  65.4902137  27.9402079
  49.5249198  67.0078830  27.6841226  48.8668607  66.3818392  27.0815228
  49.2268358  66.9455047  28.7307144  49.3889198  68.3908830  27.2411226
  50.2093582  68.8272178  26.8454055  48.2719198  69.1008830  27.3231226
  47.1619198  68.5898830  27.8311226  47.1556777  67.6373589  28.1669187
  46.3261271  69.1547665  27.8806884  48.2689198  70.3558830  26.8851226
  49.1119597  70.7539495  26.4966297  47.4236155  70.9056375  26.9428238
  54.2969198  68.0388830  28.7861226  54.7749198  67.7568830  29.8891226
  54.5269198  69.1798830  28.1681226  54.1627146  69.3343079  27.2388181
  55.2979198  70.2378830  28.7881226  54.8036496  71.1935110  28.6132760
  55.3638472  70.0543671  29.8605380  56.7009198  70.2938830  28.2091226
  56.9169198  69.9658830  27.0441226  57.6379198  70.7118830  29.0571226
  57.3733385  70.8820844  30.0168765  59.0179198  70.9678830  28.6651226
  59.1107636  70.8853854  27.5822222  59.4569198  72.3718830  29.0881226
  59.4176370  72.4832113  30.1717102  60.4768049  72.5411418  28.7427448
  58.6179198  73.4788830  28.5111226  57.2789198  73.6018830  28.8401226
  56.8328171  72.8793156  29.5234883  56.5109198  74.6208830  28.3161226
  55.4551989  74.6980079  28.5761339  57.0789198  75.5408830  27.4641226
  56.4763007  76.3493523  27.0502052  58.4119198  75.4378830  27.1351226
  58.8642918  76.1645498  26.4602781  59.1759198  74.4138830  27.6601226
  60.2326452  74.3360629  27.4044365  59.9099198  69.9178830  29.3091226
  59.8489198  69.7098830  30.5261226  60.7309198  69.2578830  28.4961226
  60.7144691  69.4722343  27.5092679  61.6289198  68.2088830  28.9601226
  61.6732166  68.2230429  30.0491297  61.1439198  66.8288830  28.5081226
  61.1404782  66.7659453  27.4199470  61.7948502  66.0546500  28.9142665
  59.7529198  66.5008830  28.9611226  58.6619198  67.1298830  28.3901226
  58.8262986  67.8663745  27.6035733  57.3849198  66.8378830  28.8011226
  56.5353993  67.3455584  28.3443060  57.1779198  65.9048830  29.7891226
  56.1646366  65.6718450  30.1163084  58.2529198  65.2638830  30.3661226
  58.0927087  64.5221989  31.1486424  59.5339198  65.5628830  29.9511226
  60.3859626  65.0570894  30.4053206  63.0249198  68.4798830  28.4251226
  63.2029198  68.6678830  27.2181226  64.0119198  68.4848830  29.3211226
  63.7956752  68.2944894  30.2891556  65.3869198  68.8178830  28.9731226
  65.4749962  68.9275107  27.8922325  65.8119198  70.1288830  29.6331226
  65.9019391  69.9441066  30.7035681  66.7909717  70.3791216  29.2245422
  64.8599198  71.2788830  29.3991226  63.6759198  71.3778830  30.1111226
  63.4380412  70.6068285  30.8439175  62.8059198  72.4258830  29.9071226
  61.8764954  72.4878531  30.4731897  63.1149198  73.3968830  28.9851226
  62.2489198  74.4448830  28.7791226  61.4644830  74.3972023  29.3304711
  64.2839198  73.3248830  28.2681226  64.5292984  74.0945960  27.5363906
  65.1509198  72.2698830  28.4781226  66.0815445  72.2086535  27.9139518
  66.3389198  67.6958830  29.3651226  67.4459198  67.9538830  29.8471226
  65.9229198  66.4498830  29.1691226  64.9935249  66.2809182  28.8116658
  66.7589198  65.2998830  29.4921226  66.9512788  65.2681250  30.5645445
  66.0839198  63.9808830  29.0741226  65.9593666  63.9760889  27.9912728
  66.9299198  62.7878830  29.4921226  67.0545297  62.7917427  30.5749694
  66.4347432  61.8659782  29.1871785  67.9075903  62.8498150  29.0141839
  64.7919198  63.8858830  29.6861226  64.3733673  63.0627015  29.4238509
  68.1179198  65.4028830  28.8091226  69.1109198  65.7728830  29.4341226
  68.2279198  65.0978830  27.5601226  67.4342393  64.7904229  27.0163957
  69.5189198  65.1928830  26.9011226  70.2676192  65.5357356  27.6152668
  69.8047884  64.2133202  26.5179302  69.4544817  65.9009810  26.0749598
  25.1260329  44.0223668  34.8220623  25.2829198  43.6178830  33.8221226
  26.0134584  44.2295397  33.2927006  24.3401219  43.6239250  33.2751357
  25.7969198  42.1958830  33.8841226  25.9889198  41.6338830  34.9701226
  26.0379198  41.5588830  32.7881226  25.8615228  41.9735265  31.8842121
  26.5329198  40.1888830  32.8351226  26.9839422  39.9926393  33.8078335
  25.3889198  39.1978830  32.6181226  24.6222429  39.4267175  33.3583527
  24.9936848  39.3788917  31.6185601  25.7959198  37.7388830  32.7451226
  26.5772705  37.5268060  32.0153177  26.1827840  37.5704337  33.7501415
  24.6399198  36.7898830  32.5061226  23.4959198  37.2148830  32.3431226
  24.9329198  35.4958830  32.4821226  24.2004042  34.8181710  32.3264664
  25.8870973  35.1946505  32.6196202  27.6169198  39.9718830  31.7861226
  27.3759198  39.3378830  30.7601226  28.8119198  40.4928830  32.0511226
  28.9667600  40.9909914  32.9159994  29.9079198  40.4118830  31.0951226
  29.6040878  39.7948174  30.2495368  30.2999198  41.7968830  30.5741226
  31.1965153  41.7141820  29.9598130  29.4856678  42.2039931  29.9746603
  30.6739198  43.0158830  31.8541226  31.0949198  39.7328830  31.7591226
  31.1579198  39.5998830  32.9821226  32.0389198  39.2998830  30.9281226
  31.8942743  39.3937987  29.9329559  33.2629198  38.6638830  31.3901226
  33.2734698  38.6559603  32.4800424  33.3749198  37.2238830  30.8901226
  32.6217448  36.6083242  31.3819702  33.2158049  37.1996321  29.8120714
  34.9889198  36.4828830  31.2231226  34.4709198  39.4568830  30.9151226
  34.5039198  39.9358830  29.7771226  35.4409198  39.6138830  31.8161226
  35.2308049  39.3762536  32.7750196  36.7489198  40.2058830  31.5171226
  37.1944570  40.5972116  32.4317032  37.7059198  39.1708830  30.9091226
  37.6055787  38.2436424  31.4732652  37.4079198  38.9058830  29.4421226
  37.5085194  39.8326350  28.8772244  38.1103982  38.1674017  29.0557696
  36.3908718  38.5273401  29.3400474  39.0529198  39.6458830  31.0231226
  39.6531788  39.0000282  30.6434372  36.6359198  41.4368830  30.6191226
  37.5169198  41.7088830  29.8011226  35.5589198  42.2028830  30.7761226
  34.7510069  41.8672818  31.2808483  35.4959198  43.5258830  30.1751226
  36.4187999  44.0646205  30.3899558  35.3219198  43.4418830  28.6651226
  35.3066179  44.4530864  28.2585113  36.1666162  42.8950803  28.2460823
  34.1159198  42.7788830  28.3271226  34.0296450  42.7388793  27.3718445
  34.3589198  44.3238830  30.7911226  33.5789198  43.8158830  31.6011226
  34.2849198  45.5918830  30.3851226  34.9388620  45.9461803  29.7017982
  33.3069198  46.5128830  30.9471226  33.1672847  46.3440408  32.0148742
  33.7589198  47.9618830  30.7131226  33.8093517  48.1494776  29.6405718
  32.7779198  48.9338830  31.3521226  32.7272930  48.7471948  32.4248225
  33.1126827  49.9563489  31.1772002  31.7900728  48.7953591  30.9127269
  35.1709198  48.1778830  31.2661226  35.0993945  48.1560015  32.3535536
  35.7829601  47.3425661  30.9258995  35.8049198  49.4758830  30.8301226
  35.1936452  50.3117351  31.1704084  36.8025363  49.5565818  31.2618032
  35.8772087  49.4983006  29.7427535  31.9449198  46.2538830  30.3241226
  31.8419198  45.8188830  29.1701226  30.8879198  46.5198830  31.0881226
  31.0137300  46.7098131  32.0720930  29.5339198  46.4918830  30.5591226
  29.5315767  46.9391119  29.5651005  28.9859198  45.0638830  30.4551226
  27.9552256  45.0945250  30.1018100  29.5929846  44.4913714  29.7538361
  28.9709198  44.1128830  31.9791226  28.6249198  47.3378830  31.4361226
  28.9389198  47.6278830  32.5931226  27.4939198  47.7388830  30.8621226
  27.3546243  47.4835804  29.8949015  26.4889198  48.5778830  31.5081226
  25.7218734  48.8488383  30.7826419  25.8209198  47.8438830  32.6761226
  25.3835734  46.9177403  32.3031787  26.5797385  47.6116546  33.4233603
  24.8079198  48.6408830  33.2641226  24.4051022  48.1610443  33.9915102
  27.0549198  49.9058830  31.9931226  26.4119198  50.5908830  32.7991226
  28.2399198  50.2908830  31.5281226  28.7796022  49.6841365  30.9275388
  28.8159198  51.5678830  31.9141226  28.6438963  51.7484684  32.9752051
  30.3229198  51.5648830  31.6571226  30.6789541  50.7171235  32.2424795
  30.4558926  51.3544801  30.5959210  31.1219198  52.8158830  32.0331226
  30.7848004  53.6399959  31.4044023  30.9359198  53.1838830  33.4891226
  31.2732746  52.3603810  34.1185152  31.5188988  54.0764579  33.7161606
  29.8814186  53.3802566  33.6829399  32.5929198  52.5898830  31.7451226
  32.7280264  52.3812037  30.6838504  33.1576781  53.4825077  32.0141400
  32.9522952  51.7431986  32.3299933  28.1379198  52.7028830  31.1511226
  27.4069198  52.4868830  30.1811226  28.3599198  53.9278830  31.6241226
  28.8577628  54.0344539  32.4964152  27.8549198  55.1258830  30.9661226
  27.3132187  54.8547263  30.0599586  26.8969198  55.8758830  31.9051226
  25.9912618  55.2737609  31.9781422  27.3764907  55.9298681  32.8824646
  26.5389198  57.2698830  31.4421226  27.2859198  58.3678830  31.8441226
  28.1400703  58.2090030  32.5023654  26.9649198  59.6428830  31.4261226
  27.5630340  60.4955737  31.7474942  25.8809198  59.8348830  30.5981226
  25.5589198  61.1058830  30.1821226  26.1535525  61.7756190  30.5277599
  25.1209198  58.7618830  30.1861226  24.2635892  58.9131080  29.5302143
  25.4509198  57.4888830  30.6091226  24.8527797  56.6358950  30.2885917
  28.9649198  56.0578830  30.5061226  28.9979198  56.4448830  29.3341226
  29.8889198  56.4278830  31.3911226  29.8586839  56.0647529  32.3331001
  30.9279198  57.3988830  31.0561226  31.0077190  57.4866321  29.9725953
  30.6029198  58.7758830  31.6351226  29.6768760  59.1127145  31.1691969
  30.4446060  58.6477523  32.7059257  31.6889198  59.8088830  31.4051226
  32.5299656  59.5823690  32.0604349  32.0139463  59.7555904  30.3660751
  31.2169198  61.2198830  31.6931226  30.0619198  61.4388830  32.0531226
  32.1119198  62.1858830  31.5311226  31.8523331  63.1456292  31.7088963
  33.0486811  61.9570314  31.2307786  32.2709198  56.9018830  31.5711226
  32.3559198  56.3488830  32.6711226  33.3109198  57.1008830  30.7681226
  33.1409637  57.4630355  29.8407285  34.6799198  56.7948830  31.1481226
  34.7992701  56.9164480  32.2247268  35.0319198  55.3538830  30.7771226
  34.1282251  54.8083353  31.0488081  35.1638575  55.3216349  29.6956179
  36.2419198  54.7078830  31.4581226  36.1449119  54.8145743  32.5385426
  36.3149198  53.2348830  31.1001226  36.4124096  53.1273959  30.0198258
  37.1785161  52.7839887  31.5889952  35.4063372  52.7338183  31.4340571
  37.5359198  55.4068830  31.0871226  37.4867752  56.4511514  31.3956477
  38.3704341  54.9187287  31.5905036  37.6817651  55.3537985  30.0082296
  35.6219198  57.7638830  30.4461226  35.5439198  57.9568830  29.2331226
  36.5129198  58.3858830  31.2131226  36.5897527  58.2326953  32.2084766
  37.3899198  59.3688830  30.5971226  37.8176970  58.9560279  29.6835272
  36.6169198  60.6448830  30.2431226  37.3495900  61.3737637  29.8966742
  35.9430389  60.3908026  29.4249370  35.8209198  61.2348830  31.3871226
  34.9904419  60.5717517  31.6293296  36.4852968  61.3135169  32.2476567
  35.3009198  62.6238830  31.0771226  35.8889198  63.3008830  30.2071226
  34.3009198  63.0378830  31.6991226  34.0426556  63.9275405  31.4481480
  38.5529198  59.7188830  31.5101226  38.3559198  60.0448830  32.6811226
  33.9583282  62.3977267  32.3270636  35.4986640  64.1694231  30.0817774
  36.6283024  62.8375316  29.8077031  39.7589198  59.6698830  30.9541226
  39.9073929  59.1516281  30.1000342  40.9009198  60.3268830  31.5691226
  40.8981438  60.1404755  32.6430610  42.2069198  59.7948830  30.9851226
  42.0921653  58.7292695  30.7866317  42.4128941  60.3177840  30.0511798
  43.3809198  59.9888830  31.9161226  43.3749198  60.8838830  32.7581226
  44.3989198  59.1508830  31.7701226  45.2091669  59.2365698  32.3669955
  44.3590278  58.4310515  31.0627670  40.7709198  61.8248830  31.3281226
  39.8049198  62.2758830  30.7051226  41.7319198  62.6008830  31.8221226
  42.5073956  62.2097327  32.3376205  41.6659198  64.0478830  31.6661226
  41.5024040  64.2973087  30.6177197  40.5149198  64.6298830  32.4931226
  39.7187852  63.8858320  32.4674882  40.8700234  64.7461505  33.5170773
  39.9839198  65.9528830  31.9911226  40.7519198  67.1058830  32.0641226
  41.7551072  67.0449410  32.4860236  40.2649198  68.3168830  31.6131226
  40.8805555  69.2145873  31.6698800  38.9919198  68.3858830  31.0871226
  38.5009198  69.5898830  30.6381226  39.1264873  70.3110888  30.7387564
  38.2079198  67.2548830  31.0101226  37.2015218  67.3077962  30.5948349
  38.7049198  66.0498830  31.4631226  38.0895077  65.1518254  31.4096375
  42.9879198  64.6658830  32.0921226  43.5809198  64.2408830  33.0861226
  43.4349198  65.6668830  31.3401226  42.9467929  65.8997600  30.4871280
  44.6429198  66.4148830  31.6721226  44.4966587  66.9399009  32.6160840
  45.8499198  65.4838830  31.8121226  46.7683653  66.0685974  31.7604872
  45.8019268  64.9675930  32.7708934  45.9859198  64.1878830  30.5691226
  44.9209198  67.4748830  30.6131226  44.8359198  67.2038830  29.4151226
  45.2489198  68.6688830  30.9751226  45.3282306  68.9249979  31.9488856
  45.5149198  69.6848830  29.9721226  45.3885935  69.2564710  28.9778362
  44.8193925  70.5141943  30.1009056  46.5367068  70.0476393  30.0837434
  27.3907622  26.8559742  37.3666936  27.2269198  27.0958830  36.3161226
  26.5516407  27.9479826  36.2385161  26.7860672  26.2364068  35.8110993
  28.5279198  27.4458830  35.6281226  29.5999198  27.4378830  36.2481226
  28.5209198  27.7578830  34.3761226  27.6708625  27.7421762  33.8309114
  29.7679198  28.0968830  33.7021226  30.5150009  28.3980561  34.4364684
  30.3019198  26.8908830  32.9281226  30.1162934  25.9775093  33.4932691
  29.8172227  26.8198790  31.9544043  31.7759198  26.9428830  32.6701226
  32.4709198  28.1258830  32.5471226  32.0569609  29.0444862  32.6171651
  33.7469198  27.8638830  32.3261226  34.4657959  28.6729601  32.1968542
  33.9049198  26.5528830  32.3051226  34.7746652  26.0611578  32.1573080
  32.6879198  25.9538830  32.5181226  32.6114419  24.8667338  32.5370704
  29.5469198  29.2778830  32.7651226  28.7199198  29.2118830  31.8571226
  30.2849198  30.3628830  32.9991226  30.9241194  30.3800823  33.7809329
  30.1549198  31.5658830  32.1861226  29.3909738  31.4170355  31.4230170
  29.7489198  32.7558830  33.0591226  28.7993308  32.4451638  33.4948217
  30.4939331  32.8582108  33.8481626  29.5689198  34.1008830  32.3501226
  29.2648352  33.9211464  31.3189446  28.5099198  34.9318830  33.0521226
  28.8135413  35.1124358  34.0832935  28.3939123  35.8848577  32.5359034
  27.5608945  34.3958354  33.0419027  30.8779198  34.8708830  32.2831226
  31.6161639  34.2864139  31.7340407  30.7155900  35.8208579  31.7739096
  31.2419361  35.0582768  33.2933080  31.4539198  31.8628830  31.4481226
  31.4449198  32.0948830  30.2351226  32.5729198  31.8578830  32.1681226
  32.5291339  31.6552658  33.1566207  33.8659198  32.1868830  31.5881226
  33.8089907  32.0929424  30.5036719  34.2879198  33.6188830  31.9341226
  33.4426356  34.1522974  32.3689363  35.1084295  33.5931992  32.6512029
  34.8469198  34.5858830  30.5151226  34.9069198  31.1928830  32.0811226
  34.7409198  30.5478830  33.1181226  35.9929198  31.0858830  31.3231226
  36.1107412  31.7164664  30.5430059  37.0209198  30.0988830  31.5681226
  36.5457302  29.2110989  31.9854156  37.4840262  29.8479105  30.6138456
  38.0919198  30.5798830  32.5241226  37.8709198  31.4538830  33.3661226
  39.2749198  29.9918830  32.3821226  39.4088362  29.3259488  31.6346620
  40.3799198  30.2338830  33.2961226  40.0328167  30.8070256  34.1558471
  40.9539198  28.9068830  33.7931226  41.3837489  28.3735399  32.9452480
  41.7352191  29.1167191  34.5236295  39.9489198  28.1078830  34.3931226
  40.3346086  27.2825360  34.6958540  41.4739198  31.0608830  32.6261226
  41.4899198  31.2628830  31.4101226  42.4019198  31.5448830  33.4501226
  42.2620645  31.4256180  34.4432569  43.5669198  32.3018830  33.0011226
  44.1415584  32.6350202  33.8653617  44.4709198  31.4398830  32.1151226
  44.4411830  30.4014809  32.4451772  44.1440998  31.5001249  31.0770187
  45.9089198  31.8548830  32.1361226  46.9439198  30.9588830  31.9731226
  46.8263694  29.9663934  31.8273622  48.0949198  31.6028830  32.0381226
  49.0377936  31.0662893  31.9325048  47.8449198  32.8838830  32.2361226
  48.5343398  33.6165175  32.3258251  46.4859198  33.0688830  32.3021226
  46.0789792  34.0671244  32.4634129  43.1759198  33.5788830  32.2661226
  43.9149198  34.0518830  31.3981226  42.0209198  34.1458830  32.5971226
  41.3956061  33.6989231  33.2523394  41.6059198  35.4028830  31.9961226
  41.7464654  35.3606471  30.9160475  40.1309198  35.6708830  32.2861226
  40.1165454  35.9681028  33.3347183  39.7955804  36.5038945  31.6682720
  39.1969198  34.4768830  32.0821226  39.4203014  33.7184618  32.8324551
  37.7509198  34.9088830  32.2161226  37.5266460  35.6670141  31.4657645
  37.0988134  34.0480601  32.0683320  37.5855251  35.3228115  33.2108126
  39.4429198  33.8288830  30.7371226  40.4747557  33.4816478  30.6838150
  38.7681966  32.9819456  30.6124350  39.2632730  34.5555858  29.9448291
  42.4579198  36.5508830  32.5241226  42.8539198  36.5748830  33.6931226
  42.7389198  37.5088830  31.6471226  42.3909812  37.4288794  30.7023277
  43.5779198  38.6538830  31.9801226  43.6324491  38.8087479  33.0576859
  45.0099198  38.4878830  31.4331226  44.9630964  38.3440171  30.3536739
  45.8439198  39.7208830  31.7441226  45.8915888  39.8651454  32.8234821
  46.8517543  39.5870696  31.3511035  45.3870510  40.5954709  31.2810152
  45.6579198  37.2408830  32.0111226  45.0701765  36.3648952  31.7367045
  46.6681292  37.1387227  31.6147141  45.7009377  37.3232546  33.0971545
  42.9369198  39.9148830  31.4241226  42.4259198  39.9248830  30.2991226
  42.9599198  40.9788830  32.2201226  43.2644644  40.8588392  33.1756023
  42.5389198  42.3028830  31.7921226  42.6021463  42.3669703  30.7058471
  41.0999198  42.5988830  32.2161226  40.4748398  41.7991799  31.8188200
  41.0722290  42.5738373  33.3054830  40.5779198  43.9398830  31.7271226
  41.2433491  44.7300785  32.0748232  40.5762847  43.9203340  30.6372995
  39.1629198  44.2168830  32.1851226  38.7139198  43.5638830  33.1491226
  38.4999198  45.0868830  31.5831226  37.6123894  45.1932471  31.9326304
  43.4799198  43.3358830  32.3941226  44.0429198  43.1208830  33.4721226
  38.9880587  45.5028386  30.8688536  37.8079461  43.7952428  33.3683424
  39.3507924  42.9442021  33.5114843  43.6489198  44.4538830  31.6971226
  43.1836794  44.5554702  30.8064314  44.5189198  45.5288830  32.1471226
  44.4277566  45.6511808  33.2263963  45.9799198  45.2288830  31.8111226
  46.0888465  45.1128104  30.7328081  46.6081582  46.0514908  32.1527849
  46.2858545  44.3081587  32.3078821  44.0859198  46.8358830  31.5021226
  44.3209198  47.0518830  30.3101226  43.4669198  47.7048830  32.2931226
  43.2918272  47.4474273  33.2539340  42.9879198  48.9968830  31.8271226
  43.0737977  49.0509500  30.7418572  41.5219198  49.2008830  32.2121226
  40.9817814  48.5510366  31.5236101  41.3911279  48.8380190  33.2315946
  40.9749198  50.6238830  32.1041226  41.4164480  51.2327992  32.8930299
  41.3099198  51.2218830  30.7611226  40.8683106  50.6137291  29.9716740
  40.9117233  52.2349583  30.7043892  42.3922440  51.2498728  30.6350619
  39.4749198  50.6268830  32.3331226  39.2578197  50.2357897  33.3271111
  39.0967639  51.6460929  32.2536832  38.9911298  50.0009239  31.5833083
  43.8559198  50.0978830  32.4181226  43.9809198  50.2048830  33.6421226
  44.4509198  50.9088830  31.5491226  44.2895097  50.7630384  30.5628288
  45.3489198  51.9818830  31.9501226  45.5018424  51.9445866  33.0286970
  46.7069198  51.8498830  31.2591226  46.5319696  51.8478637  30.1832566
  47.2683350  52.7429125  31.5337337  47.4959198  50.6228830  31.6421226
  47.0749198  49.3588830  31.2651226  46.1547375  49.2620001  30.6889475
  47.7959198  48.2358830  31.6051226  47.4471747  47.2469091  31.3077854
  48.9619198  48.3668830  32.3241226  49.6849198  47.2468830  32.6631226
  49.2851831  46.4328486  32.3482284  49.4079198  49.6118830  32.7051226
  50.3312943  49.7179402  33.2745362  48.6769198  50.7308830  32.3611226
  49.0253657  51.7210233  32.6549041  44.7309198  53.3288830  31.6051226
  44.3649198  53.5728830  30.4511226  44.6209198  54.1948830  32.6061226
  44.7971748  53.8625494  33.5434528  44.2389198  55.5898830  32.4281226
  44.0382268  55.7795706  31.3736843  42.9839198  55.9258830  33.2321226
  43.1738265  55.4113504  34.1740838  42.9969299  57.0030968  33.3980777
  41.6139198  55.5098830  32.6911226  40.9203455  55.4020308  33.5250432
  41.0879198  56.5518830  31.7301226  41.7807797  56.6599682  30.8956398
  40.1130512  56.2411727  31.3543686  40.9901814  57.5067851  32.2465620
  41.6719198  54.1558830  32.0241226  41.9994801  53.4081854  32.7464466
  40.6824178  53.8912138  31.6513795  42.3757755  54.1897838  31.1925357
  45.4109198  56.4448830  32.8861226  45.5039198  56.7898830  34.0691226
  46.2999198  56.7878830  31.9551226  46.1150963  56.6088980  30.9784425
  47.5869198  57.3678830  32.3201226  47.6523079  57.5732124  33.3886091
  48.7449198  56.4318830  31.9271226  48.7569139  56.3181455  30.8431396
  50.0749198  57.0068830  32.3911226  50.0638535  57.1204837  33.4751306
  50.8823385  56.3327790  32.1051866  50.2327622  57.9799171  31.9259430
  48.5339198  55.0408830  32.5021226  47.6017823  54.6261221  32.1184623
  49.3641958  54.3972396  32.2114949  48.4842409  55.1002939  33.5893683
  47.7749198  58.7348830  31.6771226  48.2269198  58.8398830  30.5321226
  47.4339198  59.7888830  32.4121226  46.8338389  59.6856400  33.2179409
  47.8839198  61.1248830  32.0541226  47.9168152  61.2236817  30.9691084
  46.9329198  62.1798830  32.6111226  46.5521159  61.8521028  33.5784115
  47.4660240  63.1229394  32.7317232  45.4829198  62.5068830  31.5871226
  49.2909198  61.3428830  32.5921226  49.4789198  61.8228830  33.7121226
  50.2819198  60.9858830  31.7821226  50.0828316  60.7726507  30.8151711
  51.6499198  60.8898830  32.2371226  51.6718106  60.2340944  33.1075026
  52.2429264  60.4491307  31.4357613  52.2489198  62.2298830  32.6141226
  51.5609198  63.2038830  32.9211226  53.5809198  62.2648830  32.5811226
  54.0834741  61.4541992  32.2489626  54.3499198  63.4078830  33.0551226
  54.2068312  63.5364919  34.1280087  55.8379198  63.1828830  32.7841226
  55.9562249  63.0718634  31.7062646  56.3651069  64.0770340  33.1167902
  56.4149198  61.9658830  33.4841226  56.1838020  62.0246627  34.5477157
  55.9424884  61.0805512  33.0585695  57.9109198  61.8308830  33.2861226
  58.5439198  62.8088830  32.8391226  58.4539198  60.7448830  33.5781226
  59.3999268  60.7409465  33.4161527  53.8979198  64.7108830  32.4091226
  53.7019198  64.7778830  31.1921226  57.8335922  60.0937269  33.9137838
  59.4824735  62.6324101  32.7374013  57.9871978  63.5734745  32.6767104
  53.7269198  65.7498830  33.2231226  53.8220852  65.6022400  34.2177303
  53.3739198  67.0838830  32.7531226  53.5713449  67.1538481  31.6834370
  51.8959198  67.3888830  32.9981226  51.7216736  67.2828117  34.0688637
  51.7313874  68.4256769  32.7047158  50.9369198  66.4898830  32.2381226
  51.2187242  66.4957193  31.1851967  51.0265569  65.4775309  32.6320901
  49.4999198  66.9628830  32.3801226  48.8542840  66.3233473  31.7782526
  49.2049469  66.8936591  33.4271653  49.3339198  68.3428830  31.9381226
  50.1436619  68.7970435  31.5404353  48.2019198  69.0278830  32.0221226
  47.1039198  68.4938830  32.5321226  47.1183529  67.5416272  32.8684270
  46.2564539  69.0410016  32.5827442  48.1709198  70.2838830  31.5851226
  49.0046058  70.7007204  31.1961313  47.3138399  70.8149279  31.6443189
  54.2499198  68.0958830  33.4741226  54.7369198  67.8238830  34.5771226
  54.4549198  69.2428830  32.8571226  54.0856835  69.3902604  31.9286595
  55.2039198  70.3158830  33.4761226  54.6887390  71.2607745  33.3032988
  55.2759462  70.1327093  34.5482042  56.6049198  70.4028830  32.8941226
  56.8249198  70.0798830  31.7291226  57.5339198  70.8408830  33.7411226
  57.2672559  71.0049652  34.7013657  58.9069198  71.1268830  33.3471226
  58.9993522  71.0471197  32.2639822  59.3169198  72.5388830  33.7701226
  59.2767498  72.6481698  34.8538855  60.3324441  72.7304395  33.4235444
  58.4529198  73.6288830  33.1951226  57.1119198  73.7218830  33.5261226
  56.6819387  72.9890759  34.2089184  56.3219198  74.7248830  33.0041226
  55.2652120  74.7788963  33.2659467  56.8679198  75.6568830  32.1531226
  56.2464060  76.4525443  31.7423386  58.2019198  75.5838830  31.8201226
  58.6368493  76.3199402  31.1439893  58.9899198  74.5758830  32.3441226
  60.0477942  74.5217166  32.0870864  59.8229198  70.0948830  33.9891226
  59.7689198  69.8858830  35.2061226  60.6559198  69.4538830  33.1741226
  60.6334621  69.6685246  32.1874494  61.5769198  68.4238830  33.6361226
  61.6222318  68.4383215  34.7250843  61.1219198  67.0348830  33.1841226
  61.1182462  66.9720149  32.0959437  61.7899931  66.2748236  33.5892002
  59.7389198  66.6768830  33.6391226  58.6339198  67.2818830  33.0711226
  58.7815169  68.0227107  32.2853177  57.3639198  66.9618830  33.4831226
  56.5027297  67.4499910  33.0268301  57.1789198  66.0248830  34.4721226
  56.1714320  65.7716244  34.8021657  58.2679198  65.4058830  35.0461226
  58.1250031  64.6596487  35.8276656  59.5419198  65.7328830  34.6291226
  60.4054185  65.2451001  35.0813811  62.9659198  68.7258830  33.0991226
  63.1389198  68.9178830  31.8921226  63.9539198  68.7508830  33.9941226
  63.7441895  68.5541744  34.9623262  65.3219198  69.1148830  33.6431226
  65.4052855  69.2273453  32.5621501  65.7189198  70.4338830  34.3031226
  65.8149473  70.2500539  35.3732090  66.6915291  70.7057564  33.8929812
  64.7419198  71.5628830  34.0721226  63.5579198  71.6368830  34.7851226
  63.3388540  70.8600921  35.5177245  62.6649198  72.6648830  34.5841226
  61.7353502  72.7061552  35.1518363  62.9509198  73.6428830  33.6621226
  62.0629198  74.6718830  33.4581226  61.2806453  74.6073901  34.0108314
  64.1209198  73.5968830  32.9421226  64.3490550  74.3714523  32.2099361
  65.0099198  72.5608830  33.1511226  65.9411609  72.5194963  32.5861650
  66.2989198  68.0128830  34.0331226  67.3999198  68.2948830  34.5141226
  65.9089198  66.7578830  33.8371226  64.9831494  66.5687983  33.4803375
  66.7699198  65.6268830  34.1581226  66.9644112  65.5985640  35.2302561
  66.1229198  64.2938830  33.7401226  65.9967329  64.2870689  32.6574728
  66.9959198  63.1188830  34.1561226  67.1221838  63.1247642  35.2387686
  66.5205500  62.1865556  33.8513465  67.9712179  63.2025194  33.6766446
  64.8339198  64.1698830  34.3541226  64.4331558  63.3379619  34.0916425
  68.1249198  65.7588830  33.4721226  69.1109198  66.1508830  34.0971226
  68.2399198  65.4568830  32.2231226  67.5495272  65.7403230  31.5425940
  69.3849198  64.6898830  31.7641226  70.0333150  64.4623961  32.6102514
  69.0417572  63.7604013  31.3098057  69.9401028  65.2704854  31.0273915
  87.1023260  96.2366600  77.8180260  87.0217310  95.3221210  77.5471970
  86.6887680  96.7333670  77.1119970  85.2341300  98.0145620  79.6989530
  84.4583400  97.5346060  79.9888100  85.8854230  97.3351270  79.5245690
  79.2507130  98.3265430  80.5765290  78.4192010  98.0714140  80.9761800
  79.8588110  98.3976200  81.3123210  77.6599080  93.2867320  74.3607680
  76.7715780  93.6283290  74.2587560  77.9440270  93.0867640  73.4688510
  75.6232090  95.8872970  80.2447380  76.1948200  95.1195170  80.2451020
  75.6233630  96.1861730  79.3353990  85.7055460  93.4973190  79.9328620
  86.0820280  92.6245070  79.8202290  85.6074970  93.8331890  79.0419060
  79.8360470  91.8698820  75.3946060  79.9427220  92.7702550  75.7014820
  78.9252830  91.8216790  75.1040710  89.4879580  90.9923630  76.8656960
  90.3089200  90.5020200  76.9082440  89.5213660  91.5821290  77.6188800
  77.4843630  93.7917830  80.6398650  78.1653740  94.0556200  81.2586050
  77.1691680  92.9518700  80.9736660  81.6768200  94.8385190  79.7271240
  82.1846420  95.3366160  80.3676260  82.2081440  94.0620390  79.5510600
  89.7241060  92.9324010  79.6384500  89.0196630  93.2208900  80.2187610
  90.0853220  93.7424120  79.2784060  79.6419630  91.1893710  82.0005110
  79.9836440  92.0335760  81.7058980  78.7035440  91.3377450  82.1170450
  83.3247520  88.6775980  78.3249700  83.6322500  88.1222870  77.6085200
  82.3948220  88.8120440  78.1422690  85.7128280  96.7424810  75.0609820
  84.7857560  96.6762190  75.2898290  85.8653100  97.6804940  74.9465060
  85.6997360  93.0141810  72.0576980  84.7601030  93.1755770  72.1429440
  86.0180620  93.7327490  71.5112970  89.7425570  98.3045110  75.5645070
  89.1237990  97.9664660  74.9171370  89.7250020  97.6604870  76.2724260
  81.3184920  97.2689550  77.8429550  80.9141920  96.5566800  77.3475450
  81.4048040  96.9242790  78.7317590  87.9190270  97.5431920  72.5717820
  88.3583550  96.7054350  72.4255640  88.6318690  98.1761320  72.6581960
  91.5007410  88.7974730  70.8858860  91.1880070  88.8901560  71.7857930
  92.2619880  89.3755760  70.8356290  78.0189550  96.1634530  75.3436200
  77.8987150  96.8896620  74.7317470  77.7090440  95.3937440  74.8664110
  80.4853210  89.5069600  78.7259870  80.0421360  90.2879140  78.3944390
  81.0438200  89.8299490  79.4330810  83.6012030  89.1280300  73.6065700
  82.9766210  89.1240170  74.3319010  83.5142150  88.2611260  73.2101670
  82.5229110  90.0516930  80.5849470  82.8201440  90.9579760  80.5041490
  83.0714670  89.5635710  79.9709040  80.2767430  94.6303170  76.4541120
  80.0508350  94.4140340  77.3587740  79.4959960  95.0631630  76.1087090
  87.5065190  94.6366540  75.0531770  86.9074080  95.3602340  74.8695390
  88.0544800  94.5743320  74.2708220  86.1130060  93.2730080  77.0835050
  86.5059630  93.5902280  76.2703740  86.4746910  92.3941960  77.1979570
  75.1494230  89.8630880  79.3065250  74.8607280  90.4333740  80.0190230
  75.8939990  89.3835330  79.6696480  75.3364460  93.8051000  70.5167970
  75.2539130  94.7481760  70.6582960  74.9847520  93.6625910  69.6380320
  86.6985200  95.8635830  81.1785830  85.9666320  96.3722640  81.5275930
  86.3009540  95.0465810  80.8774610  83.1362590  92.5390030  79.5838320
  83.1398650  92.0979980  78.7342860  84.0313710  92.8607360  79.6910140
  78.9864970  92.4216520  78.5432530  78.6465020  92.8991750  79.2999580
  78.2242290  91.9681640  78.1833630  83.1982740  93.5402110  72.5745080
  83.3195560  93.4988590  73.5230900  82.8131250  94.4026260  72.4191810
  87.1611110  91.3169510  80.5908770  87.1783850  91.7678160  81.4350620
  86.9126690  90.4175150  80.8042210  82.2104240  95.8503250  71.9728380
  81.6421140  95.4021500  71.3464290  82.9193240  96.2096030  71.4393530
  83.4370560  96.5991810  81.3303730  83.8040690  96.1250380  82.0765070
  83.2475620  97.4733380  81.6712070  76.3011050  91.3435500  77.4597200
  76.0157970  90.9791170  78.2975820  76.2389910  90.6115960  76.8460340
  85.9749640  90.2364760  74.1810570  85.1614250  89.7377930  74.1055880
  85.7811590  91.0763010  73.7646920  88.6898030  94.6084410  72.4772730
  89.5777650  94.9201640  72.3024070  88.6603120  93.7356660  72.0853310
  90.9612300  95.9196250  71.9452590  90.8776020  96.3510470  71.0949030
  91.6806490  96.3794600  72.3779410  75.7941710  96.4794450  71.4193900
  76.6636560  96.7619250  71.7029820  75.3032030  97.2930320  71.3042710
  78.8588300  88.2105310  76.0124700  78.7302930  88.2023210  76.9609620
  78.0350320  88.5488400  75.6615710  90.7183040  91.4175680  74.0320410
  90.0896200  91.5221350  73.3178640  90.2234960  91.6372460  74.8214290
  82.6867070  93.6961630  75.4478290  81.9783220  94.1647970  75.8891900
  82.9711550  93.0383640  76.0823480  86.7182500  90.4212290  76.8874080
  86.5950280  90.4398420  75.9383590  87.6667060  90.4691230  77.0072480
  80.8902090  92.0046710  72.8229000  81.7392620  92.4416860  72.7569190
  80.5233360  92.3166970  73.6501060  89.8111870  96.5759470  77.7360570
  88.8702010  96.5909700  77.9108260  90.1255940  95.7895430  78.1820870
  79.7893510  98.2579070  71.2964530  80.5556780  98.1460430  71.8589960
  79.8668200  97.5617040  70.6441300  78.4840270  95.6904140  71.9797420
  78.5643860  94.7431650  72.0914820  79.3760020  96.0211020  72.0858080
  81.8212540  98.2544200  73.2707170  82.2428960  98.0884070  74.1138560
  81.9463380  97.4444430  72.7762310  84.3340180  97.2781810  70.5184270
  84.8545840  96.5630830  70.1525420  84.9808580  97.9167680  70.8184780
  80.7171440  94.3277430  70.2165330  80.5160500  93.4644790  70.5778670
  80.5463490  94.2410790  69.2786930  88.1959750  89.1385660  72.7452210
  88.4762040  88.2953560  73.1011630  87.4225480  89.3708770  73.2590960
  79.5154240  91.4278050  70.2043210  79.8180140  91.4345480  69.2962360
  80.2548830  91.0775910  70.7010870  82.7339170  90.3712670  71.1899410
  82.3861170  89.6936660  70.6101860  82.9351940  89.9102180  72.0042800
  76.0744810  96.9000320  77.5863780  75.4193650  96.6311960  76.9423480
  76.9122760  96.7904800  77.1365760  89.0235250  91.6941610  71.8082270
  89.4420130  91.5072590  70.9678930  88.7171310  90.8420660  72.1185200
  75.2882890  94.1099250  73.5289110  74.3846970  94.3729450  73.3540770
  75.7723510  94.3810420  72.7489070  91.7975940  94.8323240  78.8065310
  92.3213420  94.3385890  78.1755480  92.3835360  94.9673600  79.5512880
  77.8310100  93.1664790  71.4383490  78.5401800  92.7448010  70.9530770
  77.1150040  93.2340020  70.8066840  77.4784260  89.2204120  70.4786140
  78.2012390  89.7613060  70.7967360  77.7508780  88.9467540  69.6027680
  91.2875910  94.0896590  74.7457720  91.7835030  93.8567460  75.5306600
  91.0891980  93.2508430  74.3295360  77.1676450  88.4710310  80.3808760
  77.8152640  87.9207690  79.9403920  77.5878290  88.7253460  81.2024570
  85.5590690  88.9549900  81.5507990  84.7762480  89.4295400  81.8304750
  85.2653620  88.0504730  81.4421170  90.1111760  89.6573000  79.5957080
  90.5519850  89.6018100  78.7478680  89.8419350  90.5731010  79.6667260
  76.9031100  89.2597380  74.0721710  77.6610460  89.3726260  73.4985740
  76.4408270  90.0966580  74.0265140  83.4444910  91.3736650  77.0624020
  82.6319420  90.9993540  76.7219900  83.9486550  90.6181730  77.3645210
  87.9469890  88.0379100  78.3007090  88.5499260  88.6099310  78.7755610
  87.2062880  88.6018540  78.0780990  91.0904490  88.4400660  73.5747370
  91.2855120  89.3384110  73.8414800  90.3034360  88.2087740  74.0680320
  79.2756250  89.7861430  72.6123680  79.8049010  88.9991230  72.4831630
  79.9084570  90.4652620  72.8459210  81.4694090  89.5236570  75.6669070
  80.8396830  88.8223880  75.8339200  80.9299230  90.2840700  75.4502230
  87.1023260  96.2366600  59.0436770  87.0217310  95.3221210  58.7728480
  86.6887680  96.7333670  58.3376480  85.2341300  98.0145620  60.9246040
  84.4583400  97.5346060  61.2144610  85.8854230  97.3351270  60.7502200
  79.2507130  98.3265430  61.8021800  78.4192010  98.0714140  62.2018310
  79.8588110  98.3976200  62.5379720  77.6599080  93.2867320  55.5864190
  76.7715780  93.6283290  55.4844070  77.9440270  93.0867640  54.6945020
  75.6232090  95.8872970  61.4703890  76.1948200  95.1195170  61.4707530
  75.6233630  96.1861730  60.5610500  76.8656960  91.2957330  63.2572820
  76.6859800  90.3983080  63.5375580  76.4637040  91.8429200  63.9319770
  85.7055460  93.4973190  61.1585130  86.0820280  92.6245070  61.0458800
  85.6074970  93.8331890  60.2675570  79.8360470  91.8698820  56.6202570
  79.9427220  92.7702550  56.9271330  78.9252830  91.8216790  56.3297220
  89.4879580  90.9923630  58.0913470  90.3089200  90.5020200  58.1338950
  89.5213660  91.5821290  58.8445310  77.4843630  93.7917830  61.8655160
  78.1653740  94.0556200  62.4842560  77.1691680  92.9518700  62.1993170
  81.6768200  94.8385190  60.9527750  82.1846420  95.3366160  61.5932770
  82.2081440  94.0620390  60.7767110  79.9604300  89.4783750  65.2191170
  79.9622740  89.9956140  64.4137070  79.1308610  89.0013930  65.1961100
  89.7241060  92.9324010  60.8641010  89.0196630  93.2208900  61.4444120
  90.0853220  93.7424120  60.5040570  79.6419630  91.1893710  63.2261620
  79.9836440  92.0335760  62.9315490  78.7035440  91.3377450  63.3426960
  83.3247520  88.6775980  59.5506210  83.6322500  88.1222870  58.8341710
  82.3948220  88.8120440  59.3679200  85.7128280  96.7424810  56.2866330
  84.7857560  96.6762190  56.5154800  85.8653100  97.6804940  56.1721570
  85.6997360  93.0141810  53.2833490  84.7601030  93.1755770  53.3685950
  86.0180620  93.7327490  52.7369480  89.7425570  98.3045110  56.7901580
  89.1237990  97.9664660  56.1427880  89.7250020  97.6604870  57.4980770
  89.1852130  94.4829650  64.2067390  88.7723310  95.3083360  64.4607380
  88.4528080  93.8974690  64.0143750  81.3184920  97.2689550  59.0686060
  80.9141920  96.5566800  58.5731960  81.4048040  96.9242790  59.9574100
  80.0313540  94.0432760  62.8485100  80.5828130  94.1528100  62.0738350
  80.5457050  94.4170360  63.5640330  87.9190270  97.5431920  53.7974330
  88.3583550  96.7054350  53.6512150  88.6318690  98.1761320  53.8838470
  79.7056270  97.5652120  66.4590440  79.5664040  98.4374920  66.8277840
  78.8237630  97.2224930  66.3138380  91.5007410  88.7974730  52.1115370
  91.1880070  88.8901560  53.0114440  92.2619880  89.3755760  52.0612800
  78.0189550  96.1634530  56.5692710  77.8987150  96.8896620  55.9573980
  77.7090440  95.3937440  56.0920620  80.4853210  89.5069600  59.9516380
  80.0421360  90.2879140  59.6200900  81.0438200  89.8299490  60.6587320
  84.7723020  92.3738120  65.5551700  84.3102390  92.5821140  66.3671640
  84.3701130  91.5597470  65.2522370  89.7727530  93.5947070  66.6848360
  88.9221120  93.2952820  67.0057430  89.6129320  93.8389080  65.7732180
  86.8677240  95.0948820  68.7847150  87.1930650  94.2612570  68.4449380
  87.6557570  95.6177340  68.9325480  83.6012030  89.1280300  54.8322210
  82.9766210  89.1240170  55.5575520  83.5142150  88.2611260  54.4358180
  82.5229110  90.0516930  61.8105980  82.8201440  90.9579760  61.7298000
  83.0714670  89.5635710  61.1965550  80.2767430  94.6303170  57.6797630
  80.0508350  94.4140340  58.5844250  79.4959960  95.0631630  57.3343600
  87.5065190  94.6366540  56.2788280  86.9074080  95.3602340  56.0951900
  88.0544800  94.5743320  55.4964730  82.7166640  95.5288750  68.3457900
  82.6210240  94.5883480  68.1958300  83.5598620  95.7503820  67.9505970
  86.1130060  93.2730080  58.3091560  86.5059630  93.5902280  57.4960250
  86.4746910  92.3941960  58.4236080  77.8477180  91.9402420  66.4991680
  77.4540570  92.7877630  66.7064460  77.1595580  91.3028790  66.6900320
  84.4222230  92.0237390  69.5688420  83.7320550  91.8309590  70.2034510
  85.1654530  92.3072030  70.1012720  75.1494230  89.8630880  60.5321760
  74.8607280  90.4333740  61.2446740  75.8939990  89.3835330  60.8952990
  75.3364460  93.8051000  51.7424480  75.2539130  94.7481760  51.8839470
  74.9847520  93.6625910  50.8636830  86.6985200  95.8635830  62.4042340
  85.9666320  96.3722640  62.7532440  86.3009540  95.0465810  62.1031120
  83.1362590  92.5390030  60.8094830  83.1398650  92.0979980  59.9599370
  84.0313710  92.8607360  60.9166650  78.9864970  92.4216520  59.7689040
  78.6465020  92.8991750  60.5256090  78.2242290  91.9681640  59.4090140
  83.1982740  93.5402110  53.8001590  83.3195560  93.4988590  54.7487410
  82.8131250  94.4026260  53.6448320  87.1611110  91.3169510  61.8165280
  87.1783850  91.7678160  62.6607130  86.9126690  90.4175150  62.0298720
  82.2104240  95.8503250  53.1984890  81.6421140  95.4021500  52.5720800
  82.9193240  96.2096030  52.6650040  90.5881860  88.7301690  67.6551660
  90.9127630  87.9991350  68.1809640  90.6238370  88.4115330  66.7532650
  83.4370560  96.5991810  62.5560240  83.8040690  96.1250380  63.3021580
  83.2475620  97.4733380  62.8968580  76.3011050  91.3435500  58.6853710
  76.0157970  90.9791170  59.5232330  76.2389910  90.6115960  58.0716850
  81.2269930  95.6400450  64.8744450  80.9227000  96.5192430  65.0994810
  82.1816390  95.7000240  64.9101890  85.9749640  90.2364760  55.4067080
  85.1614250  89.7377930  55.3312390  85.7811590  91.0763010  54.9903430
  88.6898030  94.6084410  53.7029240  89.5777650  94.9201640  53.5280580
  88.6603120  93.7356660  53.3109820  77.2833660  96.4803190  66.0215810
  76.9248600  97.1457040  66.6089150  76.9888220  95.6486740  66.3928430
  80.4846780  96.9387430  68.9055360  80.1846920  97.0844610  68.0083180
  81.2558020  96.3792720  68.8128750  90.9612300  95.9196250  53.1709100
  90.8776020  96.3510470  52.3205540  91.6806490  96.3794600  53.6035920
  75.7941710  96.4794450  52.6450410  76.6636560  96.7619250  52.9286330
  75.3032030  97.2930320  52.5299220  78.8588300  88.2105310  57.2381210
  78.7302930  88.2023210  58.1866130  78.0350320  88.5488400  56.8872220
  75.8582230  89.9696430  66.6987910  75.1440750  90.1693350  67.3040520
  76.2777270  89.1936000  67.0702710  87.3521010  92.4618740  64.4489360
  87.7201830  91.6413950  64.7768930  86.4919210  92.5220630  64.8645010
  90.7183040  91.4175680  55.2576920  90.0896200  91.5221350  54.5435150
  90.2234960  91.6372460  56.0470800  82.6867070  93.6961630  56.6734800
  81.9783220  94.1647970  57.1148410  82.9711550  93.0383640  57.3079990
  84.3123000  95.1158330  64.6727330  84.8108250  95.5904150  65.3379180
  84.4545950  94.1921850  64.8797360  86.7182500  90.4212290  58.1130590
  86.5950280  90.4398420  57.1640100  87.6667060  90.4691230  58.2328990
  80.8902090  92.0046710  54.0485510  81.7392620  92.4416860  53.9825700
  80.5233360  92.3166970  54.8757570  91.5189860  91.3326290  65.5155720
  91.0163460  92.0731690  65.8549530  92.3346520  91.7210290  65.1992510
  89.8111870  96.5759470  58.9617080  88.8702010  96.5909700  59.1364770
  90.1255940  95.7895430  59.4077380  79.7893510  98.2579070  52.5221040
  80.5556780  98.1460430  53.0846470  79.8668200  97.5617040  51.8697810
  78.4840270  95.6904140  53.2053930  78.5643860  94.7431650  53.3171330
  79.3760020  96.0211020  53.3114590  76.0111070  97.5119060  68.4410100
  76.5150090  96.9326340  69.0126330  75.2718490  97.7959290  68.9786470
  78.0434150  95.6548650  69.3360170  78.0839490  95.3562520  70.2445400
  78.8979650  96.0556260  69.1767690  81.8212540  98.2544200  54.4963680
  82.2428960  98.0884070  55.3395070  81.9463380  97.4444430  54.0018820
  79.9839960  94.2340750  67.3034660  79.4536420  93.7431700  66.6758000
  80.6528030  94.6624950  66.7692590  84.3340180  97.2781810  51.7440780
  84.8545840  96.5630830  51.3781930  84.9808580  97.9167680  52.0441290
  89.3540190  96.0406370  69.0715000  89.9360960  95.2858690  68.9835480
  89.5301960  96.5713810  68.2946480  80.4712260  91.2003120  67.3831950
  80.3769130  90.5823870  66.6582820  79.8909650  91.9269410  67.1561860
  83.2373700  89.7576360  64.4159340  82.7891000  89.7800620  63.5704890
  82.6038900  89.3595380  65.0129640  85.9797150  96.3846870  66.4209620
  86.0993360  95.7888010  67.1604460  86.8391150  96.4216560  66.0010920
  88.3185050  96.9384060  64.9972130  87.7920270  97.4626680  64.3937270
  88.6616390  97.5711450  65.6281860  80.7171440  94.3277430  51.4421840
  80.5160500  93.4644790  51.8035180  80.5463490  94.2410790  50.5043440
  82.7465920  92.9268220  67.6785440  83.3365610  92.6184070  68.3663260
  81.9286160  92.4547970  67.8345340  87.5659350  92.5434030  67.9118460
  86.8774870  91.8815570  67.8468450  88.2865370  92.0972300  68.3566920
  88.1959750  89.1385660  53.9708720  88.4762040  88.2953560  54.3268140
  87.4225480  89.3708770  54.4847470  79.5154240  91.4278050  51.4299720
  79.8180140  91.4345480  50.5218870  80.2548830  91.0775910  51.9267380
  82.7339170  90.3712670  52.4155920  82.3861170  89.6936660  51.8358370
  82.9351940  89.9102180  53.2299310  76.0744810  96.9000320  58.8120290
  75.4193650  96.6311960  58.1679990  76.9122760  96.7904800  58.3622270
  89.0235250  91.6941610  53.0338780  89.4420130  91.5072590  52.1935440
  88.7171310  90.8420660  53.3441710  77.1120740  97.2852890  63.3523630
  77.4793780  97.1980290  64.2319650  76.5431560  96.5219440  63.2530490
  91.9124600  95.7537270  66.3654100  91.6810690  95.5250020  65.4652050
  92.1729150  96.6736820  66.3198990  76.6636740  94.1961980  67.2582050
  75.7692790  94.1628740  67.5975760  77.2034290  94.3948770  68.0233300
  90.3512670  90.9793700  69.1433800  91.2282850  90.9877100  69.5267800
  90.3633510  90.2424540  68.5326150  75.2882890  94.1099250  54.7545620
  74.3846970  94.3729450  54.5797280  75.7723510  94.3810420  53.9745580
  91.7975940  94.8323240  60.0321820  92.3213420  94.3385890  59.4011990
  92.3835360  94.9673600  60.7769390  91.9765660  94.9163110  63.5541370
  91.0268370  94.8826650  63.6686360  92.1578670  95.8263220  63.3191140
  77.8310100  93.1664790  52.6640000  78.5401800  92.7448010  52.1787280
  77.1150040  93.2340020  52.0323350  77.4784260  89.2204120  51.7042650
  78.2012390  89.7613060  52.0223870  77.7508780  88.9467540  50.8284190
  91.2875910  94.0896590  55.9714230  91.7835030  93.8567460  56.7563110
  91.0891980  93.2508430  55.5551870  77.1676450  88.4710310  61.6065270
  77.8152640  87.9207690  61.1660430  77.5878290  88.7253460  62.4281080
  91.0628790  88.6651670  64.9634910  91.7001010  89.2785810  65.3294100
  91.2103680  88.7012330  64.0184140  76.9208450  88.6265980  64.3490590
  76.5723270  89.0829800  65.1148770  76.5896150  87.7323110  64.4313020
  84.4333270  89.8177860  67.8710010  84.3722160  90.4099690  68.6205420
  85.3733650  89.7103820  67.7260270  87.0707830  89.4747920  67.5102300
  87.6848240  89.7927210  66.8483380  87.6157390  88.9896510  68.1298160
  77.5929090  88.1542180  67.6241360  78.1412080  87.9730230  66.8607470
  77.6584400  87.3636290  68.1597670  87.8115870  88.0380060  63.8371590
  86.9375710  88.3715170  63.6344520  87.7026620  87.5653240  64.6623460
  88.7187850  90.2450930  65.2213310  88.3901210  89.4302690  64.8415040
  89.6670150  90.2020740  65.0979000  85.5590690  88.9549900  62.7764500
  84.7762480  89.4295400  63.0561260  85.2653620  88.0504730  62.6677680
  90.1111760  89.6573000  60.8213590  90.5519850  89.6018100  59.9735190
  89.8419350  90.5731010  60.8923770  76.9031100  89.2597380  55.2978220
  77.6610460  89.3726260  54.7242250  76.4408270  90.0966580  55.2521650
  83.4444910  91.3736650  58.2880530  82.6319420  90.9993540  57.9476410
  83.9486550  90.6181730  58.5901720  87.9469890  88.0379100  59.5263600
  88.5499260  88.6099310  60.0012120  87.2062880  88.6018540  59.3037500
  91.0904490  88.4400660  54.8003880  91.2855120  89.3384110  55.0671310
  90.3034360  88.2087740  55.2936830  79.2756250  89.7861430  53.8380190
  79.8049010  88.9991230  53.7088140  79.9084570  90.4652620  54.0715720
  81.4694090  89.5236570  56.8925580  80.8396830  88.8223880  57.0595710
  80.9299230  90.2840700  56.6758740  81.5949650  88.8020550  69.3278070
  81.3133920  89.3054150  68.5638890  81.9769350  88.0042300  68.9620200
  88.1965110  88.2174130  69.9058540  88.0830560  88.5368740  70.8010060
  89.0134850  88.6186640  69.6095820  87.1023260  96.2366600  40.2693280
  87.0217310  95.3221210  39.9984990  86.6887680  96.7333670  39.5632990
  85.2341300  98.0145620  42.1502550  84.4583400  97.5346060  42.4401120
  85.8854230  97.3351270  41.9758710  79.2507130  98.3265430  43.0278310
  78.4192010  98.0714140  43.4274820  79.8588110  98.3976200  43.7636230
  77.6599080  93.2867320  36.8120700  76.7715780  93.6283290  36.7100580
  77.9440270  93.0867640  35.9201530  75.6232090  95.8872970  42.6960400
  76.1948200  95.1195170  42.6964040  75.6233630  96.1861730  41.7867010
  76.8656960  91.2957330  44.4829330  76.6859800  90.3983080  44.7632090
  76.4637040  91.8429200  45.1576280  85.7055460  93.4973190  42.3841640
  86.0820280  92.6245070  42.2715310  85.6074970  93.8331890  41.4932080
  79.8360470  91.8698820  37.8459080  79.9427220  92.7702550  38.1527840
  78.9252830  91.8216790  37.5553730  89.4879580  90.9923630  39.3169980
  90.3089200  90.5020200  39.3595460  89.5213660  91.5821290  40.0701820
  77.4843630  93.7917830  43.0911670  78.1653740  94.0556200  43.7099070
  77.1691680  92.9518700  43.4249680  81.6768200  94.8385190  42.1784260
  82.1846420  95.3366160  42.8189280  82.2081440  94.0620390  42.0023620
  79.9604300  89.4783750  46.4447680  79.9622740  89.9956140  45.6393580
  79.1308610  89.0013930  46.4217610  89.7241060  92.9324010  42.0897520
  89.0196630  93.2208900  42.6700630  90.0853220  93.7424120  41.7297080
  79.6419630  91.1893710  44.4518130  79.9836440  92.0335760  44.1572000
  78.7035440  91.3377450  44.5683470  83.3247520  88.6775980  40.7762720
  83.6322500  88.1222870  40.0598220  82.3948220  88.8120440  40.5935710
  85.7128280  96.7424810  37.5122840  84.7857560  96.6762190  37.7411310
  85.8653100  97.6804940  37.3978080  85.6997360  93.0141810  34.5090000
  84.7601030  93.1755770  34.5942460  86.0180620  93.7327490  33.9625990
  89.7425570  98.3045110  38.0158090  89.1237990  97.9664660  37.3684390
  89.7250020  97.6604870  38.7237280  89.1852130  94.4829650  45.4323900
  88.7723310  95.3083360  45.6863890  88.4528080  93.8974690  45.2400260
  81.3184920  97.2689550  40.2942570  80.9141920  96.5566800  39.7988470
  81.4048040  96.9242790  41.1830610  80.0313540  94.0432760  44.0741610
  80.5828130  94.1528100  43.2994860  80.5457050  94.4170360  44.7896840
  87.9190270  97.5431920  35.0230840  88.3583550  96.7054350  34.8768660
  88.6318690  98.1761320  35.1094980  79.7056270  97.5652120  47.6846950
  79.5664040  98.4374920  48.0534350  78.8237630  97.2224930  47.5394890
  91.5007410  88.7974730  33.3371880  91.1880070  88.8901560  34.2370950
  92.2619880  89.3755760  33.2869310  78.0189550  96.1634530  37.7949220
  77.8987150  96.8896620  37.1830490  77.7090440  95.3937440  37.3177130
  80.4853210  89.5069600  41.1772890  80.0421360  90.2879140  40.8457410
  81.0438200  89.8299490  41.8843830  84.7723020  92.3738120  46.7808210
  84.3102390  92.5821140  47.5928150  84.3701130  91.5597470  46.4778880
  89.7727530  93.5947070  47.9104870  88.9221120  93.2952820  48.2313940
  89.6129320  93.8389080  46.9988690  86.8677240  95.0948820  50.0103660
  87.1930650  94.2612570  49.6705890  87.6557570  95.6177340  50.1581990
  83.6012030  89.1280300  36.0578720  82.9766210  89.1240170  36.7832030
  83.5142150  88.2611260  35.6614690  82.5229110  90.0516930  43.0362490
  82.8201440  90.9579760  42.9554510  83.0714670  89.5635710  42.4222060
  80.2767430  94.6303170  38.9054140  80.0508350  94.4140340  39.8100760
  79.4959960  95.0631630  38.5600110  87.5065190  94.6366540  37.5044790
  86.9074080  95.3602340  37.3208410  88.0544800  94.5743320  36.7221240
  82.7166640  95.5288750  49.5714410  82.6210240  94.5883480  49.4214810
  83.5598620  95.7503820  49.1762480  86.1130060  93.2730080  39.5348070
  86.5059630  93.5902280  38.7216760  86.4746910  92.3941960  39.6492590
  77.8477180  91.9402420  47.7248190  77.4540570  92.7877630  47.9320970
  77.1595580  91.3028790  47.9156830  84.4222230  92.0237390  50.7944930
  83.7320550  91.8309590  51.4291020  85.1654530  92.3072030  51.3269230
  75.1494230  89.8630880  41.7578270  74.8607280  90.4333740  42.4703250
  75.8939990  89.3835330  42.1209500  75.3364460  93.8051000  32.9680990
  75.2539130  94.7481760  33.1095980  74.9847520  93.6625910  32.0893340
  86.6985200  95.8635830  43.6298850  85.9666320  96.3722640  43.9788950
  86.3009540  95.0465810  43.3287630  83.1362590  92.5390030  42.0351340
  83.1398650  92.0979980  41.1855880  84.0313710  92.8607360  42.1423160
  78.9864970  92.4216520  40.9945550  78.6465020  92.8991750  41.7512600
  78.2242290  91.9681640  40.6346650  83.1982740  93.5402110  35.0258100
  83.3195560  93.4988590  35.9743920  82.8131250  94.4026260  34.8704830
  87.1611110  91.3169510  43.0421790  87.1783850  91.7678160  43.8863640
  86.9126690  90.4175150  43.2555230  82.2104240  95.8503250  34.4241400
  81.6421140  95.4021500  33.7977310  82.9193240  96.2096030  33.8906550
  90.5881860  88.7301690  48.8808170  90.9127630  87.9991350  49.4066150
  90.6238370  88.4115330  47.9789160  83.4370560  96.5991810  43.7816750
  83.8040690  96.1250380  44.5278090  83.2475620  97.4733380  44.1225090
  76.3011050  91.3435500  39.9110220  76.0157970  90.9791170  40.7488840
  76.2389910  90.6115960  39.2973360  81.2269930  95.6400450  46.1000960
  80.9227000  96.5192430  46.3251320  82.1816390  95.7000240  46.1358400
  85.9749640  90.2364760  36.6323590  85.1614250  89.7377930  36.5568900
  85.7811590  91.0763010  36.2159940  88.6898030  94.6084410  34.9285750
  89.5777650  94.9201640  34.7537090  88.6603120  93.7356660  34.5366330
  77.2833660  96.4803190  47.2472320  76.9248600  97.1457040  47.8345660
  76.9888220  95.6486740  47.6184940  80.4846780  96.9387430  50.1311870
  80.1846920  97.0844610  49.2339690  81.2558020  96.3792720  50.0385260
  90.9612300  95.9196250  34.3965610  90.8776020  96.3510470  33.5462050
  91.6806490  96.3794600  34.8292430  75.7941710  96.4794450  33.8706920
  76.6636560  96.7619250  34.1542840  75.3032030  97.2930320  33.7555730
  78.8588300  88.2105310  38.4637720  78.7302930  88.2023210  39.4122640
  78.0350320  88.5488400  38.1128730  75.8582230  89.9696430  47.9244420
  75.1440750  90.1693350  48.5297030  76.2777270  89.1936000  48.2959220
  87.3521010  92.4618740  45.6745870  87.7201830  91.6413950  46.0025440
  86.4919210  92.5220630  46.0901520  90.7183040  91.4175680  36.4833430
  90.0896200  91.5221350  35.7691660  90.2234960  91.6372460  37.2727310
  82.6867070  93.6961630  37.8991310  81.9783220  94.1647970  38.3404920
  82.9711550  93.0383640  38.5336500  84.3123000  95.1158330  45.8983840
  84.8108250  95.5904150  46.5635690  84.4545950  94.1921850  46.1053870
  86.7182500  90.4212290  39.3387100  86.5950280  90.4398420  38.3896610
  87.6667060  90.4691230  39.4585500  80.8902090  92.0046710  35.2742020
  81.7392620  92.4416860  35.2082210  80.5233360  92.3166970  36.1014080
  91.5189860  91.3326290  46.7412230  91.0163460  92.0731690  47.0806040
  92.3346520  91.7210290  46.4249020  89.8111870  96.5759470  40.1873590
  88.8702010  96.5909700  40.3621280  90.1255940  95.7895430  40.6333890
  79.7893510  98.2579070  33.7477550  80.5556780  98.1460430  34.3102980
  79.8668200  97.5617040  33.0954320  78.4840270  95.6904140  34.4310440
  78.5643860  94.7431650  34.5427840  79.3760020  96.0211020  34.5371100
  76.0111070  97.5119060  49.6666610  76.5150090  96.9326340  50.2382840
  75.2718490  97.7959290  50.2042980  78.0434150  95.6548650  50.5616680
  78.0839490  95.3562520  51.4701910  78.8979650  96.0556260  50.4024200
  81.8212540  98.2544200  35.7220190  82.2428960  98.0884070  36.5651580
  81.9463380  97.4444430  35.2275330  79.9839960  94.2340750  48.5291170
  79.4536420  93.7431700  47.9014510  80.6528030  94.6624950  47.9949100
  84.3340180  97.2781810  32.9697290  84.8545840  96.5630830  32.6038440
  84.9808580  97.9167680  33.2697800  89.3540190  96.0406370  50.2971510
  89.9360960  95.2858690  50.2091990  89.5301960  96.5713810  49.5202990
  80.4712260  91.2003120  48.6088460  80.3769130  90.5823870  47.8839330
  79.8909650  91.9269410  48.3818370  83.2373700  89.7576360  45.6415850
  82.7891000  89.7800620  44.7961400  82.6038900  89.3595380  46.2386150
  85.9797150  96.3846870  47.6466130  86.0993360  95.7888010  48.3860970
  86.8391150  96.4216560  47.2267430  88.3185050  96.9384060  46.2228640
  87.7920270  97.4626680  45.6193780  88.6616390  97.5711450  46.8538370
  80.7171440  94.3277430  32.6678350  80.5160500  93.4644790  33.0291690
  80.5463490  94.2410790  31.7299950  82.7465920  92.9268220  48.9041950
  83.3365610  92.6184070  49.5919770  81.9286160  92.4547970  49.0601850
  87.5659350  92.5434030  49.1374970  86.8774870  91.8815570  49.0724960
  88.2865370  92.0972300  49.5823430  88.1959750  89.1385660  35.1965230
  88.4762040  88.2953560  35.5524650  87.4225480  89.3708770  35.7103980
  79.5154240  91.4278050  32.6556230  79.8180140  91.4345480  31.7475380
  80.2548830  91.0775910  33.1523890  82.7339170  90.3712670  33.6412430
  82.3861170  89.6936660  33.0614880  82.9351940  89.9102180  34.4555820
  76.0744810  96.9000320  40.0376800  75.4193650  96.6311960  39.3936500
  76.9122760  96.7904800  39.5878780  89.0235250  91.6941610  34.2595290
  89.4420130  91.5072590  33.4191950  88.7171310  90.8420660  34.5698220
  77.1120740  97.2852890  44.5780140  77.4793780  97.1980290  45.4576160
  76.5431560  96.5219440  44.4787000  91.9124600  95.7537270  47.5910610
  91.6810690  95.5250020  46.6908560  92.1729150  96.6736820  47.5455500
  76.6636740  94.1961980  48.4838560  75.7692790  94.1628740  48.8232270
  77.2034290  94.3948770  49.2489810  90.3512670  90.9793700  50.3690310
  91.2282850  90.9877100  50.7524310  90.3633510  90.2424540  49.7582660
  75.2882890  94.1099250  35.9802130  74.3846970  94.3729450  35.8053790
  75.7723510  94.3810420  35.2002090  91.7975940  94.8323240  41.2578330
  92.3213420  94.3385890  40.6268500  92.3835360  94.9673600  42.0025900
  91.9765660  94.9163110  44.7797880  91.0268370  94.8826650  44.8942870
  92.1578670  95.8263220  44.5447650  77.8310100  93.1664790  33.8896510
  78.5401800  92.7448010  33.4043790  77.1150040  93.2340020  33.2579860
  77.4784260  89.2204120  32.9299160  78.2012390  89.7613060  33.2480380
  77.7508780  88.9467540  32.0540700  91.2875910  94.0896590  37.1970740
  91.7835030  93.8567460  37.9819620  91.0891980  93.2508430  36.7808380
  77.1676450  88.4710310  42.8321780  77.8152640  87.9207690  42.3916940
  77.5878290  88.7253460  43.6537590  91.0628790  88.6651670  46.1891420
  91.7001010  89.2785810  46.5550610  91.2103680  88.7012330  45.2440650
  76.9208450  88.6265980  45.5747100  76.5723270  89.0829800  46.3405280
  76.5896150  87.7323110  45.6569530  84.4333270  89.8177860  49.0966520
  84.3722160  90.4099690  49.8461930  85.3733650  89.7103820  48.9516780
  87.0707830  89.4747920  48.7358810  87.6848240  89.7927210  48.0739890
  87.6157390  88.9896510  49.3554670  77.5929090  88.1542180  48.8497870
  78.1412080  87.9730230  48.0863980  77.6584400  87.3636290  49.3854180
  87.8115870  88.0380060  45.0628100  86.9375710  88.3715170  44.8601030
  87.7026620  87.5653240  45.8879970  88.7187850  90.2450930  46.4469820
  88.3901210  89.4302690  46.0671550  89.6670150  90.2020740  46.3235510
  85.5590690  88.9549900  44.0021010  84.7762480  89.4295400  44.2817770
  85.2653620  88.0504730  43.8934190  90.1111760  89.6573000  42.0470100
  90.5519850  89.6018100  41.1991700  89.8419350  90.5731010  42.1180280
  76.9031100  89.2597380  36.5234730  77.6610460  89.3726260  35.9498760
  76.4408270  90.0966580  36.4778160  83.4444910  91.3736650  39.5137040
  82.6319420  90.9993540  39.1732920  83.9486550  90.6181730  39.8158230
  87.9469890  88.0379100  40.7520110  88.5499260  88.6099310  41.2268630
  87.2062880  88.6018540  40.5294010  91.0904490  88.4400660  36.0260390
  91.2855120  89.3384110  36.2927820  90.3034360  88.2087740  36.5193340
  79.2756250  89.7861430  35.0636700  79.8049010  88.9991230  34.9344650
  79.9084570  90.4652620  35.2972230  81.4694090  89.5236570  38.1182090
  80.8396830  88.8223880  38.2852220  80.9299230  90.2840700  37.9015250
  81.5949650  88.8020550  50.5534580  81.3133920  89.3054150  49.7895400
  81.9769350  88.0042300  50.1876710  88.1965110  88.2174130  51.1315050
  88.0830560  88.5368740  52.0266570  89.0134850  88.6186640  50.8352330
  87.1023260  96.2366600  21.4949790  87.0217310  95.3221210  21.2241500
  86.6887680  96.7333670  20.7889500  85.2341300  98.0145620  23.3759060
  84.4583400  97.5346060  23.6657630  85.8854230  97.3351270  23.2015220
  79.2507130  98.3265430  24.2534820  78.4192010  98.0714140  24.6531330
  79.8588110  98.3976200  24.9892740  77.6599080  93.2867320  18.0377210
  76.7715780  93.6283290  17.9357090  77.9440270  93.0867640  17.1458040
  75.6232090  95.8872970  23.9216910  76.1948200  95.1195170  23.9220550
  75.6233630  96.1861730  23.0123520  76.8656960  91.2957330  25.7085840
  76.6859800  90.3983080  25.9888600  76.4637040  91.8429200  26.3832790
  85.7055460  93.4973190  23.6098150  86.0820280  92.6245070  23.4971820
  85.6074970  93.8331890  22.7188590  79.8360470  91.8698820  19.0715590
  79.9427220  92.7702550  19.3784350  78.9252830  91.8216790  18.7810240
  89.4879580  90.9923630  20.5426490  90.3089200  90.5020200  20.5851970
  89.5213660  91.5821290  21.2958330  77.4843630  93.7917830  24.3168180
  78.1653740  94.0556200  24.9355580  77.1691680  92.9518700  24.6506190
  81.6768200  94.8385190  23.4040770  82.1846420  95.3366160  24.0445790
  82.2081440  94.0620390  23.2280130  79.9604300  89.4783750  27.6704190
  79.9622740  89.9956140  26.8650090  79.1308610  89.0013930  27.6474120
  89.7241060  92.9324010  23.3154030  89.0196630  93.2208900  23.8957140
  90.0853220  93.7424120  22.9553590  79.6419630  91.1893710  25.6774640
  79.9836440  92.0335760  25.3828510  78.7035440  91.3377450  25.7939980
  83.3247520  88.6775980  22.0019230  83.6322500  88.1222870  21.2854730
  82.3948220  88.8120440  21.8192220  85.7128280  96.7424810  18.7379350
  84.7857560  96.6762190  18.9667820  85.8653100  97.6804940  18.6234590
  85.6997360  93.0141810  15.7346510  84.7601030  93.1755770  15.8198970
  86.0180620  93.7327490  15.1882500  89.7425570  98.3045110  19.2414600
  89.1237990  97.9664660  18.5940900  89.7250020  97.6604870  19.9493790
  89.1852130  94.4829650  26.6580410  88.7723310  95.3083360  26.9120400
  88.4528080  93.8974690  26.4656770  81.3184920  97.2689550  21.5199080
  80.9141920  96.5566800  21.0244980  81.4048040  96.9242790  22.4087120
  80.0313540  94.0432760  25.2998120  80.5828130  94.1528100  24.5251370
  80.5457050  94.4170360  26.0153350  87.9190270  97.5431920  16.2487350
  88.3583550  96.7054350  16.1025170  88.6318690  98.1761320  16.3351490
  79.7056270  97.5652120  28.9103460  79.5664040  98.4374920  29.2790860
  78.8237630  97.2224930  28.7651400  91.5007410  88.7974730  14.5628390
  91.1880070  88.8901560  15.4627460  92.2619880  89.3755760  14.5125820
  78.0189550  96.1634530  19.0205730  77.8987150  96.8896620  18.4087000
  77.7090440  95.3937440  18.5433640  80.4853210  89.5069600  22.4029400
  80.0421360  90.2879140  22.0713920  81.0438200  89.8299490  23.1100340
  84.7723020  92.3738120  28.0064720  84.3102390  92.5821140  28.8184660
  84.3701130  91.5597470  27.7035390  89.7727530  93.5947070  29.1361380
  88.9221120  93.2952820  29.4570450  89.6129320  93.8389080  28.2245200
  86.8677240  95.0948820  31.2360170  87.1930650  94.2612570  30.8962400
  87.6557570  95.6177340  31.3838500  83.6012030  89.1280300  17.2835230
  82.9766210  89.1240170  18.0088540  83.5142150  88.2611260  16.8871200
  82.5229110  90.0516930  24.2619000  82.8201440  90.9579760  24.1811020
  83.0714670  89.5635710  23.6478570  80.2767430  94.6303170  20.1310650
  80.0508350  94.4140340  21.0357270  79.4959960  95.0631630  19.7856620
  87.5065190  94.6366540  18.7301300  86.9074080  95.3602340  18.5464920
  88.0544800  94.5743320  17.9477750  82.7166640  95.5288750  30.7970920
  82.6210240  94.5883480  30.6471320  83.5598620  95.7503820  30.4018990
  86.1130060  93.2730080  20.7604580  86.5059630  93.5902280  19.9473270
  86.4746910  92.3941960  20.8749100  77.8477180  91.9402420  28.9504700
  77.4540570  92.7877630  29.1577480  77.1595580  91.3028790  29.1413340
  84.4222230  92.0237390  32.0201440  83.7320550  91.8309590  32.6547530
  85.1654530  92.3072030  32.5525740  75.1494230  89.8630880  22.9834780
  74.8607280  90.4333740  23.6959760  75.8939990  89.3835330  23.3466010
  75.3364460  93.8051000  14.1937500  75.2539130  94.7481760  14.3352490
  74.9847520  93.6625910  13.3149850  86.6985200  95.8635830  24.8555360
  85.9666320  96.3722640  25.2045460  86.3009540  95.0465810  24.5544140
  83.1362590  92.5390030  23.2607850  83.1398650  92.0979980  22.4112390
  84.0313710  92.8607360  23.3679670  78.9864970  92.4216520  22.2202060
  78.6465020  92.8991750  22.9769110  78.2242290  91.9681640  21.8603160
  83.1982740  93.5402110  16.2514610  83.3195560  93.4988590  17.2000430
  82.8131250  94.4026260  16.0961340  87.1611110  91.3169510  24.2678300
  87.1783850  91.7678160  25.1120150  86.9126690  90.4175150  24.4811740
  82.2104240  95.8503250  15.6497910  81.6421140  95.4021500  15.0233820
  82.9193240  96.2096030  15.1163060  90.5881860  88.7301690  30.1064680
  90.9127630  87.9991350  30.6322660  90.6238370  88.4115330  29.2045670
  83.4370560  96.5991810  25.0073260  83.8040690  96.1250380  25.7534600
  83.2475620  97.4733380  25.3481600  76.3011050  91.3435500  21.1366730
  76.0157970  90.9791170  21.9745350  76.2389910  90.6115960  20.5229870
  81.2269930  95.6400450  27.3257470  80.9227000  96.5192430  27.5507830
  82.1816390  95.7000240  27.3614910  85.9749640  90.2364760  17.8580100
  85.1614250  89.7377930  17.7825410  85.7811590  91.0763010  17.4416450
  88.6898030  94.6084410  16.1542260  89.5777650  94.9201640  15.9793600
  88.6603120  93.7356660  15.7622840  77.2833660  96.4803190  28.4728830
  76.9248600  97.1457040  29.0602170  76.9888220  95.6486740  28.8441450
  80.4846780  96.9387430  31.3568380  80.1846920  97.0844610  30.4596200
  81.2558020  96.3792720  31.2641770  90.9612300  95.9196250  15.6222120
  90.8776020  96.3510470  14.7718560  91.6806490  96.3794600  16.0548940
  75.7941710  96.4794450  15.0963430  76.6636560  96.7619250  15.3799350
  75.3032030  97.2930320  14.9812240  78.8588300  88.2105310  19.6894230
  78.7302930  88.2023210  20.6379150  78.0350320  88.5488400  19.3385240
  75.8582230  89.9696430  29.1500930  75.1440750  90.1693350  29.7553540
  76.2777270  89.1936000  29.5215730  87.3521010  92.4618740  26.9002380
  87.7201830  91.6413950  27.2281950  86.4919210  92.5220630  27.3158030
  90.7183040  91.4175680  17.7089940  90.0896200  91.5221350  16.9948170
  90.2234960  91.6372460  18.4983820  82.6867070  93.6961630  19.1247820
  81.9783220  94.1647970  19.5661430  82.9711550  93.0383640  19.7593010
  84.3123000  95.1158330  27.1240350  84.8108250  95.5904150  27.7892200
  84.4545950  94.1921850  27.3310380  86.7182500  90.4212290  20.5643610
  86.5950280  90.4398420  19.6153120  87.6667060  90.4691230  20.6842010
  80.8902090  92.0046710  16.4998530  81.7392620  92.4416860  16.4338720
  80.5233360  92.3166970  17.3270590  91.5189860  91.3326290  27.9668740
  91.0163460  92.0731690  28.3062550  92.3346520  91.7210290  27.6505530
  89.8111870  96.5759470  21.4130100  88.8702010  96.5909700  21.5877790
  90.1255940  95.7895430  21.8590400  79.7893510  98.2579070  14.9734060
  80.5556780  98.1460430  15.5359490  79.8668200  97.5617040  14.3210830
  78.4840270  95.6904140  15.6566950  78.5643860  94.7431650  15.7684350
  79.3760020  96.0211020  15.7627610  76.0111070  97.5119060  30.8923120
  76.5150090  96.9326340  31.4639350  75.2718490  97.7959290  31.4299490
  78.0434150  95.6548650  31.7873190  78.0839490  95.3562520  32.6958420
  78.8979650  96.0556260  31.6280710  81.8212540  98.2544200  16.9476700
  82.2428960  98.0884070  17.7908090  81.9463380  97.4444430  16.4531840
  79.9839960  94.2340750  29.7547680  79.4536420  93.7431700  29.1271020
  80.6528030  94.6624950  29.2205610  84.3340180  97.2781810  14.1953800
  84.8545840  96.5630830  13.8294950  84.9808580  97.9167680  14.4954310
  89.3540190  96.0406370  31.5228020  89.9360960  95.2858690  31.4348500
  89.5301960  96.5713810  30.7459500  80.4712260  91.2003120  29.8344970
  80.3769130  90.5823870  29.1095840  79.8909650  91.9269410  29.6074880
  83.2373700  89.7576360  26.8672360  82.7891000  89.7800620  26.0217910
  82.6038900  89.3595380  27.4642660  85.9797150  96.3846870  28.8722640
  86.0993360  95.7888010  29.6117480  86.8391150  96.4216560  28.4523940
  88.3185050  96.9384060  27.4485150  87.7920270  97.4626680  26.8450290
  88.6616390  97.5711450  28.0794880  80.7171440  94.3277430  13.8934860
  80.5160500  93.4644790  14.2548200  80.5463490  94.2410790  12.9556460
  82.7465920  92.9268220  30.1298460  83.3365610  92.6184070  30.8176280
  81.9286160  92.4547970  30.2858360  87.5659350  92.5434030  30.3631480
  86.8774870  91.8815570  30.2981470  88.2865370  92.0972300  30.8079940
  88.1959750  89.1385660  16.4221740  88.4762040  88.2953560  16.7781160
  87.4225480  89.3708770  16.9360490  79.5154240  91.4278050  13.8812740
  79.8180140  91.4345480  12.9731890  80.2548830  91.0775910  14.3780400
  82.7339170  90.3712670  14.8668940  82.3861170  89.6936660  14.2871390
  82.9351940  89.9102180  15.6812330  76.0744810  96.9000320  21.2633310
  75.4193650  96.6311960  20.6193010  76.9122760  96.7904800  20.8135290
  89.0235250  91.6941610  15.4851800  89.4420130  91.5072590  14.6448460
  88.7171310  90.8420660  15.7954730  77.1120740  97.2852890  25.8036650
  77.4793780  97.1980290  26.6832670  76.5431560  96.5219440  25.7043510
  91.9124600  95.7537270  28.8167120  91.6810690  95.5250020  27.9165070
  92.1729150  96.6736820  28.7712010  76.6636740  94.1961980  29.7095070
  75.7692790  94.1628740  30.0488780  77.2034290  94.3948770  30.4746320
  90.3512670  90.9793700  31.5946820  91.2282850  90.9877100  31.9780820
  90.3633510  90.2424540  30.9839170  75.2882890  94.1099250  17.2058640
  74.3846970  94.3729450  17.0310300  75.7723510  94.3810420  16.4258600
  91.7975940  94.8323240  22.4834840  92.3213420  94.3385890  21.8525010
  92.3835360  94.9673600  23.2282410  91.9765660  94.9163110  26.0054390
  91.0268370  94.8826650  26.1199380  92.1578670  95.8263220  25.7704160
  77.8310100  93.1664790  15.1153020  78.5401800  92.7448010  14.6300300
  77.1150040  93.2340020  14.4836370  77.4784260  89.2204120  14.1555670
  78.2012390  89.7613060  14.4736890  77.7508780  88.9467540  13.2797210
  91.2875910  94.0896590  18.4227250  91.7835030  93.8567460  19.2076130
  91.0891980  93.2508430  18.0064890  77.1676450  88.4710310  24.0578290
  77.8152640  87.9207690  23.6173450  77.5878290  88.7253460  24.8794100
  91.0628790  88.6651670  27.4147930  91.7001010  89.2785810  27.7807120
  91.2103680  88.7012330  26.4697160  76.9208450  88.6265980  26.8003610
  76.5723270  89.0829800  27.5661790  76.5896150  87.7323110  26.8826040
  84.4333270  89.8177860  30.3223030  84.3722160  90.4099690  31.0718440
  85.3733650  89.7103820  30.1773290  87.0707830  89.4747920  29.9615320
  87.6848240  89.7927210  29.2996400  87.6157390  88.9896510  30.5811180
  77.5929090  88.1542180  30.0754380  78.1412080  87.9730230  29.3120490
  77.6584400  87.3636290  30.6110690  87.8115870  88.0380060  26.2884610
  86.9375710  88.3715170  26.0857540  87.7026620  87.5653240  27.1136480
  88.7187850  90.2450930  27.6726330  88.3901210  89.4302690  27.2928060
  89.6670150  90.2020740  27.5492020  85.5590690  88.9549900  25.2277520
  84.7762480  89.4295400  25.5074280  85.2653620  88.0504730  25.1190700
  90.1111760  89.6573000  23.2726610  90.5519850  89.6018100  22.4248210
  89.8419350  90.5731010  23.3436790  76.9031100  89.2597380  17.7491240
  77.6610460  89.3726260  17.1755270  76.4408270  90.0966580  17.7034670
  83.4444910  91.3736650  20.7393550  82.6319420  90.9993540  20.3989430
  83.9486550  90.6181730  21.0414740  87.9469890  88.0379100  21.9776620
  88.5499260  88.6099310  22.4525140  87.2062880  88.6018540  21.7550520
  91.0904490  88.4400660  17.2516900  91.2855120  89.3384110  17.5184330
  90.3034360  88.2087740  17.7449850  79.2756250  89.7861430  16.2893210
  79.8049010  88.9991230  16.1601160  79.9084570  90.4652620  16.5228740
  81.4694090  89.5236570  19.3438600  80.8396830  88.8223880  19.5108730
  80.9299230  90.2840700  19.1271760  81.5949650  88.8020550  31.7791090
  81.3133920  89.3054150  31.0151910  81.9769350  88.0042300  31.4133220
  88.1965110  88.2174130  32.3571560  88.0830560  88.5368740  33.2523080
  89.0134850  88.6186640  32.0608840  87.1023260  96.2366600   2.7206300
  87.0217310  95.3221210   2.4498010  86.6887680  96.7333670   2.0146010
  85.2341300  98.0145620   4.6015570  84.4583400  97.5346060   4.8914140
  85.8854230  97.3351270   4.4271730  79.2507130  98.3265430   5.4791330
  78.4192010  98.0714140   5.8787840  79.8588110  98.3976200   6.2149250
  75.6232090  95.8872970   5.1473420  76.1948200  95.1195170   5.1477060
  75.6233630  96.1861730   4.2380030  76.8656960  91.2957330   6.9342350
  76.6859800  90.3983080   7.2145110  76.4637040  91.8429200   7.6089300
  85.7055460  93.4973190   4.8354660  86.0820280  92.6245070   4.7228330
  85.6074970  93.8331890   3.9445100  89.4879580  90.9923630   1.7683000
  90.3089200  90.5020200   1.8108480  89.5213660  91.5821290   2.5214840
  77.4843630  93.7917830   5.5424690  78.1653740  94.0556200   6.1612090
  77.1691680  92.9518700   5.8762700  81.6768200  94.8385190   4.6297280
  82.1846420  95.3366160   5.2702300  82.2081440  94.0620390   4.4536640
  79.9604300  89.4783750   8.8960700  79.9622740  89.9956140   8.0906600
  79.1308610  89.0013930   8.8730630  89.7241060  92.9324010   4.5410540
  89.0196630  93.2208900   5.1213650  90.0853220  93.7424120   4.1810100
  79.6419630  91.1893710   6.9031150  79.9836440  92.0335760   6.6085020
  78.7035440  91.3377450   7.0196490  83.3247520  88.6775980   3.2275740
  83.6322500  88.1222870   2.5111240  82.3948220  88.8120440   3.0448730
  89.1852130  94.4829650   7.8836920  88.7723310  95.3083360   8.1376910
  88.4528080  93.8974690   7.6913280  81.3184920  97.2689550   2.7455590
  80.9141920  96.5566800   2.2501490  81.4048040  96.9242790   3.6343630
  80.0313540  94.0432760   6.5254630  80.5828130  94.1528100   5.7507880
  80.5457050  94.4170360   7.2409860  79.7056270  97.5652120  10.1359970
  79.5664040  98.4374920  10.5047370  78.8237630  97.2224930   9.9907910
  80.4853210  89.5069600   3.6285910  80.0421360  90.2879140   3.2970430
  81.0438200  89.8299490   4.3356850  84.7723020  92.3738120   9.2321230
  84.3102390  92.5821140  10.0441170  84.3701130  91.5597470   8.9291900
  89.7727530  93.5947070  10.3617890  88.9221120  93.2952820  10.6826960
  89.6129320  93.8389080   9.4501710  86.8677240  95.0948820  12.4616680
  87.1930650  94.2612570  12.1218910  87.6557570  95.6177340  12.6095010
  82.5229110  90.0516930   5.4875510  82.8201440  90.9579760   5.4067530
  83.0714670  89.5635710   4.8735080  82.7166640  95.5288750  12.0227430
  82.6210240  94.5883480  11.8727830  83.5598620  95.7503820  11.6275500
  77.8477180  91.9402420  10.1761210  77.4540570  92.7877630  10.3833990
  77.1595580  91.3028790  10.3669850  84.4222230  92.0237390  13.2457950
  83.7320550  91.8309590  13.8804040  85.1654530  92.3072030  13.7782250
  75.1494230  89.8630880   4.2091290  74.8607280  90.4333740   4.9216270
  75.8939990  89.3835330   4.5722520  86.6985200  95.8635830   6.0811870
  85.9666320  96.3722640   6.4301970  86.3009540  95.0465810   5.7800650
  83.1362590  92.5390030   4.4864360  83.1398650  92.0979980   3.6368900
  84.0313710  92.8607360   4.5936180  78.9864970  92.4216520   3.4458570
  78.6465020  92.8991750   4.2025620  78.2242290  91.9681640   3.0859670
  87.1611110  91.3169510   5.4934810  87.1783850  91.7678160   6.3376660
  86.9126690  90.4175150   5.7068250  90.5881860  88.7301690  11.3321190
  90.9127630  87.9991350  11.8579170  90.6238370  88.4115330  10.4302180
  83.4370560  96.5991810   6.2329770  83.8040690  96.1250380   6.9791110
  83.2475620  97.4733380   6.5738110  76.3011050  91.3435500   2.3623240
  76.0157970  90.9791170   3.2001860  76.2389910  90.6115960   1.7486380
  81.2269930  95.6400450   8.5513980  80.9227000  96.5192430   8.7764340
  82.1816390  95.7000240   8.5871420  77.2833660  96.4803190   9.6985340
  76.9248600  97.1457040  10.2858680  76.9888220  95.6486740  10.0697960
  80.4846780  96.9387430  12.5824890  80.1846920  97.0844610  11.6852710
  81.2558020  96.3792720  12.4898280  75.8582230  89.9696430  10.3757440
  75.1440750  90.1693350  10.9810050  76.2777270  89.1936000  10.7472240
  87.3521010  92.4618740   8.1258890  87.7201830  91.6413950   8.4538460
  86.4919210  92.5220630   8.5414540  84.3123000  95.1158330   8.3496860
  84.8108250  95.5904150   9.0148710  84.4545950  94.1921850   8.5566890
  91.5189860  91.3326290   9.1925250  91.0163460  92.0731690   9.5319060
  92.3346520  91.7210290   8.8762040  89.8111870  96.5759470   2.6386610
  88.8702010  96.5909700   2.8134300  90.1255940  95.7895430   3.0846910
  76.0111070  97.5119060  12.1179630  76.5150090  96.9326340  12.6895860
  75.2718490  97.7959290  12.6556000  78.0434150  95.6548650  13.0129700
  78.0839490  95.3562520  13.9214930  78.8979650  96.0556260  12.8537220
  79.9839960  94.2340750  10.9804190  79.4536420  93.7431700  10.3527530
  80.6528030  94.6624950  10.4462120  89.3540190  96.0406370  12.7484530
  89.9360960  95.2858690  12.6605010  89.5301960  96.5713810  11.9716010
  80.4712260  91.2003120  11.0601480  80.3769130  90.5823870  10.3352350
  79.8909650  91.9269410  10.8331390  83.2373700  89.7576360   8.0928870
  82.7891000  89.7800620   7.2474420  82.6038900  89.3595380   8.6899170
  85.9797150  96.3846870  10.0979150  86.0993360  95.7888010  10.8373990
  86.8391150  96.4216560   9.6780450  88.3185050  96.9384060   8.6741660
  87.7920270  97.4626680   8.0706800  88.6616390  97.5711450   9.3051390
  82.7465920  92.9268220  11.3554970  83.3365610  92.6184070  12.0432790
  81.9286160  92.4547970  11.5114870  87.5659350  92.5434030  11.5887990
  86.8774870  91.8815570  11.5237980  88.2865370  92.0972300  12.0336450
  76.0744810  96.9000320   2.4889820  75.4193650  96.6311960   1.8449520
  76.9122760  96.7904800   2.0391800  77.1120740  97.2852890   7.0293160
  77.4793780  97.1980290   7.9089180  76.5431560  96.5219440   6.9300020
  91.9124600  95.7537270  10.0423630  91.6810690  95.5250020   9.1421580
  92.1729150  96.6736820   9.9968520  76.6636740  94.1961980  10.9351580
  75.7692790  94.1628740  11.2745290  77.2034290  94.3948770  11.7002830
  90.3512670  90.9793700  12.8203330  91.2282850  90.9877100  13.2037330
  90.3633510  90.2424540  12.2095680  91.7975940  94.8323240   3.7091350
  92.3213420  94.3385890   3.0781520  92.3835360  94.9673600   4.4538920
  91.9765660  94.9163110   7.2310900  91.0268370  94.8826650   7.3455890
  92.1578670  95.8263220   6.9960670  77.1676450  88.4710310   5.2834800
  77.8152640  87.9207690   4.8429960  77.5878290  88.7253460   6.1050610
  91.0628790  88.6651670   8.6404440  91.7001010  89.2785810   9.0063630
  91.2103680  88.7012330   7.6953670  76.9208450  88.6265980   8.0260120
  76.5723270  89.0829800   8.7918300  76.5896150  87.7323110   8.1082550
  84.4333270  89.8177860  11.5479540  84.3722160  90.4099690  12.2974950
  85.3733650  89.7103820  11.4029800  87.0707830  89.4747920  11.1871830
  87.6848240  89.7927210  10.5252910  87.6157390  88.9896510  11.8067690
  77.5929090  88.1542180  11.3010890  78.1412080  87.9730230  10.5377000
  77.6584400  87.3636290  11.8367200  87.8115870  88.0380060   7.5141120
  86.9375710  88.3715170   7.3114050  87.7026620  87.5653240   8.3392990
  88.7187850  90.2450930   8.8982840  88.3901210  89.4302690   8.5184570
  89.6670150  90.2020740   8.7748530  85.5590690  88.9549900   6.4534030
  84.7762480  89.4295400   6.7330790  85.2653620  88.0504730   6.3447210
  90.1111760  89.6573000   4.4983120  90.5519850  89.6018100   3.6504720
  89.8419350  90.5731010   4.5693300  83.4444910  91.3736650   1.9650060
  82.6319420  90.9993540   1.6245940  83.9486550  90.6181730   2.2671250
  87.9469890  88.0379100   3.2033130  88.5499260  88.6099310   3.6781650
  87.2062880  88.6018540   2.9807030  81.5949650  88.8020550  13.0047600
  81.3133920  89.3054150  12.2408420  81.9769350  88.0042300  12.6389730
  88.1965110  88.2174130  13.5828070  88.0830560  88.5368740  14.4779590
  89.0134850  88.6186640  13.2865350  87.1023260  77.4623110  77.8180260
  87.0217310  76.5477720  77.5471970  86.6887680  77.9590180  77.1119970
  85.2341300  79.2402130  79.6989530  84.4583400  78.7602570  79.9888100
  85.8854230  78.5607780  79.5245690  79.2507130  79.5521940  80.5765290
  78.4192010  79.2970650  80.9761800  79.8588110  79.6232710  81.3123210
  89.2548730  83.6462320  78.4788660  88.7930260  82.8749560  78.8075830
  90.0674280  83.6728390  78.9841110  79.2308390  83.5862030  80.7723310
  79.5336430  82.6959770  80.5933530  79.9751980  84.1432250  80.5445560
  77.6599080  74.5123830  74.3607680  76.7715780  74.8539800  74.2587560
  77.9440270  74.3124150  73.4688510  75.6232090  77.1129480  80.2447380
  76.1948200  76.3451680  80.2451020  75.6233630  77.4118240  79.3353990
  85.4812040  85.9320330  78.0992650  84.8623480  86.3877830  77.5287090
  86.3363820  86.0871790  77.6982350  84.6750290  81.9159320  79.7059690
  84.6058570  80.9749260  79.5448820  85.4370150  82.0060730  80.2782260
  85.7055460  74.7229700  79.9328620  86.0820280  73.8501580  79.8202290
  85.6074970  75.0588400  79.0419060  79.8360470  73.0955330  75.3946060
  79.9427220  73.9959060  75.7014820  78.9252830  73.0473300  75.1040710
  89.4879580  72.2180140  76.8656960  90.3089200  71.7276710  76.9082440
  89.5213660  72.8077800  77.6188800  77.4843630  75.0174340  80.6398650
  78.1653740  75.2812710  81.2586050  77.1691680  74.1775210  80.9736660
  81.6768200  76.0641700  79.7271240  82.1846420  76.5622670  80.3676260
  82.2081440  75.2876900  79.5510600  86.3475390  80.8159570  75.4924560
  85.7292660  81.2809020  74.9287280  86.8598640  81.5087050  75.9094070
  89.7241060  74.1580520  79.6384500  89.0196630  74.4465410  80.2187610
  90.0853220  74.9680630  79.2784060  79.6419630  72.4150220  82.0005110
  79.9836440  73.2592270  81.7058980  78.7035440  72.5633960  82.1170450
  75.7158590  81.5016100  72.8664190  75.3386570  81.9903200  72.1349090
  75.9731660  82.1741380  73.4970720  91.3403840  83.7755650  81.9011980
  90.6567360  84.4454760  81.8928650  91.8798130  83.9736300  81.1356840
  83.3247520  69.9032490  78.3249700  83.6322500  69.3479380  77.6085200
  82.3948220  70.0376950  78.1422690  88.8762580  85.6199780  80.6157160
  88.8889740  85.2162070  79.7479420  88.3237800  86.3947070  80.5118590
  90.1708000  82.3416000  75.7047330  90.0604330  81.3990330  75.8296750
  90.1676250  82.7031640  76.5910090  85.7128280  77.9681320  75.0609820
  84.7857560  77.9018700  75.2898290  85.8653100  78.9061450  74.9465060
  85.6997360  74.2398320  72.0576980  84.7601030  74.4012280  72.1429440
  86.0180620  74.9584000  71.5112970  89.7425570  79.5301620  75.5645070
  89.1237990  79.1921170  74.9171370  89.7250020  78.8861380  76.2724260
  81.3184920  78.4946060  77.8429550  80.9141920  77.7823310  77.3475450
  81.4048040  78.1499300  78.7317590  81.7866620  82.1813620  80.0068760
  81.4894910  81.5759090  79.3276540  82.7366440  82.2190930  79.8958120
  87.9190270  78.7688430  72.5717820  88.3583550  77.9310860  72.4255640
  88.6318690  79.4017830  72.6581960  86.0285650  83.7084500  76.5399060
  86.4681560  84.4508830  76.1254450  85.9672540  83.9511070  77.4638020
  91.5007410  70.0231240  70.8858860  91.1880070  70.1158070  71.7857930
  92.2619880  70.6012270  70.8356290  78.0189550  77.3891040  75.3436200
  77.8987150  78.1153130  74.7317470  77.7090440  76.6193950  74.8664110
  75.6574920  80.5606180  81.1504840  75.7355340  80.6954950  80.2060560
  76.2716600  79.8522070  81.3432960  76.9022550  82.2606370  77.5611020
  76.4950630  82.4020960  76.7064620  77.7935560  81.9766530  77.3582230
  88.6955830  86.6953620  73.8962070  88.5356970  86.4056560  74.7943900
  88.5302540  85.9193750  73.3607300  81.1744210  86.4752150  75.6733690
  80.9986690  85.5587690  75.4601490  80.3199950  86.8339440  75.9131490
  88.3981960  84.2041180  72.4560070  87.7047120  84.2018470  71.7962350
  89.1404820  83.7800500  72.0254240  87.9631890  85.8303890  76.5308560
  88.4188840  85.0493270  76.8447180  88.3024410  86.5410710  77.0749740
  80.4853210  70.7326110  78.7259870  80.0421360  71.5135650  78.3944390
  81.0438200  71.0556000  79.4330810  83.6012030  70.3536810  73.6065700
  82.9766210  70.3496680  74.3319010  83.5142150  69.4867770  73.2101670
  82.5229110  71.2773440  80.5849470  82.8201440  72.1836270  80.5041490
  83.0714670  70.7892220  79.9709040  80.2767430  75.8559680  76.4541120
  80.0508350  75.6396850  77.3587740  79.4959960  76.2888140  76.1087090
  87.5065190  75.8623050  75.0531770  86.9074080  76.5858850  74.8695390
  88.0544800  75.7999830  74.2708220  86.1130060  74.4986590  77.0835050
  86.5059630  74.8158790  76.2703740  86.4746910  73.6198470  77.1979570
  75.1494230  71.0887390  79.3065250  74.8607280  71.6590250  80.0190230
  75.8939990  70.6091840  79.6696480  75.3364460  75.0307510  70.5167970
  75.2539130  75.9738270  70.6582960  74.9847520  74.8882420  69.6380320
  86.6985200  77.0892340  81.1785830  85.9666320  77.5979150  81.5275930
  86.3009540  76.2722320  80.8774610  83.1362590  73.7646540  79.5838320
  83.1398650  73.3236490  78.7342860  84.0313710  74.0863870  79.6910140
  78.9864970  73.6473030  78.5432530  78.6465020  74.1248260  79.2999580
  78.2242290  73.1938150  78.1833630  83.1982740  74.7658620  72.5745080
  83.3195560  74.7245100  73.5230900  82.8131250  75.6282770  72.4191810
  87.1611110  72.5426020  80.5908770  87.1783850  72.9934670  81.4350620
  86.9126690  71.6431660  80.8042210  82.2104240  77.0759760  71.9728380
  81.6421140  76.6278010  71.3464290  82.9193240  77.4352540  71.4393530
  83.4370560  77.8248320  81.3303730  83.8040690  77.3506890  82.0765070
  83.2475620  78.6989890  81.6712070  76.3011050  72.5692010  77.4597200
  76.0157970  72.2047680  78.2975820  76.2389910  71.8372470  76.8460340
  79.7551720  81.0717950  74.2454790  78.9813980  80.5315570  74.0853510
  80.4846350  80.5524560  73.9072550  90.5139700  80.0683310  80.0381180
  91.2338820  80.5638600  79.6477290  90.3121520  79.3901200  79.3935050
  85.9749640  71.4621270  74.1810570  85.1614250  70.9634440  74.1055880
  85.7811590  72.3019520  73.7646920  88.6898030  75.8340920  72.4772730
  89.5777650  76.1458150  72.3024070  88.6603120  74.9613170  72.0853310
  79.7989120  80.7398330  77.8833600  80.3167790  79.9366590  77.8290490
  79.3473140  80.6777470  78.7250430  84.6858620  82.0064610  73.1560900
  85.0274320  82.7506840  72.6604220  83.8571330  82.3195730  73.5185730
  90.9612300  77.1452760  71.9452590  90.8776020  77.5766980  71.0949030
  91.6806490  77.6051110  72.3779410  91.9899550  83.9995020  74.6734720
  91.3475710  83.3450640  74.9478440  91.6030210  84.4050110  73.8975390
  87.5686030  81.3280450  78.5206410  87.9209850  80.7308580  77.8607780
  86.6848360  81.0024680  78.6914660  83.6549310  82.0878140  75.9276820
  84.3420440  82.6347350  76.3084410  82.8681730  82.6318870  75.9626430
  75.7941710  77.7050960  71.4193900  76.6636560  77.9875760  71.7029820
  75.3032030  78.5186830  71.3042710  82.9576520  79.0924170  75.5402180
  83.4139300  79.9029420  75.7662370  82.6064730  78.7747310  76.3720670
  78.8588300  69.4361820  76.0124700  78.7302930  69.4279720  76.9609620
  78.0350320  69.7744910  75.6615710  86.5341210  82.6062860  81.4871930
  87.1763440  81.9056020  81.6004100  87.0590560  83.3861300  81.3068820
  90.3796930  82.8911480  71.2111070  90.1534510  82.1741920  71.8035710
  89.9893130  82.6423920  70.3732820  76.1612960  86.9178340  71.9855530
  76.5210600  87.5167680  71.3312800  76.0205300  87.4638230  72.7590560
  89.9613180  80.8083420  72.8725230  89.6734880  81.2696110  73.6603110
  90.7565350  80.3481190  73.1409450  82.1781580  84.3009540  72.8029200
  82.1691680  85.0339230  72.1873710  81.2579940  84.0541120  72.8956160
  77.7788220  79.5224430  73.5475960  77.1716170  80.2623330  73.5571260
  78.2537570  79.6123790  72.7214160  90.7183040  72.6432190  74.0320410
  90.0896200  72.7477860  73.3178640  90.2234960  72.8628970  74.8214290
  85.1641180  84.3637780  71.4654390  85.2653160  84.1601770  70.5356370
  84.2642920  84.1096060  71.6702170  82.6867070  74.9218140  75.4478290
  81.9783220  75.3904480  75.8891900  82.9711550  74.2640150  76.0823480
  86.7182500  71.6468800  76.8874080  86.5950280  71.6654930  75.9383590
  87.6667060  71.6947740  77.0072480  83.8059290  86.8824100  76.1602060
  84.0600790  86.8445490  75.2381430  82.8571770  86.7557430  76.1530310
  80.8902090  73.2303220  72.8229000  81.7392620  73.6673370  72.7569190
  80.5233360  73.5423480  73.6501060  89.8111870  77.8015980  77.7360570
  88.8702010  77.8166210  77.9108260  90.1255940  77.0151940  78.1820870
  79.7893510  79.4835580  71.2964530  80.5556780  79.3716940  71.8589960
  79.8668200  78.7873550  70.6441300  78.4840270  76.9160650  71.9797420
  78.5643860  75.9688160  72.0914820  79.3760020  77.2467530  72.0858080
  79.2854980  87.0656040  79.0831960  80.0217460  86.5171500  79.3540530
  79.6695900  87.9312050  78.9437950  76.1700460  83.1329610  74.9573470
  75.2440240  83.3750750  74.9478880  76.6356890  83.9603870  74.8358220
  82.3957290  86.2386350  70.9057530  83.1885900  86.5275180  70.4539320
  81.8761640  85.8078520  70.2270010  91.4487460  85.4656480  72.3294270
  91.1628970  85.0521620  71.5148450  91.2507010  86.3944190  72.2094790
  82.9134690  81.4589760  70.7699880  82.8085330  80.8442110  71.4961260
  82.7458910  80.9355650  69.9862890  86.1537420  80.5209790  71.3741870
  85.6047520  80.9679090  72.0184610  86.7756680  80.0159040  71.8979540
  81.8212540  79.4800710  73.2707170  82.2428960  79.3140580  74.1138560
  81.9463380  78.6700940  72.7762310  84.3340180  78.5038320  70.5184270
  84.8545840  77.7887340  70.1525420  84.9808580  79.1424190  70.8184780
  80.7171440  75.5533940  70.2165330  80.5160500  74.6901300  70.5778670
  80.5463490  75.4667300  69.2786930  88.1959750  70.3642170  72.7452210
  88.4762040  69.5210070  73.1011630  87.4225480  70.5965280  73.2590960
  79.5154240  72.6534560  70.2043210  79.8180140  72.6601990  69.2962360
  80.2548830  72.3032420  70.7010870  82.7339170  71.5969180  71.1899410
  82.3861170  70.9193170  70.6101860  82.9351940  71.1358690  72.0042800
  84.8988210  86.5849930  72.8086010  85.7939000  86.9234900  72.8304770
  84.9305840  85.8629340  72.1810290  78.5384370  81.9576980  71.0373010
  78.9759240  82.5006650  71.6930590  79.0232100  81.1323930  71.0469350
  75.7530170  84.7466010  78.4893270  76.0833180  83.8787070  78.2571910
  76.1821170  84.9524530  79.3198230  80.3492090  83.0775020  76.1495240
  80.0487630  82.9539990  77.0499150  80.2429580  82.2183610  75.7410970
  76.2420380  85.6136600  81.2274900  75.8051370  85.7937400  82.0599050
  76.8098060  86.3711220  81.0856620  76.0744810  78.1256830  77.5863780
  75.4193650  77.8568470  76.9423480  76.9122760  78.0161310  77.1365760
  89.0235250  72.9198120  71.8082270  89.4420130  72.7329100  70.9678930
  88.7171310  72.0677170  72.1185200  75.2882890  75.3355760  73.5289110
  74.3846970  75.5985960  73.3540770  75.7723510  75.6066930  72.7489070
  91.7975940  76.0579750  78.8065310  92.3213420  75.5642400  78.1755480
  92.3835360  76.1930110  79.5512880  77.8310100  74.3921300  71.4383490
  78.5401800  73.9704520  70.9530770  77.1150040  74.4596530  70.8066840
  77.4784260  70.4460630  70.4786140  78.2012390  70.9869570  70.7967360
  77.7508780  70.1724050  69.6027680  91.2875910  75.3153100  74.7457720
  91.7835030  75.0823970  75.5306600  91.0891980  74.4764940  74.3295360
  77.1676450  69.6966820  80.3808760  77.8152640  69.1464200  79.9403920
  77.5878290  69.9509970  81.2024570  90.6210250  86.5924180  77.1396640
  91.2169320  86.2708750  76.4631060  90.8788400  86.1196000  77.9309910
  91.1722460  87.2419480  80.9694370  90.7125430  87.9935290  80.5952390
  90.5434920  86.5225950  80.9109170  81.6018180  85.5507720  80.1442500
  82.1183200  84.9395080  79.6190760  82.2515560  86.0536500  80.6353510
  84.3413680  86.4416210  80.9711480  84.6291490  86.1870510  80.0944490
  84.8536900  85.8893570  81.5617050  85.5590690  70.1806410  81.5507990
  84.7762480  70.6551910  81.8304750  85.2653620  69.2761240  81.4421170
  90.1111760  70.8829510  79.5957080  90.5519850  70.8274610  78.7478680
  89.8419350  71.7987520  79.6667260  76.2803080  86.6537110  76.5689850
  76.1125120  86.0207790  77.2671740  75.4137590  86.8596510  76.2184040
  76.9031100  70.4853890  74.0721710  77.6610460  70.5982770  73.4985740
  76.4408270  71.3223090  74.0265140  83.4444910  72.5993160  77.0624020
  82.6319420  72.2250050  76.7219900  83.9486550  71.8438240  77.3645210
  87.9469890  69.2635610  78.3007090  88.5499260  69.8355820  78.7755610
  87.2062880  69.8275050  78.0780990  91.0904490  69.6657170  73.5747370
  91.2855120  70.5640620  73.8414800  90.3034360  69.4344250  74.0680320
  77.8865780  85.3470340  74.0139990  77.3613400  85.7278370  73.3101950
  77.8110360  85.9721110  74.7349700  79.2756250  71.0117940  72.6123680
  79.8049010  70.2247740  72.4831630  79.9084570  71.6909130  72.8459210
  81.4694090  70.7493080  75.6669070  80.8396830  70.0480390  75.8339200
  80.9299230  71.5097210  75.4502230  80.4858750  87.2952720  72.8889240
  81.2177570  87.0112000  72.3413130  80.7452420  87.0566000  73.7788620
  79.6473540  83.4117450  72.8935570  79.0182420  83.8802550  73.4421400
  79.7621370  82.5666670  73.3281760  87.1023260  77.4623110  59.0436770
  87.0217310  76.5477720  58.7728480  86.6887680  77.9590180  58.3376480
  85.2341300  79.2402130  60.9246040  84.4583400  78.7602570  61.2144610
  85.8854230  78.5607780  60.7502200  79.2507130  79.5521940  61.8021800
  78.4192010  79.2970650  62.2018310  79.8588110  79.6232710  62.5379720
  89.2548730  83.6462320  59.7045170  88.7930260  82.8749560  60.0332340
  90.0674280  83.6728390  60.2097620  79.2308390  83.5862030  61.9979820
  79.5336430  82.6959770  61.8190040  79.9751980  84.1432250  61.7702070
  77.6599080  74.5123830  55.5864190  76.7715780  74.8539800  55.4844070
  77.9440270  74.3124150  54.6945020  75.6232090  77.1129480  61.4703890
  76.1948200  76.3451680  61.4707530  75.6233630  77.4118240  60.5610500
  85.4812040  85.9320330  59.3249160  84.8623480  86.3877830  58.7543600
  86.3363820  86.0871790  58.9238860  84.6750290  81.9159320  60.9316200
  84.6058570  80.9749260  60.7705330  85.4370150  82.0060730  61.5038770
  76.8656960  72.5213840  63.2572820  76.6859800  71.6239590  63.5375580
  76.4637040  73.0685710  63.9319770  85.7055460  74.7229700  61.1585130
  86.0820280  73.8501580  61.0458800  85.6074970  75.0588400  60.2675570
  79.8360470  73.0955330  56.6202570  79.9427220  73.9959060  56.9271330
  78.9252830  73.0473300  56.3297220  89.4879580  72.2180140  58.0913470
  90.3089200  71.7276710  58.1338950  89.5213660  72.8077800  58.8445310
  77.4843630  75.0174340  61.8655160  78.1653740  75.2812710  62.4842560
  77.1691680  74.1775210  62.1993170  81.6768200  76.0641700  60.9527750
  82.1846420  76.5622670  61.5932770  82.2081440  75.2876900  60.7767110
  79.9604300  70.7040260  65.2191170  79.9622740  71.2212650  64.4137070
  79.1308610  70.2270440  65.1961100  86.3475390  80.8159570  56.7181070
  85.7292660  81.2809020  56.1543790  86.8598640  81.5087050  57.1350580
  81.2107150  80.3435440  63.3964670  80.8776530  80.9704360  64.0385740
  81.3873830  80.8697320  62.6166340  89.7241060  74.1580520  60.8641010
  89.0196630  74.4465410  61.4444120  90.0853220  74.9680630  60.5040570
  79.6419630  72.4150220  63.2261620  79.9836440  73.2592270  62.9315490
  78.7035440  72.5633960  63.3426960  80.4226250  82.3116240  65.2113850
  81.0400250  82.9867320  64.9298300  79.5619370  82.7204220  65.1201350
  75.7158590  81.5016100  54.0920700  75.3386570  81.9903200  53.3605600
  75.9731660  82.1741380  54.7227230  91.3403840  83.7755650  63.1268490
  90.6567360  84.4454760  63.1185160  91.8798130  83.9736300  62.3613350
  83.3247520  69.9032490  59.5506210  83.6322500  69.3479380  58.8341710
  82.3948220  70.0376950  59.3679200  88.8762580  85.6199780  61.8413670
  88.8889740  85.2162070  60.9735930  88.3237800  86.3947070  61.7375100
  90.1708000  82.3416000  56.9303840  90.0604330  81.3990330  57.0553260
  90.1676250  82.7031640  57.8166600  88.2748020  80.5229620  63.1696280
  88.6916810  80.3089730  62.3349740  88.9987840  80.7802410  63.7404900
  85.7128280  77.9681320  56.2866330  84.7857560  77.9018700  56.5154800
  85.8653100  78.9061450  56.1721570  85.6997360  74.2398320  53.2833490
  84.7601030  74.4012280  53.3685950  86.0180620  74.9584000  52.7369480
  89.7425570  79.5301620  56.7901580  89.1237990  79.1921170  56.1427880
  89.7250020  78.8861380  57.4980770  89.1852130  75.7086160  64.2067390
  88.7723310  76.5339870  64.4607380  88.4528080  75.1231200  64.0143750
  81.3184920  78.4946060  59.0686060  80.9141920  77.7823310  58.5731960
  81.4048040  78.1499300  59.9574100  81.7866620  82.1813620  61.2325270
  81.4894910  81.5759090  60.5533050  82.7366440  82.2190930  61.1214630
  80.0313540  75.2689270  62.8485100  80.5828130  75.3784610  62.0738350
  80.5457050  75.6426870  63.5640330  89.8752230  85.7545490  64.8948370
  89.3982790  86.5617680  64.7020980  89.1914020  85.1023820  65.0474580
  80.8785050  81.9195310  67.8833070  79.9813580  82.1435280  68.1306470
  80.9037920  82.0430250  66.9344470  87.9190270  78.7688430  53.7974330
  88.3583550  77.9310860  53.6512150  88.6318690  79.4017830  53.8838470
  79.7056270  78.7908630  66.4590440  79.5664040  79.6631430  66.8277840
  78.8237630  78.4481440  66.3138380  86.0285650  83.7084500  57.7655570
  86.4681560  84.4508830  57.3510960  85.9672540  83.9511070  58.6894530
  81.5036620  84.7330330  68.6675590  81.4752050  85.1373280  67.8004020
  81.3401590  83.8040690  68.5047190  91.5007410  70.0231240  52.1115370
  91.1880070  70.1158070  53.0114440  92.2619880  70.6012270  52.0612800
  78.0189550  77.3891040  56.5692710  77.8987150  78.1153130  55.9573980
  77.7090440  76.6193950  56.0920620  75.6574920  80.5606180  62.3761350
  75.7355340  80.6954950  61.4317070  76.2716600  79.8522070  62.5689470
  76.9022550  82.2606370  58.7867530  76.4950630  82.4020960  57.9321130
  77.7935560  81.9766530  58.5838740  86.7201430  86.4098280  65.6934580
  87.2346100  86.3206290  66.4957010  85.8770510  86.7557980  65.9862490
  88.6955830  86.6953620  55.1218580  88.5356970  86.4056560  56.0200410
  88.5302540  85.9193750  54.5863810  81.1744210  86.4752150  56.8990200
  80.9986690  85.5587690  56.6858000  80.3199950  86.8339440  57.1388000
  88.3981960  84.2041180  53.6816580  87.7047120  84.2018470  53.0218860
  89.1404820  83.7800500  53.2510750  87.9631890  85.8303890  57.7565070
  88.4188840  85.0493270  58.0703690  88.3024410  86.5410710  58.3006250
  75.7134440  81.6020350  64.9155810  75.8765480  81.1325710  64.0975180
  76.1786890  81.0943910  65.5804650  80.4853210  70.7326110  59.9516380
  80.0421360  71.5135650  59.6200900  81.0438200  71.0556000  60.6587320
  84.7723020  73.5994630  65.5551700  84.3102390  73.8077650  66.3671640
  84.3701130  72.7853980  65.2522370  89.7727530  74.8203580  66.6848360
  88.9221120  74.5209330  67.0057430  89.6129320  75.0645590  65.7732180
  86.8677240  76.3205330  68.7847150  87.1930650  75.4869080  68.4449380
  87.6557570  76.8433850  68.9325480  83.6012030  70.3536810  54.8322210
  82.9766210  70.3496680  55.5575520  83.5142150  69.4867770  54.4358180
  82.5229110  71.2773440  61.8105980  82.8201440  72.1836270  61.7298000
  83.0714670  70.7892220  61.1965550  80.2767430  75.8559680  57.6797630
  80.0508350  75.6396850  58.5844250  79.4959960  76.2888140  57.3343600
  87.5065190  75.8623050  56.2788280  86.9074080  76.5858850  56.0951900
  88.0544800  75.7999830  55.4964730  82.7166640  76.7545260  68.3457900
  82.6210240  75.8139990  68.1958300  83.5598620  76.9760330  67.9505970
  86.1130060  74.4986590  58.3091560  86.5059630  74.8158790  57.4960250
  86.4746910  73.6198470  58.4236080  77.8477180  73.1658930  66.4991680
  77.4540570  74.0134140  66.7064460  77.1595580  72.5285300  66.6900320
  84.4222230  73.2493900  69.5688420  83.7320550  73.0566100  70.2034510
  85.1654530  73.5328540  70.1012720  75.1494230  71.0887390  60.5321760
  74.8607280  71.6590250  61.2446740  75.8939990  70.6091840  60.8952990
  75.3364460  75.0307510  51.7424480  75.2539130  75.9738270  51.8839470
  74.9847520  74.8882420  50.8636830  86.6985200  77.0892340  62.4042340
  85.9666320  77.5979150  62.7532440  86.3009540  76.2722320  62.1031120
  83.1362590  73.7646540  60.8094830  83.1398650  73.3236490  59.9599370
  84.0313710  74.0863870  60.9166650  78.9864970  73.6473030  59.7689040
  78.6465020  74.1248260  60.5256090  78.2242290  73.1938150  59.4090140
  83.1982740  74.7658620  53.8001590  83.3195560  74.7245100  54.7487410
  82.8131250  75.6282770  53.6448320  87.1611110  72.5426020  61.8165280
  87.1783850  72.9934670  62.6607130  86.9126690  71.6431660  62.0298720
  82.2104240  77.0759760  53.1984890  81.6421140  76.6278010  52.5720800
  82.9193240  77.4352540  52.6650040  90.5881860  69.9558200  67.6551660
  90.9127630  69.2247860  68.1809640  90.6238370  69.6371840  66.7532650
  77.2873420  80.9771780  67.0751620  76.9028210  80.3365450  67.6734580
  77.5985610  81.6807900  67.6446350  83.4370560  77.8248320  62.5560240
  83.8040690  77.3506890  63.3021580  83.2475620  78.6989890  62.8968580
  76.3011050  72.5692010  58.6853710  76.0157970  72.2047680  59.5232330
  76.2389910  71.8372470  58.0716850  81.2269930  76.8656960  64.8744450
  80.9227000  77.7448940  65.0994810  82.1816390  76.9256750  64.9101890
  79.7551720  81.0717950  55.4711300  78.9813980  80.5315570  55.3110020
  80.4846350  80.5524560  55.1329060  90.5139700  80.0683310  61.2637690
  91.2338820  80.5638600  60.8733800  90.3121520  79.3901200  60.6191560
  85.9749640  71.4621270  55.4067080  85.1614250  70.9634440  55.3312390
  85.7811590  72.3019520  54.9903430  85.8958500  80.1392370  67.1506690
  85.8295810  79.2188040  66.8964280  85.2663640  80.2367810  67.8651330
  88.6898030  75.8340920  53.7029240  89.5777650  76.1458150  53.5280580
  88.6603120  74.9613170  53.3109820  79.7989120  80.7398330  59.1090110
  80.3167790  79.9366590  59.0547000  79.3473140  80.6777470  59.9506940
  84.6858620  82.0064610  54.3817410  85.0274320  82.7506840  53.8860730
  83.8571330  82.3195730  54.7442240  77.2833660  77.7059700  66.0215810
  76.9248600  78.3713550  66.6089150  76.9888220  76.8743250  66.3928430
  80.4846780  78.1643940  68.9055360  80.1846920  78.3101120  68.0083180
  81.2558020  77.6049230  68.8128750  85.8275230  82.9612940  66.9010490
  85.8419770  82.0293900  66.6829400  85.1200330  83.0472700  67.5400260
  90.9612300  77.1452760  53.1709100  90.8776020  77.5766980  52.3205540
  91.6806490  77.6051110  53.6035920  91.9899550  83.9995020  55.8991230
  91.3475710  83.3450640  56.1734950  91.6030210  84.4050110  55.1231900
  87.5686030  81.3280450  59.7462920  87.9209850  80.7308580  59.0864290
  86.6848360  81.0024680  59.9171170  83.6549310  82.0878140  57.1533330
  84.3420440  82.6347350  57.5340920  82.8681730  82.6318870  57.1882940
  75.7941710  77.7050960  52.6450410  76.6636560  77.9875760  52.9286330
  75.3032030  78.5186830  52.5299220  82.9576520  79.0924170  56.7658690
  83.4139300  79.9029420  56.9918880  82.6064730  78.7747310  57.5977180
  85.2609130  84.6030510  63.9950990  85.9051350  84.8089890  64.6724410
  85.6238570  83.8418910  63.5421840  78.8588300  69.4361820  57.2381210
  78.7302930  69.4279720  58.1866130  78.0350320  69.7744910  56.8872220
  86.5341210  82.6062860  62.7128440  87.1763440  81.9056020  62.8260610
  87.0590560  83.3861300  62.5325330  90.3796930  82.8911480  52.4367580
  90.1534510  82.1741920  53.0292220  89.9893130  82.6423920  51.5989330
  88.3078830  83.4057760  65.9164500  88.6435070  83.9924450  66.5942420
  87.3879170  83.2750470  66.1462290  76.1612960  86.9178340  53.2112040
  76.5210600  87.5167680  52.5569310  76.0205300  87.4638230  53.9847070
  75.8582230  71.1952940  66.6987910  75.1440750  71.3949860  67.3040520
  76.2777270  70.4192510  67.0702710  89.9613180  80.8083420  54.0981740
  89.6734880  81.2696110  54.8859620  90.7565350  80.3481190  54.3665960
  76.1454820  85.1833200  67.6854440  76.2545940  84.2427940  67.5449830
  75.4935380  85.4487950  67.0368170  84.1367410  83.4549090  69.0852560
  83.8164280  82.7358330  69.6298250  83.4625770  84.1304160  69.1588620
  82.1781580  84.3009540  54.0285710  82.1691680  85.0339230  53.4130220
  81.2579940  84.0541120  54.1212670  77.7788220  79.5224430  54.7732470
  77.1716170  80.2623330  54.7827770  78.2537570  79.6123790  53.9470670
  87.3521010  73.6875250  64.4489360  87.7201830  72.8670460  64.7768930
  86.4919210  73.7477140  64.8645010  90.7183040  72.6432190  55.2576920
  90.0896200  72.7477860  54.5435150  90.2234960  72.8628970  56.0470800
  85.1641180  84.3637780  52.6910900  85.2653160  84.1601770  51.7612880
  84.2642920  84.1096060  52.8958680  82.6867070  74.9218140  56.6734800
  81.9783220  75.3904480  57.1148410  82.9711550  74.2640150  57.3079990
  84.3123000  76.3414840  64.6727330  84.8108250  76.8160660  65.3379180
  84.4545950  75.4178360  64.8797360  86.7182500  71.6468800  58.1130590
  86.5950280  71.6654930  57.1640100  87.6667060  71.6947740  58.2328990
  83.8059290  86.8824100  57.3858570  84.0600790  86.8445490  56.4637940
  82.8571770  86.7557430  57.3786820  80.8902090  73.2303220  54.0485510
  81.7392620  73.6673370  53.9825700  80.5233360  73.5423480  54.8757570
  91.5189860  72.5582800  65.5155720  91.0163460  73.2988200  65.8549530
  92.3346520  72.9466800  65.1992510  89.8111870  77.8015980  58.9617080
  88.8702010  77.8166210  59.1364770  90.1255940  77.0151940  59.4077380
  79.7893510  79.4835580  52.5221040  80.5556780  79.3716940  53.0846470
  79.8668200  78.7873550  51.8697810  78.4840270  76.9160650  53.2053930
  78.5643860  75.9688160  53.3171330  79.3760020  77.2467530  53.3114590
  79.2854980  87.0656040  60.3088470  80.0217460  86.5171500  60.5797040
  79.6695900  87.9312050  60.1694460  76.1700460  83.1329610  56.1829980
  75.2440240  83.3750750  56.1735390  76.6356890  83.9603870  56.0614730
  78.2913260  86.2502110  69.4974050  79.0925990  86.5714160  69.9109450
  77.7765080  85.8897690  70.2193960  82.3957290  86.2386350  52.1314040
  83.1885900  86.5275180  51.6795830  81.8761640  85.8078520  51.4526520
  87.1277890  82.3581980  69.4449460  86.5216050  82.3813580  68.7045210
  86.8232000  81.6265020  69.9816710  88.5578260  86.0862270  68.0558870
  89.5100010  86.0020290  68.0059110  88.4106480  86.7503980  68.7292660
  91.4487460  85.4656480  53.5550780  91.1628970  85.0521620  52.7404960
  91.2507010  86.3944190  53.4351300  76.0111070  78.7375570  68.4410100
  76.5150090  78.1582850  69.0126330  75.2718490  79.0215800  68.9786470
  82.9134690  81.4589760  51.9956390  82.8085330  80.8442110  52.7217770
  82.7458910  80.9355650  51.2119400  83.0649010  80.1446560  67.9745620
  82.2994680  80.7131560  67.8900290  83.2464970  79.8522770  67.0813850
  86.1537420  80.5209790  52.5998380  85.6047520  80.9679090  53.2441120
  86.7756680  80.0159040  53.1236050  90.2072360  81.8751890  68.5320640
  90.9481830  82.2127650  68.0288100  89.4445040  82.0443950  67.9790410
  78.0434150  76.8805160  69.3360170  78.0839490  76.5819030  70.2445400
  78.8979650  77.2812770  69.1767690  81.8212540  79.4800710  54.4963680
  82.2428960  79.3140580  55.3395070  81.9463380  78.6700940  54.0018820
  79.9839960  75.4597260  67.3034660  79.4536420  74.9688210  66.6758000
  80.6528030  75.8881460  66.7692590  84.3340180  78.5038320  51.7440780
  84.8545840  77.7887340  51.3781930  84.9808580  79.1424190  52.0441290
  88.8818020  79.9266720  67.0675850  89.2959040  80.0811800  67.9166270
  87.9469020  80.0521940  67.2301630  89.3540190  77.2662880  69.0715000
  89.9360960  76.5115200  68.9835480  89.5301960  77.7970320  68.2946480
  80.4712260  72.4259630  67.3831950  80.3769130  71.8080380  66.6582820
  79.8909650  73.1525920  67.1561860  83.2373700  70.9832870  64.4159340
  82.7891000  71.0057130  63.5704890  82.6038900  70.5851890  65.0129640
  83.6433250  79.8787200  65.0371780  84.0621360  80.7219930  64.8648020
  82.7241880  80.0159240  64.8078560  85.9797150  77.6103380  66.4209620
  86.0993360  77.0144520  67.1604460  86.8391150  77.6473070  66.0010920
  88.3185050  78.1640570  64.9972130  87.7920270  78.6883190  64.3937270
  88.6616390  78.7967960  65.6281860  80.7171440  75.5533940  51.4421840
  80.5160500  74.6901300  51.8035180  80.5463490  75.4667300  50.5043440
  81.4940670  86.1840210  66.1529510  80.9561760  86.9086270  65.8338210
  81.7474630  85.7070550  65.3626850  82.7465920  74.1524730  67.6785440
  83.3365610  73.8440580  68.3663260  81.9286160  73.6804480  67.8345340
  87.5659350  73.7690540  67.9118460  86.8774870  73.1072080  67.8468450
  88.2865370  73.3228810  68.3566920  88.1959750  70.3642170  53.9708720
  88.4762040  69.5210070  54.3268140  87.4225480  70.5965280  54.4847470
  79.5154240  72.6534560  51.4299720  79.8180140  72.6601990  50.5218870
  80.2548830  72.3032420  51.9267380  84.3502880  87.4191420  66.4116160
  84.2761580  88.3226560  66.7188530  83.4481720  87.1003320  66.3838230
  82.7339170  71.5969180  52.4155920  82.3861170  70.9193170  51.8358370
  82.9351940  71.1358690  53.2299310  84.8988210  86.5849930  54.0342520
  85.7939000  86.9234900  54.0561280  84.9305840  85.8629340  53.4066800
  78.5384370  81.9576980  52.2629520  78.9759240  82.5006650  52.9187100
  79.0232100  81.1323930  52.2725860  75.7530170  84.7466010  59.7149780
  76.0833180  83.8787070  59.4828420  76.1821170  84.9524530  60.5454740
  80.3492090  83.0775020  57.3751750  80.0487630  82.9539990  58.2755660
  80.2429580  82.2183610  56.9667480  76.2420380  85.6136600  62.4531410
  75.8051370  85.7937400  63.2855560  76.8098060  86.3711220  62.3113130
  91.8782560  85.1153600  66.7408720  91.2784550  85.1746160  65.9972640
  92.0076460  84.1758580  66.8705570  76.0744810  78.1256830  58.8120290
  75.4193650  77.8568470  58.1679990  76.9122760  78.0161310  58.3622270
  90.5634200  81.8405580  64.8384880  89.7494040  82.2702740  65.1010670
  90.9708400  82.4523990  64.2253930  89.0235250  72.9198120  53.0338780
  89.4420130  72.7329100  52.1935440  88.7171310  72.0677170  53.3441710
  77.1120740  78.5109400  63.3523630  77.4793780  78.4236800  64.2319650
  76.5431560  77.7475950  63.2530490  91.9124600  76.9793780  66.3654100
  91.6810690  76.7506530  65.4652050  92.1729150  77.8993330  66.3198990
  76.6636740  75.4218490  67.2582050  75.7692790  75.3885250  67.5975760
  77.2034290  75.6205280  68.0233300  90.3512670  72.2050210  69.1433800
  91.2282850  72.2133610  69.5267800  90.3633510  71.4681050  68.5326150
  75.2882890  75.3355760  54.7545620  74.3846970  75.5985960  54.5797280
  75.7723510  75.6066930  53.9745580  91.7975940  76.0579750  60.0321820
  92.3213420  75.5642400  59.4011990  92.3835360  76.1930110  60.7769390
  91.9765660  76.1419620  63.5541370  91.0268370  76.1083160  63.6686360
  92.1578670  77.0519730  63.3191140  77.8310100  74.3921300  52.6640000
  78.5401800  73.9704520  52.1787280  77.1150040  74.4596530  52.0323350
  77.4784260  70.4460630  51.7042650  78.2012390  70.9869570  52.0223870
  77.7508780  70.1724050  50.8284190  91.2875910  75.3153100  55.9714230
  91.7835030  75.0823970  56.7563110  91.0891980  74.4764940  55.5551870
  77.1676450  69.6966820  61.6065270  77.8152640  69.1464200  61.1660430
  77.5878290  69.9509970  62.4281080  91.0628790  69.8908180  64.9634910
  91.7001010  70.5042320  65.3294100  91.2103680  69.9268840  64.0184140
  90.6210250  86.5924180  58.3653150  91.2169320  86.2708750  57.6887570
  90.8788400  86.1196000  59.1566420  76.9208450  69.8522490  64.3490590
  76.5723270  70.3086310  65.1148770  76.5896150  68.9579620  64.4313020
  78.5272820  83.0242090  68.5143780  78.4842450  82.6535000  69.3958240
  78.6583830  83.9619660  68.6545600  82.2278850  84.5801680  64.1153500
  81.9870210  84.8476240  63.2284020  83.1681490  84.7507410  64.1704360
  84.4333270  71.0434370  67.8710010  84.3722160  71.6356200  68.6205420
  85.3733650  70.9360330  67.7260270  87.0707830  70.7004430  67.5102300
  87.6848240  71.0183720  66.8483380  87.6157390  70.2153020  68.1298160
  77.5929090  69.3798690  67.6241360  78.1412080  69.1986740  66.8607470
  77.6584400  68.5892800  68.1597670  78.3660850  85.9704340  65.6341560
  77.7721170  85.8389040  66.3731600  78.3584690  85.1342480  65.1683660
  87.8115870  69.2636570  63.8371590  86.9375710  69.5971680  63.6344520
  87.7026620  68.7909750  64.6623460  88.7187850  71.4707440  65.2213310
  88.3901210  70.6559200  64.8415040  89.6670150  71.4277250  65.0979000
  91.1722460  87.2419480  62.1950880  90.7125430  87.9935290  61.8208900
  90.5434920  86.5225950  62.1365680  77.9973080  83.3362720  64.5849600
  77.2707140  82.7168010  64.5175550  78.0582230  83.7303330  63.7147680
  81.6018180  85.5507720  61.3699010  82.1183200  84.9395080  60.8447270
  82.2515560  86.0536500  61.8610020  84.3413680  86.4416210  62.1967990
  84.6291490  86.1870510  61.3201000  84.8536900  85.8893570  62.7873560
  85.5590690  70.1806410  62.7764500  84.7762480  70.6551910  63.0561260
  85.2653620  69.2761240  62.6677680  90.1111760  70.8829510  60.8213590
  90.5519850  70.8274610  59.9735190  89.8419350  71.7987520  60.8923770
  76.2803080  86.6537110  57.7946360  76.1125120  86.0207790  58.4928250
  75.4137590  86.8596510  57.4440550  76.9031100  70.4853890  55.2978220
  77.6610460  70.5982770  54.7242250  76.4408270  71.3223090  55.2521650
  83.4444910  72.5993160  58.2880530  82.6319420  72.2250050  57.9476410
  83.9486550  71.8438240  58.5901720  87.9469890  69.2635610  59.5263600
  88.5499260  69.8355820  60.0012120  87.2062880  69.8275050  59.3037500
  91.0904490  69.6657170  54.8003880  91.2855120  70.5640620  55.0671310
  90.3034360  69.4344250  55.2936830  77.8865780  85.3470340  55.2396500
  77.3613400  85.7278370  54.5358460  77.8110360  85.9721110  55.9606210
  79.2756250  71.0117940  53.8380190  79.8049010  70.2247740  53.7088140
  79.9084570  71.6909130  54.0715720  81.4694090  70.7493080  56.8925580
  80.8396830  70.0480390  57.0595710  80.9299230  71.5097210  56.6758740
  84.4086040  87.3632310  69.5636190  85.3353350  87.1276580  69.6072150
  84.3936470  88.1904310  69.0822220  81.5949650  70.0277060  69.3278070
  81.3133920  70.5310660  68.5638890  81.9769350  69.2298810  68.9620200
  80.4858750  87.2952720  54.1145750  81.2177570  87.0112000  53.5669640
  80.7452420  87.0566000  55.0045130  79.6473540  83.4117450  54.1192080
  79.0182420  83.8802550  54.6677910  79.7621370  82.5666670  54.5538270
  88.1965110  69.4430640  69.9058540  88.0830560  69.7625250  70.8010060
  89.0134850  69.8443150  69.6095820  90.9763600  86.5902170  69.3877230
  91.7688920  86.0951400  69.1803190  91.2696750  87.2692310  69.9952840
  87.1023260  77.4623110  40.2693280  87.0217310  76.5477720  39.9984990
  86.6887680  77.9590180  39.5632990  85.2341300  79.2402130  42.1502550
  84.4583400  78.7602570  42.4401120  85.8854230  78.5607780  41.9758710
  79.2507130  79.5521940  43.0278310  78.4192010  79.2970650  43.4274820
  79.8588110  79.6232710  43.7636230  89.2548730  83.6462320  40.9301680
  88.7930260  82.8749560  41.2588850  90.0674280  83.6728390  41.4354130
  79.2308390  83.5862030  43.2236330  79.5336430  82.6959770  43.0446550
  79.9751980  84.1432250  42.9958580  77.6599080  74.5123830  36.8120700
  76.7715780  74.8539800  36.7100580  77.9440270  74.3124150  35.9201530
  75.6232090  77.1129480  42.6960400  76.1948200  76.3451680  42.6964040
  75.6233630  77.4118240  41.7867010  85.4812040  85.9320330  40.5505670
  84.8623480  86.3877830  39.9800110  86.3363820  86.0871790  40.1495370
  84.6750290  81.9159320  42.1572710  84.6058570  80.9749260  41.9961840
  85.4370150  82.0060730  42.7295280  76.8656960  72.5213840  44.4829330
  76.6859800  71.6239590  44.7632090  76.4637040  73.0685710  45.1576280
  85.7055460  74.7229700  42.3841640  86.0820280  73.8501580  42.2715310
  85.6074970  75.0588400  41.4932080  79.8360470  73.0955330  37.8459080
  79.9427220  73.9959060  38.1527840  78.9252830  73.0473300  37.5553730
  89.4879580  72.2180140  39.3169980  90.3089200  71.7276710  39.3595460
  89.5213660  72.8077800  40.0701820  77.4843630  75.0174340  43.0911670
  78.1653740  75.2812710  43.7099070  77.1691680  74.1775210  43.4249680
  81.6768200  76.0641700  42.1784260  82.1846420  76.5622670  42.8189280
  82.2081440  75.2876900  42.0023620  79.9604300  70.7040260  46.4447680
  79.9622740  71.2212650  45.6393580  79.1308610  70.2270440  46.4217610
  86.3475390  80.8159570  37.9437580  85.7292660  81.2809020  37.3800300
  86.8598640  81.5087050  38.3607090  81.2107150  80.3435440  44.6221180
  80.8776530  80.9704360  45.2642250  81.3873830  80.8697320  43.8422850
  89.7241060  74.1580520  42.0897520  89.0196630  74.4465410  42.6700630
  90.0853220  74.9680630  41.7297080  79.6419630  72.4150220  44.4518130
  79.9836440  73.2592270  44.1572000  78.7035440  72.5633960  44.5683470
  80.4226250  82.3116240  46.4370360  81.0400250  82.9867320  46.1554810
  79.5619370  82.7204220  46.3457860  75.7158590  81.5016100  35.3177210
  75.3386570  81.9903200  34.5862110  75.9731660  82.1741380  35.9483740
  91.3403840  83.7755650  44.3525000  90.6567360  84.4454760  44.3441670
  91.8798130  83.9736300  43.5869860  83.3247520  69.9032490  40.7762720
  83.6322500  69.3479380  40.0598220  82.3948220  70.0376950  40.5935710
  88.8762580  85.6199780  43.0670180  88.8889740  85.2162070  42.1992440
  88.3237800  86.3947070  42.9631610  90.1708000  82.3416000  38.1560350
  90.0604330  81.3990330  38.2809770  90.1676250  82.7031640  39.0423110
  88.2748020  80.5229620  44.3952790  88.6916810  80.3089730  43.5606250
  88.9987840  80.7802410  44.9661410  85.7128280  77.9681320  37.5122840
  84.7857560  77.9018700  37.7411310  85.8653100  78.9061450  37.3978080
  85.6997360  74.2398320  34.5090000  84.7601030  74.4012280  34.5942460
  86.0180620  74.9584000  33.9625990  89.7425570  79.5301620  38.0158090
  89.1237990  79.1921170  37.3684390  89.7250020  78.8861380  38.7237280
  89.1852130  75.7086160  45.4323900  88.7723310  76.5339870  45.6863890
  88.4528080  75.1231200  45.2400260  81.3184920  78.4946060  40.2942570
  80.9141920  77.7823310  39.7988470  81.4048040  78.1499300  41.1830610
  81.7866620  82.1813620  42.4581780  81.4894910  81.5759090  41.7789560
  82.7366440  82.2190930  42.3471140  80.0313540  75.2689270  44.0741610
  80.5828130  75.3784610  43.2994860  80.5457050  75.6426870  44.7896840
  89.8752230  85.7545490  46.1204880  89.3982790  86.5617680  45.9277490
  89.1914020  85.1023820  46.2731090  80.8785050  81.9195310  49.1089580
  79.9813580  82.1435280  49.3562980  80.9037920  82.0430250  48.1600980
  87.9190270  78.7688430  35.0230840  88.3583550  77.9310860  34.8768660
  88.6318690  79.4017830  35.1094980  79.7056270  78.7908630  47.6846950
  79.5664040  79.6631430  48.0534350  78.8237630  78.4481440  47.5394890
  86.0285650  83.7084500  38.9912080  86.4681560  84.4508830  38.5767470
  85.9672540  83.9511070  39.9151040  81.5036620  84.7330330  49.8932100
  81.4752050  85.1373280  49.0260530  81.3401590  83.8040690  49.7303700
  91.5007410  70.0231240  33.3371880  91.1880070  70.1158070  34.2370950
  92.2619880  70.6012270  33.2869310  78.0189550  77.3891040  37.7949220
  77.8987150  78.1153130  37.1830490  77.7090440  76.6193950  37.3177130
  75.6574920  80.5606180  43.6017860  75.7355340  80.6954950  42.6573580
  76.2716600  79.8522070  43.7945980  76.9022550  82.2606370  40.0124040
  76.4950630  82.4020960  39.1577640  77.7935560  81.9766530  39.8095250
  86.7201430  86.4098280  46.9191090  87.2346100  86.3206290  47.7213520
  85.8770510  86.7557980  47.2119000  88.6955830  86.6953620  36.3475090
  88.5356970  86.4056560  37.2456920  88.5302540  85.9193750  35.8120320
  81.1744210  86.4752150  38.1246710  80.9986690  85.5587690  37.9114510
  80.3199950  86.8339440  38.3644510  88.3981960  84.2041180  34.9073090
  87.7047120  84.2018470  34.2475370  89.1404820  83.7800500  34.4767260
  87.9631890  85.8303890  38.9821580  88.4188840  85.0493270  39.2960200
  88.3024410  86.5410710  39.5262760  75.7134440  81.6020350  46.1412320
  75.8765480  81.1325710  45.3231690  76.1786890  81.0943910  46.8061160
  80.4853210  70.7326110  41.1772890  80.0421360  71.5135650  40.8457410
  81.0438200  71.0556000  41.8843830  84.7723020  73.5994630  46.7808210
  84.3102390  73.8077650  47.5928150  84.3701130  72.7853980  46.4778880
  89.7727530  74.8203580  47.9104870  88.9221120  74.5209330  48.2313940
  89.6129320  75.0645590  46.9988690  86.8677240  76.3205330  50.0103660
  87.1930650  75.4869080  49.6705890  87.6557570  76.8433850  50.1581990
  83.6012030  70.3536810  36.0578720  82.9766210  70.3496680  36.7832030
  83.5142150  69.4867770  35.6614690  82.5229110  71.2773440  43.0362490
  82.8201440  72.1836270  42.9554510  83.0714670  70.7892220  42.4222060
  80.2767430  75.8559680  38.9054140  80.0508350  75.6396850  39.8100760
  79.4959960  76.2888140  38.5600110  87.5065190  75.8623050  37.5044790
  86.9074080  76.5858850  37.3208410  88.0544800  75.7999830  36.7221240
  82.7166640  76.7545260  49.5714410  82.6210240  75.8139990  49.4214810
  83.5598620  76.9760330  49.1762480  86.1130060  74.4986590  39.5348070
  86.5059630  74.8158790  38.7216760  86.4746910  73.6198470  39.6492590
  77.8477180  73.1658930  47.7248190  77.4540570  74.0134140  47.9320970
  77.1595580  72.5285300  47.9156830  84.4222230  73.2493900  50.7944930
  83.7320550  73.0566100  51.4291020  85.1654530  73.5328540  51.3269230
  75.1494230  71.0887390  41.7578270  74.8607280  71.6590250  42.4703250
  75.8939990  70.6091840  42.1209500  75.3364460  75.0307510  32.9680990
  75.2539130  75.9738270  33.1095980  74.9847520  74.8882420  32.0893340
  86.6985200  77.0892340  43.6298850  85.9666320  77.5979150  43.9788950
  86.3009540  76.2722320  43.3287630  83.1362590  73.7646540  42.0351340
  83.1398650  73.3236490  41.1855880  84.0313710  74.0863870  42.1423160
  78.9864970  73.6473030  40.9945550  78.6465020  74.1248260  41.7512600
  78.2242290  73.1938150  40.6346650  83.1982740  74.7658620  35.0258100
  83.3195560  74.7245100  35.9743920  82.8131250  75.6282770  34.8704830
  87.1611110  72.5426020  43.0421790  87.1783850  72.9934670  43.8863640
  86.9126690  71.6431660  43.2555230  82.2104240  77.0759760  34.4241400
  81.6421140  76.6278010  33.7977310  82.9193240  77.4352540  33.8906550
  90.5881860  69.9558200  48.8808170  90.9127630  69.2247860  49.4066150
  90.6238370  69.6371840  47.9789160  77.2873420  80.9771780  48.3008130
  76.9028210  80.3365450  48.8991090  77.5985610  81.6807900  48.8702860
  83.4370560  77.8248320  43.7816750  83.8040690  77.3506890  44.5278090
  83.2475620  78.6989890  44.1225090  76.3011050  72.5692010  39.9110220
  76.0157970  72.2047680  40.7488840  76.2389910  71.8372470  39.2973360
  81.2269930  76.8656960  46.1000960  80.9227000  77.7448940  46.3251320
  82.1816390  76.9256750  46.1358400  79.7551720  81.0717950  36.6967810
  78.9813980  80.5315570  36.5366530  80.4846350  80.5524560  36.3585570
  90.5139700  80.0683310  42.4894200  91.2338820  80.5638600  42.0990310
  90.3121520  79.3901200  41.8448070  85.9749640  71.4621270  36.6323590
  85.1614250  70.9634440  36.5568900  85.7811590  72.3019520  36.2159940
  85.8958500  80.1392370  48.3763200  85.8295810  79.2188040  48.1220790
  85.2663640  80.2367810  49.0907840  88.6898030  75.8340920  34.9285750
  89.5777650  76.1458150  34.7537090  88.6603120  74.9613170  34.5366330
  79.7989120  80.7398330  40.3346620  80.3167790  79.9366590  40.2803510
  79.3473140  80.6777470  41.1763450  84.6858620  82.0064610  35.6073920
  85.0274320  82.7506840  35.1117240  83.8571330  82.3195730  35.9698750
  77.2833660  77.7059700  47.2472320  76.9248600  78.3713550  47.8345660
  76.9888220  76.8743250  47.6184940  80.4846780  78.1643940  50.1311870
  80.1846920  78.3101120  49.2339690  81.2558020  77.6049230  50.0385260
  85.8275230  82.9612940  48.1267000  85.8419770  82.0293900  47.9085910
  85.1200330  83.0472700  48.7656770  90.9612300  77.1452760  34.3965610
  90.8776020  77.5766980  33.5462050  91.6806490  77.6051110  34.8292430
  91.9899550  83.9995020  37.1247740  91.3475710  83.3450640  37.3991460
  91.6030210  84.4050110  36.3488410  87.5686030  81.3280450  40.9719430
  87.9209850  80.7308580  40.3120800  86.6848360  81.0024680  41.1427680
  83.6549310  82.0878140  38.3789840  84.3420440  82.6347350  38.7597430
  82.8681730  82.6318870  38.4139450  75.7941710  77.7050960  33.8706920
  76.6636560  77.9875760  34.1542840  75.3032030  78.5186830  33.7555730
  82.9576520  79.0924170  37.9915200  83.4139300  79.9029420  38.2175390
  82.6064730  78.7747310  38.8233690  85.2609130  84.6030510  45.2207500
  85.9051350  84.8089890  45.8980920  85.6238570  83.8418910  44.7678350
  78.8588300  69.4361820  38.4637720  78.7302930  69.4279720  39.4122640
  78.0350320  69.7744910  38.1128730  86.5341210  82.6062860  43.9384950
  87.1763440  81.9056020  44.0517120  87.0590560  83.3861300  43.7581840
  90.3796930  82.8911480  33.6624090  90.1534510  82.1741920  34.2548730
  89.9893130  82.6423920  32.8245840  88.3078830  83.4057760  47.1421010
  88.6435070  83.9924450  47.8198930  87.3879170  83.2750470  47.3718800
  76.1612960  86.9178340  34.4368550  76.5210600  87.5167680  33.7825820
  76.0205300  87.4638230  35.2103580  75.8582230  71.1952940  47.9244420
  75.1440750  71.3949860  48.5297030  76.2777270  70.4192510  48.2959220
  89.9613180  80.8083420  35.3238250  89.6734880  81.2696110  36.1116130
  90.7565350  80.3481190  35.5922470  76.1454820  85.1833200  48.9110950
  76.2545940  84.2427940  48.7706340  75.4935380  85.4487950  48.2624680
  84.1367410  83.4549090  50.3109070  83.8164280  82.7358330  50.8554760
  83.4625770  84.1304160  50.3845130  82.1781580  84.3009540  35.2542220
  82.1691680  85.0339230  34.6386730  81.2579940  84.0541120  35.3469180
  77.7788220  79.5224430  35.9988980  77.1716170  80.2623330  36.0084280
  78.2537570  79.6123790  35.1727180  87.3521010  73.6875250  45.6745870
  87.7201830  72.8670460  46.0025440  86.4919210  73.7477140  46.0901520
  90.7183040  72.6432190  36.4833430  90.0896200  72.7477860  35.7691660
  90.2234960  72.8628970  37.2727310  85.1641180  84.3637780  33.9167410
  85.2653160  84.1601770  32.9869390  84.2642920  84.1096060  34.1215190
  82.6867070  74.9218140  37.8991310  81.9783220  75.3904480  38.3404920
  82.9711550  74.2640150  38.5336500  84.3123000  76.3414840  45.8983840
  84.8108250  76.8160660  46.5635690  84.4545950  75.4178360  46.1053870
  86.7182500  71.6468800  39.3387100  86.5950280  71.6654930  38.3896610
  87.6667060  71.6947740  39.4585500  83.8059290  86.8824100  38.6115080
  84.0600790  86.8445490  37.6894450  82.8571770  86.7557430  38.6043330
  80.8902090  73.2303220  35.2742020  81.7392620  73.6673370  35.2082210
  80.5233360  73.5423480  36.1014080  91.5189860  72.5582800  46.7412230
  91.0163460  73.2988200  47.0806040  92.3346520  72.9466800  46.4249020
  89.8111870  77.8015980  40.1873590  88.8702010  77.8166210  40.3621280
  90.1255940  77.0151940  40.6333890  79.7893510  79.4835580  33.7477550
  80.5556780  79.3716940  34.3102980  79.8668200  78.7873550  33.0954320
  78.4840270  76.9160650  34.4310440  78.5643860  75.9688160  34.5427840
  79.3760020  77.2467530  34.5371100  79.2854980  87.0656040  41.5344980
  80.0217460  86.5171500  41.8053550  79.6695900  87.9312050  41.3950970
  76.1700460  83.1329610  37.4086490  75.2440240  83.3750750  37.3991900
  76.6356890  83.9603870  37.2871240  78.2913260  86.2502110  50.7230560
  79.0925990  86.5714160  51.1365960  77.7765080  85.8897690  51.4450470
  82.3957290  86.2386350  33.3570550  83.1885900  86.5275180  32.9052340
  81.8761640  85.8078520  32.6783030  87.1277890  82.3581980  50.6705970
  86.5216050  82.3813580  49.9301720  86.8232000  81.6265020  51.2073220
  88.5578260  86.0862270  49.2815380  89.5100010  86.0020290  49.2315620
  88.4106480  86.7503980  49.9549170  91.4487460  85.4656480  34.7807290
  91.1628970  85.0521620  33.9661470  91.2507010  86.3944190  34.6607810
  76.0111070  78.7375570  49.6666610  76.5150090  78.1582850  50.2382840
  75.2718490  79.0215800  50.2042980  82.9134690  81.4589760  33.2212900
  82.8085330  80.8442110  33.9474280  82.7458910  80.9355650  32.4375910
  83.0649010  80.1446560  49.2002130  82.2994680  80.7131560  49.1156800
  83.2464970  79.8522770  48.3070360  86.1537420  80.5209790  33.8254890
  85.6047520  80.9679090  34.4697630  86.7756680  80.0159040  34.3492560
  90.2072360  81.8751890  49.7577150  90.9481830  82.2127650  49.2544610
  89.4445040  82.0443950  49.2046920  78.0434150  76.8805160  50.5616680
  78.0839490  76.5819030  51.4701910  78.8979650  77.2812770  50.4024200
  81.8212540  79.4800710  35.7220190  82.2428960  79.3140580  36.5651580
  81.9463380  78.6700940  35.2275330  79.9839960  75.4597260  48.5291170
  79.4536420  74.9688210  47.9014510  80.6528030  75.8881460  47.9949100
  84.3340180  78.5038320  32.9697290  84.8545840  77.7887340  32.6038440
  84.9808580  79.1424190  33.2697800  88.8818020  79.9266720  48.2932360
  89.2959040  80.0811800  49.1422780  87.9469020  80.0521940  48.4558140
  89.3540190  77.2662880  50.2971510  89.9360960  76.5115200  50.2091990
  89.5301960  77.7970320  49.5202990  80.4712260  72.4259630  48.6088460
  80.3769130  71.8080380  47.8839330  79.8909650  73.1525920  48.3818370
  83.2373700  70.9832870  45.6415850  82.7891000  71.0057130  44.7961400
  82.6038900  70.5851890  46.2386150  83.6433250  79.8787200  46.2628290
  84.0621360  80.7219930  46.0904530  82.7241880  80.0159240  46.0335070
  85.9797150  77.6103380  47.6466130  86.0993360  77.0144520  48.3860970
  86.8391150  77.6473070  47.2267430  88.3185050  78.1640570  46.2228640
  87.7920270  78.6883190  45.6193780  88.6616390  78.7967960  46.8538370
  80.7171440  75.5533940  32.6678350  80.5160500  74.6901300  33.0291690
  80.5463490  75.4667300  31.7299950  81.4940670  86.1840210  47.3786020
  80.9561760  86.9086270  47.0594720  81.7474630  85.7070550  46.5883360
  82.7465920  74.1524730  48.9041950  83.3365610  73.8440580  49.5919770
  81.9286160  73.6804480  49.0601850  87.5659350  73.7690540  49.1374970
  86.8774870  73.1072080  49.0724960  88.2865370  73.3228810  49.5823430
  88.1959750  70.3642170  35.1965230  88.4762040  69.5210070  35.5524650
  87.4225480  70.5965280  35.7103980  79.5154240  72.6534560  32.6556230
  79.8180140  72.6601990  31.7475380  80.2548830  72.3032420  33.1523890
  84.3502880  87.4191420  47.6372670  84.2761580  88.3226560  47.9445040
  83.4481720  87.1003320  47.6094740  82.7339170  71.5969180  33.6412430
  82.3861170  70.9193170  33.0614880  82.9351940  71.1358690  34.4555820
  84.8988210  86.5849930  35.2599030  85.7939000  86.9234900  35.2817790
  84.9305840  85.8629340  34.6323310  78.5384370  81.9576980  33.4886030
  78.9759240  82.5006650  34.1443610  79.0232100  81.1323930  33.4982370
  75.7530170  84.7466010  40.9406290  76.0833180  83.8787070  40.7084930
  76.1821170  84.9524530  41.7711250  80.3492090  83.0775020  38.6008260
  80.0487630  82.9539990  39.5012170  80.2429580  82.2183610  38.1923990
  76.2420380  85.6136600  43.6787920  75.8051370  85.7937400  44.5112070
  76.8098060  86.3711220  43.5369640  91.8782560  85.1153600  47.9665230
  91.2784550  85.1746160  47.2229150  92.0076460  84.1758580  48.0962080
  76.0744810  78.1256830  40.0376800  75.4193650  77.8568470  39.3936500
  76.9122760  78.0161310  39.5878780  90.5634200  81.8405580  46.0641390
  89.7494040  82.2702740  46.3267180  90.9708400  82.4523990  45.4510440
  89.0235250  72.9198120  34.2595290  89.4420130  72.7329100  33.4191950
  88.7171310  72.0677170  34.5698220  77.1120740  78.5109400  44.5780140
  77.4793780  78.4236800  45.4576160  76.5431560  77.7475950  44.4787000
  91.9124600  76.9793780  47.5910610  91.6810690  76.7506530  46.6908560
  92.1729150  77.8993330  47.5455500  76.6636740  75.4218490  48.4838560
  75.7692790  75.3885250  48.8232270  77.2034290  75.6205280  49.2489810
  90.3512670  72.2050210  50.3690310  91.2282850  72.2133610  50.7524310
  90.3633510  71.4681050  49.7582660  75.2882890  75.3355760  35.9802130
  74.3846970  75.5985960  35.8053790  75.7723510  75.6066930  35.2002090
  91.7975940  76.0579750  41.2578330  92.3213420  75.5642400  40.6268500
  92.3835360  76.1930110  42.0025900  91.9765660  76.1419620  44.7797880
  91.0268370  76.1083160  44.8942870  92.1578670  77.0519730  44.5447650
  77.8310100  74.3921300  33.8896510  78.5401800  73.9704520  33.4043790
  77.1150040  74.4596530  33.2579860  77.4784260  70.4460630  32.9299160
  78.2012390  70.9869570  33.2480380  77.7508780  70.1724050  32.0540700
  91.2875910  75.3153100  37.1970740  91.7835030  75.0823970  37.9819620
  91.0891980  74.4764940  36.7808380  77.1676450  69.6966820  42.8321780
  77.8152640  69.1464200  42.3916940  77.5878290  69.9509970  43.6537590
  91.0628790  69.8908180  46.1891420  91.7001010  70.5042320  46.5550610
  91.2103680  69.9268840  45.2440650  90.6210250  86.5924180  39.5909660
  91.2169320  86.2708750  38.9144080  90.8788400  86.1196000  40.3822930
  76.9208450  69.8522490  45.5747100  76.5723270  70.3086310  46.3405280
  76.5896150  68.9579620  45.6569530  78.5272820  83.0242090  49.7400290
  78.4842450  82.6535000  50.6214750  78.6583830  83.9619660  49.8802110
  82.2278850  84.5801680  45.3410010  81.9870210  84.8476240  44.4540530
  83.1681490  84.7507410  45.3960870  84.4333270  71.0434370  49.0966520
  84.3722160  71.6356200  49.8461930  85.3733650  70.9360330  48.9516780
  87.0707830  70.7004430  48.7358810  87.6848240  71.0183720  48.0739890
  87.6157390  70.2153020  49.3554670  77.5929090  69.3798690  48.8497870
  78.1412080  69.1986740  48.0863980  77.6584400  68.5892800  49.3854180
  78.3660850  85.9704340  46.8598070  77.7721170  85.8389040  47.5988110
  78.3584690  85.1342480  46.3940170  87.8115870  69.2636570  45.0628100
  86.9375710  69.5971680  44.8601030  87.7026620  68.7909750  45.8879970
  88.7187850  71.4707440  46.4469820  88.3901210  70.6559200  46.0671550
  89.6670150  71.4277250  46.3235510  91.1722460  87.2419480  43.4207390
  90.7125430  87.9935290  43.0465410  90.5434920  86.5225950  43.3622190
  77.9973080  83.3362720  45.8106110  77.2707140  82.7168010  45.7432060
  78.0582230  83.7303330  44.9404190  81.6018180  85.5507720  42.5955520
  82.1183200  84.9395080  42.0703780  82.2515560  86.0536500  43.0866530
  84.3413680  86.4416210  43.4224500  84.6291490  86.1870510  42.5457510
  84.8536900  85.8893570  44.0130070  85.5590690  70.1806410  44.0021010
  84.7762480  70.6551910  44.2817770  85.2653620  69.2761240  43.8934190
  90.1111760  70.8829510  42.0470100  90.5519850  70.8274610  41.1991700
  89.8419350  71.7987520  42.1180280  76.2803080  86.6537110  39.0202870
  76.1125120  86.0207790  39.7184760  75.4137590  86.8596510  38.6697060
  76.9031100  70.4853890  36.5234730  77.6610460  70.5982770  35.9498760
  76.4408270  71.3223090  36.4778160  83.4444910  72.5993160  39.5137040
  82.6319420  72.2250050  39.1732920  83.9486550  71.8438240  39.8158230
  87.9469890  69.2635610  40.7520110  88.5499260  69.8355820  41.2268630
  87.2062880  69.8275050  40.5294010  91.0904490  69.6657170  36.0260390
  91.2855120  70.5640620  36.2927820  90.3034360  69.4344250  36.5193340
  77.8865780  85.3470340  36.4653010  77.3613400  85.7278370  35.7614970
  77.8110360  85.9721110  37.1862720  79.2756250  71.0117940  35.0636700
  79.8049010  70.2247740  34.9344650  79.9084570  71.6909130  35.2972230
  81.4694090  70.7493080  38.1182090  80.8396830  70.0480390  38.2852220
  80.9299230  71.5097210  37.9015250  84.4086040  87.3632310  50.7892700
  85.3353350  87.1276580  50.8328660  84.3936470  88.1904310  50.3078730
  81.5949650  70.0277060  50.5534580  81.3133920  70.5310660  49.7895400
  81.9769350  69.2298810  50.1876710  80.4858750  87.2952720  35.3402260
  81.2177570  87.0112000  34.7926150  80.7452420  87.0566000  36.2301640
  79.6473540  83.4117450  35.3448590  79.0182420  83.8802550  35.8934420
  79.7621370  82.5666670  35.7794780  88.1965110  69.4430640  51.1315050
  88.0830560  69.7625250  52.0266570  89.0134850  69.8443150  50.8352330
  90.9763600  86.5902170  50.6133740  91.7688920  86.0951400  50.4059700
  91.2696750  87.2692310  51.2209350  87.1023260  77.4623110  21.4949790
  87.0217310  76.5477720  21.2241500  86.6887680  77.9590180  20.7889500
  85.2341300  79.2402130  23.3759060  84.4583400  78.7602570  23.6657630
  85.8854230  78.5607780  23.2015220  79.2507130  79.5521940  24.2534820
  78.4192010  79.2970650  24.6531330  79.8588110  79.6232710  24.9892740
  89.2548730  83.6462320  22.1558190  88.7930260  82.8749560  22.4845360
  90.0674280  83.6728390  22.6610640  79.2308390  83.5862030  24.4492840
  79.5336430  82.6959770  24.2703060  79.9751980  84.1432250  24.2215090
  77.6599080  74.5123830  18.0377210  76.7715780  74.8539800  17.9357090
  77.9440270  74.3124150  17.1458040  75.6232090  77.1129480  23.9216910
  76.1948200  76.3451680  23.9220550  75.6233630  77.4118240  23.0123520
  85.4812040  85.9320330  21.7762180  84.8623480  86.3877830  21.2056620
  86.3363820  86.0871790  21.3751880  84.6750290  81.9159320  23.3829220
  84.6058570  80.9749260  23.2218350  85.4370150  82.0060730  23.9551790
  76.8656960  72.5213840  25.7085840  76.6859800  71.6239590  25.9888600
  76.4637040  73.0685710  26.3832790  85.7055460  74.7229700  23.6098150
  86.0820280  73.8501580  23.4971820  85.6074970  75.0588400  22.7188590
  79.8360470  73.0955330  19.0715590  79.9427220  73.9959060  19.3784350
  78.9252830  73.0473300  18.7810240  89.4879580  72.2180140  20.5426490
  90.3089200  71.7276710  20.5851970  89.5213660  72.8077800  21.2958330
  77.4843630  75.0174340  24.3168180  78.1653740  75.2812710  24.9355580
  77.1691680  74.1775210  24.6506190  81.6768200  76.0641700  23.4040770
  82.1846420  76.5622670  24.0445790  82.2081440  75.2876900  23.2280130
  79.9604300  70.7040260  27.6704190  79.9622740  71.2212650  26.8650090
  79.1308610  70.2270440  27.6474120  86.3475390  80.8159570  19.1694090
  85.7292660  81.2809020  18.6056810  86.8598640  81.5087050  19.5863600
  81.2107150  80.3435440  25.8477690  80.8776530  80.9704360  26.4898760
  81.3873830  80.8697320  25.0679360  89.7241060  74.1580520  23.3154030
  89.0196630  74.4465410  23.8957140  90.0853220  74.9680630  22.9553590
  79.6419630  72.4150220  25.6774640  79.9836440  73.2592270  25.3828510
  78.7035440  72.5633960  25.7939980  80.4226250  82.3116240  27.6626870
  81.0400250  82.9867320  27.3811320  79.5619370  82.7204220  27.5714370
  75.7158590  81.5016100  16.5433720  75.3386570  81.9903200  15.8118620
  75.9731660  82.1741380  17.1740250  91.3403840  83.7755650  25.5781510
  90.6567360  84.4454760  25.5698180  91.8798130  83.9736300  24.8126370
  83.3247520  69.9032490  22.0019230  83.6322500  69.3479380  21.2854730
  82.3948220  70.0376950  21.8192220  88.8762580  85.6199780  24.2926690
  88.8889740  85.2162070  23.4248950  88.3237800  86.3947070  24.1888120
  90.1708000  82.3416000  19.3816860  90.0604330  81.3990330  19.5066280
  90.1676250  82.7031640  20.2679620  88.2748020  80.5229620  25.6209300
  88.6916810  80.3089730  24.7862760  88.9987840  80.7802410  26.1917920
  85.7128280  77.9681320  18.7379350  84.7857560  77.9018700  18.9667820
  85.8653100  78.9061450  18.6234590  85.6997360  74.2398320  15.7346510
  84.7601030  74.4012280  15.8198970  86.0180620  74.9584000  15.1882500
  89.7425570  79.5301620  19.2414600  89.1237990  79.1921170  18.5940900
  89.7250020  78.8861380  19.9493790  89.1852130  75.7086160  26.6580410
  88.7723310  76.5339870  26.9120400  88.4528080  75.1231200  26.4656770
  81.3184920  78.4946060  21.5199080  80.9141920  77.7823310  21.0244980
  81.4048040  78.1499300  22.4087120  81.7866620  82.1813620  23.6838290
  81.4894910  81.5759090  23.0046070  82.7366440  82.2190930  23.5727650
  80.0313540  75.2689270  25.2998120  80.5828130  75.3784610  24.5251370
  80.5457050  75.6426870  26.0153350  89.8752230  85.7545490  27.3461390
  89.3982790  86.5617680  27.1534000  89.1914020  85.1023820  27.4987600
  80.8785050  81.9195310  30.3346090  79.9813580  82.1435280  30.5819490
  80.9037920  82.0430250  29.3857490  87.9190270  78.7688430  16.2487350
  88.3583550  77.9310860  16.1025170  88.6318690  79.4017830  16.3351490
  79.7056270  78.7908630  28.9103460  79.5664040  79.6631430  29.2790860
  78.8237630  78.4481440  28.7651400  86.0285650  83.7084500  20.2168590
  86.4681560  84.4508830  19.8023980  85.9672540  83.9511070  21.1407550
  81.5036620  84.7330330  31.1188610  81.4752050  85.1373280  30.2517040
  81.3401590  83.8040690  30.9560210  91.5007410  70.0231240  14.5628390
  91.1880070  70.1158070  15.4627460  92.2619880  70.6012270  14.5125820
  78.0189550  77.3891040  19.0205730  77.8987150  78.1153130  18.4087000
  77.7090440  76.6193950  18.5433640  75.6574920  80.5606180  24.8274370
  75.7355340  80.6954950  23.8830090  76.2716600  79.8522070  25.0202490
  76.9022550  82.2606370  21.2380550  76.4950630  82.4020960  20.3834150
  77.7935560  81.9766530  21.0351760  86.7201430  86.4098280  28.1447600
  87.2346100  86.3206290  28.9470030  85.8770510  86.7557980  28.4375510
  88.6955830  86.6953620  17.5731600  88.5356970  86.4056560  18.4713430
  88.5302540  85.9193750  17.0376830  81.1744210  86.4752150  19.3503220
  80.9986690  85.5587690  19.1371020  80.3199950  86.8339440  19.5901020
  88.3981960  84.2041180  16.1329600  87.7047120  84.2018470  15.4731880
  89.1404820  83.7800500  15.7023770  87.9631890  85.8303890  20.2078090
  88.4188840  85.0493270  20.5216710  88.3024410  86.5410710  20.7519270
  75.7134440  81.6020350  27.3668830  75.8765480  81.1325710  26.5488200
  76.1786890  81.0943910  28.0317670  80.4853210  70.7326110  22.4029400
  80.0421360  71.5135650  22.0713920  81.0438200  71.0556000  23.1100340
  84.7723020  73.5994630  28.0064720  84.3102390  73.8077650  28.8184660
  84.3701130  72.7853980  27.7035390  89.7727530  74.8203580  29.1361380
  88.9221120  74.5209330  29.4570450  89.6129320  75.0645590  28.2245200
  86.8677240  76.3205330  31.2360170  87.1930650  75.4869080  30.8962400
  87.6557570  76.8433850  31.3838500  83.6012030  70.3536810  17.2835230
  82.9766210  70.3496680  18.0088540  83.5142150  69.4867770  16.8871200
  82.5229110  71.2773440  24.2619000  82.8201440  72.1836270  24.1811020
  83.0714670  70.7892220  23.6478570  80.2767430  75.8559680  20.1310650
  80.0508350  75.6396850  21.0357270  79.4959960  76.2888140  19.7856620
  87.5065190  75.8623050  18.7301300  86.9074080  76.5858850  18.5464920
  88.0544800  75.7999830  17.9477750  82.7166640  76.7545260  30.7970920
  82.6210240  75.8139990  30.6471320  83.5598620  76.9760330  30.4018990
  86.1130060  74.4986590  20.7604580  86.5059630  74.8158790  19.9473270
  86.4746910  73.6198470  20.8749100  77.8477180  73.1658930  28.9504700
  77.4540570  74.0134140  29.1577480  77.1595580  72.5285300  29.1413340
  84.4222230  73.2493900  32.0201440  83.7320550  73.0566100  32.6547530
  85.1654530  73.5328540  32.5525740  75.1494230  71.0887390  22.9834780
  74.8607280  71.6590250  23.6959760  75.8939990  70.6091840  23.3466010
  75.3364460  75.0307510  14.1937500  75.2539130  75.9738270  14.3352490
  74.9847520  74.8882420  13.3149850  86.6985200  77.0892340  24.8555360
  85.9666320  77.5979150  25.2045460  86.3009540  76.2722320  24.5544140
  83.1362590  73.7646540  23.2607850  83.1398650  73.3236490  22.4112390
  84.0313710  74.0863870  23.3679670  78.9864970  73.6473030  22.2202060
  78.6465020  74.1248260  22.9769110  78.2242290  73.1938150  21.8603160
  83.1982740  74.7658620  16.2514610  83.3195560  74.7245100  17.2000430
  82.8131250  75.6282770  16.0961340  87.1611110  72.5426020  24.2678300
  87.1783850  72.9934670  25.1120150  86.9126690  71.6431660  24.4811740
  82.2104240  77.0759760  15.6497910  81.6421140  76.6278010  15.0233820
  82.9193240  77.4352540  15.1163060  90.5881860  69.9558200  30.1064680
  90.9127630  69.2247860  30.6322660  90.6238370  69.6371840  29.2045670
  77.2873420  80.9771780  29.5264640  76.9028210  80.3365450  30.1247600
  77.5985610  81.6807900  30.0959370  83.4370560  77.8248320  25.0073260
  83.8040690  77.3506890  25.7534600  83.2475620  78.6989890  25.3481600
  76.3011050  72.5692010  21.1366730  76.0157970  72.2047680  21.9745350
  76.2389910  71.8372470  20.5229870  81.2269930  76.8656960  27.3257470
  80.9227000  77.7448940  27.5507830  82.1816390  76.9256750  27.3614910
  79.7551720  81.0717950  17.9224320  78.9813980  80.5315570  17.7623040
  80.4846350  80.5524560  17.5842080  90.5139700  80.0683310  23.7150710
  91.2338820  80.5638600  23.3246820  90.3121520  79.3901200  23.0704580
  85.9749640  71.4621270  17.8580100  85.1614250  70.9634440  17.7825410
  85.7811590  72.3019520  17.4416450  85.8958500  80.1392370  29.6019710
  85.8295810  79.2188040  29.3477300  85.2663640  80.2367810  30.3164350
  88.6898030  75.8340920  16.1542260  89.5777650  76.1458150  15.9793600
  88.6603120  74.9613170  15.7622840  79.7989120  80.7398330  21.5603130
  80.3167790  79.9366590  21.5060020  79.3473140  80.6777470  22.4019960
  84.6858620  82.0064610  16.8330430  85.0274320  82.7506840  16.3373750
  83.8571330  82.3195730  17.1955260  77.2833660  77.7059700  28.4728830
  76.9248600  78.3713550  29.0602170  76.9888220  76.8743250  28.8441450
  80.4846780  78.1643940  31.3568380  80.1846920  78.3101120  30.4596200
  81.2558020  77.6049230  31.2641770  85.8275230  82.9612940  29.3523510
  85.8419770  82.0293900  29.1342420  85.1200330  83.0472700  29.9913280
  90.9612300  77.1452760  15.6222120  90.8776020  77.5766980  14.7718560
  91.6806490  77.6051110  16.0548940  91.9899550  83.9995020  18.3504250
  91.3475710  83.3450640  18.6247970  91.6030210  84.4050110  17.5744920
  87.5686030  81.3280450  22.1975940  87.9209850  80.7308580  21.5377310
  86.6848360  81.0024680  22.3684190  83.6549310  82.0878140  19.6046350
  84.3420440  82.6347350  19.9853940  82.8681730  82.6318870  19.6395960
  75.7941710  77.7050960  15.0963430  76.6636560  77.9875760  15.3799350
  75.3032030  78.5186830  14.9812240  82.9576520  79.0924170  19.2171710
  83.4139300  79.9029420  19.4431900  82.6064730  78.7747310  20.0490200
  85.2609130  84.6030510  26.4464010  85.9051350  84.8089890  27.1237430
  85.6238570  83.8418910  25.9934860  78.8588300  69.4361820  19.6894230
  78.7302930  69.4279720  20.6379150  78.0350320  69.7744910  19.3385240
  86.5341210  82.6062860  25.1641460  87.1763440  81.9056020  25.2773630
  87.0590560  83.3861300  24.9838350  90.3796930  82.8911480  14.8880600
  90.1534510  82.1741920  15.4805240  89.9893130  82.6423920  14.0502350
  88.3078830  83.4057760  28.3677520  88.6435070  83.9924450  29.0455440
  87.3879170  83.2750470  28.5975310  76.1612960  86.9178340  15.6625060
  76.5210600  87.5167680  15.0082330  76.0205300  87.4638230  16.4360090
  75.8582230  71.1952940  29.1500930  75.1440750  71.3949860  29.7553540
  76.2777270  70.4192510  29.5215730  89.9613180  80.8083420  16.5494760
  89.6734880  81.2696110  17.3372640  90.7565350  80.3481190  16.8178980
  76.1454820  85.1833200  30.1367460  76.2545940  84.2427940  29.9962850
  75.4935380  85.4487950  29.4881190  84.1367410  83.4549090  31.5365580
  83.8164280  82.7358330  32.0811270  83.4625770  84.1304160  31.6101640
  82.1781580  84.3009540  16.4798730  82.1691680  85.0339230  15.8643240
  81.2579940  84.0541120  16.5725690  77.7788220  79.5224430  17.2245490
  77.1716170  80.2623330  17.2340790  78.2537570  79.6123790  16.3983690
  87.3521010  73.6875250  26.9002380  87.7201830  72.8670460  27.2281950
  86.4919210  73.7477140  27.3158030  90.7183040  72.6432190  17.7089940
  90.0896200  72.7477860  16.9948170  90.2234960  72.8628970  18.4983820
  85.1641180  84.3637780  15.1423920  85.2653160  84.1601770  14.2125900
  84.2642920  84.1096060  15.3471700  82.6867070  74.9218140  19.1247820
  81.9783220  75.3904480  19.5661430  82.9711550  74.2640150  19.7593010
  84.3123000  76.3414840  27.1240350  84.8108250  76.8160660  27.7892200
  84.4545950  75.4178360  27.3310380  86.7182500  71.6468800  20.5643610
  86.5950280  71.6654930  19.6153120  87.6667060  71.6947740  20.6842010
  83.8059290  86.8824100  19.8371590  84.0600790  86.8445490  18.9150960
  82.8571770  86.7557430  19.8299840  80.8902090  73.2303220  16.4998530
  81.7392620  73.6673370  16.4338720  80.5233360  73.5423480  17.3270590
  91.5189860  72.5582800  27.9668740  91.0163460  73.2988200  28.3062550
  92.3346520  72.9466800  27.6505530  89.8111870  77.8015980  21.4130100
  88.8702010  77.8166210  21.5877790  90.1255940  77.0151940  21.8590400
  79.7893510  79.4835580  14.9734060  80.5556780  79.3716940  15.5359490
  79.8668200  78.7873550  14.3210830  78.4840270  76.9160650  15.6566950
  78.5643860  75.9688160  15.7684350  79.3760020  77.2467530  15.7627610
  79.2854980  87.0656040  22.7601490  80.0217460  86.5171500  23.0310060
  79.6695900  87.9312050  22.6207480  76.1700460  83.1329610  18.6343000
  75.2440240  83.3750750  18.6248410  76.6356890  83.9603870  18.5127750
  78.2913260  86.2502110  31.9487070  79.0925990  86.5714160  32.3622470
  77.7765080  85.8897690  32.6706980  82.3957290  86.2386350  14.5827060
  83.1885900  86.5275180  14.1308850  81.8761640  85.8078520  13.9039540
  87.1277890  82.3581980  31.8962480  86.5216050  82.3813580  31.1558230
  86.8232000  81.6265020  32.4329730  88.5578260  86.0862270  30.5071890
  89.5100010  86.0020290  30.4572130  88.4106480  86.7503980  31.1805680
  91.4487460  85.4656480  16.0063800  91.1628970  85.0521620  15.1917980
  91.2507010  86.3944190  15.8864320  76.0111070  78.7375570  30.8923120
  76.5150090  78.1582850  31.4639350  75.2718490  79.0215800  31.4299490
  82.9134690  81.4589760  14.4469410  82.8085330  80.8442110  15.1730790
  82.7458910  80.9355650  13.6632420  83.0649010  80.1446560  30.4258640
  82.2994680  80.7131560  30.3413310  83.2464970  79.8522770  29.5326870
  86.1537420  80.5209790  15.0511400  85.6047520  80.9679090  15.6954140
  86.7756680  80.0159040  15.5749070  90.2072360  81.8751890  30.9833660
  90.9481830  82.2127650  30.4801120  89.4445040  82.0443950  30.4303430
  78.0434150  76.8805160  31.7873190  78.0839490  76.5819030  32.6958420
  78.8979650  77.2812770  31.6280710  81.8212540  79.4800710  16.9476700
  82.2428960  79.3140580  17.7908090  81.9463380  78.6700940  16.4531840
  79.9839960  75.4597260  29.7547680  79.4536420  74.9688210  29.1271020
  80.6528030  75.8881460  29.2205610  84.3340180  78.5038320  14.1953800
  84.8545840  77.7887340  13.8294950  84.9808580  79.1424190  14.4954310
  88.8818020  79.9266720  29.5188870  89.2959040  80.0811800  30.3679290
  87.9469020  80.0521940  29.6814650  89.3540190  77.2662880  31.5228020
  89.9360960  76.5115200  31.4348500  89.5301960  77.7970320  30.7459500
  80.4712260  72.4259630  29.8344970  80.3769130  71.8080380  29.1095840
  79.8909650  73.1525920  29.6074880  83.2373700  70.9832870  26.8672360
  82.7891000  71.0057130  26.0217910  82.6038900  70.5851890  27.4642660
  83.6433250  79.8787200  27.4884800  84.0621360  80.7219930  27.3161040
  82.7241880  80.0159240  27.2591580  85.9797150  77.6103380  28.8722640
  86.0993360  77.0144520  29.6117480  86.8391150  77.6473070  28.4523940
  88.3185050  78.1640570  27.4485150  87.7920270  78.6883190  26.8450290
  88.6616390  78.7967960  28.0794880  80.7171440  75.5533940  13.8934860
  80.5160500  74.6901300  14.2548200  80.5463490  75.4667300  12.9556460
  81.4940670  86.1840210  28.6042530  80.9561760  86.9086270  28.2851230
  81.7474630  85.7070550  27.8139870  82.7465920  74.1524730  30.1298460
  83.3365610  73.8440580  30.8176280  81.9286160  73.6804480  30.2858360
  87.5659350  73.7690540  30.3631480  86.8774870  73.1072080  30.2981470
  88.2865370  73.3228810  30.8079940  88.1959750  70.3642170  16.4221740
  88.4762040  69.5210070  16.7781160  87.4225480  70.5965280  16.9360490
  79.5154240  72.6534560  13.8812740  79.8180140  72.6601990  12.9731890
  80.2548830  72.3032420  14.3780400  84.3502880  87.4191420  28.8629180
  84.2761580  88.3226560  29.1701550  83.4481720  87.1003320  28.8351250
  82.7339170  71.5969180  14.8668940  82.3861170  70.9193170  14.2871390
  82.9351940  71.1358690  15.6812330  84.8988210  86.5849930  16.4855540
  85.7939000  86.9234900  16.5074300  84.9305840  85.8629340  15.8579820
  78.5384370  81.9576980  14.7142540  78.9759240  82.5006650  15.3700120
  79.0232100  81.1323930  14.7238880  75.7530170  84.7466010  22.1662800
  76.0833180  83.8787070  21.9341440  76.1821170  84.9524530  22.9967760
  80.3492090  83.0775020  19.8264770  80.0487630  82.9539990  20.7268680
  80.2429580  82.2183610  19.4180500  76.2420380  85.6136600  24.9044430
  75.8051370  85.7937400  25.7368580  76.8098060  86.3711220  24.7626150
  91.8782560  85.1153600  29.1921740  91.2784550  85.1746160  28.4485660
  92.0076460  84.1758580  29.3218590  76.0744810  78.1256830  21.2633310
  75.4193650  77.8568470  20.6193010  76.9122760  78.0161310  20.8135290
  90.5634200  81.8405580  27.2897900  89.7494040  82.2702740  27.5523690
  90.9708400  82.4523990  26.6766950  89.0235250  72.9198120  15.4851800
  89.4420130  72.7329100  14.6448460  88.7171310  72.0677170  15.7954730
  77.1120740  78.5109400  25.8036650  77.4793780  78.4236800  26.6832670
  76.5431560  77.7475950  25.7043510  91.9124600  76.9793780  28.8167120
  91.6810690  76.7506530  27.9165070  92.1729150  77.8993330  28.7712010
  76.6636740  75.4218490  29.7095070  75.7692790  75.3885250  30.0488780
  77.2034290  75.6205280  30.4746320  90.3512670  72.2050210  31.5946820
  91.2282850  72.2133610  31.9780820  90.3633510  71.4681050  30.9839170
  75.2882890  75.3355760  17.2058640  74.3846970  75.5985960  17.0310300
  75.7723510  75.6066930  16.4258600  91.7975940  76.0579750  22.4834840
  92.3213420  75.5642400  21.8525010  92.3835360  76.1930110  23.2282410
  91.9765660  76.1419620  26.0054390  91.0268370  76.1083160  26.1199380
  92.1578670  77.0519730  25.7704160  77.8310100  74.3921300  15.1153020
  78.5401800  73.9704520  14.6300300  77.1150040  74.4596530  14.4836370
  77.4784260  70.4460630  14.1555670  78.2012390  70.9869570  14.4736890
  77.7508780  70.1724050  13.2797210  91.2875910  75.3153100  18.4227250
  91.7835030  75.0823970  19.2076130  91.0891980  74.4764940  18.0064890
  77.1676450  69.6966820  24.0578290  77.8152640  69.1464200  23.6173450
  77.5878290  69.9509970  24.8794100  91.0628790  69.8908180  27.4147930
  91.7001010  70.5042320  27.7807120  91.2103680  69.9268840  26.4697160
  90.6210250  86.5924180  20.8166170  91.2169320  86.2708750  20.1400590
  90.8788400  86.1196000  21.6079440  76.9208450  69.8522490  26.8003610
  76.5723270  70.3086310  27.5661790  76.5896150  68.9579620  26.8826040
  78.5272820  83.0242090  30.9656800  78.4842450  82.6535000  31.8471260
  78.6583830  83.9619660  31.1058620  82.2278850  84.5801680  26.5666520
  81.9870210  84.8476240  25.6797040  83.1681490  84.7507410  26.6217380
  84.4333270  71.0434370  30.3223030  84.3722160  71.6356200  31.0718440
  85.3733650  70.9360330  30.1773290  87.0707830  70.7004430  29.9615320
  87.6848240  71.0183720  29.2996400  87.6157390  70.2153020  30.5811180
  77.5929090  69.3798690  30.0754380  78.1412080  69.1986740  29.3120490
  77.6584400  68.5892800  30.6110690  78.3660850  85.9704340  28.0854580
  77.7721170  85.8389040  28.8244620  78.3584690  85.1342480  27.6196680
  87.8115870  69.2636570  26.2884610  86.9375710  69.5971680  26.0857540
  87.7026620  68.7909750  27.1136480  88.7187850  71.4707440  27.6726330
  88.3901210  70.6559200  27.2928060  89.6670150  71.4277250  27.5492020
  91.1722460  87.2419480  24.6463900  90.7125430  87.9935290  24.2721920
  90.5434920  86.5225950  24.5878700  77.9973080  83.3362720  27.0362620
  77.2707140  82.7168010  26.9688570  78.0582230  83.7303330  26.1660700
  81.6018180  85.5507720  23.8212030  82.1183200  84.9395080  23.2960290
  82.2515560  86.0536500  24.3123040  84.3413680  86.4416210  24.6481010
  84.6291490  86.1870510  23.7714020  84.8536900  85.8893570  25.2386580
  85.5590690  70.1806410  25.2277520  84.7762480  70.6551910  25.5074280
  85.2653620  69.2761240  25.1190700  90.1111760  70.8829510  23.2726610
  90.5519850  70.8274610  22.4248210  89.8419350  71.7987520  23.3436790
  76.2803080  86.6537110  20.2459380  76.1125120  86.0207790  20.9441270
  75.4137590  86.8596510  19.8953570  76.9031100  70.4853890  17.7491240
  77.6610460  70.5982770  17.1755270  76.4408270  71.3223090  17.7034670
  83.4444910  72.5993160  20.7393550  82.6319420  72.2250050  20.3989430
  83.9486550  71.8438240  21.0414740  87.9469890  69.2635610  21.9776620
  88.5499260  69.8355820  22.4525140  87.2062880  69.8275050  21.7550520
  91.0904490  69.6657170  17.2516900  91.2855120  70.5640620  17.5184330
  90.3034360  69.4344250  17.7449850  77.8865780  85.3470340  17.6909520
  77.3613400  85.7278370  16.9871480  77.8110360  85.9721110  18.4119230
  79.2756250  71.0117940  16.2893210  79.8049010  70.2247740  16.1601160
  79.9084570  71.6909130  16.5228740  81.4694090  70.7493080  19.3438600
  80.8396830  70.0480390  19.5108730  80.9299230  71.5097210  19.1271760
  84.4086040  87.3632310  32.0149210  85.3353350  87.1276580  32.0585170
  84.3936470  88.1904310  31.5335240  81.5949650  70.0277060  31.7791090
  81.3133920  70.5310660  31.0151910  81.9769350  69.2298810  31.4133220
  80.4858750  87.2952720  16.5658770  81.2177570  87.0112000  16.0182660
  80.7452420  87.0566000  17.4558150  79.6473540  83.4117450  16.5705100
  79.0182420  83.8802550  17.1190930  79.7621370  82.5666670  17.0051290
  88.1965110  69.4430640  32.3571560  88.0830560  69.7625250  33.2523080
  89.0134850  69.8443150  32.0608840  90.9763600  86.5902170  31.8390250
  91.7688920  86.0951400  31.6316210  91.2696750  87.2692310  32.4465860
  87.1023260  77.4623110   2.7206300  87.0217310  76.5477720   2.4498010
  86.6887680  77.9590180   2.0146010  85.2341300  79.2402130   4.6015570
  84.4583400  78.7602570   4.8914140  85.8854230  78.5607780   4.4271730
  79.2507130  79.5521940   5.4791330  78.4192010  79.2970650   5.8787840
  79.8588110  79.6232710   6.2149250  89.2548730  83.6462320   3.3814700
  88.7930260  82.8749560   3.7101870  90.0674280  83.6728390   3.8867150
  79.2308390  83.5862030   5.6749350  79.5336430  82.6959770   5.4959570
  79.9751980  84.1432250   5.4471600  75.6232090  77.1129480   5.1473420
  76.1948200  76.3451680   5.1477060  75.6233630  77.4118240   4.2380030
  85.4812040  85.9320330   3.0018690  84.8623480  86.3877830   2.4313130
  86.3363820  86.0871790   2.6008390  84.6750290  81.9159320   4.6085730
  84.6058570  80.9749260   4.4474860  85.4370150  82.0060730   5.1808300
  76.8656960  72.5213840   6.9342350  76.6859800  71.6239590   7.2145110
  76.4637040  73.0685710   7.6089300  85.7055460  74.7229700   4.8354660
  86.0820280  73.8501580   4.7228330  85.6074970  75.0588400   3.9445100
  89.4879580  72.2180140   1.7683000  90.3089200  71.7276710   1.8108480
  89.5213660  72.8077800   2.5214840  77.4843630  75.0174340   5.5424690
  78.1653740  75.2812710   6.1612090  77.1691680  74.1775210   5.8762700
  81.6768200  76.0641700   4.6297280  82.1846420  76.5622670   5.2702300
  82.2081440  75.2876900   4.4536640  79.9604300  70.7040260   8.8960700
  79.9622740  71.2212650   8.0906600  79.1308610  70.2270440   8.8730630
  81.2107150  80.3435440   7.0734200  80.8776530  80.9704360   7.7155270
  81.3873830  80.8697320   6.2935870  89.7241060  74.1580520   4.5410540
  89.0196630  74.4465410   5.1213650  90.0853220  74.9680630   4.1810100
  79.6419630  72.4150220   6.9031150  79.9836440  73.2592270   6.6085020
  78.7035440  72.5633960   7.0196490  80.4226250  82.3116240   8.8883380
  81.0400250  82.9867320   8.6067830  79.5619370  82.7204220   8.7970880
  91.3403840  83.7755650   6.8038020  90.6567360  84.4454760   6.7954690
  91.8798130  83.9736300   6.0382880  83.3247520  69.9032490   3.2275740
  83.6322500  69.3479380   2.5111240  82.3948220  70.0376950   3.0448730
  88.8762580  85.6199780   5.5183200  88.8889740  85.2162070   4.6505460
  88.3237800  86.3947070   5.4144630  88.2748020  80.5229620   6.8465810
  88.6916810  80.3089730   6.0119270  88.9987840  80.7802410   7.4174430
  89.1852130  75.7086160   7.8836920  88.7723310  76.5339870   8.1376910
  88.4528080  75.1231200   7.6913280  81.3184920  78.4946060   2.7455590
  80.9141920  77.7823310   2.2501490  81.4048040  78.1499300   3.6343630
  81.7866620  82.1813620   4.9094800  81.4894910  81.5759090   4.2302580
  82.7366440  82.2190930   4.7984160  80.0313540  75.2689270   6.5254630
  80.5828130  75.3784610   5.7507880  80.5457050  75.6426870   7.2409860
  89.8752230  85.7545490   8.5717900  89.3982790  86.5617680   8.3790510
  89.1914020  85.1023820   8.7244110  80.8785050  81.9195310  11.5602600
  79.9813580  82.1435280  11.8076000  80.9037920  82.0430250  10.6114000
  79.7056270  78.7908630  10.1359970  79.5664040  79.6631430  10.5047370
  78.8237630  78.4481440   9.9907910  81.5036620  84.7330330  12.3445120
  81.4752050  85.1373280  11.4773550  81.3401590  83.8040690  12.1816720
  75.6574920  80.5606180   6.0530880  75.7355340  80.6954950   5.1086600
  76.2716600  79.8522070   6.2459000  76.9022550  82.2606370   2.4637060
  76.4950630  82.4020960   1.6090660  77.7935560  81.9766530   2.2608270
  86.7201430  86.4098280   9.3704110  87.2346100  86.3206290  10.1726540
  85.8770510  86.7557980   9.6632020  75.7134440  81.6020350   8.5925340
  75.8765480  81.1325710   7.7744710  76.1786890  81.0943910   9.2574180
  80.4853210  70.7326110   3.6285910  80.0421360  71.5135650   3.2970430
  81.0438200  71.0556000   4.3356850  84.7723020  73.5994630   9.2321230
  84.3102390  73.8077650  10.0441170  84.3701130  72.7853980   8.9291900
  89.7727530  74.8203580  10.3617890  88.9221120  74.5209330  10.6826960
  89.6129320  75.0645590   9.4501710  86.8677240  76.3205330  12.4616680
  87.1930650  75.4869080  12.1218910  87.6557570  76.8433850  12.6095010
  82.5229110  71.2773440   5.4875510  82.8201440  72.1836270   5.4067530
  83.0714670  70.7892220   4.8735080  82.7166640  76.7545260  12.0227430
  82.6210240  75.8139990  11.8727830  83.5598620  76.9760330  11.6275500
  77.8477180  73.1658930  10.1761210  77.4540570  74.0134140  10.3833990
  77.1595580  72.5285300  10.3669850  84.4222230  73.2493900  13.2457950
  83.7320550  73.0566100  13.8804040  85.1654530  73.5328540  13.7782250
  75.1494230  71.0887390   4.2091290  74.8607280  71.6590250   4.9216270
  75.8939990  70.6091840   4.5722520  86.6985200  77.0892340   6.0811870
  85.9666320  77.5979150   6.4301970  86.3009540  76.2722320   5.7800650
  83.1362590  73.7646540   4.4864360  83.1398650  73.3236490   3.6368900
  84.0313710  74.0863870   4.5936180  78.9864970  73.6473030   3.4458570
  78.6465020  74.1248260   4.2025620  78.2242290  73.1938150   3.0859670
  87.1611110  72.5426020   5.4934810  87.1783850  72.9934670   6.3376660
  86.9126690  71.6431660   5.7068250  90.5881860  69.9558200  11.3321190
  90.9127630  69.2247860  11.8579170  90.6238370  69.6371840  10.4302180
  77.2873420  80.9771780  10.7521150  76.9028210  80.3365450  11.3504110
  77.5985610  81.6807900  11.3215880  83.4370560  77.8248320   6.2329770
  83.8040690  77.3506890   6.9791110  83.2475620  78.6989890   6.5738110
  76.3011050  72.5692010   2.3623240  76.0157970  72.2047680   3.2001860
  76.2389910  71.8372470   1.7486380  81.2269930  76.8656960   8.5513980
  80.9227000  77.7448940   8.7764340  82.1816390  76.9256750   8.5871420
  90.5139700  80.0683310   4.9407220  91.2338820  80.5638600   4.5503330
  90.3121520  79.3901200   4.2961090  85.8958500  80.1392370  10.8276220
  85.8295810  79.2188040  10.5733810  85.2663640  80.2367810  11.5420860
  79.7989120  80.7398330   2.7859640  80.3167790  79.9366590   2.7316530
  79.3473140  80.6777470   3.6276470  77.2833660  77.7059700   9.6985340
  76.9248600  78.3713550  10.2858680  76.9888220  76.8743250  10.0697960
  80.4846780  78.1643940  12.5824890  80.1846920  78.3101120  11.6852710
  81.2558020  77.6049230  12.4898280  85.8275230  82.9612940  10.5780020
  85.8419770  82.0293900  10.3598930  85.1200330  83.0472700  11.2169790
  87.5686030  81.3280450   3.4232450  87.9209850  80.7308580   2.7633820
  86.6848360  81.0024680   3.5940700  85.2609130  84.6030510   7.6720520
  85.9051350  84.8089890   8.3493940  85.6238570  83.8418910   7.2191370
  86.5341210  82.6062860   6.3897970  87.1763440  81.9056020   6.5030140
  87.0590560  83.3861300   6.2094860  88.3078830  83.4057760   9.5934030
  88.6435070  83.9924450  10.2711950  87.3879170  83.2750470   9.8231820
  75.8582230  71.1952940  10.3757440  75.1440750  71.3949860  10.9810050
  76.2777270  70.4192510  10.7472240  76.1454820  85.1833200  11.3623970
  76.2545940  84.2427940  11.2219360  75.4935380  85.4487950  10.7137700
  84.1367410  83.4549090  12.7622090  83.8164280  82.7358330  13.3067780
  83.4625770  84.1304160  12.8358150  87.3521010  73.6875250   8.1258890
  87.7201830  72.8670460   8.4538460  86.4919210  73.7477140   8.5414540
  84.3123000  76.3414840   8.3496860  84.8108250  76.8160660   9.0148710
  84.4545950  75.4178360   8.5566890  91.5189860  72.5582800   9.1925250
  91.0163460  73.2988200   9.5319060  92.3346520  72.9466800   8.8762040
  89.8111870  77.8015980   2.6386610  88.8702010  77.8166210   2.8134300
  90.1255940  77.0151940   3.0846910  79.2854980  87.0656040   3.9858000
  80.0217460  86.5171500   4.2566570  79.6695900  87.9312050   3.8463990
  78.2913260  86.2502110  13.1743580  79.0925990  86.5714160  13.5878980
  77.7765080  85.8897690  13.8963490  87.1277890  82.3581980  13.1218990
  86.5216050  82.3813580  12.3814740  86.8232000  81.6265020  13.6586240
  88.5578260  86.0862270  11.7328400  89.5100010  86.0020290  11.6828640
  88.4106480  86.7503980  12.4062190  76.0111070  78.7375570  12.1179630
  76.5150090  78.1582850  12.6895860  75.2718490  79.0215800  12.6556000
  83.0649010  80.1446560  11.6515150  82.2994680  80.7131560  11.5669820
  83.2464970  79.8522770  10.7583380  90.2072360  81.8751890  12.2090170
  90.9481830  82.2127650  11.7057630  89.4445040  82.0443950  11.6559940
  78.0434150  76.8805160  13.0129700  78.0839490  76.5819030  13.9214930
  78.8979650  77.2812770  12.8537220  79.9839960  75.4597260  10.9804190
  79.4536420  74.9688210  10.3527530  80.6528030  75.8881460  10.4462120
  88.8818020  79.9266720  10.7445380  89.2959040  80.0811800  11.5935800
  87.9469020  80.0521940  10.9071160  89.3540190  77.2662880  12.7484530
  89.9360960  76.5115200  12.6605010  89.5301960  77.7970320  11.9716010
  80.4712260  72.4259630  11.0601480  80.3769130  71.8080380  10.3352350
  79.8909650  73.1525920  10.8331390  83.2373700  70.9832870   8.0928870
  82.7891000  71.0057130   7.2474420  82.6038900  70.5851890   8.6899170
  83.6433250  79.8787200   8.7141310  84.0621360  80.7219930   8.5417550
  82.7241880  80.0159240   8.4848090  85.9797150  77.6103380  10.0979150
  86.0993360  77.0144520  10.8373990  86.8391150  77.6473070   9.6780450
  88.3185050  78.1640570   8.6741660  87.7920270  78.6883190   8.0706800
  88.6616390  78.7967960   9.3051390  81.4940670  86.1840210   9.8299040
  80.9561760  86.9086270   9.5107740  81.7474630  85.7070550   9.0396380
  82.7465920  74.1524730  11.3554970  83.3365610  73.8440580  12.0432790
  81.9286160  73.6804480  11.5114870  87.5659350  73.7690540  11.5887990
  86.8774870  73.1072080  11.5237980  88.2865370  73.3228810  12.0336450
  84.3502880  87.4191420  10.0885690  84.2761580  88.3226560  10.3958060
  83.4481720  87.1003320  10.0607760  75.7530170  84.7466010   3.3919310
  76.0833180  83.8787070   3.1597950  76.1821170  84.9524530   4.2224270
  76.2420380  85.6136600   6.1300940  75.8051370  85.7937400   6.9625090
  76.8098060  86.3711220   5.9882660  91.8782560  85.1153600  10.4178250
  91.2784550  85.1746160   9.6742170  92.0076460  84.1758580  10.5475100
  76.0744810  78.1256830   2.4889820  75.4193650  77.8568470   1.8449520
  76.9122760  78.0161310   2.0391800  90.5634200  81.8405580   8.5154410
  89.7494040  82.2702740   8.7780200  90.9708400  82.4523990   7.9023460
  77.1120740  78.5109400   7.0293160  77.4793780  78.4236800   7.9089180
  76.5431560  77.7475950   6.9300020  91.9124600  76.9793780  10.0423630
  91.6810690  76.7506530   9.1421580  92.1729150  77.8993330   9.9968520
  76.6636740  75.4218490  10.9351580  75.7692790  75.3885250  11.2745290
  77.2034290  75.6205280  11.7002830  90.3512670  72.2050210  12.8203330
  91.2282850  72.2133610  13.2037330  90.3633510  71.4681050  12.2095680
  91.7975940  76.0579750   3.7091350  92.3213420  75.5642400   3.0781520
  92.3835360  76.1930110   4.4538920  91.9765660  76.1419620   7.2310900
  91.0268370  76.1083160   7.3455890  92.1578670  77.0519730   6.9960670
  77.1676450  69.6966820   5.2834800  77.8152640  69.1464200   4.8429960
  77.5878290  69.9509970   6.1050610  91.0628790  69.8908180   8.6404440
  91.7001010  70.5042320   9.0063630  91.2103680  69.9268840   7.6953670
  76.9208450  69.8522490   8.0260120  76.5723270  70.3086310   8.7918300
  76.5896150  68.9579620   8.1082550  78.5272820  83.0242090  12.1913310
  78.4842450  82.6535000  13.0727770  78.6583830  83.9619660  12.3315130
  82.2278850  84.5801680   7.7923030  81.9870210  84.8476240   6.9053550
  83.1681490  84.7507410   7.8473890  84.4333270  71.0434370  11.5479540
  84.3722160  71.6356200  12.2974950  85.3733650  70.9360330  11.4029800
  87.0707830  70.7004430  11.1871830  87.6848240  71.0183720  10.5252910
  87.6157390  70.2153020  11.8067690  77.5929090  69.3798690  11.3010890
  78.1412080  69.1986740  10.5377000  77.6584400  68.5892800  11.8367200
  78.3660850  85.9704340   9.3111090  77.7721170  85.8389040  10.0501130
  78.3584690  85.1342480   8.8453190  87.8115870  69.2636570   7.5141120
  86.9375710  69.5971680   7.3114050  87.7026620  68.7909750   8.3392990
  88.7187850  71.4707440   8.8982840  88.3901210  70.6559200   8.5184570
  89.6670150  71.4277250   8.7748530  91.1722460  87.2419480   5.8720410
  90.7125430  87.9935290   5.4978430  90.5434920  86.5225950   5.8135210
  77.9973080  83.3362720   8.2619130  77.2707140  82.7168010   8.1945080
  78.0582230  83.7303330   7.3917210  81.6018180  85.5507720   5.0468540
  82.1183200  84.9395080   4.5216800  82.2515560  86.0536500   5.5379550
  84.3413680  86.4416210   5.8737520  84.6291490  86.1870510   4.9970530
  84.8536900  85.8893570   6.4643090  85.5590690  70.1806410   6.4534030
  84.7762480  70.6551910   6.7330790  85.2653620  69.2761240   6.3447210
  90.1111760  70.8829510   4.4983120  90.5519850  70.8274610   3.6504720
  89.8419350  71.7987520   4.5693300  83.4444910  72.5993160   1.9650060
  82.6319420  72.2250050   1.6245940  83.9486550  71.8438240   2.2671250
  87.9469890  69.2635610   3.2033130  88.5499260  69.8355820   3.6781650
  87.2062880  69.8275050   2.9807030  84.4086040  87.3632310  13.2405720
  85.3353350  87.1276580  13.2841680  84.3936470  88.1904310  12.7591750
  81.5949650  70.0277060  13.0047600  81.3133920  70.5310660  12.2408420
  81.9769350  69.2298810  12.6389730  88.1965110  69.4430640  13.5828070
  88.0830560  69.7625250  14.4779590  89.0134850  69.8443150  13.2865350
  90.9763600  86.5902170  13.0646760  91.7688920  86.0951400  12.8572720
  91.2696750  87.2692310  13.6722370  87.1023260  58.6879620  77.8180260
  87.0217310  57.7734230  77.5471970  86.6887680  59.1846690  77.1119970
  85.2341300  60.4658640  79.6989530  84.4583400  59.9859080  79.9888100
  85.8854230  59.7864290  79.5245690  79.2507130  60.7778450  80.5765290
  78.4192010  60.5227160  80.9761800  79.8588110  60.8489220  81.3123210
  89.2548730  64.8718830  78.4788660  88.7930260  64.1006070  78.8075830
  90.0674280  64.8984900  78.9841110  79.2308390  64.8118540  80.7723310
  79.5336430  63.9216280  80.5933530  79.9751980  65.3688760  80.5445560
  77.6599080  55.7380340  74.3607680  76.7715780  56.0796310  74.2587560
  77.9440270  55.5380660  73.4688510  75.6232090  58.3385990  80.2447380
  76.1948200  57.5708190  80.2451020  75.6233630  58.6374750  79.3353990
  85.4812040  67.1576840  78.0992650  84.8623480  67.6134340  77.5287090
  86.3363820  67.3128300  77.6982350  84.6750290  63.1415830  79.7059690
  84.6058570  62.2005770  79.5448820  85.4370150  63.2317240  80.2782260
  85.7055460  55.9486210  79.9328620  86.0820280  55.0758090  79.8202290
  85.6074970  56.2844910  79.0419060  79.8360470  54.3211840  75.3946060
  79.9427220  55.2215570  75.7014820  78.9252830  54.2729810  75.1040710
  89.4879580  53.4436650  76.8656960  90.3089200  52.9533220  76.9082440
  89.5213660  54.0334310  77.6188800  77.4843630  56.2430850  80.6398650
  78.1653740  56.5069220  81.2586050  77.1691680  55.4031720  80.9736660
  81.6768200  57.2898210  79.7271240  82.1846420  57.7879180  80.3676260
  82.2081440  56.5133410  79.5510600  86.3475390  62.0416080  75.4924560
  85.7292660  62.5065530  74.9287280  86.8598640  62.7343560  75.9094070
  89.7241060  55.3837030  79.6384500  89.0196630  55.6721920  80.2187610
  90.0853220  56.1937140  79.2784060  79.6419630  53.6406730  82.0005110
  79.9836440  54.4848780  81.7058980  78.7035440  53.7890470  82.1170450
  75.7158590  62.7272610  72.8664190  75.3386570  63.2159710  72.1349090
  75.9731660  63.3997890  73.4970720  91.3403840  65.0012160  81.9011980
  90.6567360  65.6711270  81.8928650  91.8798130  65.1992810  81.1356840
  83.3247520  51.1289000  78.3249700  83.6322500  50.5735890  77.6085200
  82.3948220  51.2633460  78.1422690  88.8762580  66.8456290  80.6157160
  88.8889740  66.4418580  79.7479420  88.3237800  67.6203580  80.5118590
  90.1708000  63.5672510  75.7047330  90.0604330  62.6246840  75.8296750
  90.1676250  63.9288150  76.5910090  85.7128280  59.1937830  75.0609820
  84.7857560  59.1275210  75.2898290  85.8653100  60.1317960  74.9465060
  85.6997360  55.4654830  72.0576980  84.7601030  55.6268790  72.1429440
  86.0180620  56.1840510  71.5112970  89.7425570  60.7558130  75.5645070
  89.1237990  60.4177680  74.9171370  89.7250020  60.1117890  76.2724260
  81.3184920  59.7202570  77.8429550  80.9141920  59.0079820  77.3475450
  81.4048040  59.3755810  78.7317590  81.7866620  63.4070130  80.0068760
  81.4894910  62.8015600  79.3276540  82.7366440  63.4447440  79.8958120
  87.9190270  59.9944940  72.5717820  88.3583550  59.1567370  72.4255640
  88.6318690  60.6274340  72.6581960  86.0285650  64.9341010  76.5399060
  86.4681560  65.6765340  76.1254450  85.9672540  65.1767580  77.4638020
  91.5007410  51.2487750  70.8858860  91.1880070  51.3414580  71.7857930
  92.2619880  51.8268780  70.8356290  78.0189550  58.6147550  75.3436200
  77.8987150  59.3409640  74.7317470  77.7090440  57.8450460  74.8664110
  75.6574920  61.7862690  81.1504840  75.7355340  61.9211460  80.2060560
  76.2716600  61.0778580  81.3432960  76.9022550  63.4862880  77.5611020
  76.4950630  63.6277470  76.7064620  77.7935560  63.2023040  77.3582230
  88.6955830  67.9210130  73.8962070  88.5356970  67.6313070  74.7943900
  88.5302540  67.1450260  73.3607300  81.1744210  67.7008660  75.6733690
  80.9986690  66.7844200  75.4601490  80.3199950  68.0595950  75.9131490
  88.3981960  65.4297690  72.4560070  87.7047120  65.4274980  71.7962350
  89.1404820  65.0057010  72.0254240  87.9631890  67.0560400  76.5308560
  88.4188840  66.2749780  76.8447180  88.3024410  67.7667220  77.0749740
  80.4853210  51.9582620  78.7259870  80.0421360  52.7392160  78.3944390
  81.0438200  52.2812510  79.4330810  83.6012030  51.5793320  73.6065700
  82.9766210  51.5753190  74.3319010  83.5142150  50.7124280  73.2101670
  82.5229110  52.5029950  80.5849470  82.8201440  53.4092780  80.5041490
  83.0714670  52.0148730  79.9709040  80.2767430  57.0816190  76.4541120
  80.0508350  56.8653360  77.3587740  79.4959960  57.5144650  76.1087090
  87.5065190  57.0879560  75.0531770  86.9074080  57.8115360  74.8695390
  88.0544800  57.0256340  74.2708220  86.1130060  55.7243100  77.0835050
  86.5059630  56.0415300  76.2703740  86.4746910  54.8454980  77.1979570
  75.1494230  52.3143900  79.3065250  74.8607280  52.8846760  80.0190230
  75.8939990  51.8348350  79.6696480  75.3364460  56.2564020  70.5167970
  75.2539130  57.1994780  70.6582960  74.9847520  56.1138930  69.6380320
  86.6985200  58.3148850  81.1785830  85.9666320  58.8235660  81.5275930
  86.3009540  57.4978830  80.8774610  83.1362590  54.9903050  79.5838320
  83.1398650  54.5493000  78.7342860  84.0313710  55.3120380  79.6910140
  78.9864970  54.8729540  78.5432530  78.6465020  55.3504770  79.2999580
  78.2242290  54.4194660  78.1833630  83.1982740  55.9915130  72.5745080
  83.3195560  55.9501610  73.5230900  82.8131250  56.8539280  72.4191810
  87.1611110  53.7682530  80.5908770  87.1783850  54.2191180  81.4350620
  86.9126690  52.8688170  80.8042210  82.2104240  58.3016270  71.9728380
  81.6421140  57.8534520  71.3464290  82.9193240  58.6609050  71.4393530
  83.4370560  59.0504830  81.3303730  83.8040690  58.5763400  82.0765070
  83.2475620  59.9246400  81.6712070  76.3011050  53.7948520  77.4597200
  76.0157970  53.4304190  78.2975820  76.2389910  53.0628980  76.8460340
  79.7551720  62.2974460  74.2454790  78.9813980  61.7572080  74.0853510
  80.4846350  61.7781070  73.9072550  90.5139700  61.2939820  80.0381180
  91.2338820  61.7895110  79.6477290  90.3121520  60.6157710  79.3935050
  85.9749640  52.6877780  74.1810570  85.1614250  52.1890950  74.1055880
  85.7811590  53.5276030  73.7646920  88.6898030  57.0597430  72.4772730
  89.5777650  57.3714660  72.3024070  88.6603120  56.1869680  72.0853310
  79.7989120  61.9654840  77.8833600  80.3167790  61.1623100  77.8290490
  79.3473140  61.9033980  78.7250430  84.6858620  63.2321120  73.1560900
  85.0274320  63.9763350  72.6604220  83.8571330  63.5452240  73.5185730
  90.9612300  58.3709270  71.9452590  90.8776020  58.8023490  71.0949030
  91.6806490  58.8307620  72.3779410  91.9899550  65.2251530  74.6734720
  91.3475710  64.5707150  74.9478440  91.6030210  65.6306620  73.8975390
  87.5686030  62.5536960  78.5206410  87.9209850  61.9565090  77.8607780
  86.6848360  62.2281190  78.6914660  83.6549310  63.3134650  75.9276820
  84.3420440  63.8603860  76.3084410  82.8681730  63.8575380  75.9626430
  75.7941710  58.9307470  71.4193900  76.6636560  59.2132270  71.7029820
  75.3032030  59.7443340  71.3042710  82.9576520  60.3180680  75.5402180
  83.4139300  61.1285930  75.7662370  82.6064730  60.0003820  76.3720670
  78.8588300  50.6618330  76.0124700  78.7302930  50.6536230  76.9609620
  78.0350320  51.0001420  75.6615710  86.5341210  63.8319370  81.4871930
  87.1763440  63.1312530  81.6004100  87.0590560  64.6117810  81.3068820
  90.3796930  64.1167990  71.2111070  90.1534510  63.3998430  71.8035710
  89.9893130  63.8680430  70.3732820  76.1612960  68.1434850  71.9855530
  76.5210600  68.7424190  71.3312800  76.0205300  68.6894740  72.7590560
  89.9613180  62.0339930  72.8725230  89.6734880  62.4952620  73.6603110
  90.7565350  61.5737700  73.1409450  82.1781580  65.5266050  72.8029200
  82.1691680  66.2595740  72.1873710  81.2579940  65.2797630  72.8956160
  77.7788220  60.7480940  73.5475960  77.1716170  61.4879840  73.5571260
  78.2537570  60.8380300  72.7214160  90.7183040  53.8688700  74.0320410
  90.0896200  53.9734370  73.3178640  90.2234960  54.0885480  74.8214290
  85.1641180  65.5894290  71.4654390  85.2653160  65.3858280  70.5356370
  84.2642920  65.3352570  71.6702170  82.6867070  56.1474650  75.4478290
  81.9783220  56.6160990  75.8891900  82.9711550  55.4896660  76.0823480
  86.7182500  52.8725310  76.8874080  86.5950280  52.8911440  75.9383590
  87.6667060  52.9204250  77.0072480  83.8059290  68.1080610  76.1602060
  84.0600790  68.0702000  75.2381430  82.8571770  67.9813940  76.1530310
  80.8902090  54.4559730  72.8229000  81.7392620  54.8929880  72.7569190
  80.5233360  54.7679990  73.6501060  89.8111870  59.0272490  77.7360570
  88.8702010  59.0422720  77.9108260  90.1255940  58.2408450  78.1820870
  79.7893510  60.7092090  71.2964530  80.5556780  60.5973450  71.8589960
  79.8668200  60.0130060  70.6441300  78.4840270  58.1417160  71.9797420
  78.5643860  57.1944670  72.0914820  79.3760020  58.4724040  72.0858080
  79.2854980  68.2912550  79.0831960  80.0217460  67.7428010  79.3540530
  79.6695900  69.1568560  78.9437950  76.1700460  64.3586120  74.9573470
  75.2440240  64.6007260  74.9478880  76.6356890  65.1860380  74.8358220
  82.3957290  67.4642860  70.9057530  83.1885900  67.7531690  70.4539320
  81.8761640  67.0335030  70.2270010  91.4487460  66.6912990  72.3294270
  91.1628970  66.2778130  71.5148450  91.2507010  67.6200700  72.2094790
  82.9134690  62.6846270  70.7699880  82.8085330  62.0698620  71.4961260
  82.7458910  62.1612160  69.9862890  86.1537420  61.7466300  71.3741870
  85.6047520  62.1935600  72.0184610  86.7756680  61.2415550  71.8979540
  81.8212540  60.7057220  73.2707170  82.2428960  60.5397090  74.1138560
  81.9463380  59.8957450  72.7762310  84.3340180  59.7294830  70.5184270
  84.8545840  59.0143850  70.1525420  84.9808580  60.3680700  70.8184780
  80.7171440  56.7790450  70.2165330  80.5160500  55.9157810  70.5778670
  80.5463490  56.6923810  69.2786930  88.1959750  51.5898680  72.7452210
  88.4762040  50.7466580  73.1011630  87.4225480  51.8221790  73.2590960
  79.5154240  53.8791070  70.2043210  79.8180140  53.8858500  69.2962360
  80.2548830  53.5288930  70.7010870  82.7339170  52.8225690  71.1899410
  82.3861170  52.1449680  70.6101860  82.9351940  52.3615200  72.0042800
  84.8988210  67.8106440  72.8086010  85.7939000  68.1491410  72.8304770
  84.9305840  67.0885850  72.1810290  78.5384370  63.1833490  71.0373010
  78.9759240  63.7263160  71.6930590  79.0232100  62.3580440  71.0469350
  75.7530170  65.9722520  78.4893270  76.0833180  65.1043580  78.2571910
  76.1821170  66.1781040  79.3198230  80.3492090  64.3031530  76.1495240
  80.0487630  64.1796500  77.0499150  80.2429580  63.4440120  75.7410970
  76.2420380  66.8393110  81.2274900  75.8051370  67.0193910  82.0599050
  76.8098060  67.5967730  81.0856620  76.0744810  59.3513340  77.5863780
  75.4193650  59.0824980  76.9423480  76.9122760  59.2417820  77.1365760
  89.0235250  54.1454630  71.8082270  89.4420130  53.9585610  70.9678930
  88.7171310  53.2933680  72.1185200  75.2882890  56.5612270  73.5289110
  74.3846970  56.8242470  73.3540770  75.7723510  56.8323440  72.7489070
  91.7975940  57.2836260  78.8065310  92.3213420  56.7898910  78.1755480
  92.3835360  57.4186620  79.5512880  77.8310100  55.6177810  71.4383490
  78.5401800  55.1961030  70.9530770  77.1150040  55.6853040  70.8066840
  77.4784260  51.6717140  70.4786140  78.2012390  52.2126080  70.7967360
  77.7508780  51.3980560  69.6027680  91.2875910  56.5409610  74.7457720
  91.7835030  56.3080480  75.5306600  91.0891980  55.7021450  74.3295360
  77.1676450  50.9223330  80.3808760  77.8152640  50.3720710  79.9403920
  77.5878290  51.1766480  81.2024570  90.6210250  67.8180690  77.1396640
  91.2169320  67.4965260  76.4631060  90.8788400  67.3452510  77.9309910
  91.1722460  68.4675990  80.9694370  90.7125430  69.2191800  80.5952390
  90.5434920  67.7482460  80.9109170  81.6018180  66.7764230  80.1442500
  82.1183200  66.1651590  79.6190760  82.2515560  67.2793010  80.6353510
  84.3413680  67.6672720  80.9711480  84.6291490  67.4127020  80.0944490
  84.8536900  67.1150080  81.5617050  85.5590690  51.4062920  81.5507990
  84.7762480  51.8808420  81.8304750  85.2653620  50.5017750  81.4421170
  90.1111760  52.1086020  79.5957080  90.5519850  52.0531120  78.7478680
  89.8419350  53.0244030  79.6667260  76.2803080  67.8793620  76.5689850
  76.1125120  67.2464300  77.2671740  75.4137590  68.0853020  76.2184040
  76.9031100  51.7110400  74.0721710  77.6610460  51.8239280  73.4985740
  76.4408270  52.5479600  74.0265140  83.4444910  53.8249670  77.0624020
  82.6319420  53.4506560  76.7219900  83.9486550  53.0694750  77.3645210
  87.9469890  50.4892120  78.3007090  88.5499260  51.0612330  78.7755610
  87.2062880  51.0531560  78.0780990  91.0904490  50.8913680  73.5747370
  91.2855120  51.7897130  73.8414800  90.3034360  50.6600760  74.0680320
  77.8865780  66.5726850  74.0139990  77.3613400  66.9534880  73.3101950
  77.8110360  67.1977620  74.7349700  79.2756250  52.2374450  72.6123680
  79.8049010  51.4504250  72.4831630  79.9084570  52.9165640  72.8459210
  81.4694090  51.9749590  75.6669070  80.8396830  51.2736900  75.8339200
  80.9299230  52.7353720  75.4502230  80.4858750  68.5209230  72.8889240
  81.2177570  68.2368510  72.3413130  80.7452420  68.2822510  73.7788620
  79.6473540  64.6373960  72.8935570  79.0182420  65.1059060  73.4421400
  79.7621370  63.7923180  73.3281760  87.1023260  58.6879620  59.0436770
  87.0217310  57.7734230  58.7728480  86.6887680  59.1846690  58.3376480
  85.2341300  60.4658640  60.9246040  84.4583400  59.9859080  61.2144610
  85.8854230  59.7864290  60.7502200  79.2507130  60.7778450  61.8021800
  78.4192010  60.5227160  62.2018310  79.8588110  60.8489220  62.5379720
  89.2548730  64.8718830  59.7045170  88.7930260  64.1006070  60.0332340
  90.0674280  64.8984900  60.2097620  79.2308390  64.8118540  61.9979820
  79.5336430  63.9216280  61.8190040  79.9751980  65.3688760  61.7702070
  77.6599080  55.7380340  55.5864190  76.7715780  56.0796310  55.4844070
  77.9440270  55.5380660  54.6945020  75.6232090  58.3385990  61.4703890
  76.1948200  57.5708190  61.4707530  75.6233630  58.6374750  60.5610500
  85.4812040  67.1576840  59.3249160  84.8623480  67.6134340  58.7543600
  86.3363820  67.3128300  58.9238860  84.6750290  63.1415830  60.9316200
  84.6058570  62.2005770  60.7705330  85.4370150  63.2317240  61.5038770
  76.8656960  53.7470350  63.2572820  76.6859800  52.8496100  63.5375580
  76.4637040  54.2942220  63.9319770  85.7055460  55.9486210  61.1585130
  86.0820280  55.0758090  61.0458800  85.6074970  56.2844910  60.2675570
  79.8360470  54.3211840  56.6202570  79.9427220  55.2215570  56.9271330
  78.9252830  54.2729810  56.3297220  89.4879580  53.4436650  58.0913470
  90.3089200  52.9533220  58.1338950  89.5213660  54.0334310  58.8445310
  77.4843630  56.2430850  61.8655160  78.1653740  56.5069220  62.4842560
  77.1691680  55.4031720  62.1993170  81.6768200  57.2898210  60.9527750
  82.1846420  57.7879180  61.5932770  82.2081440  56.5133410  60.7767110
  79.9604300  51.9296770  65.2191170  79.9622740  52.4469160  64.4137070
  79.1308610  51.4526950  65.1961100  86.3475390  62.0416080  56.7181070
  85.7292660  62.5065530  56.1543790  86.8598640  62.7343560  57.1350580
  81.2107150  61.5691950  63.3964670  80.8776530  62.1960870  64.0385740
  81.3873830  62.0953830  62.6166340  89.7241060  55.3837030  60.8641010
  89.0196630  55.6721920  61.4444120  90.0853220  56.1937140  60.5040570
  79.6419630  53.6406730  63.2261620  79.9836440  54.4848780  62.9315490
  78.7035440  53.7890470  63.3426960  80.4226250  63.5372750  65.2113850
  81.0400250  64.2123830  64.9298300  79.5619370  63.9460730  65.1201350
  75.7158590  62.7272610  54.0920700  75.3386570  63.2159710  53.3605600
  75.9731660  63.3997890  54.7227230  91.3403840  65.0012160  63.1268490
  90.6567360  65.6711270  63.1185160  91.8798130  65.1992810  62.3613350
  83.3247520  51.1289000  59.5506210  83.6322500  50.5735890  58.8341710
  82.3948220  51.2633460  59.3679200  88.8762580  66.8456290  61.8413670
  88.8889740  66.4418580  60.9735930  88.3237800  67.6203580  61.7375100
  90.1708000  63.5672510  56.9303840  90.0604330  62.6246840  57.0553260
  90.1676250  63.9288150  57.8166600  88.2748020  61.7486130  63.1696280
  88.6916810  61.5346240  62.3349740  88.9987840  62.0058920  63.7404900
  85.7128280  59.1937830  56.2866330  84.7857560  59.1275210  56.5154800
  85.8653100  60.1317960  56.1721570  85.6997360  55.4654830  53.2833490
  84.7601030  55.6268790  53.3685950  86.0180620  56.1840510  52.7369480
  89.7425570  60.7558130  56.7901580  89.1237990  60.4177680  56.1427880
  89.7250020  60.1117890  57.4980770  89.1852130  56.9342670  64.2067390
  88.7723310  57.7596380  64.4607380  88.4528080  56.3487710  64.0143750
  81.3184920  59.7202570  59.0686060  80.9141920  59.0079820  58.5731960
  81.4048040  59.3755810  59.9574100  81.7866620  63.4070130  61.2325270
  81.4894910  62.8015600  60.5533050  82.7366440  63.4447440  61.1214630
  80.0313540  56.4945780  62.8485100  80.5828130  56.6041120  62.0738350
  80.5457050  56.8683380  63.5640330  89.8752230  66.9802000  64.8948370
  89.3982790  67.7874190  64.7020980  89.1914020  66.3280330  65.0474580
  80.8785050  63.1451820  67.8833070  79.9813580  63.3691790  68.1306470
  80.9037920  63.2686760  66.9344470  87.9190270  59.9944940  53.7974330
  88.3583550  59.1567370  53.6512150  88.6318690  60.6274340  53.8838470
  79.7056270  60.0165140  66.4590440  79.5664040  60.8887940  66.8277840
  78.8237630  59.6737950  66.3138380  86.0285650  64.9341010  57.7655570
  86.4681560  65.6765340  57.3510960  85.9672540  65.1767580  58.6894530
  81.5036620  65.9586840  68.6675590  81.4752050  66.3629790  67.8004020
  81.3401590  65.0297200  68.5047190  91.5007410  51.2487750  52.1115370
  91.1880070  51.3414580  53.0114440  92.2619880  51.8268780  52.0612800
  78.0189550  58.6147550  56.5692710  77.8987150  59.3409640  55.9573980
  77.7090440  57.8450460  56.0920620  75.6574920  61.7862690  62.3761350
  75.7355340  61.9211460  61.4317070  76.2716600  61.0778580  62.5689470
  76.9022550  63.4862880  58.7867530  76.4950630  63.6277470  57.9321130
  77.7935560  63.2023040  58.5838740  86.7201430  67.6354790  65.6934580
  87.2346100  67.5462800  66.4957010  85.8770510  67.9814490  65.9862490
  88.6955830  67.9210130  55.1218580  88.5356970  67.6313070  56.0200410
  88.5302540  67.1450260  54.5863810  81.1744210  67.7008660  56.8990200
  80.9986690  66.7844200  56.6858000  80.3199950  68.0595950  57.1388000
  88.3981960  65.4297690  53.6816580  87.7047120  65.4274980  53.0218860
  89.1404820  65.0057010  53.2510750  87.9631890  67.0560400  57.7565070
  88.4188840  66.2749780  58.0703690  88.3024410  67.7667220  58.3006250
  75.7134440  62.8276860  64.9155810  75.8765480  62.3582220  64.0975180
  76.1786890  62.3200420  65.5804650  80.4853210  51.9582620  59.9516380
  80.0421360  52.7392160  59.6200900  81.0438200  52.2812510  60.6587320
  84.7723020  54.8251140  65.5551700  84.3102390  55.0334160  66.3671640
  84.3701130  54.0110490  65.2522370  89.7727530  56.0460090  66.6848360
  88.9221120  55.7465840  67.0057430  89.6129320  56.2902100  65.7732180
  86.8677240  57.5461840  68.7847150  87.1930650  56.7125590  68.4449380
  87.6557570  58.0690360  68.9325480  83.6012030  51.5793320  54.8322210
  82.9766210  51.5753190  55.5575520  83.5142150  50.7124280  54.4358180
  82.5229110  52.5029950  61.8105980  82.8201440  53.4092780  61.7298000
  83.0714670  52.0148730  61.1965550  80.2767430  57.0816190  57.6797630
  80.0508350  56.8653360  58.5844250  79.4959960  57.5144650  57.3343600
  87.5065190  57.0879560  56.2788280  86.9074080  57.8115360  56.0951900
  88.0544800  57.0256340  55.4964730  82.7166640  57.9801770  68.3457900
  82.6210240  57.0396500  68.1958300  83.5598620  58.2016840  67.9505970
  86.1130060  55.7243100  58.3091560  86.5059630  56.0415300  57.4960250
  86.4746910  54.8454980  58.4236080  77.8477180  54.3915440  66.4991680
  77.4540570  55.2390650  66.7064460  77.1595580  53.7541810  66.6900320
  84.4222230  54.4750410  69.5688420  83.7320550  54.2822610  70.2034510
  85.1654530  54.7585050  70.1012720  75.1494230  52.3143900  60.5321760
  74.8607280  52.8846760  61.2446740  75.8939990  51.8348350  60.8952990
  75.3364460  56.2564020  51.7424480  75.2539130  57.1994780  51.8839470
  74.9847520  56.1138930  50.8636830  86.6985200  58.3148850  62.4042340
  85.9666320  58.8235660  62.7532440  86.3009540  57.4978830  62.1031120
  83.1362590  54.9903050  60.8094830  83.1398650  54.5493000  59.9599370
  84.0313710  55.3120380  60.9166650  78.9864970  54.8729540  59.7689040
  78.6465020  55.3504770  60.5256090  78.2242290  54.4194660  59.4090140
  83.1982740  55.9915130  53.8001590  83.3195560  55.9501610  54.7487410
  82.8131250  56.8539280  53.6448320  87.1611110  53.7682530  61.8165280
  87.1783850  54.2191180  62.6607130  86.9126690  52.8688170  62.0298720
  82.2104240  58.3016270  53.1984890  81.6421140  57.8534520  52.5720800
  82.9193240  58.6609050  52.6650040  90.5881860  51.1814710  67.6551660
  90.9127630  50.4504370  68.1809640  90.6238370  50.8628350  66.7532650
  77.2873420  62.2028290  67.0751620  76.9028210  61.5621960  67.6734580
  77.5985610  62.9064410  67.6446350  83.4370560  59.0504830  62.5560240
  83.8040690  58.5763400  63.3021580  83.2475620  59.9246400  62.8968580
  76.3011050  53.7948520  58.6853710  76.0157970  53.4304190  59.5232330
  76.2389910  53.0628980  58.0716850  81.2269930  58.0913470  64.8744450
  80.9227000  58.9705450  65.0994810  82.1816390  58.1513260  64.9101890
  79.7551720  62.2974460  55.4711300  78.9813980  61.7572080  55.3110020
  80.4846350  61.7781070  55.1329060  90.5139700  61.2939820  61.2637690
  91.2338820  61.7895110  60.8733800  90.3121520  60.6157710  60.6191560
  85.9749640  52.6877780  55.4067080  85.1614250  52.1890950  55.3312390
  85.7811590  53.5276030  54.9903430  85.8958500  61.3648880  67.1506690
  85.8295810  60.4444550  66.8964280  85.2663640  61.4624320  67.8651330
  88.6898030  57.0597430  53.7029240  89.5777650  57.3714660  53.5280580
  88.6603120  56.1869680  53.3109820  79.7989120  61.9654840  59.1090110
  80.3167790  61.1623100  59.0547000  79.3473140  61.9033980  59.9506940
  84.6858620  63.2321120  54.3817410  85.0274320  63.9763350  53.8860730
  83.8571330  63.5452240  54.7442240  77.2833660  58.9316210  66.0215810
  76.9248600  59.5970060  66.6089150  76.9888220  58.0999760  66.3928430
  80.4846780  59.3900450  68.9055360  80.1846920  59.5357630  68.0083180
  81.2558020  58.8305740  68.8128750  85.8275230  64.1869450  66.9010490
  85.8419770  63.2550410  66.6829400  85.1200330  64.2729210  67.5400260
  90.9612300  58.3709270  53.1709100  90.8776020  58.8023490  52.3205540
  91.6806490  58.8307620  53.6035920  91.9899550  65.2251530  55.8991230
  91.3475710  64.5707150  56.1734950  91.6030210  65.6306620  55.1231900
  87.5686030  62.5536960  59.7462920  87.9209850  61.9565090  59.0864290
  86.6848360  62.2281190  59.9171170  83.6549310  63.3134650  57.1533330
  84.3420440  63.8603860  57.5340920  82.8681730  63.8575380  57.1882940
  75.7941710  58.9307470  52.6450410  76.6636560  59.2132270  52.9286330
  75.3032030  59.7443340  52.5299220  82.9576520  60.3180680  56.7658690
  83.4139300  61.1285930  56.9918880  82.6064730  60.0003820  57.5977180
  85.2609130  65.8287020  63.9950990  85.9051350  66.0346400  64.6724410
  85.6238570  65.0675420  63.5421840  78.8588300  50.6618330  57.2381210
  78.7302930  50.6536230  58.1866130  78.0350320  51.0001420  56.8872220
  86.5341210  63.8319370  62.7128440  87.1763440  63.1312530  62.8260610
  87.0590560  64.6117810  62.5325330  90.3796930  64.1167990  52.4367580
  90.1534510  63.3998430  53.0292220  89.9893130  63.8680430  51.5989330
  88.3078830  64.6314270  65.9164500  88.6435070  65.2180960  66.5942420
  87.3879170  64.5006980  66.1462290  76.1612960  68.1434850  53.2112040
  76.5210600  68.7424190  52.5569310  76.0205300  68.6894740  53.9847070
  75.8582230  52.4209450  66.6987910  75.1440750  52.6206370  67.3040520
  76.2777270  51.6449020  67.0702710  89.9613180  62.0339930  54.0981740
  89.6734880  62.4952620  54.8859620  90.7565350  61.5737700  54.3665960
  76.1454820  66.4089710  67.6854440  76.2545940  65.4684450  67.5449830
  75.4935380  66.6744460  67.0368170  84.1367410  64.6805600  69.0852560
  83.8164280  63.9614840  69.6298250  83.4625770  65.3560670  69.1588620
  82.1781580  65.5266050  54.0285710  82.1691680  66.2595740  53.4130220
  81.2579940  65.2797630  54.1212670  77.7788220  60.7480940  54.7732470
  77.1716170  61.4879840  54.7827770  78.2537570  60.8380300  53.9470670
  87.3521010  54.9131760  64.4489360  87.7201830  54.0926970  64.7768930
  86.4919210  54.9733650  64.8645010  90.7183040  53.8688700  55.2576920
  90.0896200  53.9734370  54.5435150  90.2234960  54.0885480  56.0470800
  85.1641180  65.5894290  52.6910900  85.2653160  65.3858280  51.7612880
  84.2642920  65.3352570  52.8958680  82.6867070  56.1474650  56.6734800
  81.9783220  56.6160990  57.1148410  82.9711550  55.4896660  57.3079990
  84.3123000  57.5671350  64.6727330  84.8108250  58.0417170  65.3379180
  84.4545950  56.6434870  64.8797360  86.7182500  52.8725310  58.1130590
  86.5950280  52.8911440  57.1640100  87.6667060  52.9204250  58.2328990
  83.8059290  68.1080610  57.3858570  84.0600790  68.0702000  56.4637940
  82.8571770  67.9813940  57.3786820  80.8902090  54.4559730  54.0485510
  81.7392620  54.8929880  53.9825700  80.5233360  54.7679990  54.8757570
  91.5189860  53.7839310  65.5155720  91.0163460  54.5244710  65.8549530
  92.3346520  54.1723310  65.1992510  89.8111870  59.0272490  58.9617080
  88.8702010  59.0422720  59.1364770  90.1255940  58.2408450  59.4077380
  79.7893510  60.7092090  52.5221040  80.5556780  60.5973450  53.0846470
  79.8668200  60.0130060  51.8697810  78.4840270  58.1417160  53.2053930
  78.5643860  57.1944670  53.3171330  79.3760020  58.4724040  53.3114590
  79.2854980  68.2912550  60.3088470  80.0217460  67.7428010  60.5797040
  79.6695900  69.1568560  60.1694460  76.1700460  64.3586120  56.1829980
  75.2440240  64.6007260  56.1735390  76.6356890  65.1860380  56.0614730
  78.2913260  67.4758620  69.4974050  79.0925990  67.7970670  69.9109450
  77.7765080  67.1154200  70.2193960  82.3957290  67.4642860  52.1314040
  83.1885900  67.7531690  51.6795830  81.8761640  67.0335030  51.4526520
  87.1277890  63.5838490  69.4449460  86.5216050  63.6070090  68.7045210
  86.8232000  62.8521530  69.9816710  88.5578260  67.3118780  68.0558870
  89.5100010  67.2276800  68.0059110  88.4106480  67.9760490  68.7292660
  91.4487460  66.6912990  53.5550780  91.1628970  66.2778130  52.7404960
  91.2507010  67.6200700  53.4351300  76.0111070  59.9632080  68.4410100
  76.5150090  59.3839360  69.0126330  75.2718490  60.2472310  68.9786470
  82.9134690  62.6846270  51.9956390  82.8085330  62.0698620  52.7217770
  82.7458910  62.1612160  51.2119400  83.0649010  61.3703070  67.9745620
  82.2994680  61.9388070  67.8900290  83.2464970  61.0779280  67.0813850
  86.1537420  61.7466300  52.5998380  85.6047520  62.1935600  53.2441120
  86.7756680  61.2415550  53.1236050  90.2072360  63.1008400  68.5320640
  90.9481830  63.4384160  68.0288100  89.4445040  63.2700460  67.9790410
  78.0434150  58.1061670  69.3360170  78.0839490  57.8075540  70.2445400
  78.8979650  58.5069280  69.1767690  81.8212540  60.7057220  54.4963680
  82.2428960  60.5397090  55.3395070  81.9463380  59.8957450  54.0018820
  79.9839960  56.6853770  67.3034660  79.4536420  56.1944720  66.6758000
  80.6528030  57.1137970  66.7692590  84.3340180  59.7294830  51.7440780
  84.8545840  59.0143850  51.3781930  84.9808580  60.3680700  52.0441290
  88.8818020  61.1523230  67.0675850  89.2959040  61.3068310  67.9166270
  87.9469020  61.2778450  67.2301630  89.3540190  58.4919390  69.0715000
  89.9360960  57.7371710  68.9835480  89.5301960  59.0226830  68.2946480
  80.4712260  53.6516140  67.3831950  80.3769130  53.0336890  66.6582820
  79.8909650  54.3782430  67.1561860  83.2373700  52.2089380  64.4159340
  82.7891000  52.2313640  63.5704890  82.6038900  51.8108400  65.0129640
  83.6433250  61.1043710  65.0371780  84.0621360  61.9476440  64.8648020
  82.7241880  61.2415750  64.8078560  85.9797150  58.8359890  66.4209620
  86.0993360  58.2401030  67.1604460  86.8391150  58.8729580  66.0010920
  88.3185050  59.3897080  64.9972130  87.7920270  59.9139700  64.3937270
  88.6616390  60.0224470  65.6281860  80.7171440  56.7790450  51.4421840
  80.5160500  55.9157810  51.8035180  80.5463490  56.6923810  50.5043440
  81.4940670  67.4096720  66.1529510  80.9561760  68.1342780  65.8338210
  81.7474630  66.9327060  65.3626850  82.7465920  55.3781240  67.6785440
  83.3365610  55.0697090  68.3663260  81.9286160  54.9060990  67.8345340
  87.5659350  54.9947050  67.9118460  86.8774870  54.3328590  67.8468450
  88.2865370  54.5485320  68.3566920  88.1959750  51.5898680  53.9708720
  88.4762040  50.7466580  54.3268140  87.4225480  51.8221790  54.4847470
  79.5154240  53.8791070  51.4299720  79.8180140  53.8858500  50.5218870
  80.2548830  53.5288930  51.9267380  84.3502880  68.6447930  66.4116160
  84.2761580  69.5483070  66.7188530  83.4481720  68.3259830  66.3838230
  82.7339170  52.8225690  52.4155920  82.3861170  52.1449680  51.8358370
  82.9351940  52.3615200  53.2299310  84.8988210  67.8106440  54.0342520
  85.7939000  68.1491410  54.0561280  84.9305840  67.0885850  53.4066800
  78.5384370  63.1833490  52.2629520  78.9759240  63.7263160  52.9187100
  79.0232100  62.3580440  52.2725860  75.7530170  65.9722520  59.7149780
  76.0833180  65.1043580  59.4828420  76.1821170  66.1781040  60.5454740
  80.3492090  64.3031530  57.3751750  80.0487630  64.1796500  58.2755660
  80.2429580  63.4440120  56.9667480  76.2420380  66.8393110  62.4531410
  75.8051370  67.0193910  63.2855560  76.8098060  67.5967730  62.3113130
  91.8782560  66.3410110  66.7408720  91.2784550  66.4002670  65.9972640
  92.0076460  65.4015090  66.8705570  76.0744810  59.3513340  58.8120290
  75.4193650  59.0824980  58.1679990  76.9122760  59.2417820  58.3622270
  90.5634200  63.0662090  64.8384880  89.7494040  63.4959250  65.1010670
  90.9708400  63.6780500  64.2253930  89.0235250  54.1454630  53.0338780
  89.4420130  53.9585610  52.1935440  88.7171310  53.2933680  53.3441710
  77.1120740  59.7365910  63.3523630  77.4793780  59.6493310  64.2319650
  76.5431560  58.9732460  63.2530490  91.9124600  58.2050290  66.3654100
  91.6810690  57.9763040  65.4652050  92.1729150  59.1249840  66.3198990
  76.6636740  56.6475000  67.2582050  75.7692790  56.6141760  67.5975760
  77.2034290  56.8461790  68.0233300  90.3512670  53.4306720  69.1433800
  91.2282850  53.4390120  69.5267800  90.3633510  52.6937560  68.5326150
  75.2882890  56.5612270  54.7545620  74.3846970  56.8242470  54.5797280
  75.7723510  56.8323440  53.9745580  91.7975940  57.2836260  60.0321820
  92.3213420  56.7898910  59.4011990  92.3835360  57.4186620  60.7769390
  91.9765660  57.3676130  63.5541370  91.0268370  57.3339670  63.6686360
  92.1578670  58.2776240  63.3191140  77.8310100  55.6177810  52.6640000
  78.5401800  55.1961030  52.1787280  77.1150040  55.6853040  52.0323350
  77.4784260  51.6717140  51.7042650  78.2012390  52.2126080  52.0223870
  77.7508780  51.3980560  50.8284190  91.2875910  56.5409610  55.9714230
  91.7835030  56.3080480  56.7563110  91.0891980  55.7021450  55.5551870
  77.1676450  50.9223330  61.6065270  77.8152640  50.3720710  61.1660430
  77.5878290  51.1766480  62.4281080  91.0628790  51.1164690  64.9634910
  91.7001010  51.7298830  65.3294100  91.2103680  51.1525350  64.0184140
  90.6210250  67.8180690  58.3653150  91.2169320  67.4965260  57.6887570
  90.8788400  67.3452510  59.1566420  76.9208450  51.0779000  64.3490590
  76.5723270  51.5342820  65.1148770  76.5896150  50.1836130  64.4313020
  78.5272820  64.2498600  68.5143780  78.4842450  63.8791510  69.3958240
  78.6583830  65.1876170  68.6545600  82.2278850  65.8058190  64.1153500
  81.9870210  66.0732750  63.2284020  83.1681490  65.9763920  64.1704360
  84.4333270  52.2690880  67.8710010  84.3722160  52.8612710  68.6205420
  85.3733650  52.1616840  67.7260270  87.0707830  51.9260940  67.5102300
  87.6848240  52.2440230  66.8483380  87.6157390  51.4409530  68.1298160
  77.5929090  50.6055200  67.6241360  78.1412080  50.4243250  66.8607470
  77.6584400  49.8149310  68.1597670  78.3660850  67.1960850  65.6341560
  77.7721170  67.0645550  66.3731600  78.3584690  66.3598990  65.1683660
  87.8115870  50.4893080  63.8371590  86.9375710  50.8228190  63.6344520
  87.7026620  50.0166260  64.6623460  88.7187850  52.6963950  65.2213310
  88.3901210  51.8815710  64.8415040  89.6670150  52.6533760  65.0979000
  91.1722460  68.4675990  62.1950880  90.7125430  69.2191800  61.8208900
  90.5434920  67.7482460  62.1365680  77.9973080  64.5619230  64.5849600
  77.2707140  63.9424520  64.5175550  78.0582230  64.9559840  63.7147680
  81.6018180  66.7764230  61.3699010  82.1183200  66.1651590  60.8447270
  82.2515560  67.2793010  61.8610020  84.3413680  67.6672720  62.1967990
  84.6291490  67.4127020  61.3201000  84.8536900  67.1150080  62.7873560
  85.5590690  51.4062920  62.7764500  84.7762480  51.8808420  63.0561260
  85.2653620  50.5017750  62.6677680  90.1111760  52.1086020  60.8213590
  90.5519850  52.0531120  59.9735190  89.8419350  53.0244030  60.8923770
  76.2803080  67.8793620  57.7946360  76.1125120  67.2464300  58.4928250
  75.4137590  68.0853020  57.4440550  76.9031100  51.7110400  55.2978220
  77.6610460  51.8239280  54.7242250  76.4408270  52.5479600  55.2521650
  83.4444910  53.8249670  58.2880530  82.6319420  53.4506560  57.9476410
  83.9486550  53.0694750  58.5901720  87.9469890  50.4892120  59.5263600
  88.5499260  51.0612330  60.0012120  87.2062880  51.0531560  59.3037500
  91.0904490  50.8913680  54.8003880  91.2855120  51.7897130  55.0671310
  90.3034360  50.6600760  55.2936830  77.8865780  66.5726850  55.2396500
  77.3613400  66.9534880  54.5358460  77.8110360  67.1977620  55.9606210
  79.2756250  52.2374450  53.8380190  79.8049010  51.4504250  53.7088140
  79.9084570  52.9165640  54.0715720  81.4694090  51.9749590  56.8925580
  80.8396830  51.2736900  57.0595710  80.9299230  52.7353720  56.6758740
  84.4086040  68.5888820  69.5636190  85.3353350  68.3533090  69.6072150
  84.3936470  69.4160820  69.0822220  81.5949650  51.2533570  69.3278070
  81.3133920  51.7567170  68.5638890  81.9769350  50.4555320  68.9620200
  80.4858750  68.5209230  54.1145750  81.2177570  68.2368510  53.5669640
  80.7452420  68.2822510  55.0045130  79.6473540  64.6373960  54.1192080
  79.0182420  65.1059060  54.6677910  79.7621370  63.7923180  54.5538270
  88.1965110  50.6687150  69.9058540  88.0830560  50.9881760  70.8010060
  89.0134850  51.0699660  69.6095820  90.9763600  67.8158680  69.3877230
  91.7688920  67.3207910  69.1803190  91.2696750  68.4948820  69.9952840
  87.1023260  58.6879620  40.2693280  87.0217310  57.7734230  39.9984990
  86.6887680  59.1846690  39.5632990  85.2341300  60.4658640  42.1502550
  84.4583400  59.9859080  42.4401120  85.8854230  59.7864290  41.9758710
  79.2507130  60.7778450  43.0278310  78.4192010  60.5227160  43.4274820
  79.8588110  60.8489220  43.7636230  89.2548730  64.8718830  40.9301680
  88.7930260  64.1006070  41.2588850  90.0674280  64.8984900  41.4354130
  79.2308390  64.8118540  43.2236330  79.5336430  63.9216280  43.0446550
  79.9751980  65.3688760  42.9958580  77.6599080  55.7380340  36.8120700
  76.7715780  56.0796310  36.7100580  77.9440270  55.5380660  35.9201530
  75.6232090  58.3385990  42.6960400  76.1948200  57.5708190  42.6964040
  75.6233630  58.6374750  41.7867010  85.4812040  67.1576840  40.5505670
  84.8623480  67.6134340  39.9800110  86.3363820  67.3128300  40.1495370
  84.6750290  63.1415830  42.1572710  84.6058570  62.2005770  41.9961840
  85.4370150  63.2317240  42.7295280  76.8656960  53.7470350  44.4829330
  76.6859800  52.8496100  44.7632090  76.4637040  54.2942220  45.1576280
  85.7055460  55.9486210  42.3841640  86.0820280  55.0758090  42.2715310
  85.6074970  56.2844910  41.4932080  79.8360470  54.3211840  37.8459080
  79.9427220  55.2215570  38.1527840  78.9252830  54.2729810  37.5553730
  89.4879580  53.4436650  39.3169980  90.3089200  52.9533220  39.3595460
  89.5213660  54.0334310  40.0701820  77.4843630  56.2430850  43.0911670
  78.1653740  56.5069220  43.7099070  77.1691680  55.4031720  43.4249680
  81.6768200  57.2898210  42.1784260  82.1846420  57.7879180  42.8189280
  82.2081440  56.5133410  42.0023620  79.9604300  51.9296770  46.4447680
  79.9622740  52.4469160  45.6393580  79.1308610  51.4526950  46.4217610
  86.3475390  62.0416080  37.9437580  85.7292660  62.5065530  37.3800300
  86.8598640  62.7343560  38.3607090  81.2107150  61.5691950  44.6221180
  80.8776530  62.1960870  45.2642250  81.3873830  62.0953830  43.8422850
  89.7241060  55.3837030  42.0897520  89.0196630  55.6721920  42.6700630
  90.0853220  56.1937140  41.7297080  79.6419630  53.6406730  44.4518130
  79.9836440  54.4848780  44.1572000  78.7035440  53.7890470  44.5683470
  80.4226250  63.5372750  46.4370360  81.0400250  64.2123830  46.1554810
  79.5619370  63.9460730  46.3457860  75.7158590  62.7272610  35.3177210
  75.3386570  63.2159710  34.5862110  75.9731660  63.3997890  35.9483740
  91.3403840  65.0012160  44.3525000  90.6567360  65.6711270  44.3441670
  91.8798130  65.1992810  43.5869860  83.3247520  51.1289000  40.7762720
  83.6322500  50.5735890  40.0598220  82.3948220  51.2633460  40.5935710
  88.8762580  66.8456290  43.0670180  88.8889740  66.4418580  42.1992440
  88.3237800  67.6203580  42.9631610  90.1708000  63.5672510  38.1560350
  90.0604330  62.6246840  38.2809770  90.1676250  63.9288150  39.0423110
  88.2748020  61.7486130  44.3952790  88.6916810  61.5346240  43.5606250
  88.9987840  62.0058920  44.9661410  85.7128280  59.1937830  37.5122840
  84.7857560  59.1275210  37.7411310  85.8653100  60.1317960  37.3978080
  85.6997360  55.4654830  34.5090000  84.7601030  55.6268790  34.5942460
  86.0180620  56.1840510  33.9625990  89.7425570  60.7558130  38.0158090
  89.1237990  60.4177680  37.3684390  89.7250020  60.1117890  38.7237280
  89.1852130  56.9342670  45.4323900  88.7723310  57.7596380  45.6863890
  88.4528080  56.3487710  45.2400260  81.3184920  59.7202570  40.2942570
  80.9141920  59.0079820  39.7988470  81.4048040  59.3755810  41.1830610
  81.7866620  63.4070130  42.4581780  81.4894910  62.8015600  41.7789560
  82.7366440  63.4447440  42.3471140  80.0313540  56.4945780  44.0741610
  80.5828130  56.6041120  43.2994860  80.5457050  56.8683380  44.7896840
  89.8752230  66.9802000  46.1204880  89.3982790  67.7874190  45.9277490
  89.1914020  66.3280330  46.2731090  80.8785050  63.1451820  49.1089580
  79.9813580  63.3691790  49.3562980  80.9037920  63.2686760  48.1600980
  87.9190270  59.9944940  35.0230840  88.3583550  59.1567370  34.8768660
  88.6318690  60.6274340  35.1094980  79.7056270  60.0165140  47.6846950
  79.5664040  60.8887940  48.0534350  78.8237630  59.6737950  47.5394890
  86.0285650  64.9341010  38.9912080  86.4681560  65.6765340  38.5767470
  85.9672540  65.1767580  39.9151040  81.5036620  65.9586840  49.8932100
  81.4752050  66.3629790  49.0260530  81.3401590  65.0297200  49.7303700
  91.5007410  51.2487750  33.3371880  91.1880070  51.3414580  34.2370950
  92.2619880  51.8268780  33.2869310  78.0189550  58.6147550  37.7949220
  77.8987150  59.3409640  37.1830490  77.7090440  57.8450460  37.3177130
  75.6574920  61.7862690  43.6017860  75.7355340  61.9211460  42.6573580
  76.2716600  61.0778580  43.7945980  76.9022550  63.4862880  40.0124040
  76.4950630  63.6277470  39.1577640  77.7935560  63.2023040  39.8095250
  86.7201430  67.6354790  46.9191090  87.2346100  67.5462800  47.7213520
  85.8770510  67.9814490  47.2119000  88.6955830  67.9210130  36.3475090
  88.5356970  67.6313070  37.2456920  88.5302540  67.1450260  35.8120320
  81.1744210  67.7008660  38.1246710  80.9986690  66.7844200  37.9114510
  80.3199950  68.0595950  38.3644510  88.3981960  65.4297690  34.9073090
  87.7047120  65.4274980  34.2475370  89.1404820  65.0057010  34.4767260
  87.9631890  67.0560400  38.9821580  88.4188840  66.2749780  39.2960200
  88.3024410  67.7667220  39.5262760  75.7134440  62.8276860  46.1412320
  75.8765480  62.3582220  45.3231690  76.1786890  62.3200420  46.8061160
  80.4853210  51.9582620  41.1772890  80.0421360  52.7392160  40.8457410
  81.0438200  52.2812510  41.8843830  84.7723020  54.8251140  46.7808210
  84.3102390  55.0334160  47.5928150  84.3701130  54.0110490  46.4778880
  89.7727530  56.0460090  47.9104870  88.9221120  55.7465840  48.2313940
  89.6129320  56.2902100  46.9988690  86.8677240  57.5461840  50.0103660
  87.1930650  56.7125590  49.6705890  87.6557570  58.0690360  50.1581990
  83.6012030  51.5793320  36.0578720  82.9766210  51.5753190  36.7832030
  83.5142150  50.7124280  35.6614690  82.5229110  52.5029950  43.0362490
  82.8201440  53.4092780  42.9554510  83.0714670  52.0148730  42.4222060
  80.2767430  57.0816190  38.9054140  80.0508350  56.8653360  39.8100760
  79.4959960  57.5144650  38.5600110  87.5065190  57.0879560  37.5044790
  86.9074080  57.8115360  37.3208410  88.0544800  57.0256340  36.7221240
  82.7166640  57.9801770  49.5714410  82.6210240  57.0396500  49.4214810
  83.5598620  58.2016840  49.1762480  86.1130060  55.7243100  39.5348070
  86.5059630  56.0415300  38.7216760  86.4746910  54.8454980  39.6492590
  77.8477180  54.3915440  47.7248190  77.4540570  55.2390650  47.9320970
  77.1595580  53.7541810  47.9156830  84.4222230  54.4750410  50.7944930
  83.7320550  54.2822610  51.4291020  85.1654530  54.7585050  51.3269230
  75.1494230  52.3143900  41.7578270  74.8607280  52.8846760  42.4703250
  75.8939990  51.8348350  42.1209500  75.3364460  56.2564020  32.9680990
  75.2539130  57.1994780  33.1095980  74.9847520  56.1138930  32.0893340
  86.6985200  58.3148850  43.6298850  85.9666320  58.8235660  43.9788950
  86.3009540  57.4978830  43.3287630  83.1362590  54.9903050  42.0351340
  83.1398650  54.5493000  41.1855880  84.0313710  55.3120380  42.1423160
  78.9864970  54.8729540  40.9945550  78.6465020  55.3504770  41.7512600
  78.2242290  54.4194660  40.6346650  83.1982740  55.9915130  35.0258100
  83.3195560  55.9501610  35.9743920  82.8131250  56.8539280  34.8704830
  87.1611110  53.7682530  43.0421790  87.1783850  54.2191180  43.8863640
  86.9126690  52.8688170  43.2555230  82.2104240  58.3016270  34.4241400
  81.6421140  57.8534520  33.7977310  82.9193240  58.6609050  33.8906550
  90.5881860  51.1814710  48.8808170  90.9127630  50.4504370  49.4066150
  90.6238370  50.8628350  47.9789160  77.2873420  62.2028290  48.3008130
  76.9028210  61.5621960  48.8991090  77.5985610  62.9064410  48.8702860
  83.4370560  59.0504830  43.7816750  83.8040690  58.5763400  44.5278090
  83.2475620  59.9246400  44.1225090  76.3011050  53.7948520  39.9110220
  76.0157970  53.4304190  40.7488840  76.2389910  53.0628980  39.2973360
  81.2269930  58.0913470  46.1000960  80.9227000  58.9705450  46.3251320
  82.1816390  58.1513260  46.1358400  79.7551720  62.2974460  36.6967810
  78.9813980  61.7572080  36.5366530  80.4846350  61.7781070  36.3585570
  90.5139700  61.2939820  42.4894200  91.2338820  61.7895110  42.0990310
  90.3121520  60.6157710  41.8448070  85.9749640  52.6877780  36.6323590
  85.1614250  52.1890950  36.5568900  85.7811590  53.5276030  36.2159940
  85.8958500  61.3648880  48.3763200  85.8295810  60.4444550  48.1220790
  85.2663640  61.4624320  49.0907840  88.6898030  57.0597430  34.9285750
  89.5777650  57.3714660  34.7537090  88.6603120  56.1869680  34.5366330
  79.7989120  61.9654840  40.3346620  80.3167790  61.1623100  40.2803510
  79.3473140  61.9033980  41.1763450  84.6858620  63.2321120  35.6073920
  85.0274320  63.9763350  35.1117240  83.8571330  63.5452240  35.9698750
  77.2833660  58.9316210  47.2472320  76.9248600  59.5970060  47.8345660
  76.9888220  58.0999760  47.6184940  80.4846780  59.3900450  50.1311870
  80.1846920  59.5357630  49.2339690  81.2558020  58.8305740  50.0385260
  85.8275230  64.1869450  48.1267000  85.8419770  63.2550410  47.9085910
  85.1200330  64.2729210  48.7656770  90.9612300  58.3709270  34.3965610
  90.8776020  58.8023490  33.5462050  91.6806490  58.8307620  34.8292430
  91.9899550  65.2251530  37.1247740  91.3475710  64.5707150  37.3991460
  91.6030210  65.6306620  36.3488410  87.5686030  62.5536960  40.9719430
  87.9209850  61.9565090  40.3120800  86.6848360  62.2281190  41.1427680
  83.6549310  63.3134650  38.3789840  84.3420440  63.8603860  38.7597430
  82.8681730  63.8575380  38.4139450  75.7941710  58.9307470  33.8706920
  76.6636560  59.2132270  34.1542840  75.3032030  59.7443340  33.7555730
  82.9576520  60.3180680  37.9915200  83.4139300  61.1285930  38.2175390
  82.6064730  60.0003820  38.8233690  85.2609130  65.8287020  45.2207500
  85.9051350  66.0346400  45.8980920  85.6238570  65.0675420  44.7678350
  78.8588300  50.6618330  38.4637720  78.7302930  50.6536230  39.4122640
  78.0350320  51.0001420  38.1128730  86.5341210  63.8319370  43.9384950
  87.1763440  63.1312530  44.0517120  87.0590560  64.6117810  43.7581840
  90.3796930  64.1167990  33.6624090  90.1534510  63.3998430  34.2548730
  89.9893130  63.8680430  32.8245840  88.3078830  64.6314270  47.1421010
  88.6435070  65.2180960  47.8198930  87.3879170  64.5006980  47.3718800
  76.1612960  68.1434850  34.4368550  76.5210600  68.7424190  33.7825820
  76.0205300  68.6894740  35.2103580  75.8582230  52.4209450  47.9244420
  75.1440750  52.6206370  48.5297030  76.2777270  51.6449020  48.2959220
  89.9613180  62.0339930  35.3238250  89.6734880  62.4952620  36.1116130
  90.7565350  61.5737700  35.5922470  76.1454820  66.4089710  48.9110950
  76.2545940  65.4684450  48.7706340  75.4935380  66.6744460  48.2624680
  84.1367410  64.6805600  50.3109070  83.8164280  63.9614840  50.8554760
  83.4625770  65.3560670  50.3845130  82.1781580  65.5266050  35.2542220
  82.1691680  66.2595740  34.6386730  81.2579940  65.2797630  35.3469180
  77.7788220  60.7480940  35.9988980  77.1716170  61.4879840  36.0084280
  78.2537570  60.8380300  35.1727180  87.3521010  54.9131760  45.6745870
  87.7201830  54.0926970  46.0025440  86.4919210  54.9733650  46.0901520
  90.7183040  53.8688700  36.4833430  90.0896200  53.9734370  35.7691660
  90.2234960  54.0885480  37.2727310  85.1641180  65.5894290  33.9167410
  85.2653160  65.3858280  32.9869390  84.2642920  65.3352570  34.1215190
  82.6867070  56.1474650  37.8991310  81.9783220  56.6160990  38.3404920
  82.9711550  55.4896660  38.5336500  84.3123000  57.5671350  45.8983840
  84.8108250  58.0417170  46.5635690  84.4545950  56.6434870  46.1053870
  86.7182500  52.8725310  39.3387100  86.5950280  52.8911440  38.3896610
  87.6667060  52.9204250  39.4585500  83.8059290  68.1080610  38.6115080
  84.0600790  68.0702000  37.6894450  82.8571770  67.9813940  38.6043330
  80.8902090  54.4559730  35.2742020  81.7392620  54.8929880  35.2082210
  80.5233360  54.7679990  36.1014080  91.5189860  53.7839310  46.7412230
  91.0163460  54.5244710  47.0806040  92.3346520  54.1723310  46.4249020
  89.8111870  59.0272490  40.1873590  88.8702010  59.0422720  40.3621280
  90.1255940  58.2408450  40.6333890  79.7893510  60.7092090  33.7477550
  80.5556780  60.5973450  34.3102980  79.8668200  60.0130060  33.0954320
  78.4840270  58.1417160  34.4310440  78.5643860  57.1944670  34.5427840
  79.3760020  58.4724040  34.5371100  79.2854980  68.2912550  41.5344980
  80.0217460  67.7428010  41.8053550  79.6695900  69.1568560  41.3950970
  76.1700460  64.3586120  37.4086490  75.2440240  64.6007260  37.3991900
  76.6356890  65.1860380  37.2871240  78.2913260  67.4758620  50.7230560
  79.0925990  67.7970670  51.1365960  77.7765080  67.1154200  51.4450470
  82.3957290  67.4642860  33.3570550  83.1885900  67.7531690  32.9052340
  81.8761640  67.0335030  32.6783030  87.1277890  63.5838490  50.6705970
  86.5216050  63.6070090  49.9301720  86.8232000  62.8521530  51.2073220
  88.5578260  67.3118780  49.2815380  89.5100010  67.2276800  49.2315620
  88.4106480  67.9760490  49.9549170  91.4487460  66.6912990  34.7807290
  91.1628970  66.2778130  33.9661470  91.2507010  67.6200700  34.6607810
  76.0111070  59.9632080  49.6666610  76.5150090  59.3839360  50.2382840
  75.2718490  60.2472310  50.2042980  82.9134690  62.6846270  33.2212900
  82.8085330  62.0698620  33.9474280  82.7458910  62.1612160  32.4375910
  83.0649010  61.3703070  49.2002130  82.2994680  61.9388070  49.1156800
  83.2464970  61.0779280  48.3070360  86.1537420  61.7466300  33.8254890
  85.6047520  62.1935600  34.4697630  86.7756680  61.2415550  34.3492560
  90.2072360  63.1008400  49.7577150  90.9481830  63.4384160  49.2544610
  89.4445040  63.2700460  49.2046920  78.0434150  58.1061670  50.5616680
  78.0839490  57.8075540  51.4701910  78.8979650  58.5069280  50.4024200
  81.8212540  60.7057220  35.7220190  82.2428960  60.5397090  36.5651580
  81.9463380  59.8957450  35.2275330  79.9839960  56.6853770  48.5291170
  79.4536420  56.1944720  47.9014510  80.6528030  57.1137970  47.9949100
  84.3340180  59.7294830  32.9697290  84.8545840  59.0143850  32.6038440
  84.9808580  60.3680700  33.2697800  88.8818020  61.1523230  48.2932360
  89.2959040  61.3068310  49.1422780  87.9469020  61.2778450  48.4558140
  89.3540190  58.4919390  50.2971510  89.9360960  57.7371710  50.2091990
  89.5301960  59.0226830  49.5202990  80.4712260  53.6516140  48.6088460
  80.3769130  53.0336890  47.8839330  79.8909650  54.3782430  48.3818370
  83.2373700  52.2089380  45.6415850  82.7891000  52.2313640  44.7961400
  82.6038900  51.8108400  46.2386150  83.6433250  61.1043710  46.2628290
  84.0621360  61.9476440  46.0904530  82.7241880  61.2415750  46.0335070
  85.9797150  58.8359890  47.6466130  86.0993360  58.2401030  48.3860970
  86.8391150  58.8729580  47.2267430  88.3185050  59.3897080  46.2228640
  87.7920270  59.9139700  45.6193780  88.6616390  60.0224470  46.8538370
  80.7171440  56.7790450  32.6678350  80.5160500  55.9157810  33.0291690
  80.5463490  56.6923810  31.7299950  81.4940670  67.4096720  47.3786020
  80.9561760  68.1342780  47.0594720  81.7474630  66.9327060  46.5883360
  82.7465920  55.3781240  48.9041950  83.3365610  55.0697090  49.5919770
  81.9286160  54.9060990  49.0601850  87.5659350  54.9947050  49.1374970
  86.8774870  54.3328590  49.0724960  88.2865370  54.5485320  49.5823430
  88.1959750  51.5898680  35.1965230  88.4762040  50.7466580  35.5524650
  87.4225480  51.8221790  35.7103980  79.5154240  53.8791070  32.6556230
  79.8180140  53.8858500  31.7475380  80.2548830  53.5288930  33.1523890
  84.3502880  68.6447930  47.6372670  84.2761580  69.5483070  47.9445040
  83.4481720  68.3259830  47.6094740  82.7339170  52.8225690  33.6412430
  82.3861170  52.1449680  33.0614880  82.9351940  52.3615200  34.4555820
  84.8988210  67.8106440  35.2599030  85.7939000  68.1491410  35.2817790
  84.9305840  67.0885850  34.6323310  78.5384370  63.1833490  33.4886030
  78.9759240  63.7263160  34.1443610  79.0232100  62.3580440  33.4982370
  75.7530170  65.9722520  40.9406290  76.0833180  65.1043580  40.7084930
  76.1821170  66.1781040  41.7711250  80.3492090  64.3031530  38.6008260
  80.0487630  64.1796500  39.5012170  80.2429580  63.4440120  38.1923990
  76.2420380  66.8393110  43.6787920  75.8051370  67.0193910  44.5112070
  76.8098060  67.5967730  43.5369640  91.8782560  66.3410110  47.9665230
  91.2784550  66.4002670  47.2229150  92.0076460  65.4015090  48.0962080
  76.0744810  59.3513340  40.0376800  75.4193650  59.0824980  39.3936500
  76.9122760  59.2417820  39.5878780  90.5634200  63.0662090  46.0641390
  89.7494040  63.4959250  46.3267180  90.9708400  63.6780500  45.4510440
  89.0235250  54.1454630  34.2595290  89.4420130  53.9585610  33.4191950
  88.7171310  53.2933680  34.5698220  77.1120740  59.7365910  44.5780140
  77.4793780  59.6493310  45.4576160  76.5431560  58.9732460  44.4787000
  91.9124600  58.2050290  47.5910610  91.6810690  57.9763040  46.6908560
  92.1729150  59.1249840  47.5455500  76.6636740  56.6475000  48.4838560
  75.7692790  56.6141760  48.8232270  77.2034290  56.8461790  49.2489810
  90.3512670  53.4306720  50.3690310  91.2282850  53.4390120  50.7524310
  90.3633510  52.6937560  49.7582660  75.2882890  56.5612270  35.9802130
  74.3846970  56.8242470  35.8053790  75.7723510  56.8323440  35.2002090
  91.7975940  57.2836260  41.2578330  92.3213420  56.7898910  40.6268500
  92.3835360  57.4186620  42.0025900  91.9765660  57.3676130  44.7797880
  91.0268370  57.3339670  44.8942870  92.1578670  58.2776240  44.5447650
  77.8310100  55.6177810  33.8896510  78.5401800  55.1961030  33.4043790
  77.1150040  55.6853040  33.2579860  77.4784260  51.6717140  32.9299160
  78.2012390  52.2126080  33.2480380  77.7508780  51.3980560  32.0540700
  91.2875910  56.5409610  37.1970740  91.7835030  56.3080480  37.9819620
  91.0891980  55.7021450  36.7808380  77.1676450  50.9223330  42.8321780
  77.8152640  50.3720710  42.3916940  77.5878290  51.1766480  43.6537590
  91.0628790  51.1164690  46.1891420  91.7001010  51.7298830  46.5550610
  91.2103680  51.1525350  45.2440650  90.6210250  67.8180690  39.5909660
  91.2169320  67.4965260  38.9144080  90.8788400  67.3452510  40.3822930
  76.9208450  51.0779000  45.5747100  76.5723270  51.5342820  46.3405280
  76.5896150  50.1836130  45.6569530  78.5272820  64.2498600  49.7400290
  78.4842450  63.8791510  50.6214750  78.6583830  65.1876170  49.8802110
  82.2278850  65.8058190  45.3410010  81.9870210  66.0732750  44.4540530
  83.1681490  65.9763920  45.3960870  84.4333270  52.2690880  49.0966520
  84.3722160  52.8612710  49.8461930  85.3733650  52.1616840  48.9516780
  87.0707830  51.9260940  48.7358810  87.6848240  52.2440230  48.0739890
  87.6157390  51.4409530  49.3554670  77.5929090  50.6055200  48.8497870
  78.1412080  50.4243250  48.0863980  77.6584400  49.8149310  49.3854180
  78.3660850  67.1960850  46.8598070  77.7721170  67.0645550  47.5988110
  78.3584690  66.3598990  46.3940170  87.8115870  50.4893080  45.0628100
  86.9375710  50.8228190  44.8601030  87.7026620  50.0166260  45.8879970
  88.7187850  52.6963950  46.4469820  88.3901210  51.8815710  46.0671550
  89.6670150  52.6533760  46.3235510  91.1722460  68.4675990  43.4207390
  90.7125430  69.2191800  43.0465410  90.5434920  67.7482460  43.3622190
  77.9973080  64.5619230  45.8106110  77.2707140  63.9424520  45.7432060
  78.0582230  64.9559840  44.9404190  81.6018180  66.7764230  42.5955520
  82.1183200  66.1651590  42.0703780  82.2515560  67.2793010  43.0866530
  84.3413680  67.6672720  43.4224500  84.6291490  67.4127020  42.5457510
  84.8536900  67.1150080  44.0130070  85.5590690  51.4062920  44.0021010
  84.7762480  51.8808420  44.2817770  85.2653620  50.5017750  43.8934190
  90.1111760  52.1086020  42.0470100  90.5519850  52.0531120  41.1991700
  89.8419350  53.0244030  42.1180280  76.2803080  67.8793620  39.0202870
  76.1125120  67.2464300  39.7184760  75.4137590  68.0853020  38.6697060
  76.9031100  51.7110400  36.5234730  77.6610460  51.8239280  35.9498760
  76.4408270  52.5479600  36.4778160  83.4444910  53.8249670  39.5137040
  82.6319420  53.4506560  39.1732920  83.9486550  53.0694750  39.8158230
  87.9469890  50.4892120  40.7520110  88.5499260  51.0612330  41.2268630
  87.2062880  51.0531560  40.5294010  91.0904490  50.8913680  36.0260390
  91.2855120  51.7897130  36.2927820  90.3034360  50.6600760  36.5193340
  77.8865780  66.5726850  36.4653010  77.3613400  66.9534880  35.7614970
  77.8110360  67.1977620  37.1862720  79.2756250  52.2374450  35.0636700
  79.8049010  51.4504250  34.9344650  79.9084570  52.9165640  35.2972230
  81.4694090  51.9749590  38.1182090  80.8396830  51.2736900  38.2852220
  80.9299230  52.7353720  37.9015250  84.4086040  68.5888820  50.7892700
  85.3353350  68.3533090  50.8328660  84.3936470  69.4160820  50.3078730
  81.5949650  51.2533570  50.5534580  81.3133920  51.7567170  49.7895400
  81.9769350  50.4555320  50.1876710  80.4858750  68.5209230  35.3402260
  81.2177570  68.2368510  34.7926150  80.7452420  68.2822510  36.2301640
  79.6473540  64.6373960  35.3448590  79.0182420  65.1059060  35.8934420
  79.7621370  63.7923180  35.7794780  88.1965110  50.6687150  51.1315050
  88.0830560  50.9881760  52.0266570  89.0134850  51.0699660  50.8352330
  90.9763600  67.8158680  50.6133740  91.7688920  67.3207910  50.4059700
  91.2696750  68.4948820  51.2209350  87.1023260  58.6879620  21.4949790
  87.0217310  57.7734230  21.2241500  86.6887680  59.1846690  20.7889500
  85.2341300  60.4658640  23.3759060  84.4583400  59.9859080  23.6657630
  85.8854230  59.7864290  23.2015220  79.2507130  60.7778450  24.2534820
  78.4192010  60.5227160  24.6531330  79.8588110  60.8489220  24.9892740
  89.2548730  64.8718830  22.1558190  88.7930260  64.1006070  22.4845360
  90.0674280  64.8984900  22.6610640  79.2308390  64.8118540  24.4492840
  79.5336430  63.9216280  24.2703060  79.9751980  65.3688760  24.2215090
  77.6599080  55.7380340  18.0377210  76.7715780  56.0796310  17.9357090
  77.9440270  55.5380660  17.1458040  75.6232090  58.3385990  23.9216910
  76.1948200  57.5708190  23.9220550  75.6233630  58.6374750  23.0123520
  85.4812040  67.1576840  21.7762180  84.8623480  67.6134340  21.2056620
  86.3363820  67.3128300  21.3751880  84.6750290  63.1415830  23.3829220
  84.6058570  62.2005770  23.2218350  85.4370150  63.2317240  23.9551790
  76.8656960  53.7470350  25.7085840  76.6859800  52.8496100  25.9888600
  76.4637040  54.2942220  26.3832790  85.7055460  55.9486210  23.6098150
  86.0820280  55.0758090  23.4971820  85.6074970  56.2844910  22.7188590
  79.8360470  54.3211840  19.0715590  79.9427220  55.2215570  19.3784350
  78.9252830  54.2729810  18.7810240  89.4879580  53.4436650  20.5426490
  90.3089200  52.9533220  20.5851970  89.5213660  54.0334310  21.2958330
  77.4843630  56.2430850  24.3168180  78.1653740  56.5069220  24.9355580
  77.1691680  55.4031720  24.6506190  81.6768200  57.2898210  23.4040770
  82.1846420  57.7879180  24.0445790  82.2081440  56.5133410  23.2280130
  79.9604300  51.9296770  27.6704190  79.9622740  52.4469160  26.8650090
  79.1308610  51.4526950  27.6474120  86.3475390  62.0416080  19.1694090
  85.7292660  62.5065530  18.6056810  86.8598640  62.7343560  19.5863600
  81.2107150  61.5691950  25.8477690  80.8776530  62.1960870  26.4898760
  81.3873830  62.0953830  25.0679360  89.7241060  55.3837030  23.3154030
  89.0196630  55.6721920  23.8957140  90.0853220  56.1937140  22.9553590
  79.6419630  53.6406730  25.6774640  79.9836440  54.4848780  25.3828510
  78.7035440  53.7890470  25.7939980  80.4226250  63.5372750  27.6626870
  81.0400250  64.2123830  27.3811320  79.5619370  63.9460730  27.5714370
  75.7158590  62.7272610  16.5433720  75.3386570  63.2159710  15.8118620
  75.9731660  63.3997890  17.1740250  91.3403840  65.0012160  25.5781510
  90.6567360  65.6711270  25.5698180  91.8798130  65.1992810  24.8126370
  83.3247520  51.1289000  22.0019230  83.6322500  50.5735890  21.2854730
  82.3948220  51.2633460  21.8192220  88.8762580  66.8456290  24.2926690
  88.8889740  66.4418580  23.4248950  88.3237800  67.6203580  24.1888120
  90.1708000  63.5672510  19.3816860  90.0604330  62.6246840  19.5066280
  90.1676250  63.9288150  20.2679620  88.2748020  61.7486130  25.6209300
  88.6916810  61.5346240  24.7862760  88.9987840  62.0058920  26.1917920
  85.7128280  59.1937830  18.7379350  84.7857560  59.1275210  18.9667820
  85.8653100  60.1317960  18.6234590  85.6997360  55.4654830  15.7346510
  84.7601030  55.6268790  15.8198970  86.0180620  56.1840510  15.1882500
  89.7425570  60.7558130  19.2414600  89.1237990  60.4177680  18.5940900
  89.7250020  60.1117890  19.9493790  89.1852130  56.9342670  26.6580410
  88.7723310  57.7596380  26.9120400  88.4528080  56.3487710  26.4656770
  81.3184920  59.7202570  21.5199080  80.9141920  59.0079820  21.0244980
  81.4048040  59.3755810  22.4087120  81.7866620  63.4070130  23.6838290
  81.4894910  62.8015600  23.0046070  82.7366440  63.4447440  23.5727650
  80.0313540  56.4945780  25.2998120  80.5828130  56.6041120  24.5251370
  80.5457050  56.8683380  26.0153350  89.8752230  66.9802000  27.3461390
  89.3982790  67.7874190  27.1534000  89.1914020  66.3280330  27.4987600
  80.8785050  63.1451820  30.3346090  79.9813580  63.3691790  30.5819490
  80.9037920  63.2686760  29.3857490  87.9190270  59.9944940  16.2487350
  88.3583550  59.1567370  16.1025170  88.6318690  60.6274340  16.3351490
  79.7056270  60.0165140  28.9103460  79.5664040  60.8887940  29.2790860
  78.8237630  59.6737950  28.7651400  86.0285650  64.9341010  20.2168590
  86.4681560  65.6765340  19.8023980  85.9672540  65.1767580  21.1407550
  81.5036620  65.9586840  31.1188610  81.4752050  66.3629790  30.2517040
  81.3401590  65.0297200  30.9560210  91.5007410  51.2487750  14.5628390
  91.1880070  51.3414580  15.4627460  92.2619880  51.8268780  14.5125820
  78.0189550  58.6147550  19.0205730  77.8987150  59.3409640  18.4087000
  77.7090440  57.8450460  18.5433640  75.6574920  61.7862690  24.8274370
  75.7355340  61.9211460  23.8830090  76.2716600  61.0778580  25.0202490
  76.9022550  63.4862880  21.2380550  76.4950630  63.6277470  20.3834150
  77.7935560  63.2023040  21.0351760  86.7201430  67.6354790  28.1447600
  87.2346100  67.5462800  28.9470030  85.8770510  67.9814490  28.4375510
  88.6955830  67.9210130  17.5731600  88.5356970  67.6313070  18.4713430
  88.5302540  67.1450260  17.0376830  81.1744210  67.7008660  19.3503220
  80.9986690  66.7844200  19.1371020  80.3199950  68.0595950  19.5901020
  88.3981960  65.4297690  16.1329600  87.7047120  65.4274980  15.4731880
  89.1404820  65.0057010  15.7023770  87.9631890  67.0560400  20.2078090
  88.4188840  66.2749780  20.5216710  88.3024410  67.7667220  20.7519270
  75.7134440  62.8276860  27.3668830  75.8765480  62.3582220  26.5488200
  76.1786890  62.3200420  28.0317670  80.4853210  51.9582620  22.4029400
  80.0421360  52.7392160  22.0713920  81.0438200  52.2812510  23.1100340
  84.7723020  54.8251140  28.0064720  84.3102390  55.0334160  28.8184660
  84.3701130  54.0110490  27.7035390  89.7727530  56.0460090  29.1361380
  88.9221120  55.7465840  29.4570450  89.6129320  56.2902100  28.2245200
  86.8677240  57.5461840  31.2360170  87.1930650  56.7125590  30.8962400
  87.6557570  58.0690360  31.3838500  83.6012030  51.5793320  17.2835230
  82.9766210  51.5753190  18.0088540  83.5142150  50.7124280  16.8871200
  82.5229110  52.5029950  24.2619000  82.8201440  53.4092780  24.1811020
  83.0714670  52.0148730  23.6478570  80.2767430  57.0816190  20.1310650
  80.0508350  56.8653360  21.0357270  79.4959960  57.5144650  19.7856620
  87.5065190  57.0879560  18.7301300  86.9074080  57.8115360  18.5464920
  88.0544800  57.0256340  17.9477750  82.7166640  57.9801770  30.7970920
  82.6210240  57.0396500  30.6471320  83.5598620  58.2016840  30.4018990
  86.1130060  55.7243100  20.7604580  86.5059630  56.0415300  19.9473270
  86.4746910  54.8454980  20.8749100  77.8477180  54.3915440  28.9504700
  77.4540570  55.2390650  29.1577480  77.1595580  53.7541810  29.1413340
  84.4222230  54.4750410  32.0201440  83.7320550  54.2822610  32.6547530
  85.1654530  54.7585050  32.5525740  75.1494230  52.3143900  22.9834780
  74.8607280  52.8846760  23.6959760  75.8939990  51.8348350  23.3466010
  75.3364460  56.2564020  14.1937500  75.2539130  57.1994780  14.3352490
  74.9847520  56.1138930  13.3149850  86.6985200  58.3148850  24.8555360
  85.9666320  58.8235660  25.2045460  86.3009540  57.4978830  24.5544140
  83.1362590  54.9903050  23.2607850  83.1398650  54.5493000  22.4112390
  84.0313710  55.3120380  23.3679670  78.9864970  54.8729540  22.2202060
  78.6465020  55.3504770  22.9769110  78.2242290  54.4194660  21.8603160
  83.1982740  55.9915130  16.2514610  83.3195560  55.9501610  17.2000430
  82.8131250  56.8539280  16.0961340  87.1611110  53.7682530  24.2678300
  87.1783850  54.2191180  25.1120150  86.9126690  52.8688170  24.4811740
  82.2104240  58.3016270  15.6497910  81.6421140  57.8534520  15.0233820
  82.9193240  58.6609050  15.1163060  90.5881860  51.1814710  30.1064680
  90.9127630  50.4504370  30.6322660  90.6238370  50.8628350  29.2045670
  77.2873420  62.2028290  29.5264640  76.9028210  61.5621960  30.1247600
  77.5985610  62.9064410  30.0959370  83.4370560  59.0504830  25.0073260
  83.8040690  58.5763400  25.7534600  83.2475620  59.9246400  25.3481600
  76.3011050  53.7948520  21.1366730  76.0157970  53.4304190  21.9745350
  76.2389910  53.0628980  20.5229870  81.2269930  58.0913470  27.3257470
  80.9227000  58.9705450  27.5507830  82.1816390  58.1513260  27.3614910
  79.7551720  62.2974460  17.9224320  78.9813980  61.7572080  17.7623040
  80.4846350  61.7781070  17.5842080  90.5139700  61.2939820  23.7150710
  91.2338820  61.7895110  23.3246820  90.3121520  60.6157710  23.0704580
  85.9749640  52.6877780  17.8580100  85.1614250  52.1890950  17.7825410
  85.7811590  53.5276030  17.4416450  85.8958500  61.3648880  29.6019710
  85.8295810  60.4444550  29.3477300  85.2663640  61.4624320  30.3164350
  88.6898030  57.0597430  16.1542260  89.5777650  57.3714660  15.9793600
  88.6603120  56.1869680  15.7622840  79.7989120  61.9654840  21.5603130
  80.3167790  61.1623100  21.5060020  79.3473140  61.9033980  22.4019960
  84.6858620  63.2321120  16.8330430  85.0274320  63.9763350  16.3373750
  83.8571330  63.5452240  17.1955260  77.2833660  58.9316210  28.4728830
  76.9248600  59.5970060  29.0602170  76.9888220  58.0999760  28.8441450
  80.4846780  59.3900450  31.3568380  80.1846920  59.5357630  30.4596200
  81.2558020  58.8305740  31.2641770  85.8275230  64.1869450  29.3523510
  85.8419770  63.2550410  29.1342420  85.1200330  64.2729210  29.9913280
  90.9612300  58.3709270  15.6222120  90.8776020  58.8023490  14.7718560
  91.6806490  58.8307620  16.0548940  91.9899550  65.2251530  18.3504250
  91.3475710  64.5707150  18.6247970  91.6030210  65.6306620  17.5744920
  87.5686030  62.5536960  22.1975940  87.9209850  61.9565090  21.5377310
  86.6848360  62.2281190  22.3684190  83.6549310  63.3134650  19.6046350
  84.3420440  63.8603860  19.9853940  82.8681730  63.8575380  19.6395960
  75.7941710  58.9307470  15.0963430  76.6636560  59.2132270  15.3799350
  75.3032030  59.7443340  14.9812240  82.9576520  60.3180680  19.2171710
  83.4139300  61.1285930  19.4431900  82.6064730  60.0003820  20.0490200
  85.2609130  65.8287020  26.4464010  85.9051350  66.0346400  27.1237430
  85.6238570  65.0675420  25.9934860  78.8588300  50.6618330  19.6894230
  78.7302930  50.6536230  20.6379150  78.0350320  51.0001420  19.3385240
  86.5341210  63.8319370  25.1641460  87.1763440  63.1312530  25.2773630
  87.0590560  64.6117810  24.9838350  90.3796930  64.1167990  14.8880600
  90.1534510  63.3998430  15.4805240  89.9893130  63.8680430  14.0502350
  88.3078830  64.6314270  28.3677520  88.6435070  65.2180960  29.0455440
  87.3879170  64.5006980  28.5975310  76.1612960  68.1434850  15.6625060
  76.5210600  68.7424190  15.0082330  76.0205300  68.6894740  16.4360090
  75.8582230  52.4209450  29.1500930  75.1440750  52.6206370  29.7553540
  76.2777270  51.6449020  29.5215730  89.9613180  62.0339930  16.5494760
  89.6734880  62.4952620  17.3372640  90.7565350  61.5737700  16.8178980
  76.1454820  66.4089710  30.1367460  76.2545940  65.4684450  29.9962850
  75.4935380  66.6744460  29.4881190  84.1367410  64.6805600  31.5365580
  83.8164280  63.9614840  32.0811270  83.4625770  65.3560670  31.6101640
  82.1781580  65.5266050  16.4798730  82.1691680  66.2595740  15.8643240
  81.2579940  65.2797630  16.5725690  77.7788220  60.7480940  17.2245490
  77.1716170  61.4879840  17.2340790  78.2537570  60.8380300  16.3983690
  87.3521010  54.9131760  26.9002380  87.7201830  54.0926970  27.2281950
  86.4919210  54.9733650  27.3158030  90.7183040  53.8688700  17.7089940
  90.0896200  53.9734370  16.9948170  90.2234960  54.0885480  18.4983820
  85.1641180  65.5894290  15.1423920  85.2653160  65.3858280  14.2125900
  84.2642920  65.3352570  15.3471700  82.6867070  56.1474650  19.1247820
  81.9783220  56.6160990  19.5661430  82.9711550  55.4896660  19.7593010
  84.3123000  57.5671350  27.1240350  84.8108250  58.0417170  27.7892200
  84.4545950  56.6434870  27.3310380  86.7182500  52.8725310  20.5643610
  86.5950280  52.8911440  19.6153120  87.6667060  52.9204250  20.6842010
  83.8059290  68.1080610  19.8371590  84.0600790  68.0702000  18.9150960
  82.8571770  67.9813940  19.8299840  80.8902090  54.4559730  16.4998530
  81.7392620  54.8929880  16.4338720  80.5233360  54.7679990  17.3270590
  91.5189860  53.7839310  27.9668740  91.0163460  54.5244710  28.3062550
  92.3346520  54.1723310  27.6505530  89.8111870  59.0272490  21.4130100
  88.8702010  59.0422720  21.5877790  90.1255940  58.2408450  21.8590400
  79.7893510  60.7092090  14.9734060  80.5556780  60.5973450  15.5359490
  79.8668200  60.0130060  14.3210830  78.4840270  58.1417160  15.6566950
  78.5643860  57.1944670  15.7684350  79.3760020  58.4724040  15.7627610
  79.2854980  68.2912550  22.7601490  80.0217460  67.7428010  23.0310060
  79.6695900  69.1568560  22.6207480  76.1700460  64.3586120  18.6343000
  75.2440240  64.6007260  18.6248410  76.6356890  65.1860380  18.5127750
  78.2913260  67.4758620  31.9487070  79.0925990  67.7970670  32.3622470
  77.7765080  67.1154200  32.6706980  82.3957290  67.4642860  14.5827060
  83.1885900  67.7531690  14.1308850  81.8761640  67.0335030  13.9039540
  87.1277890  63.5838490  31.8962480  86.5216050  63.6070090  31.1558230
  86.8232000  62.8521530  32.4329730  88.5578260  67.3118780  30.5071890
  89.5100010  67.2276800  30.4572130  88.4106480  67.9760490  31.1805680
  91.4487460  66.6912990  16.0063800  91.1628970  66.2778130  15.1917980
  91.2507010  67.6200700  15.8864320  76.0111070  59.9632080  30.8923120
  76.5150090  59.3839360  31.4639350  75.2718490  60.2472310  31.4299490
  82.9134690  62.6846270  14.4469410  82.8085330  62.0698620  15.1730790
  82.7458910  62.1612160  13.6632420  83.0649010  61.3703070  30.4258640
  82.2994680  61.9388070  30.3413310  83.2464970  61.0779280  29.5326870
  86.1537420  61.7466300  15.0511400  85.6047520  62.1935600  15.6954140
  86.7756680  61.2415550  15.5749070  90.2072360  63.1008400  30.9833660
  90.9481830  63.4384160  30.4801120  89.4445040  63.2700460  30.4303430
  78.0434150  58.1061670  31.7873190  78.0839490  57.8075540  32.6958420
  78.8979650  58.5069280  31.6280710  81.8212540  60.7057220  16.9476700
  82.2428960  60.5397090  17.7908090  81.9463380  59.8957450  16.4531840
  79.9839960  56.6853770  29.7547680  79.4536420  56.1944720  29.1271020
  80.6528030  57.1137970  29.2205610  84.3340180  59.7294830  14.1953800
  84.8545840  59.0143850  13.8294950  84.9808580  60.3680700  14.4954310
  88.8818020  61.1523230  29.5188870  89.2959040  61.3068310  30.3679290
  87.9469020  61.2778450  29.6814650  89.3540190  58.4919390  31.5228020
  89.9360960  57.7371710  31.4348500  89.5301960  59.0226830  30.7459500
  80.4712260  53.6516140  29.8344970  80.3769130  53.0336890  29.1095840
  79.8909650  54.3782430  29.6074880  83.2373700  52.2089380  26.8672360
  82.7891000  52.2313640  26.0217910  82.6038900  51.8108400  27.4642660
  83.6433250  61.1043710  27.4884800  84.0621360  61.9476440  27.3161040
  82.7241880  61.2415750  27.2591580  85.9797150  58.8359890  28.8722640
  86.0993360  58.2401030  29.6117480  86.8391150  58.8729580  28.4523940
  88.3185050  59.3897080  27.4485150  87.7920270  59.9139700  26.8450290
  88.6616390  60.0224470  28.0794880  80.7171440  56.7790450  13.8934860
  80.5160500  55.9157810  14.2548200  80.5463490  56.6923810  12.9556460
  81.4940670  67.4096720  28.6042530  80.9561760  68.1342780  28.2851230
  81.7474630  66.9327060  27.8139870  82.7465920  55.3781240  30.1298460
  83.3365610  55.0697090  30.8176280  81.9286160  54.9060990  30.2858360
  87.5659350  54.9947050  30.3631480  86.8774870  54.3328590  30.2981470
  88.2865370  54.5485320  30.8079940  88.1959750  51.5898680  16.4221740
  88.4762040  50.7466580  16.7781160  87.4225480  51.8221790  16.9360490
  79.5154240  53.8791070  13.8812740  79.8180140  53.8858500  12.9731890
  80.2548830  53.5288930  14.3780400  84.3502880  68.6447930  28.8629180
  84.2761580  69.5483070  29.1701550  83.4481720  68.3259830  28.8351250
  82.7339170  52.8225690  14.8668940  82.3861170  52.1449680  14.2871390
  82.9351940  52.3615200  15.6812330  84.8988210  67.8106440  16.4855540
  85.7939000  68.1491410  16.5074300  84.9305840  67.0885850  15.8579820
  78.5384370  63.1833490  14.7142540  78.9759240  63.7263160  15.3700120
  79.0232100  62.3580440  14.7238880  75.7530170  65.9722520  22.1662800
  76.0833180  65.1043580  21.9341440  76.1821170  66.1781040  22.9967760
  80.3492090  64.3031530  19.8264770  80.0487630  64.1796500  20.7268680
  80.2429580  63.4440120  19.4180500  76.2420380  66.8393110  24.9044430
  75.8051370  67.0193910  25.7368580  76.8098060  67.5967730  24.7626150
  91.8782560  66.3410110  29.1921740  91.2784550  66.4002670  28.4485660
  92.0076460  65.4015090  29.3218590  76.0744810  59.3513340  21.2633310
  75.4193650  59.0824980  20.6193010  76.9122760  59.2417820  20.8135290
  90.5634200  63.0662090  27.2897900  89.7494040  63.4959250  27.5523690
  90.9708400  63.6780500  26.6766950  89.0235250  54.1454630  15.4851800
  89.4420130  53.9585610  14.6448460  88.7171310  53.2933680  15.7954730
  77.1120740  59.7365910  25.8036650  77.4793780  59.6493310  26.6832670
  76.5431560  58.9732460  25.7043510  91.9124600  58.2050290  28.8167120
  91.6810690  57.9763040  27.9165070  92.1729150  59.1249840  28.7712010
  76.6636740  56.6475000  29.7095070  75.7692790  56.6141760  30.0488780
  77.2034290  56.8461790  30.4746320  90.3512670  53.4306720  31.5946820
  91.2282850  53.4390120  31.9780820  90.3633510  52.6937560  30.9839170
  75.2882890  56.5612270  17.2058640  74.3846970  56.8242470  17.0310300
  75.7723510  56.8323440  16.4258600  91.7975940  57.2836260  22.4834840
  92.3213420  56.7898910  21.8525010  92.3835360  57.4186620  23.2282410
  91.9765660  57.3676130  26.0054390  91.0268370  57.3339670  26.1199380
  92.1578670  58.2776240  25.7704160  77.8310100  55.6177810  15.1153020
  78.5401800  55.1961030  14.6300300  77.1150040  55.6853040  14.4836370
  77.4784260  51.6717140  14.1555670  78.2012390  52.2126080  14.4736890
  77.7508780  51.3980560  13.2797210  91.2875910  56.5409610  18.4227250
  91.7835030  56.3080480  19.2076130  91.0891980  55.7021450  18.0064890
  77.1676450  50.9223330  24.0578290  77.8152640  50.3720710  23.6173450
  77.5878290  51.1766480  24.8794100  91.0628790  51.1164690  27.4147930
  91.7001010  51.7298830  27.7807120  91.2103680  51.1525350  26.4697160
  90.6210250  67.8180690  20.8166170  91.2169320  67.4965260  20.1400590
  90.8788400  67.3452510  21.6079440  76.9208450  51.0779000  26.8003610
  76.5723270  51.5342820  27.5661790  76.5896150  50.1836130  26.8826040
  78.5272820  64.2498600  30.9656800  78.4842450  63.8791510  31.8471260
  78.6583830  65.1876170  31.1058620  82.2278850  65.8058190  26.5666520
  81.9870210  66.0732750  25.6797040  83.1681490  65.9763920  26.6217380
  84.4333270  52.2690880  30.3223030  84.3722160  52.8612710  31.0718440
  85.3733650  52.1616840  30.1773290  87.0707830  51.9260940  29.9615320
  87.6848240  52.2440230  29.2996400  87.6157390  51.4409530  30.5811180
  77.5929090  50.6055200  30.0754380  78.1412080  50.4243250  29.3120490
  77.6584400  49.8149310  30.6110690  78.3660850  67.1960850  28.0854580
  77.7721170  67.0645550  28.8244620  78.3584690  66.3598990  27.6196680
  87.8115870  50.4893080  26.2884610  86.9375710  50.8228190  26.0857540
  87.7026620  50.0166260  27.1136480  88.7187850  52.6963950  27.6726330
  88.3901210  51.8815710  27.2928060  89.6670150  52.6533760  27.5492020
  91.1722460  68.4675990  24.6463900  90.7125430  69.2191800  24.2721920
  90.5434920  67.7482460  24.5878700  77.9973080  64.5619230  27.0362620
  77.2707140  63.9424520  26.9688570  78.0582230  64.9559840  26.1660700
  81.6018180  66.7764230  23.8212030  82.1183200  66.1651590  23.2960290
  82.2515560  67.2793010  24.3123040  84.3413680  67.6672720  24.6481010
  84.6291490  67.4127020  23.7714020  84.8536900  67.1150080  25.2386580
  85.5590690  51.4062920  25.2277520  84.7762480  51.8808420  25.5074280
  85.2653620  50.5017750  25.1190700  90.1111760  52.1086020  23.2726610
  90.5519850  52.0531120  22.4248210  89.8419350  53.0244030  23.3436790
  76.2803080  67.8793620  20.2459380  76.1125120  67.2464300  20.9441270
  75.4137590  68.0853020  19.8953570  76.9031100  51.7110400  17.7491240
  77.6610460  51.8239280  17.1755270  76.4408270  52.5479600  17.7034670
  83.4444910  53.8249670  20.7393550  82.6319420  53.4506560  20.3989430
  83.9486550  53.0694750  21.0414740  87.9469890  50.4892120  21.9776620
  88.5499260  51.0612330  22.4525140  87.2062880  51.0531560  21.7550520
  91.0904490  50.8913680  17.2516900  91.2855120  51.7897130  17.5184330
  90.3034360  50.6600760  17.7449850  77.8865780  66.5726850  17.6909520
  77.3613400  66.9534880  16.9871480  77.8110360  67.1977620  18.4119230
  79.2756250  52.2374450  16.2893210  79.8049010  51.4504250  16.1601160
  79.9084570  52.9165640  16.5228740  81.4694090  51.9749590  19.3438600
  80.8396830  51.2736900  19.5108730  80.9299230  52.7353720  19.1271760
  84.4086040  68.5888820  32.0149210  85.3353350  68.3533090  32.0585170
  84.3936470  69.4160820  31.5335240  81.5949650  51.2533570  31.7791090
  81.3133920  51.7567170  31.0151910  81.9769350  50.4555320  31.4133220
  80.4858750  68.5209230  16.5658770  81.2177570  68.2368510  16.0182660
  80.7452420  68.2822510  17.4558150  79.6473540  64.6373960  16.5705100
  79.0182420  65.1059060  17.1190930  79.7621370  63.7923180  17.0051290
  88.1965110  50.6687150  32.3571560  88.0830560  50.9881760  33.2523080
  89.0134850  51.0699660  32.0608840  90.9763600  67.8158680  31.8390250
  91.7688920  67.3207910  31.6316210  91.2696750  68.4948820  32.4465860
  87.1023260  58.6879620   2.7206300  87.0217310  57.7734230   2.4498010
  86.6887680  59.1846690   2.0146010  85.2341300  60.4658640   4.6015570
  84.4583400  59.9859080   4.8914140  85.8854230  59.7864290   4.4271730
  79.2507130  60.7778450   5.4791330  78.4192010  60.5227160   5.8787840
  79.8588110  60.8489220   6.2149250  89.2548730  64.8718830   3.3814700
  88.7930260  64.1006070   3.7101870  90.0674280  64.8984900   3.8867150
  79.2308390  64.8118540   5.6749350  79.5336430  63.9216280   5.4959570
  79.9751980  65.3688760   5.4471600  75.6232090  58.3385990   5.1473420
  76.1948200  57.5708190   5.1477060  75.6233630  58.6374750   4.2380030
  85.4812040  67.1576840   3.0018690  84.8623480  67.6134340   2.4313130
  86.3363820  67.3128300   2.6008390  84.6750290  63.1415830   4.6085730
  84.6058570  62.2005770   4.4474860  85.4370150  63.2317240   5.1808300
  76.8656960  53.7470350   6.9342350  76.6859800  52.8496100   7.2145110
  76.4637040  54.2942220   7.6089300  85.7055460  55.9486210   4.8354660
  86.0820280  55.0758090   4.7228330  85.6074970  56.2844910   3.9445100
  89.4879580  53.4436650   1.7683000  90.3089200  52.9533220   1.8108480
  89.5213660  54.0334310   2.5214840  77.4843630  56.2430850   5.5424690
  78.1653740  56.5069220   6.1612090  77.1691680  55.4031720   5.8762700
  81.6768200  57.2898210   4.6297280  82.1846420  57.7879180   5.2702300
  82.2081440  56.5133410   4.4536640  79.9604300  51.9296770   8.8960700
  79.9622740  52.4469160   8.0906600  79.1308610  51.4526950   8.8730630
  81.2107150  61.5691950   7.0734200  80.8776530  62.1960870   7.7155270
  81.3873830  62.0953830   6.2935870  89.7241060  55.3837030   4.5410540
  89.0196630  55.6721920   5.1213650  90.0853220  56.1937140   4.1810100
  79.6419630  53.6406730   6.9031150  79.9836440  54.4848780   6.6085020
  78.7035440  53.7890470   7.0196490  80.4226250  63.5372750   8.8883380
  81.0400250  64.2123830   8.6067830  79.5619370  63.9460730   8.7970880
  91.3403840  65.0012160   6.8038020  90.6567360  65.6711270   6.7954690
  91.8798130  65.1992810   6.0382880  83.3247520  51.1289000   3.2275740
  83.6322500  50.5735890   2.5111240  82.3948220  51.2633460   3.0448730
  88.8762580  66.8456290   5.5183200  88.8889740  66.4418580   4.6505460
  88.3237800  67.6203580   5.4144630  88.2748020  61.7486130   6.8465810
  88.6916810  61.5346240   6.0119270  88.9987840  62.0058920   7.4174430
  89.1852130  56.9342670   7.8836920  88.7723310  57.7596380   8.1376910
  88.4528080  56.3487710   7.6913280  81.3184920  59.7202570   2.7455590
  80.9141920  59.0079820   2.2501490  81.4048040  59.3755810   3.6343630
  81.7866620  63.4070130   4.9094800  81.4894910  62.8015600   4.2302580
  82.7366440  63.4447440   4.7984160  80.0313540  56.4945780   6.5254630
  80.5828130  56.6041120   5.7507880  80.5457050  56.8683380   7.2409860
  89.8752230  66.9802000   8.5717900  89.3982790  67.7874190   8.3790510
  89.1914020  66.3280330   8.7244110  80.8785050  63.1451820  11.5602600
  79.9813580  63.3691790  11.8076000  80.9037920  63.2686760  10.6114000
  79.7056270  60.0165140  10.1359970  79.5664040  60.8887940  10.5047370
  78.8237630  59.6737950   9.9907910  81.5036620  65.9586840  12.3445120
  81.4752050  66.3629790  11.4773550  81.3401590  65.0297200  12.1816720
  75.6574920  61.7862690   6.0530880  75.7355340  61.9211460   5.1086600
  76.2716600  61.0778580   6.2459000  76.9022550  63.4862880   2.4637060
  76.4950630  63.6277470   1.6090660  77.7935560  63.2023040   2.2608270
  86.7201430  67.6354790   9.3704110  87.2346100  67.5462800  10.1726540
  85.8770510  67.9814490   9.6632020  75.7134440  62.8276860   8.5925340
  75.8765480  62.3582220   7.7744710  76.1786890  62.3200420   9.2574180
  80.4853210  51.9582620   3.6285910  80.0421360  52.7392160   3.2970430
  81.0438200  52.2812510   4.3356850  84.7723020  54.8251140   9.2321230
  84.3102390  55.0334160  10.0441170  84.3701130  54.0110490   8.9291900
  89.7727530  56.0460090  10.3617890  88.9221120  55.7465840  10.6826960
  89.6129320  56.2902100   9.4501710  86.8677240  57.5461840  12.4616680
  87.1930650  56.7125590  12.1218910  87.6557570  58.0690360  12.6095010
  82.5229110  52.5029950   5.4875510  82.8201440  53.4092780   5.4067530
  83.0714670  52.0148730   4.8735080  82.7166640  57.9801770  12.0227430
  82.6210240  57.0396500  11.8727830  83.5598620  58.2016840  11.6275500
  77.8477180  54.3915440  10.1761210  77.4540570  55.2390650  10.3833990
  77.1595580  53.7541810  10.3669850  84.4222230  54.4750410  13.2457950
  83.7320550  54.2822610  13.8804040  85.1654530  54.7585050  13.7782250
  75.1494230  52.3143900   4.2091290  74.8607280  52.8846760   4.9216270
  75.8939990  51.8348350   4.5722520  86.6985200  58.3148850   6.0811870
  85.9666320  58.8235660   6.4301970  86.3009540  57.4978830   5.7800650
  83.1362590  54.9903050   4.4864360  83.1398650  54.5493000   3.6368900
  84.0313710  55.3120380   4.5936180  78.9864970  54.8729540   3.4458570
  78.6465020  55.3504770   4.2025620  78.2242290  54.4194660   3.0859670
  87.1611110  53.7682530   5.4934810  87.1783850  54.2191180   6.3376660
  86.9126690  52.8688170   5.7068250  90.5881860  51.1814710  11.3321190
  90.9127630  50.4504370  11.8579170  90.6238370  50.8628350  10.4302180
  77.2873420  62.2028290  10.7521150  76.9028210  61.5621960  11.3504110
  77.5985610  62.9064410  11.3215880  83.4370560  59.0504830   6.2329770
  83.8040690  58.5763400   6.9791110  83.2475620  59.9246400   6.5738110
  76.3011050  53.7948520   2.3623240  76.0157970  53.4304190   3.2001860
  76.2389910  53.0628980   1.7486380  81.2269930  58.0913470   8.5513980
  80.9227000  58.9705450   8.7764340  82.1816390  58.1513260   8.5871420
  90.5139700  61.2939820   4.9407220  91.2338820  61.7895110   4.5503330
  90.3121520  60.6157710   4.2961090  85.8958500  61.3648880  10.8276220
  85.8295810  60.4444550  10.5733810  85.2663640  61.4624320  11.5420860
  79.7989120  61.9654840   2.7859640  80.3167790  61.1623100   2.7316530
  79.3473140  61.9033980   3.6276470  77.2833660  58.9316210   9.6985340
  76.9248600  59.5970060  10.2858680  76.9888220  58.0999760  10.0697960
  80.4846780  59.3900450  12.5824890  80.1846920  59.5357630  11.6852710
  81.2558020  58.8305740  12.4898280  85.8275230  64.1869450  10.5780020
  85.8419770  63.2550410  10.3598930  85.1200330  64.2729210  11.2169790
  87.5686030  62.5536960   3.4232450  87.9209850  61.9565090   2.7633820
  86.6848360  62.2281190   3.5940700  85.2609130  65.8287020   7.6720520
  85.9051350  66.0346400   8.3493940  85.6238570  65.0675420   7.2191370
  86.5341210  63.8319370   6.3897970  87.1763440  63.1312530   6.5030140
  87.0590560  64.6117810   6.2094860  88.3078830  64.6314270   9.5934030
  88.6435070  65.2180960  10.2711950  87.3879170  64.5006980   9.8231820
  75.8582230  52.4209450  10.3757440  75.1440750  52.6206370  10.9810050
  76.2777270  51.6449020  10.7472240  76.1454820  66.4089710  11.3623970
  76.2545940  65.4684450  11.2219360  75.4935380  66.6744460  10.7137700
  84.1367410  64.6805600  12.7622090  83.8164280  63.9614840  13.3067780
  83.4625770  65.3560670  12.8358150  87.3521010  54.9131760   8.1258890
  87.7201830  54.0926970   8.4538460  86.4919210  54.9733650   8.5414540
  84.3123000  57.5671350   8.3496860  84.8108250  58.0417170   9.0148710
  84.4545950  56.6434870   8.5566890  91.5189860  53.7839310   9.1925250
  91.0163460  54.5244710   9.5319060  92.3346520  54.1723310   8.8762040
  89.8111870  59.0272490   2.6386610  88.8702010  59.0422720   2.8134300
  90.1255940  58.2408450   3.0846910  79.2854980  68.2912550   3.9858000
  80.0217460  67.7428010   4.2566570  79.6695900  69.1568560   3.8463990
  78.2913260  67.4758620  13.1743580  79.0925990  67.7970670  13.5878980
  77.7765080  67.1154200  13.8963490  87.1277890  63.5838490  13.1218990
  86.5216050  63.6070090  12.3814740  86.8232000  62.8521530  13.6586240
  88.5578260  67.3118780  11.7328400  89.5100010  67.2276800  11.6828640
  88.4106480  67.9760490  12.4062190  76.0111070  59.9632080  12.1179630
  76.5150090  59.3839360  12.6895860  75.2718490  60.2472310  12.6556000
  83.0649010  61.3703070  11.6515150  82.2994680  61.9388070  11.5669820
  83.2464970  61.0779280  10.7583380  90.2072360  63.1008400  12.2090170
  90.9481830  63.4384160  11.7057630  89.4445040  63.2700460  11.6559940
  78.0434150  58.1061670  13.0129700  78.0839490  57.8075540  13.9214930
  78.8979650  58.5069280  12.8537220  79.9839960  56.6853770  10.9804190
  79.4536420  56.1944720  10.3527530  80.6528030  57.1137970  10.4462120
  88.8818020  61.1523230  10.7445380  89.2959040  61.3068310  11.5935800
  87.9469020  61.2778450  10.9071160  89.3540190  58.4919390  12.7484530
  89.9360960  57.7371710  12.6605010  89.5301960  59.0226830  11.9716010
  80.4712260  53.6516140  11.0601480  80.3769130  53.0336890  10.3352350
  79.8909650  54.3782430  10.8331390  83.2373700  52.2089380   8.0928870
  82.7891000  52.2313640   7.2474420  82.6038900  51.8108400   8.6899170
  83.6433250  61.1043710   8.7141310  84.0621360  61.9476440   8.5417550
  82.7241880  61.2415750   8.4848090  85.9797150  58.8359890  10.0979150
  86.0993360  58.2401030  10.8373990  86.8391150  58.8729580   9.6780450
  88.3185050  59.3897080   8.6741660  87.7920270  59.9139700   8.0706800
  88.6616390  60.0224470   9.3051390  81.4940670  67.4096720   9.8299040
  80.9561760  68.1342780   9.5107740  81.7474630  66.9327060   9.0396380
  82.7465920  55.3781240  11.3554970  83.3365610  55.0697090  12.0432790
  81.9286160  54.9060990  11.5114870  87.5659350  54.9947050  11.5887990
  86.8774870  54.3328590  11.5237980  88.2865370  54.5485320  12.0336450
  84.3502880  68.6447930  10.0885690  84.2761580  69.5483070  10.3958060
  83.4481720  68.3259830  10.0607760  75.7530170  65.9722520   3.3919310
  76.0833180  65.1043580   3.1597950  76.1821170  66.1781040   4.2224270
  76.2420380  66.8393110   6.1300940  75.8051370  67.0193910   6.9625090
  76.8098060  67.5967730   5.9882660  91.8782560  66.3410110  10.4178250
  91.2784550  66.4002670   9.6742170  92.0076460  65.4015090  10.5475100
  76.0744810  59.3513340   2.4889820  75.4193650  59.0824980   1.8449520
  76.9122760  59.2417820   2.0391800  90.5634200  63.0662090   8.5154410
  89.7494040  63.4959250   8.7780200  90.9708400  63.6780500   7.9023460
  77.1120740  59.7365910   7.0293160  77.4793780  59.6493310   7.9089180
  76.5431560  58.9732460   6.9300020  91.9124600  58.2050290  10.0423630
  91.6810690  57.9763040   9.1421580  92.1729150  59.1249840   9.9968520
  76.6636740  56.6475000  10.9351580  75.7692790  56.6141760  11.2745290
  77.2034290  56.8461790  11.7002830  90.3512670  53.4306720  12.8203330
  91.2282850  53.4390120  13.2037330  90.3633510  52.6937560  12.2095680
  91.7975940  57.2836260   3.7091350  92.3213420  56.7898910   3.0781520
  92.3835360  57.4186620   4.4538920  91.9765660  57.3676130   7.2310900
  91.0268370  57.3339670   7.3455890  92.1578670  58.2776240   6.9960670
  77.1676450  50.9223330   5.2834800  77.8152640  50.3720710   4.8429960
  77.5878290  51.1766480   6.1050610  91.0628790  51.1164690   8.6404440
  91.7001010  51.7298830   9.0063630  91.2103680  51.1525350   7.6953670
  76.9208450  51.0779000   8.0260120  76.5723270  51.5342820   8.7918300
  76.5896150  50.1836130   8.1082550  78.5272820  64.2498600  12.1913310
  78.4842450  63.8791510  13.0727770  78.6583830  65.1876170  12.3315130
  82.2278850  65.8058190   7.7923030  81.9870210  66.0732750   6.9053550
  83.1681490  65.9763920   7.8473890  84.4333270  52.2690880  11.5479540
  84.3722160  52.8612710  12.2974950  85.3733650  52.1616840  11.4029800
  87.0707830  51.9260940  11.1871830  87.6848240  52.2440230  10.5252910
  87.6157390  51.4409530  11.8067690  77.5929090  50.6055200  11.3010890
  78.1412080  50.4243250  10.5377000  77.6584400  49.8149310  11.8367200
  78.3660850  67.1960850   9.3111090  77.7721170  67.0645550  10.0501130
  78.3584690  66.3598990   8.8453190  87.8115870  50.4893080   7.5141120
  86.9375710  50.8228190   7.3114050  87.7026620  50.0166260   8.3392990
  88.7187850  52.6963950   8.8982840  88.3901210  51.8815710   8.5184570
  89.6670150  52.6533760   8.7748530  91.1722460  68.4675990   5.8720410
  90.7125430  69.2191800   5.4978430  90.5434920  67.7482460   5.8135210
  77.9973080  64.5619230   8.2619130  77.2707140  63.9424520   8.1945080
  78.0582230  64.9559840   7.3917210  81.6018180  66.7764230   5.0468540
  82.1183200  66.1651590   4.5216800  82.2515560  67.2793010   5.5379550
  84.3413680  67.6672720   5.8737520  84.6291490  67.4127020   4.9970530
  84.8536900  67.1150080   6.4643090  85.5590690  51.4062920   6.4534030
  84.7762480  51.8808420   6.7330790  85.2653620  50.5017750   6.3447210
  90.1111760  52.1086020   4.4983120  90.5519850  52.0531120   3.6504720
  89.8419350  53.0244030   4.5693300  83.4444910  53.8249670   1.9650060
  82.6319420  53.4506560   1.6245940  83.9486550  53.0694750   2.2671250
  87.9469890  50.4892120   3.2033130  88.5499260  51.0612330   3.6781650
  87.2062880  51.0531560   2.9807030  84.4086040  68.5888820  13.2405720
  85.3353350  68.3533090  13.2841680  84.3936470  69.4160820  12.7591750
  81.5949650  51.2533570  13.0047600  81.3133920  51.7567170  12.2408420
  81.9769350  50.4555320  12.6389730  88.1965110  50.6687150  13.5828070
  88.0830560  50.9881760  14.4779590  89.0134850  51.0699660  13.2865350
  90.9763600  67.8158680  13.0646760  91.7688920  67.3207910  12.8572720
  91.2696750  68.4948820  13.6722370  87.1023260  39.9136130  77.8180260
  87.0217310  38.9990740  77.5471970  86.6887680  40.4103200  77.1119970
  85.2341300  41.6915150  79.6989530  84.4583400  41.2115590  79.9888100
  85.8854230  41.0120800  79.5245690  79.2507130  42.0034960  80.5765290
  78.4192010  41.7483670  80.9761800  79.8588110  42.0745730  81.3123210
  89.2548730  46.0975340  78.4788660  88.7930260  45.3262580  78.8075830
  90.0674280  46.1241410  78.9841110  79.2308390  46.0375050  80.7723310
  79.5336430  45.1472790  80.5933530  79.9751980  46.5945270  80.5445560
  77.6599080  36.9636850  74.3607680  76.7715780  37.3052820  74.2587560
  77.9440270  36.7637170  73.4688510  75.6232090  39.5642500  80.2447380
  76.1948200  38.7964700  80.2451020  75.6233630  39.8631260  79.3353990
  85.4812040  48.3833350  78.0992650  84.8623480  48.8390850  77.5287090
  86.3363820  48.5384810  77.6982350  84.6750290  44.3672340  79.7059690
  84.6058570  43.4262280  79.5448820  85.4370150  44.4573750  80.2782260
  85.7055460  37.1742720  79.9328620  86.0820280  36.3014600  79.8202290
  85.6074970  37.5101420  79.0419060  79.8360470  35.5468350  75.3946060
  79.9427220  36.4472080  75.7014820  78.9252830  35.4986320  75.1040710
  89.4879580  34.6693160  76.8656960  90.3089200  34.1789730  76.9082440
  89.5213660  35.2590820  77.6188800  77.4843630  37.4687360  80.6398650
  78.1653740  37.7325730  81.2586050  77.1691680  36.6288230  80.9736660
  81.6768200  38.5154720  79.7271240  82.1846420  39.0135690  80.3676260
  82.2081440  37.7389920  79.5510600  86.3475390  43.2672590  75.4924560
  85.7292660  43.7322040  74.9287280  86.8598640  43.9600070  75.9094070
  89.7241060  36.6093540  79.6384500  89.0196630  36.8978430  80.2187610
  90.0853220  37.4193650  79.2784060  79.6419630  34.8663240  82.0005110
  79.9836440  35.7105290  81.7058980  78.7035440  35.0146980  82.1170450
  75.7158590  43.9529120  72.8664190  75.3386570  44.4416220  72.1349090
  75.9731660  44.6254400  73.4970720  91.3403840  46.2268670  81.9011980
  90.6567360  46.8967780  81.8928650  91.8798130  46.4249320  81.1356840
  83.3247520  32.3545510  78.3249700  83.6322500  31.7992400  77.6085200
  82.3948220  32.4889970  78.1422690  88.8762580  48.0712800  80.6157160
  88.8889740  47.6675090  79.7479420  88.3237800  48.8460090  80.5118590
  90.1708000  44.7929020  75.7047330  90.0604330  43.8503350  75.8296750
  90.1676250  45.1544660  76.5910090  85.7128280  40.4194340  75.0609820
  84.7857560  40.3531720  75.2898290  85.8653100  41.3574470  74.9465060
  85.6997360  36.6911340  72.0576980  84.7601030  36.8525300  72.1429440
  86.0180620  37.4097020  71.5112970  89.7425570  41.9814640  75.5645070
  89.1237990  41.6434190  74.9171370  89.7250020  41.3374400  76.2724260
  81.3184920  40.9459080  77.8429550  80.9141920  40.2336330  77.3475450
  81.4048040  40.6012320  78.7317590  81.7866620  44.6326640  80.0068760
  81.4894910  44.0272110  79.3276540  82.7366440  44.6703950  79.8958120
  87.9190270  41.2201450  72.5717820  88.3583550  40.3823880  72.4255640
  88.6318690  41.8530850  72.6581960  86.0285650  46.1597520  76.5399060
  86.4681560  46.9021850  76.1254450  85.9672540  46.4024090  77.4638020
  91.5007410  32.4744260  70.8858860  91.1880070  32.5671090  71.7857930
  92.2619880  33.0525290  70.8356290  78.0189550  39.8404060  75.3436200
  77.8987150  40.5666150  74.7317470  77.7090440  39.0706970  74.8664110
  75.6574920  43.0119200  81.1504840  75.7355340  43.1467970  80.2060560
  76.2716600  42.3035090  81.3432960  76.9022550  44.7119390  77.5611020
  76.4950630  44.8533980  76.7064620  77.7935560  44.4279550  77.3582230
  88.6955830  49.1466640  73.8962070  88.5356970  48.8569580  74.7943900
  88.5302540  48.3706770  73.3607300  81.1744210  48.9265170  75.6733690
  80.9986690  48.0100710  75.4601490  80.3199950  49.2852460  75.9131490
  88.3981960  46.6554200  72.4560070  87.7047120  46.6531490  71.7962350
  89.1404820  46.2313520  72.0254240  87.9631890  48.2816910  76.5308560
  88.4188840  47.5006290  76.8447180  88.3024410  48.9923730  77.0749740
  80.4853210  33.1839130  78.7259870  80.0421360  33.9648670  78.3944390
  81.0438200  33.5069020  79.4330810  83.6012030  32.8049830  73.6065700
  82.9766210  32.8009700  74.3319010  83.5142150  31.9380790  73.2101670
  82.5229110  33.7286460  80.5849470  82.8201440  34.6349290  80.5041490
  83.0714670  33.2405240  79.9709040  80.2767430  38.3072700  76.4541120
  80.0508350  38.0909870  77.3587740  79.4959960  38.7401160  76.1087090
  87.5065190  38.3136070  75.0531770  86.9074080  39.0371870  74.8695390
  88.0544800  38.2512850  74.2708220  86.1130060  36.9499610  77.0835050
  86.5059630  37.2671810  76.2703740  86.4746910  36.0711490  77.1979570
  75.1494230  33.5400410  79.3065250  74.8607280  34.1103270  80.0190230
  75.8939990  33.0604860  79.6696480  75.3364460  37.4820530  70.5167970
  75.2539130  38.4251290  70.6582960  74.9847520  37.3395440  69.6380320
  86.6985200  39.5405360  81.1785830  85.9666320  40.0492170  81.5275930
  86.3009540  38.7235340  80.8774610  83.1362590  36.2159560  79.5838320
  83.1398650  35.7749510  78.7342860  84.0313710  36.5376890  79.6910140
  78.9864970  36.0986050  78.5432530  78.6465020  36.5761280  79.2999580
  78.2242290  35.6451170  78.1833630  83.1982740  37.2171640  72.5745080
  83.3195560  37.1758120  73.5230900  82.8131250  38.0795790  72.4191810
  87.1611110  34.9939040  80.5908770  87.1783850  35.4447690  81.4350620
  86.9126690  34.0944680  80.8042210  82.2104240  39.5272780  71.9728380
  81.6421140  39.0791030  71.3464290  82.9193240  39.8865560  71.4393530
  83.4370560  40.2761340  81.3303730  83.8040690  39.8019910  82.0765070
  83.2475620  41.1502910  81.6712070  76.3011050  35.0205030  77.4597200
  76.0157970  34.6560700  78.2975820  76.2389910  34.2885490  76.8460340
  79.7551720  43.5230970  74.2454790  78.9813980  42.9828590  74.0853510
  80.4846350  43.0037580  73.9072550  90.5139700  42.5196330  80.0381180
  91.2338820  43.0151620  79.6477290  90.3121520  41.8414220  79.3935050
  85.9749640  33.9134290  74.1810570  85.1614250  33.4147460  74.1055880
  85.7811590  34.7532540  73.7646920  88.6898030  38.2853940  72.4772730
  89.5777650  38.5971170  72.3024070  88.6603120  37.4126190  72.0853310
  79.7989120  43.1911350  77.8833600  80.3167790  42.3879610  77.8290490
  79.3473140  43.1290490  78.7250430  84.6858620  44.4577630  73.1560900
  85.0274320  45.2019860  72.6604220  83.8571330  44.7708750  73.5185730
  90.9612300  39.5965780  71.9452590  90.8776020  40.0280000  71.0949030
  91.6806490  40.0564130  72.3779410  91.9899550  46.4508040  74.6734720
  91.3475710  45.7963660  74.9478440  91.6030210  46.8563130  73.8975390
  87.5686030  43.7793470  78.5206410  87.9209850  43.1821600  77.8607780
  86.6848360  43.4537700  78.6914660  83.6549310  44.5391160  75.9276820
  84.3420440  45.0860370  76.3084410  82.8681730  45.0831890  75.9626430
  75.7941710  40.1563980  71.4193900  76.6636560  40.4388780  71.7029820
  75.3032030  40.9699850  71.3042710  82.9576520  41.5437190  75.5402180
  83.4139300  42.3542440  75.7662370  82.6064730  41.2260330  76.3720670
  78.8588300  31.8874840  76.0124700  78.7302930  31.8792740  76.9609620
  78.0350320  32.2257930  75.6615710  86.5341210  45.0575880  81.4871930
  87.1763440  44.3569040  81.6004100  87.0590560  45.8374320  81.3068820
  90.3796930  45.3424500  71.2111070  90.1534510  44.6254940  71.8035710
  89.9893130  45.0936940  70.3732820  76.1612960  49.3691360  71.9855530
  76.5210600  49.9680700  71.3312800  76.0205300  49.9151250  72.7590560
  89.9613180  43.2596440  72.8725230  89.6734880  43.7209130  73.6603110
  90.7565350  42.7994210  73.1409450  82.1781580  46.7522560  72.8029200
  82.1691680  47.4852250  72.1873710  81.2579940  46.5054140  72.8956160
  77.7788220  41.9737450  73.5475960  77.1716170  42.7136350  73.5571260
  78.2537570  42.0636810  72.7214160  90.7183040  35.0945210  74.0320410
  90.0896200  35.1990880  73.3178640  90.2234960  35.3141990  74.8214290
  85.1641180  46.8150800  71.4654390  85.2653160  46.6114790  70.5356370
  84.2642920  46.5609080  71.6702170  82.6867070  37.3731160  75.4478290
  81.9783220  37.8417500  75.8891900  82.9711550  36.7153170  76.0823480
  86.7182500  34.0981820  76.8874080  86.5950280  34.1167950  75.9383590
  87.6667060  34.1460760  77.0072480  83.8059290  49.3337120  76.1602060
  84.0600790  49.2958510  75.2381430  82.8571770  49.2070450  76.1530310
  80.8902090  35.6816240  72.8229000  81.7392620  36.1186390  72.7569190
  80.5233360  35.9936500  73.6501060  89.8111870  40.2529000  77.7360570
  88.8702010  40.2679230  77.9108260  90.1255940  39.4664960  78.1820870
  79.7893510  41.9348600  71.2964530  80.5556780  41.8229960  71.8589960
  79.8668200  41.2386570  70.6441300  78.4840270  39.3673670  71.9797420
  78.5643860  38.4201180  72.0914820  79.3760020  39.6980550  72.0858080
  79.2854980  49.5169060  79.0831960  80.0217460  48.9684520  79.3540530
  79.6695900  50.3825070  78.9437950  76.1700460  45.5842630  74.9573470
  75.2440240  45.8263770  74.9478880  76.6356890  46.4116890  74.8358220
  82.3957290  48.6899370  70.9057530  83.1885900  48.9788200  70.4539320
  81.8761640  48.2591540  70.2270010  91.4487460  47.9169500  72.3294270
  91.1628970  47.5034640  71.5148450  91.2507010  48.8457210  72.2094790
  82.9134690  43.9102780  70.7699880  82.8085330  43.2955130  71.4961260
  82.7458910  43.3868670  69.9862890  86.1537420  42.9722810  71.3741870
  85.6047520  43.4192110  72.0184610  86.7756680  42.4672060  71.8979540
  81.8212540  41.9313730  73.2707170  82.2428960  41.7653600  74.1138560
  81.9463380  41.1213960  72.7762310  84.3340180  40.9551340  70.5184270
  84.8545840  40.2400360  70.1525420  84.9808580  41.5937210  70.8184780
  80.7171440  38.0046960  70.2165330  80.5160500  37.1414320  70.5778670
  80.5463490  37.9180320  69.2786930  88.1959750  32.8155190  72.7452210
  88.4762040  31.9723090  73.1011630  87.4225480  33.0478300  73.2590960
  79.5154240  35.1047580  70.2043210  79.8180140  35.1115010  69.2962360
  80.2548830  34.7545440  70.7010870  82.7339170  34.0482200  71.1899410
  82.3861170  33.3706190  70.6101860  82.9351940  33.5871710  72.0042800
  84.8988210  49.0362950  72.8086010  85.7939000  49.3747920  72.8304770
  84.9305840  48.3142360  72.1810290  78.5384370  44.4090000  71.0373010
  78.9759240  44.9519670  71.6930590  79.0232100  43.5836950  71.0469350
  75.7530170  47.1979030  78.4893270  76.0833180  46.3300090  78.2571910
  76.1821170  47.4037550  79.3198230  80.3492090  45.5288040  76.1495240
  80.0487630  45.4053010  77.0499150  80.2429580  44.6696630  75.7410970
  76.2420380  48.0649620  81.2274900  75.8051370  48.2450420  82.0599050
  76.8098060  48.8224240  81.0856620  76.0744810  40.5769850  77.5863780
  75.4193650  40.3081490  76.9423480  76.9122760  40.4674330  77.1365760
  89.0235250  35.3711140  71.8082270  89.4420130  35.1842120  70.9678930
  88.7171310  34.5190190  72.1185200  75.2882890  37.7868780  73.5289110
  74.3846970  38.0498980  73.3540770  75.7723510  38.0579950  72.7489070
  91.7975940  38.5092770  78.8065310  92.3213420  38.0155420  78.1755480
  92.3835360  38.6443130  79.5512880  77.8310100  36.8434320  71.4383490
  78.5401800  36.4217540  70.9530770  77.1150040  36.9109550  70.8066840
  77.4784260  32.8973650  70.4786140  78.2012390  33.4382590  70.7967360
  77.7508780  32.6237070  69.6027680  91.2875910  37.7666120  74.7457720
  91.7835030  37.5336990  75.5306600  91.0891980  36.9277960  74.3295360
  77.1676450  32.1479840  80.3808760  77.8152640  31.5977220  79.9403920
  77.5878290  32.4022990  81.2024570  90.6210250  49.0437200  77.1396640
  91.2169320  48.7221770  76.4631060  90.8788400  48.5709020  77.9309910
  91.1722460  49.6932500  80.9694370  90.7125430  50.4448310  80.5952390
  90.5434920  48.9738970  80.9109170  81.6018180  48.0020740  80.1442500
  82.1183200  47.3908100  79.6190760  82.2515560  48.5049520  80.6353510
  84.3413680  48.8929230  80.9711480  84.6291490  48.6383530  80.0944490
  84.8536900  48.3406590  81.5617050  85.5590690  32.6319430  81.5507990
  84.7762480  33.1064930  81.8304750  85.2653620  31.7274260  81.4421170
  90.1111760  33.3342530  79.5957080  90.5519850  33.2787630  78.7478680
  89.8419350  34.2500540  79.6667260  76.2803080  49.1050130  76.5689850
  76.1125120  48.4720810  77.2671740  75.4137590  49.3109530  76.2184040
  76.9031100  32.9366910  74.0721710  77.6610460  33.0495790  73.4985740
  76.4408270  33.7736110  74.0265140  83.4444910  35.0506180  77.0624020
  82.6319420  34.6763070  76.7219900  83.9486550  34.2951260  77.3645210
  87.9469890  31.7148630  78.3007090  88.5499260  32.2868840  78.7755610
  87.2062880  32.2788070  78.0780990  91.0904490  32.1170190  73.5747370
  91.2855120  33.0153640  73.8414800  90.3034360  31.8857270  74.0680320
  77.8865780  47.7983360  74.0139990  77.3613400  48.1791390  73.3101950
  77.8110360  48.4234130  74.7349700  79.2756250  33.4630960  72.6123680
  79.8049010  32.6760760  72.4831630  79.9084570  34.1422150  72.8459210
  81.4694090  33.2006100  75.6669070  80.8396830  32.4993410  75.8339200
  80.9299230  33.9610230  75.4502230  80.4858750  49.7465740  72.8889240
  81.2177570  49.4625020  72.3413130  80.7452420  49.5079020  73.7788620
  79.6473540  45.8630470  72.8935570  79.0182420  46.3315570  73.4421400
  79.7621370  45.0179690  73.3281760  87.1023260  39.9136130  59.0436770
  87.0217310  38.9990740  58.7728480  86.6887680  40.4103200  58.3376480
  85.2341300  41.6915150  60.9246040  84.4583400  41.2115590  61.2144610
  85.8854230  41.0120800  60.7502200  79.2507130  42.0034960  61.8021800
  78.4192010  41.7483670  62.2018310  79.8588110  42.0745730  62.5379720
  89.2548730  46.0975340  59.7045170  88.7930260  45.3262580  60.0332340
  90.0674280  46.1241410  60.2097620  79.2308390  46.0375050  61.9979820
  79.5336430  45.1472790  61.8190040  79.9751980  46.5945270  61.7702070
  77.6599080  36.9636850  55.5864190  76.7715780  37.3052820  55.4844070
  77.9440270  36.7637170  54.6945020  75.6232090  39.5642500  61.4703890
  76.1948200  38.7964700  61.4707530  75.6233630  39.8631260  60.5610500
  85.4812040  48.3833350  59.3249160  84.8623480  48.8390850  58.7543600
  86.3363820  48.5384810  58.9238860  84.6750290  44.3672340  60.9316200
  84.6058570  43.4262280  60.7705330  85.4370150  44.4573750  61.5038770
  76.8656960  34.9726860  63.2572820  76.6859800  34.0752610  63.5375580
  76.4637040  35.5198730  63.9319770  85.7055460  37.1742720  61.1585130
  86.0820280  36.3014600  61.0458800  85.6074970  37.5101420  60.2675570
  79.8360470  35.5468350  56.6202570  79.9427220  36.4472080  56.9271330
  78.9252830  35.4986320  56.3297220  89.4879580  34.6693160  58.0913470
  90.3089200  34.1789730  58.1338950  89.5213660  35.2590820  58.8445310
  77.4843630  37.4687360  61.8655160  78.1653740  37.7325730  62.4842560
  77.1691680  36.6288230  62.1993170  81.6768200  38.5154720  60.9527750
  82.1846420  39.0135690  61.5932770  82.2081440  37.7389920  60.7767110
  79.9604300  33.1553280  65.2191170  79.9622740  33.6725670  64.4137070
  79.1308610  32.6783460  65.1961100  86.3475390  43.2672590  56.7181070
  85.7292660  43.7322040  56.1543790  86.8598640  43.9600070  57.1350580
  81.2107150  42.7948460  63.3964670  80.8776530  43.4217380  64.0385740
  81.3873830  43.3210340  62.6166340  89.7241060  36.6093540  60.8641010
  89.0196630  36.8978430  61.4444120  90.0853220  37.4193650  60.5040570
  79.6419630  34.8663240  63.2261620  79.9836440  35.7105290  62.9315490
  78.7035440  35.0146980  63.3426960  80.4226250  44.7629260  65.2113850
  81.0400250  45.4380340  64.9298300  79.5619370  45.1717240  65.1201350
  75.7158590  43.9529120  54.0920700  75.3386570  44.4416220  53.3605600
  75.9731660  44.6254400  54.7227230  91.3403840  46.2268670  63.1268490
  90.6567360  46.8967780  63.1185160  91.8798130  46.4249320  62.3613350
  83.3247520  32.3545510  59.5506210  83.6322500  31.7992400  58.8341710
  82.3948220  32.4889970  59.3679200  88.8762580  48.0712800  61.8413670
  88.8889740  47.6675090  60.9735930  88.3237800  48.8460090  61.7375100
  90.1708000  44.7929020  56.9303840  90.0604330  43.8503350  57.0553260
  90.1676250  45.1544660  57.8166600  88.2748020  42.9742640  63.1696280
  88.6916810  42.7602750  62.3349740  88.9987840  43.2315430  63.7404900
  85.7128280  40.4194340  56.2866330  84.7857560  40.3531720  56.5154800
  85.8653100  41.3574470  56.1721570  85.6997360  36.6911340  53.2833490
  84.7601030  36.8525300  53.3685950  86.0180620  37.4097020  52.7369480
  89.7425570  41.9814640  56.7901580  89.1237990  41.6434190  56.1427880
  89.7250020  41.3374400  57.4980770  89.1852130  38.1599180  64.2067390
  88.7723310  38.9852890  64.4607380  88.4528080  37.5744220  64.0143750
  81.3184920  40.9459080  59.0686060  80.9141920  40.2336330  58.5731960
  81.4048040  40.6012320  59.9574100  81.7866620  44.6326640  61.2325270
  81.4894910  44.0272110  60.5533050  82.7366440  44.6703950  61.1214630
  80.0313540  37.7202290  62.8485100  80.5828130  37.8297630  62.0738350
  80.5457050  38.0939890  63.5640330  89.8752230  48.2058510  64.8948370
  89.3982790  49.0130700  64.7020980  89.1914020  47.5536840  65.0474580
  80.8785050  44.3708330  67.8833070  79.9813580  44.5948300  68.1306470
  80.9037920  44.4943270  66.9344470  87.9190270  41.2201450  53.7974330
  88.3583550  40.3823880  53.6512150  88.6318690  41.8530850  53.8838470
  79.7056270  41.2421650  66.4590440  79.5664040  42.1144450  66.8277840
  78.8237630  40.8994460  66.3138380  86.0285650  46.1597520  57.7655570
  86.4681560  46.9021850  57.3510960  85.9672540  46.4024090  58.6894530
  81.5036620  47.1843350  68.6675590  81.4752050  47.5886300  67.8004020
  81.3401590  46.2553710  68.5047190  91.5007410  32.4744260  52.1115370
  91.1880070  32.5671090  53.0114440  92.2619880  33.0525290  52.0612800
  78.0189550  39.8404060  56.5692710  77.8987150  40.5666150  55.9573980
  77.7090440  39.0706970  56.0920620  75.6574920  43.0119200  62.3761350
  75.7355340  43.1467970  61.4317070  76.2716600  42.3035090  62.5689470
  76.9022550  44.7119390  58.7867530  76.4950630  44.8533980  57.9321130
  77.7935560  44.4279550  58.5838740  86.7201430  48.8611300  65.6934580
  87.2346100  48.7719310  66.4957010  85.8770510  49.2071000  65.9862490
  88.6955830  49.1466640  55.1218580  88.5356970  48.8569580  56.0200410
  88.5302540  48.3706770  54.5863810  81.1744210  48.9265170  56.8990200
  80.9986690  48.0100710  56.6858000  80.3199950  49.2852460  57.1388000
  88.3981960  46.6554200  53.6816580  87.7047120  46.6531490  53.0218860
  89.1404820  46.2313520  53.2510750  87.9631890  48.2816910  57.7565070
  88.4188840  47.5006290  58.0703690  88.3024410  48.9923730  58.3006250
  75.7134440  44.0533370  64.9155810  75.8765480  43.5838730  64.0975180
  76.1786890  43.5456930  65.5804650  80.4853210  33.1839130  59.9516380
  80.0421360  33.9648670  59.6200900  81.0438200  33.5069020  60.6587320
  84.7723020  36.0507650  65.5551700  84.3102390  36.2590670  66.3671640
  84.3701130  35.2367000  65.2522370  89.7727530  37.2716600  66.6848360
  88.9221120  36.9722350  67.0057430  89.6129320  37.5158610  65.7732180
  86.8677240  38.7718350  68.7847150  87.1930650  37.9382100  68.4449380
  87.6557570  39.2946870  68.9325480  83.6012030  32.8049830  54.8322210
  82.9766210  32.8009700  55.5575520  83.5142150  31.9380790  54.4358180
  82.5229110  33.7286460  61.8105980  82.8201440  34.6349290  61.7298000
  83.0714670  33.2405240  61.1965550  80.2767430  38.3072700  57.6797630
  80.0508350  38.0909870  58.5844250  79.4959960  38.7401160  57.3343600
  87.5065190  38.3136070  56.2788280  86.9074080  39.0371870  56.0951900
  88.0544800  38.2512850  55.4964730  82.7166640  39.2058280  68.3457900
  82.6210240  38.2653010  68.1958300  83.5598620  39.4273350  67.9505970
  86.1130060  36.9499610  58.3091560  86.5059630  37.2671810  57.4960250
  86.4746910  36.0711490  58.4236080  77.8477180  35.6171950  66.4991680
  77.4540570  36.4647160  66.7064460  77.1595580  34.9798320  66.6900320
  84.4222230  35.7006920  69.5688420  83.7320550  35.5079120  70.2034510
  85.1654530  35.9841560  70.1012720  75.1494230  33.5400410  60.5321760
  74.8607280  34.1103270  61.2446740  75.8939990  33.0604860  60.8952990
  75.3364460  37.4820530  51.7424480  75.2539130  38.4251290  51.8839470
  74.9847520  37.3395440  50.8636830  86.6985200  39.5405360  62.4042340
  85.9666320  40.0492170  62.7532440  86.3009540  38.7235340  62.1031120
  83.1362590  36.2159560  60.8094830  83.1398650  35.7749510  59.9599370
  84.0313710  36.5376890  60.9166650  78.9864970  36.0986050  59.7689040
  78.6465020  36.5761280  60.5256090  78.2242290  35.6451170  59.4090140
  83.1982740  37.2171640  53.8001590  83.3195560  37.1758120  54.7487410
  82.8131250  38.0795790  53.6448320  87.1611110  34.9939040  61.8165280
  87.1783850  35.4447690  62.6607130  86.9126690  34.0944680  62.0298720
  82.2104240  39.5272780  53.1984890  81.6421140  39.0791030  52.5720800
  82.9193240  39.8865560  52.6650040  90.5881860  32.4071220  67.6551660
  90.9127630  31.6760880  68.1809640  90.6238370  32.0884860  66.7532650
  77.2873420  43.4284800  67.0751620  76.9028210  42.7878470  67.6734580
  77.5985610  44.1320920  67.6446350  83.4370560  40.2761340  62.5560240
  83.8040690  39.8019910  63.3021580  83.2475620  41.1502910  62.8968580
  76.3011050  35.0205030  58.6853710  76.0157970  34.6560700  59.5232330
  76.2389910  34.2885490  58.0716850  81.2269930  39.3169980  64.8744450
  80.9227000  40.1961960  65.0994810  82.1816390  39.3769770  64.9101890
  79.7551720  43.5230970  55.4711300  78.9813980  42.9828590  55.3110020
  80.4846350  43.0037580  55.1329060  90.5139700  42.5196330  61.2637690
  91.2338820  43.0151620  60.8733800  90.3121520  41.8414220  60.6191560
  85.9749640  33.9134290  55.4067080  85.1614250  33.4147460  55.3312390
  85.7811590  34.7532540  54.9903430  85.8958500  42.5905390  67.1506690
  85.8295810  41.6701060  66.8964280  85.2663640  42.6880830  67.8651330
  88.6898030  38.2853940  53.7029240  89.5777650  38.5971170  53.5280580
  88.6603120  37.4126190  53.3109820  79.7989120  43.1911350  59.1090110
  80.3167790  42.3879610  59.0547000  79.3473140  43.1290490  59.9506940
  84.6858620  44.4577630  54.3817410  85.0274320  45.2019860  53.8860730
  83.8571330  44.7708750  54.7442240  77.2833660  40.1572720  66.0215810
  76.9248600  40.8226570  66.6089150  76.9888220  39.3256270  66.3928430
  80.4846780  40.6156960  68.9055360  80.1846920  40.7614140  68.0083180
  81.2558020  40.0562250  68.8128750  85.8275230  45.4125960  66.9010490
  85.8419770  44.4806920  66.6829400  85.1200330  45.4985720  67.5400260
  90.9612300  39.5965780  53.1709100  90.8776020  40.0280000  52.3205540
  91.6806490  40.0564130  53.6035920  91.9899550  46.4508040  55.8991230
  91.3475710  45.7963660  56.1734950  91.6030210  46.8563130  55.1231900
  87.5686030  43.7793470  59.7462920  87.9209850  43.1821600  59.0864290
  86.6848360  43.4537700  59.9171170  83.6549310  44.5391160  57.1533330
  84.3420440  45.0860370  57.5340920  82.8681730  45.0831890  57.1882940
  75.7941710  40.1563980  52.6450410  76.6636560  40.4388780  52.9286330
  75.3032030  40.9699850  52.5299220  82.9576520  41.5437190  56.7658690
  83.4139300  42.3542440  56.9918880  82.6064730  41.2260330  57.5977180
  85.2609130  47.0543530  63.9950990  85.9051350  47.2602910  64.6724410
  85.6238570  46.2931930  63.5421840  78.8588300  31.8874840  57.2381210
  78.7302930  31.8792740  58.1866130  78.0350320  32.2257930  56.8872220
  86.5341210  45.0575880  62.7128440  87.1763440  44.3569040  62.8260610
  87.0590560  45.8374320  62.5325330  90.3796930  45.3424500  52.4367580
  90.1534510  44.6254940  53.0292220  89.9893130  45.0936940  51.5989330
  88.3078830  45.8570780  65.9164500  88.6435070  46.4437470  66.5942420
  87.3879170  45.7263490  66.1462290  76.1612960  49.3691360  53.2112040
  76.5210600  49.9680700  52.5569310  76.0205300  49.9151250  53.9847070
  75.8582230  33.6465960  66.6987910  75.1440750  33.8462880  67.3040520
  76.2777270  32.8705530  67.0702710  89.9613180  43.2596440  54.0981740
  89.6734880  43.7209130  54.8859620  90.7565350  42.7994210  54.3665960
  76.1454820  47.6346220  67.6854440  76.2545940  46.6940960  67.5449830
  75.4935380  47.9000970  67.0368170  84.1367410  45.9062110  69.0852560
  83.8164280  45.1871350  69.6298250  83.4625770  46.5817180  69.1588620
  82.1781580  46.7522560  54.0285710  82.1691680  47.4852250  53.4130220
  81.2579940  46.5054140  54.1212670  77.7788220  41.9737450  54.7732470
  77.1716170  42.7136350  54.7827770  78.2537570  42.0636810  53.9470670
  87.3521010  36.1388270  64.4489360  87.7201830  35.3183480  64.7768930
  86.4919210  36.1990160  64.8645010  90.7183040  35.0945210  55.2576920
  90.0896200  35.1990880  54.5435150  90.2234960  35.3141990  56.0470800
  85.1641180  46.8150800  52.6910900  85.2653160  46.6114790  51.7612880
  84.2642920  46.5609080  52.8958680  82.6867070  37.3731160  56.6734800
  81.9783220  37.8417500  57.1148410  82.9711550  36.7153170  57.3079990
  84.3123000  38.7927860  64.6727330  84.8108250  39.2673680  65.3379180
  84.4545950  37.8691380  64.8797360  86.7182500  34.0981820  58.1130590
  86.5950280  34.1167950  57.1640100  87.6667060  34.1460760  58.2328990
  83.8059290  49.3337120  57.3858570  84.0600790  49.2958510  56.4637940
  82.8571770  49.2070450  57.3786820  80.8902090  35.6816240  54.0485510
  81.7392620  36.1186390  53.9825700  80.5233360  35.9936500  54.8757570
  91.5189860  35.0095820  65.5155720  91.0163460  35.7501220  65.8549530
  92.3346520  35.3979820  65.1992510  89.8111870  40.2529000  58.9617080
  88.8702010  40.2679230  59.1364770  90.1255940  39.4664960  59.4077380
  79.7893510  41.9348600  52.5221040  80.5556780  41.8229960  53.0846470
  79.8668200  41.2386570  51.8697810  78.4840270  39.3673670  53.2053930
  78.5643860  38.4201180  53.3171330  79.3760020  39.6980550  53.3114590
  79.2854980  49.5169060  60.3088470  80.0217460  48.9684520  60.5797040
  79.6695900  50.3825070  60.1694460  76.1700460  45.5842630  56.1829980
  75.2440240  45.8263770  56.1735390  76.6356890  46.4116890  56.0614730
  78.2913260  48.7015130  69.4974050  79.0925990  49.0227180  69.9109450
  77.7765080  48.3410710  70.2193960  82.3957290  48.6899370  52.1314040
  83.1885900  48.9788200  51.6795830  81.8761640  48.2591540  51.4526520
  87.1277890  44.8095000  69.4449460  86.5216050  44.8326600  68.7045210
  86.8232000  44.0778040  69.9816710  88.5578260  48.5375290  68.0558870
  89.5100010  48.4533310  68.0059110  88.4106480  49.2017000  68.7292660
  91.4487460  47.9169500  53.5550780  91.1628970  47.5034640  52.7404960
  91.2507010  48.8457210  53.4351300  76.0111070  41.1888590  68.4410100
  76.5150090  40.6095870  69.0126330  75.2718490  41.4728820  68.9786470
  82.9134690  43.9102780  51.9956390  82.8085330  43.2955130  52.7217770
  82.7458910  43.3868670  51.2119400  83.0649010  42.5959580  67.9745620
  82.2994680  43.1644580  67.8900290  83.2464970  42.3035790  67.0813850
  86.1537420  42.9722810  52.5998380  85.6047520  43.4192110  53.2441120
  86.7756680  42.4672060  53.1236050  90.2072360  44.3264910  68.5320640
  90.9481830  44.6640670  68.0288100  89.4445040  44.4956970  67.9790410
  78.0434150  39.3318180  69.3360170  78.0839490  39.0332050  70.2445400
  78.8979650  39.7325790  69.1767690  81.8212540  41.9313730  54.4963680
  82.2428960  41.7653600  55.3395070  81.9463380  41.1213960  54.0018820
  79.9839960  37.9110280  67.3034660  79.4536420  37.4201230  66.6758000
  80.6528030  38.3394480  66.7692590  84.3340180  40.9551340  51.7440780
  84.8545840  40.2400360  51.3781930  84.9808580  41.5937210  52.0441290
  88.8818020  42.3779740  67.0675850  89.2959040  42.5324820  67.9166270
  87.9469020  42.5034960  67.2301630  89.3540190  39.7175900  69.0715000
  89.9360960  38.9628220  68.9835480  89.5301960  40.2483340  68.2946480
  80.4712260  34.8772650  67.3831950  80.3769130  34.2593400  66.6582820
  79.8909650  35.6038940  67.1561860  83.2373700  33.4345890  64.4159340
  82.7891000  33.4570150  63.5704890  82.6038900  33.0364910  65.0129640
  83.6433250  42.3300220  65.0371780  84.0621360  43.1732950  64.8648020
  82.7241880  42.4672260  64.8078560  85.9797150  40.0616400  66.4209620
  86.0993360  39.4657540  67.1604460  86.8391150  40.0986090  66.0010920
  88.3185050  40.6153590  64.9972130  87.7920270  41.1396210  64.3937270
  88.6616390  41.2480980  65.6281860  80.7171440  38.0046960  51.4421840
  80.5160500  37.1414320  51.8035180  80.5463490  37.9180320  50.5043440
  81.4940670  48.6353230  66.1529510  80.9561760  49.3599290  65.8338210
  81.7474630  48.1583570  65.3626850  82.7465920  36.6037750  67.6785440
  83.3365610  36.2953600  68.3663260  81.9286160  36.1317500  67.8345340
  87.5659350  36.2203560  67.9118460  86.8774870  35.5585100  67.8468450
  88.2865370  35.7741830  68.3566920  88.1959750  32.8155190  53.9708720
  88.4762040  31.9723090  54.3268140  87.4225480  33.0478300  54.4847470
  79.5154240  35.1047580  51.4299720  79.8180140  35.1115010  50.5218870
  80.2548830  34.7545440  51.9267380  84.3502880  49.8704440  66.4116160
  84.2761580  50.7739580  66.7188530  83.4481720  49.5516340  66.3838230
  82.7339170  34.0482200  52.4155920  82.3861170  33.3706190  51.8358370
  82.9351940  33.5871710  53.2299310  84.8988210  49.0362950  54.0342520
  85.7939000  49.3747920  54.0561280  84.9305840  48.3142360  53.4066800
  78.5384370  44.4090000  52.2629520  78.9759240  44.9519670  52.9187100
  79.0232100  43.5836950  52.2725860  75.7530170  47.1979030  59.7149780
  76.0833180  46.3300090  59.4828420  76.1821170  47.4037550  60.5454740
  80.3492090  45.5288040  57.3751750  80.0487630  45.4053010  58.2755660
  80.2429580  44.6696630  56.9667480  76.2420380  48.0649620  62.4531410
  75.8051370  48.2450420  63.2855560  76.8098060  48.8224240  62.3113130
  91.8782560  47.5666620  66.7408720  91.2784550  47.6259180  65.9972640
  92.0076460  46.6271600  66.8705570  76.0744810  40.5769850  58.8120290
  75.4193650  40.3081490  58.1679990  76.9122760  40.4674330  58.3622270
  90.5634200  44.2918600  64.8384880  89.7494040  44.7215760  65.1010670
  90.9708400  44.9037010  64.2253930  89.0235250  35.3711140  53.0338780
  89.4420130  35.1842120  52.1935440  88.7171310  34.5190190  53.3441710
  77.1120740  40.9622420  63.3523630  77.4793780  40.8749820  64.2319650
  76.5431560  40.1988970  63.2530490  91.9124600  39.4306800  66.3654100
  91.6810690  39.2019550  65.4652050  92.1729150  40.3506350  66.3198990
  76.6636740  37.8731510  67.2582050  75.7692790  37.8398270  67.5975760
  77.2034290  38.0718300  68.0233300  90.3512670  34.6563230  69.1433800
  91.2282850  34.6646630  69.5267800  90.3633510  33.9194070  68.5326150
  75.2882890  37.7868780  54.7545620  74.3846970  38.0498980  54.5797280
  75.7723510  38.0579950  53.9745580  91.7975940  38.5092770  60.0321820
  92.3213420  38.0155420  59.4011990  92.3835360  38.6443130  60.7769390
  91.9765660  38.5932640  63.5541370  91.0268370  38.5596180  63.6686360
  92.1578670  39.5032750  63.3191140  77.8310100  36.8434320  52.6640000
  78.5401800  36.4217540  52.1787280  77.1150040  36.9109550  52.0323350
  77.4784260  32.8973650  51.7042650  78.2012390  33.4382590  52.0223870
  77.7508780  32.6237070  50.8284190  91.2875910  37.7666120  55.9714230
  91.7835030  37.5336990  56.7563110  91.0891980  36.9277960  55.5551870
  77.1676450  32.1479840  61.6065270  77.8152640  31.5977220  61.1660430
  77.5878290  32.4022990  62.4281080  91.0628790  32.3421200  64.9634910
  91.7001010  32.9555340  65.3294100  91.2103680  32.3781860  64.0184140
  90.6210250  49.0437200  58.3653150  91.2169320  48.7221770  57.6887570
  90.8788400  48.5709020  59.1566420  76.9208450  32.3035510  64.3490590
  76.5723270  32.7599330  65.1148770  76.5896150  31.4092640  64.4313020
  78.5272820  45.4755110  68.5143780  78.4842450  45.1048020  69.3958240
  78.6583830  46.4132680  68.6545600  82.2278850  47.0314700  64.1153500
  81.9870210  47.2989260  63.2284020  83.1681490  47.2020430  64.1704360
  84.4333270  33.4947390  67.8710010  84.3722160  34.0869220  68.6205420
  85.3733650  33.3873350  67.7260270  87.0707830  33.1517450  67.5102300
  87.6848240  33.4696740  66.8483380  87.6157390  32.6666040  68.1298160
  77.5929090  31.8311710  67.6241360  78.1412080  31.6499760  66.8607470
  77.6584400  31.0405820  68.1597670  78.3660850  48.4217360  65.6341560
  77.7721170  48.2902060  66.3731600  78.3584690  47.5855500  65.1683660
  87.8115870  31.7149590  63.8371590  86.9375710  32.0484700  63.6344520
  87.7026620  31.2422770  64.6623460  88.7187850  33.9220460  65.2213310
  88.3901210  33.1072220  64.8415040  89.6670150  33.8790270  65.0979000
  91.1722460  49.6932500  62.1950880  90.7125430  50.4448310  61.8208900
  90.5434920  48.9738970  62.1365680  77.9973080  45.7875740  64.5849600
  77.2707140  45.1681030  64.5175550  78.0582230  46.1816350  63.7147680
  81.6018180  48.0020740  61.3699010  82.1183200  47.3908100  60.8447270
  82.2515560  48.5049520  61.8610020  84.3413680  48.8929230  62.1967990
  84.6291490  48.6383530  61.3201000  84.8536900  48.3406590  62.7873560
  85.5590690  32.6319430  62.7764500  84.7762480  33.1064930  63.0561260
  85.2653620  31.7274260  62.6677680  90.1111760  33.3342530  60.8213590
  90.5519850  33.2787630  59.9735190  89.8419350  34.2500540  60.8923770
  76.2803080  49.1050130  57.7946360  76.1125120  48.4720810  58.4928250
  75.4137590  49.3109530  57.4440550  76.9031100  32.9366910  55.2978220
  77.6610460  33.0495790  54.7242250  76.4408270  33.7736110  55.2521650
  83.4444910  35.0506180  58.2880530  82.6319420  34.6763070  57.9476410
  83.9486550  34.2951260  58.5901720  87.9469890  31.7148630  59.5263600
  88.5499260  32.2868840  60.0012120  87.2062880  32.2788070  59.3037500
  91.0904490  32.1170190  54.8003880  91.2855120  33.0153640  55.0671310
  90.3034360  31.8857270  55.2936830  77.8865780  47.7983360  55.2396500
  77.3613400  48.1791390  54.5358460  77.8110360  48.4234130  55.9606210
  79.2756250  33.4630960  53.8380190  79.8049010  32.6760760  53.7088140
  79.9084570  34.1422150  54.0715720  81.4694090  33.2006100  56.8925580
  80.8396830  32.4993410  57.0595710  80.9299230  33.9610230  56.6758740
  84.4086040  49.8145330  69.5636190  85.3353350  49.5789600  69.6072150
  84.3936470  50.6417330  69.0822220  81.5949650  32.4790080  69.3278070
  81.3133920  32.9823680  68.5638890  81.9769350  31.6811830  68.9620200
  80.4858750  49.7465740  54.1145750  81.2177570  49.4625020  53.5669640
  80.7452420  49.5079020  55.0045130  79.6473540  45.8630470  54.1192080
  79.0182420  46.3315570  54.6677910  79.7621370  45.0179690  54.5538270
  88.1965110  31.8943660  69.9058540  88.0830560  32.2138270  70.8010060
  89.0134850  32.2956170  69.6095820  90.9763600  49.0415190  69.3877230
  91.7688920  48.5464420  69.1803190  91.2696750  49.7205330  69.9952840
  87.1023260  39.9136130  40.2693280  87.0217310  38.9990740  39.9984990
  86.6887680  40.4103200  39.5632990  85.2341300  41.6915150  42.1502550
  84.4583400  41.2115590  42.4401120  85.8854230  41.0120800  41.9758710
  79.2507130  42.0034960  43.0278310  78.4192010  41.7483670  43.4274820
  79.8588110  42.0745730  43.7636230  89.2548730  46.0975340  40.9301680
  88.7930260  45.3262580  41.2588850  90.0674280  46.1241410  41.4354130
  79.2308390  46.0375050  43.2236330  79.5336430  45.1472790  43.0446550
  79.9751980  46.5945270  42.9958580  77.6599080  36.9636850  36.8120700
  76.7715780  37.3052820  36.7100580  77.9440270  36.7637170  35.9201530
  75.6232090  39.5642500  42.6960400  76.1948200  38.7964700  42.6964040
  75.6233630  39.8631260  41.7867010  85.4812040  48.3833350  40.5505670
  84.8623480  48.8390850  39.9800110  86.3363820  48.5384810  40.1495370
  84.6750290  44.3672340  42.1572710  84.6058570  43.4262280  41.9961840
  85.4370150  44.4573750  42.7295280  76.8656960  34.9726860  44.4829330
  76.6859800  34.0752610  44.7632090  76.4637040  35.5198730  45.1576280
  85.7055460  37.1742720  42.3841640  86.0820280  36.3014600  42.2715310
  85.6074970  37.5101420  41.4932080  79.8360470  35.5468350  37.8459080
  79.9427220  36.4472080  38.1527840  78.9252830  35.4986320  37.5553730
  89.4879580  34.6693160  39.3169980  90.3089200  34.1789730  39.3595460
  89.5213660  35.2590820  40.0701820  77.4843630  37.4687360  43.0911670
  78.1653740  37.7325730  43.7099070  77.1691680  36.6288230  43.4249680
  81.6768200  38.5154720  42.1784260  82.1846420  39.0135690  42.8189280
  82.2081440  37.7389920  42.0023620  79.9604300  33.1553280  46.4447680
  79.9622740  33.6725670  45.6393580  79.1308610  32.6783460  46.4217610
  86.3475390  43.2672590  37.9437580  85.7292660  43.7322040  37.3800300
  86.8598640  43.9600070  38.3607090  81.2107150  42.7948460  44.6221180
  80.8776530  43.4217380  45.2642250  81.3873830  43.3210340  43.8422850
  89.7241060  36.6093540  42.0897520  89.0196630  36.8978430  42.6700630
  90.0853220  37.4193650  41.7297080  79.6419630  34.8663240  44.4518130
  79.9836440  35.7105290  44.1572000  78.7035440  35.0146980  44.5683470
  80.4226250  44.7629260  46.4370360  81.0400250  45.4380340  46.1554810
  79.5619370  45.1717240  46.3457860  75.7158590  43.9529120  35.3177210
  75.3386570  44.4416220  34.5862110  75.9731660  44.6254400  35.9483740
  91.3403840  46.2268670  44.3525000  90.6567360  46.8967780  44.3441670
  91.8798130  46.4249320  43.5869860  83.3247520  32.3545510  40.7762720
  83.6322500  31.7992400  40.0598220  82.3948220  32.4889970  40.5935710
  88.8762580  48.0712800  43.0670180  88.8889740  47.6675090  42.1992440
  88.3237800  48.8460090  42.9631610  90.1708000  44.7929020  38.1560350
  90.0604330  43.8503350  38.2809770  90.1676250  45.1544660  39.0423110
  88.2748020  42.9742640  44.3952790  88.6916810  42.7602750  43.5606250
  88.9987840  43.2315430  44.9661410  85.7128280  40.4194340  37.5122840
  84.7857560  40.3531720  37.7411310  85.8653100  41.3574470  37.3978080
  85.6997360  36.6911340  34.5090000  84.7601030  36.8525300  34.5942460
  86.0180620  37.4097020  33.9625990  89.7425570  41.9814640  38.0158090
  89.1237990  41.6434190  37.3684390  89.7250020  41.3374400  38.7237280
  89.1852130  38.1599180  45.4323900  88.7723310  38.9852890  45.6863890
  88.4528080  37.5744220  45.2400260  81.3184920  40.9459080  40.2942570
  80.9141920  40.2336330  39.7988470  81.4048040  40.6012320  41.1830610
  81.7866620  44.6326640  42.4581780  81.4894910  44.0272110  41.7789560
  82.7366440  44.6703950  42.3471140  80.0313540  37.7202290  44.0741610
  80.5828130  37.8297630  43.2994860  80.5457050  38.0939890  44.7896840
  89.8752230  48.2058510  46.1204880  89.3982790  49.0130700  45.9277490
  89.1914020  47.5536840  46.2731090  80.8785050  44.3708330  49.1089580
  79.9813580  44.5948300  49.3562980  80.9037920  44.4943270  48.1600980
  87.9190270  41.2201450  35.0230840  88.3583550  40.3823880  34.8768660
  88.6318690  41.8530850  35.1094980  79.7056270  41.2421650  47.6846950
  79.5664040  42.1144450  48.0534350  78.8237630  40.8994460  47.5394890
  86.0285650  46.1597520  38.9912080  86.4681560  46.9021850  38.5767470
  85.9672540  46.4024090  39.9151040  81.5036620  47.1843350  49.8932100
  81.4752050  47.5886300  49.0260530  81.3401590  46.2553710  49.7303700
  91.5007410  32.4744260  33.3371880  91.1880070  32.5671090  34.2370950
  92.2619880  33.0525290  33.2869310  78.0189550  39.8404060  37.7949220
  77.8987150  40.5666150  37.1830490  77.7090440  39.0706970  37.3177130
  75.6574920  43.0119200  43.6017860  75.7355340  43.1467970  42.6573580
  76.2716600  42.3035090  43.7945980  76.9022550  44.7119390  40.0124040
  76.4950630  44.8533980  39.1577640  77.7935560  44.4279550  39.8095250
  86.7201430  48.8611300  46.9191090  87.2346100  48.7719310  47.7213520
  85.8770510  49.2071000  47.2119000  88.6955830  49.1466640  36.3475090
  88.5356970  48.8569580  37.2456920  88.5302540  48.3706770  35.8120320
  81.1744210  48.9265170  38.1246710  80.9986690  48.0100710  37.9114510
  80.3199950  49.2852460  38.3644510  88.3981960  46.6554200  34.9073090
  87.7047120  46.6531490  34.2475370  89.1404820  46.2313520  34.4767260
  87.9631890  48.2816910  38.9821580  88.4188840  47.5006290  39.2960200
  88.3024410  48.9923730  39.5262760  75.7134440  44.0533370  46.1412320
  75.8765480  43.5838730  45.3231690  76.1786890  43.5456930  46.8061160
  80.4853210  33.1839130  41.1772890  80.0421360  33.9648670  40.8457410
  81.0438200  33.5069020  41.8843830  84.7723020  36.0507650  46.7808210
  84.3102390  36.2590670  47.5928150  84.3701130  35.2367000  46.4778880
  89.7727530  37.2716600  47.9104870  88.9221120  36.9722350  48.2313940
  89.6129320  37.5158610  46.9988690  86.8677240  38.7718350  50.0103660
  87.1930650  37.9382100  49.6705890  87.6557570  39.2946870  50.1581990
  83.6012030  32.8049830  36.0578720  82.9766210  32.8009700  36.7832030
  83.5142150  31.9380790  35.6614690  82.5229110  33.7286460  43.0362490
  82.8201440  34.6349290  42.9554510  83.0714670  33.2405240  42.4222060
  80.2767430  38.3072700  38.9054140  80.0508350  38.0909870  39.8100760
  79.4959960  38.7401160  38.5600110  87.5065190  38.3136070  37.5044790
  86.9074080  39.0371870  37.3208410  88.0544800  38.2512850  36.7221240
  82.7166640  39.2058280  49.5714410  82.6210240  38.2653010  49.4214810
  83.5598620  39.4273350  49.1762480  86.1130060  36.9499610  39.5348070
  86.5059630  37.2671810  38.7216760  86.4746910  36.0711490  39.6492590
  77.8477180  35.6171950  47.7248190  77.4540570  36.4647160  47.9320970
  77.1595580  34.9798320  47.9156830  84.4222230  35.7006920  50.7944930
  83.7320550  35.5079120  51.4291020  85.1654530  35.9841560  51.3269230
  75.1494230  33.5400410  41.7578270  74.8607280  34.1103270  42.4703250
  75.8939990  33.0604860  42.1209500  75.3364460  37.4820530  32.9680990
  75.2539130  38.4251290  33.1095980  74.9847520  37.3395440  32.0893340
  86.6985200  39.5405360  43.6298850  85.9666320  40.0492170  43.9788950
  86.3009540  38.7235340  43.3287630  83.1362590  36.2159560  42.0351340
  83.1398650  35.7749510  41.1855880  84.0313710  36.5376890  42.1423160
  78.9864970  36.0986050  40.9945550  78.6465020  36.5761280  41.7512600
  78.2242290  35.6451170  40.6346650  83.1982740  37.2171640  35.0258100
  83.3195560  37.1758120  35.9743920  82.8131250  38.0795790  34.8704830
  87.1611110  34.9939040  43.0421790  87.1783850  35.4447690  43.8863640
  86.9126690  34.0944680  43.2555230  82.2104240  39.5272780  34.4241400
  81.6421140  39.0791030  33.7977310  82.9193240  39.8865560  33.8906550
  90.5881860  32.4071220  48.8808170  90.9127630  31.6760880  49.4066150
  90.6238370  32.0884860  47.9789160  77.2873420  43.4284800  48.3008130
  76.9028210  42.7878470  48.8991090  77.5985610  44.1320920  48.8702860
  83.4370560  40.2761340  43.7816750  83.8040690  39.8019910  44.5278090
  83.2475620  41.1502910  44.1225090  76.3011050  35.0205030  39.9110220
  76.0157970  34.6560700  40.7488840  76.2389910  34.2885490  39.2973360
  81.2269930  39.3169980  46.1000960  80.9227000  40.1961960  46.3251320
  82.1816390  39.3769770  46.1358400  79.7551720  43.5230970  36.6967810
  78.9813980  42.9828590  36.5366530  80.4846350  43.0037580  36.3585570
  90.5139700  42.5196330  42.4894200  91.2338820  43.0151620  42.0990310
  90.3121520  41.8414220  41.8448070  85.9749640  33.9134290  36.6323590
  85.1614250  33.4147460  36.5568900  85.7811590  34.7532540  36.2159940
  85.8958500  42.5905390  48.3763200  85.8295810  41.6701060  48.1220790
  85.2663640  42.6880830  49.0907840  88.6898030  38.2853940  34.9285750
  89.5777650  38.5971170  34.7537090  88.6603120  37.4126190  34.5366330
  79.7989120  43.1911350  40.3346620  80.3167790  42.3879610  40.2803510
  79.3473140  43.1290490  41.1763450  84.6858620  44.4577630  35.6073920
  85.0274320  45.2019860  35.1117240  83.8571330  44.7708750  35.9698750
  77.2833660  40.1572720  47.2472320  76.9248600  40.8226570  47.8345660
  76.9888220  39.3256270  47.6184940  80.4846780  40.6156960  50.1311870
  80.1846920  40.7614140  49.2339690  81.2558020  40.0562250  50.0385260
  85.8275230  45.4125960  48.1267000  85.8419770  44.4806920  47.9085910
  85.1200330  45.4985720  48.7656770  90.9612300  39.5965780  34.3965610
  90.8776020  40.0280000  33.5462050  91.6806490  40.0564130  34.8292430
  91.9899550  46.4508040  37.1247740  91.3475710  45.7963660  37.3991460
  91.6030210  46.8563130  36.3488410  87.5686030  43.7793470  40.9719430
  87.9209850  43.1821600  40.3120800  86.6848360  43.4537700  41.1427680
  83.6549310  44.5391160  38.3789840  84.3420440  45.0860370  38.7597430
  82.8681730  45.0831890  38.4139450  75.7941710  40.1563980  33.8706920
  76.6636560  40.4388780  34.1542840  75.3032030  40.9699850  33.7555730
  82.9576520  41.5437190  37.9915200  83.4139300  42.3542440  38.2175390
  82.6064730  41.2260330  38.8233690  85.2609130  47.0543530  45.2207500
  85.9051350  47.2602910  45.8980920  85.6238570  46.2931930  44.7678350
  78.8588300  31.8874840  38.4637720  78.7302930  31.8792740  39.4122640
  78.0350320  32.2257930  38.1128730  86.5341210  45.0575880  43.9384950
  87.1763440  44.3569040  44.0517120  87.0590560  45.8374320  43.7581840
  90.3796930  45.3424500  33.6624090  90.1534510  44.6254940  34.2548730
  89.9893130  45.0936940  32.8245840  88.3078830  45.8570780  47.1421010
  88.6435070  46.4437470  47.8198930  87.3879170  45.7263490  47.3718800
  76.1612960  49.3691360  34.4368550  76.5210600  49.9680700  33.7825820
  76.0205300  49.9151250  35.2103580  75.8582230  33.6465960  47.9244420
  75.1440750  33.8462880  48.5297030  76.2777270  32.8705530  48.2959220
  89.9613180  43.2596440  35.3238250  89.6734880  43.7209130  36.1116130
  90.7565350  42.7994210  35.5922470  76.1454820  47.6346220  48.9110950
  76.2545940  46.6940960  48.7706340  75.4935380  47.9000970  48.2624680
  84.1367410  45.9062110  50.3109070  83.8164280  45.1871350  50.8554760
  83.4625770  46.5817180  50.3845130  82.1781580  46.7522560  35.2542220
  82.1691680  47.4852250  34.6386730  81.2579940  46.5054140  35.3469180
  77.7788220  41.9737450  35.9988980  77.1716170  42.7136350  36.0084280
  78.2537570  42.0636810  35.1727180  87.3521010  36.1388270  45.6745870
  87.7201830  35.3183480  46.0025440  86.4919210  36.1990160  46.0901520
  90.7183040  35.0945210  36.4833430  90.0896200  35.1990880  35.7691660
  90.2234960  35.3141990  37.2727310  85.1641180  46.8150800  33.9167410
  85.2653160  46.6114790  32.9869390  84.2642920  46.5609080  34.1215190
  82.6867070  37.3731160  37.8991310  81.9783220  37.8417500  38.3404920
  82.9711550  36.7153170  38.5336500  84.3123000  38.7927860  45.8983840
  84.8108250  39.2673680  46.5635690  84.4545950  37.8691380  46.1053870
  86.7182500  34.0981820  39.3387100  86.5950280  34.1167950  38.3896610
  87.6667060  34.1460760  39.4585500  83.8059290  49.3337120  38.6115080
  84.0600790  49.2958510  37.6894450  82.8571770  49.2070450  38.6043330
  80.8902090  35.6816240  35.2742020  81.7392620  36.1186390  35.2082210
  80.5233360  35.9936500  36.1014080  91.5189860  35.0095820  46.7412230
  91.0163460  35.7501220  47.0806040  92.3346520  35.3979820  46.4249020
  89.8111870  40.2529000  40.1873590  88.8702010  40.2679230  40.3621280
  90.1255940  39.4664960  40.6333890  79.7893510  41.9348600  33.7477550
  80.5556780  41.8229960  34.3102980  79.8668200  41.2386570  33.0954320
  78.4840270  39.3673670  34.4310440  78.5643860  38.4201180  34.5427840
  79.3760020  39.6980550  34.5371100  79.2854980  49.5169060  41.5344980
  80.0217460  48.9684520  41.8053550  79.6695900  50.3825070  41.3950970
  76.1700460  45.5842630  37.4086490  75.2440240  45.8263770  37.3991900
  76.6356890  46.4116890  37.2871240  78.2913260  48.7015130  50.7230560
  79.0925990  49.0227180  51.1365960  77.7765080  48.3410710  51.4450470
  82.3957290  48.6899370  33.3570550  83.1885900  48.9788200  32.9052340
  81.8761640  48.2591540  32.6783030  87.1277890  44.8095000  50.6705970
  86.5216050  44.8326600  49.9301720  86.8232000  44.0778040  51.2073220
  88.5578260  48.5375290  49.2815380  89.5100010  48.4533310  49.2315620
  88.4106480  49.2017000  49.9549170  91.4487460  47.9169500  34.7807290
  91.1628970  47.5034640  33.9661470  91.2507010  48.8457210  34.6607810
  76.0111070  41.1888590  49.6666610  76.5150090  40.6095870  50.2382840
  75.2718490  41.4728820  50.2042980  82.9134690  43.9102780  33.2212900
  82.8085330  43.2955130  33.9474280  82.7458910  43.3868670  32.4375910
  83.0649010  42.5959580  49.2002130  82.2994680  43.1644580  49.1156800
  83.2464970  42.3035790  48.3070360  86.1537420  42.9722810  33.8254890
  85.6047520  43.4192110  34.4697630  86.7756680  42.4672060  34.3492560
  90.2072360  44.3264910  49.7577150  90.9481830  44.6640670  49.2544610
  89.4445040  44.4956970  49.2046920  78.0434150  39.3318180  50.5616680
  78.0839490  39.0332050  51.4701910  78.8979650  39.7325790  50.4024200
  81.8212540  41.9313730  35.7220190  82.2428960  41.7653600  36.5651580
  81.9463380  41.1213960  35.2275330  79.9839960  37.9110280  48.5291170
  79.4536420  37.4201230  47.9014510  80.6528030  38.3394480  47.9949100
  84.3340180  40.9551340  32.9697290  84.8545840  40.2400360  32.6038440
  84.9808580  41.5937210  33.2697800  88.8818020  42.3779740  48.2932360
  89.2959040  42.5324820  49.1422780  87.9469020  42.5034960  48.4558140
  89.3540190  39.7175900  50.2971510  89.9360960  38.9628220  50.2091990
  89.5301960  40.2483340  49.5202990  80.4712260  34.8772650  48.6088460
  80.3769130  34.2593400  47.8839330  79.8909650  35.6038940  48.3818370
  83.2373700  33.4345890  45.6415850  82.7891000  33.4570150  44.7961400
  82.6038900  33.0364910  46.2386150  83.6433250  42.3300220  46.2628290
  84.0621360  43.1732950  46.0904530  82.7241880  42.4672260  46.0335070
  85.9797150  40.0616400  47.6466130  86.0993360  39.4657540  48.3860970
  86.8391150  40.0986090  47.2267430  88.3185050  40.6153590  46.2228640
  87.7920270  41.1396210  45.6193780  88.6616390  41.2480980  46.8538370
  80.7171440  38.0046960  32.6678350  80.5160500  37.1414320  33.0291690
  80.5463490  37.9180320  31.7299950  81.4940670  48.6353230  47.3786020
  80.9561760  49.3599290  47.0594720  81.7474630  48.1583570  46.5883360
  82.7465920  36.6037750  48.9041950  83.3365610  36.2953600  49.5919770
  81.9286160  36.1317500  49.0601850  87.5659350  36.2203560  49.1374970
  86.8774870  35.5585100  49.0724960  88.2865370  35.7741830  49.5823430
  88.1959750  32.8155190  35.1965230  88.4762040  31.9723090  35.5524650
  87.4225480  33.0478300  35.7103980  79.5154240  35.1047580  32.6556230
  79.8180140  35.1115010  31.7475380  80.2548830  34.7545440  33.1523890
  84.3502880  49.8704440  47.6372670  84.2761580  50.7739580  47.9445040
  83.4481720  49.5516340  47.6094740  82.7339170  34.0482200  33.6412430
  82.3861170  33.3706190  33.0614880  82.9351940  33.5871710  34.4555820
  84.8988210  49.0362950  35.2599030  85.7939000  49.3747920  35.2817790
  84.9305840  48.3142360  34.6323310  78.5384370  44.4090000  33.4886030
  78.9759240  44.9519670  34.1443610  79.0232100  43.5836950  33.4982370
  75.7530170  47.1979030  40.9406290  76.0833180  46.3300090  40.7084930
  76.1821170  47.4037550  41.7711250  80.3492090  45.5288040  38.6008260
  80.0487630  45.4053010  39.5012170  80.2429580  44.6696630  38.1923990
  76.2420380  48.0649620  43.6787920  75.8051370  48.2450420  44.5112070
  76.8098060  48.8224240  43.5369640  91.8782560  47.5666620  47.9665230
  91.2784550  47.6259180  47.2229150  92.0076460  46.6271600  48.0962080
  76.0744810  40.5769850  40.0376800  75.4193650  40.3081490  39.3936500
  76.9122760  40.4674330  39.5878780  90.5634200  44.2918600  46.0641390
  89.7494040  44.7215760  46.3267180  90.9708400  44.9037010  45.4510440
  89.0235250  35.3711140  34.2595290  89.4420130  35.1842120  33.4191950
  88.7171310  34.5190190  34.5698220  77.1120740  40.9622420  44.5780140
  77.4793780  40.8749820  45.4576160  76.5431560  40.1988970  44.4787000
  91.9124600  39.4306800  47.5910610  91.6810690  39.2019550  46.6908560
  92.1729150  40.3506350  47.5455500  76.6636740  37.8731510  48.4838560
  75.7692790  37.8398270  48.8232270  77.2034290  38.0718300  49.2489810
  90.3512670  34.6563230  50.3690310  91.2282850  34.6646630  50.7524310
  90.3633510  33.9194070  49.7582660  75.2882890  37.7868780  35.9802130
  74.3846970  38.0498980  35.8053790  75.7723510  38.0579950  35.2002090
  91.7975940  38.5092770  41.2578330  92.3213420  38.0155420  40.6268500
  92.3835360  38.6443130  42.0025900  91.9765660  38.5932640  44.7797880
  91.0268370  38.5596180  44.8942870  92.1578670  39.5032750  44.5447650
  77.8310100  36.8434320  33.8896510  78.5401800  36.4217540  33.4043790
  77.1150040  36.9109550  33.2579860  77.4784260  32.8973650  32.9299160
  78.2012390  33.4382590  33.2480380  77.7508780  32.6237070  32.0540700
  91.2875910  37.7666120  37.1970740  91.7835030  37.5336990  37.9819620
  91.0891980  36.9277960  36.7808380  77.1676450  32.1479840  42.8321780
  77.8152640  31.5977220  42.3916940  77.5878290  32.4022990  43.6537590
  91.0628790  32.3421200  46.1891420  91.7001010  32.9555340  46.5550610
  91.2103680  32.3781860  45.2440650  90.6210250  49.0437200  39.5909660
  91.2169320  48.7221770  38.9144080  90.8788400  48.5709020  40.3822930
  76.9208450  32.3035510  45.5747100  76.5723270  32.7599330  46.3405280
  76.5896150  31.4092640  45.6569530  78.5272820  45.4755110  49.7400290
  78.4842450  45.1048020  50.6214750  78.6583830  46.4132680  49.8802110
  82.2278850  47.0314700  45.3410010  81.9870210  47.2989260  44.4540530
  83.1681490  47.2020430  45.3960870  84.4333270  33.4947390  49.0966520
  84.3722160  34.0869220  49.8461930  85.3733650  33.3873350  48.9516780
  87.0707830  33.1517450  48.7358810  87.6848240  33.4696740  48.0739890
  87.6157390  32.6666040  49.3554670  77.5929090  31.8311710  48.8497870
  78.1412080  31.6499760  48.0863980  77.6584400  31.0405820  49.3854180
  78.3660850  48.4217360  46.8598070  77.7721170  48.2902060  47.5988110
  78.3584690  47.5855500  46.3940170  87.8115870  31.7149590  45.0628100
  86.9375710  32.0484700  44.8601030  87.7026620  31.2422770  45.8879970
  88.7187850  33.9220460  46.4469820  88.3901210  33.1072220  46.0671550
  89.6670150  33.8790270  46.3235510  91.1722460  49.6932500  43.4207390
  90.7125430  50.4448310  43.0465410  90.5434920  48.9738970  43.3622190
  77.9973080  45.7875740  45.8106110  77.2707140  45.1681030  45.7432060
  78.0582230  46.1816350  44.9404190  81.6018180  48.0020740  42.5955520
  82.1183200  47.3908100  42.0703780  82.2515560  48.5049520  43.0866530
  84.3413680  48.8929230  43.4224500  84.6291490  48.6383530  42.5457510
  84.8536900  48.3406590  44.0130070  85.5590690  32.6319430  44.0021010
  84.7762480  33.1064930  44.2817770  85.2653620  31.7274260  43.8934190
  90.1111760  33.3342530  42.0470100  90.5519850  33.2787630  41.1991700
  89.8419350  34.2500540  42.1180280  76.2803080  49.1050130  39.0202870
  76.1125120  48.4720810  39.7184760  75.4137590  49.3109530  38.6697060
  76.9031100  32.9366910  36.5234730  77.6610460  33.0495790  35.9498760
  76.4408270  33.7736110  36.4778160  83.4444910  35.0506180  39.5137040
  82.6319420  34.6763070  39.1732920  83.9486550  34.2951260  39.8158230
  87.9469890  31.7148630  40.7520110  88.5499260  32.2868840  41.2268630
  87.2062880  32.2788070  40.5294010  91.0904490  32.1170190  36.0260390
  91.2855120  33.0153640  36.2927820  90.3034360  31.8857270  36.5193340
  77.8865780  47.7983360  36.4653010  77.3613400  48.1791390  35.7614970
  77.8110360  48.4234130  37.1862720  79.2756250  33.4630960  35.0636700
  79.8049010  32.6760760  34.9344650  79.9084570  34.1422150  35.2972230
  81.4694090  33.2006100  38.1182090  80.8396830  32.4993410  38.2852220
  80.9299230  33.9610230  37.9015250  84.4086040  49.8145330  50.7892700
  85.3353350  49.5789600  50.8328660  84.3936470  50.6417330  50.3078730
  81.5949650  32.4790080  50.5534580  81.3133920  32.9823680  49.7895400
  81.9769350  31.6811830  50.1876710  80.4858750  49.7465740  35.3402260
  81.2177570  49.4625020  34.7926150  80.7452420  49.5079020  36.2301640
  79.6473540  45.8630470  35.3448590  79.0182420  46.3315570  35.8934420
  79.7621370  45.0179690  35.7794780  88.1965110  31.8943660  51.1315050
  88.0830560  32.2138270  52.0266570  89.0134850  32.2956170  50.8352330
  90.9763600  49.0415190  50.6133740  91.7688920  48.5464420  50.4059700
  91.2696750  49.7205330  51.2209350  87.1023260  39.9136130  21.4949790
  87.0217310  38.9990740  21.2241500  86.6887680  40.4103200  20.7889500
  85.2341300  41.6915150  23.3759060  84.4583400  41.2115590  23.6657630
  85.8854230  41.0120800  23.2015220  79.2507130  42.0034960  24.2534820
  78.4192010  41.7483670  24.6531330  79.8588110  42.0745730  24.9892740
  89.2548730  46.0975340  22.1558190  88.7930260  45.3262580  22.4845360
  90.0674280  46.1241410  22.6610640  79.2308390  46.0375050  24.4492840
  79.5336430  45.1472790  24.2703060  79.9751980  46.5945270  24.2215090
  77.6599080  36.9636850  18.0377210  76.7715780  37.3052820  17.9357090
  77.9440270  36.7637170  17.1458040  75.6232090  39.5642500  23.9216910
  76.1948200  38.7964700  23.9220550  75.6233630  39.8631260  23.0123520
  85.4812040  48.3833350  21.7762180  84.8623480  48.8390850  21.2056620
  86.3363820  48.5384810  21.3751880  84.6750290  44.3672340  23.3829220
  84.6058570  43.4262280  23.2218350  85.4370150  44.4573750  23.9551790
  76.8656960  34.9726860  25.7085840  76.6859800  34.0752610  25.9888600
  76.4637040  35.5198730  26.3832790  85.7055460  37.1742720  23.6098150
  86.0820280  36.3014600  23.4971820  85.6074970  37.5101420  22.7188590
  79.8360470  35.5468350  19.0715590  79.9427220  36.4472080  19.3784350
  78.9252830  35.4986320  18.7810240  89.4879580  34.6693160  20.5426490
  90.3089200  34.1789730  20.5851970  89.5213660  35.2590820  21.2958330
  77.4843630  37.4687360  24.3168180  78.1653740  37.7325730  24.9355580
  77.1691680  36.6288230  24.6506190  81.6768200  38.5154720  23.4040770
  82.1846420  39.0135690  24.0445790  82.2081440  37.7389920  23.2280130
  79.9604300  33.1553280  27.6704190  79.9622740  33.6725670  26.8650090
  79.1308610  32.6783460  27.6474120  86.3475390  43.2672590  19.1694090
  85.7292660  43.7322040  18.6056810  86.8598640  43.9600070  19.5863600
  81.2107150  42.7948460  25.8477690  80.8776530  43.4217380  26.4898760
  81.3873830  43.3210340  25.0679360  89.7241060  36.6093540  23.3154030
  89.0196630  36.8978430  23.8957140  90.0853220  37.4193650  22.9553590
  79.6419630  34.8663240  25.6774640  79.9836440  35.7105290  25.3828510
  78.7035440  35.0146980  25.7939980  80.4226250  44.7629260  27.6626870
  81.0400250  45.4380340  27.3811320  79.5619370  45.1717240  27.5714370
  75.7158590  43.9529120  16.5433720  75.3386570  44.4416220  15.8118620
  75.9731660  44.6254400  17.1740250  91.3403840  46.2268670  25.5781510
  90.6567360  46.8967780  25.5698180  91.8798130  46.4249320  24.8126370
  83.3247520  32.3545510  22.0019230  83.6322500  31.7992400  21.2854730
  82.3948220  32.4889970  21.8192220  88.8762580  48.0712800  24.2926690
  88.8889740  47.6675090  23.4248950  88.3237800  48.8460090  24.1888120
  90.1708000  44.7929020  19.3816860  90.0604330  43.8503350  19.5066280
  90.1676250  45.1544660  20.2679620  88.2748020  42.9742640  25.6209300
  88.6916810  42.7602750  24.7862760  88.9987840  43.2315430  26.1917920
  85.7128280  40.4194340  18.7379350  84.7857560  40.3531720  18.9667820
  85.8653100  41.3574470  18.6234590  85.6997360  36.6911340  15.7346510
  84.7601030  36.8525300  15.8198970  86.0180620  37.4097020  15.1882500
  89.7425570  41.9814640  19.2414600  89.1237990  41.6434190  18.5940900
  89.7250020  41.3374400  19.9493790  89.1852130  38.1599180  26.6580410
  88.7723310  38.9852890  26.9120400  88.4528080  37.5744220  26.4656770
  81.3184920  40.9459080  21.5199080  80.9141920  40.2336330  21.0244980
  81.4048040  40.6012320  22.4087120  81.7866620  44.6326640  23.6838290
  81.4894910  44.0272110  23.0046070  82.7366440  44.6703950  23.5727650
  80.0313540  37.7202290  25.2998120  80.5828130  37.8297630  24.5251370
  80.5457050  38.0939890  26.0153350  89.8752230  48.2058510  27.3461390
  89.3982790  49.0130700  27.1534000  89.1914020  47.5536840  27.4987600
  80.8785050  44.3708330  30.3346090  79.9813580  44.5948300  30.5819490
  80.9037920  44.4943270  29.3857490  87.9190270  41.2201450  16.2487350
  88.3583550  40.3823880  16.1025170  88.6318690  41.8530850  16.3351490
  79.7056270  41.2421650  28.9103460  79.5664040  42.1144450  29.2790860
  78.8237630  40.8994460  28.7651400  86.0285650  46.1597520  20.2168590
  86.4681560  46.9021850  19.8023980  85.9672540  46.4024090  21.1407550
  81.5036620  47.1843350  31.1188610  81.4752050  47.5886300  30.2517040
  81.3401590  46.2553710  30.9560210  91.5007410  32.4744260  14.5628390
  91.1880070  32.5671090  15.4627460  92.2619880  33.0525290  14.5125820
  78.0189550  39.8404060  19.0205730  77.8987150  40.5666150  18.4087000
  77.7090440  39.0706970  18.5433640  75.6574920  43.0119200  24.8274370
  75.7355340  43.1467970  23.8830090  76.2716600  42.3035090  25.0202490
  76.9022550  44.7119390  21.2380550  76.4950630  44.8533980  20.3834150
  77.7935560  44.4279550  21.0351760  86.7201430  48.8611300  28.1447600
  87.2346100  48.7719310  28.9470030  85.8770510  49.2071000  28.4375510
  88.6955830  49.1466640  17.5731600  88.5356970  48.8569580  18.4713430
  88.5302540  48.3706770  17.0376830  81.1744210  48.9265170  19.3503220
  80.9986690  48.0100710  19.1371020  80.3199950  49.2852460  19.5901020
  88.3981960  46.6554200  16.1329600  87.7047120  46.6531490  15.4731880
  89.1404820  46.2313520  15.7023770  87.9631890  48.2816910  20.2078090
  88.4188840  47.5006290  20.5216710  88.3024410  48.9923730  20.7519270
  75.7134440  44.0533370  27.3668830  75.8765480  43.5838730  26.5488200
  76.1786890  43.5456930  28.0317670  80.4853210  33.1839130  22.4029400
  80.0421360  33.9648670  22.0713920  81.0438200  33.5069020  23.1100340
  84.7723020  36.0507650  28.0064720  84.3102390  36.2590670  28.8184660
  84.3701130  35.2367000  27.7035390  89.7727530  37.2716600  29.1361380
  88.9221120  36.9722350  29.4570450  89.6129320  37.5158610  28.2245200
  86.8677240  38.7718350  31.2360170  87.1930650  37.9382100  30.8962400
  87.6557570  39.2946870  31.3838500  83.6012030  32.8049830  17.2835230
  82.9766210  32.8009700  18.0088540  83.5142150  31.9380790  16.8871200
  82.5229110  33.7286460  24.2619000  82.8201440  34.6349290  24.1811020
  83.0714670  33.2405240  23.6478570  80.2767430  38.3072700  20.1310650
  80.0508350  38.0909870  21.0357270  79.4959960  38.7401160  19.7856620
  87.5065190  38.3136070  18.7301300  86.9074080  39.0371870  18.5464920
  88.0544800  38.2512850  17.9477750  82.7166640  39.2058280  30.7970920
  82.6210240  38.2653010  30.6471320  83.5598620  39.4273350  30.4018990
  86.1130060  36.9499610  20.7604580  86.5059630  37.2671810  19.9473270
  86.4746910  36.0711490  20.8749100  77.8477180  35.6171950  28.9504700
  77.4540570  36.4647160  29.1577480  77.1595580  34.9798320  29.1413340
  84.4222230  35.7006920  32.0201440  83.7320550  35.5079120  32.6547530
  85.1654530  35.9841560  32.5525740  75.1494230  33.5400410  22.9834780
  74.8607280  34.1103270  23.6959760  75.8939990  33.0604860  23.3466010
  75.3364460  37.4820530  14.1937500  75.2539130  38.4251290  14.3352490
  74.9847520  37.3395440  13.3149850  86.6985200  39.5405360  24.8555360
  85.9666320  40.0492170  25.2045460  86.3009540  38.7235340  24.5544140
  83.1362590  36.2159560  23.2607850  83.1398650  35.7749510  22.4112390
  84.0313710  36.5376890  23.3679670  78.9864970  36.0986050  22.2202060
  78.6465020  36.5761280  22.9769110  78.2242290  35.6451170  21.8603160
  83.1982740  37.2171640  16.2514610  83.3195560  37.1758120  17.2000430
  82.8131250  38.0795790  16.0961340  87.1611110  34.9939040  24.2678300
  87.1783850  35.4447690  25.1120150  86.9126690  34.0944680  24.4811740
  82.2104240  39.5272780  15.6497910  81.6421140  39.0791030  15.0233820
  82.9193240  39.8865560  15.1163060  90.5881860  32.4071220  30.1064680
  90.9127630  31.6760880  30.6322660  90.6238370  32.0884860  29.2045670
  77.2873420  43.4284800  29.5264640  76.9028210  42.7878470  30.1247600
  77.5985610  44.1320920  30.0959370  83.4370560  40.2761340  25.0073260
  83.8040690  39.8019910  25.7534600  83.2475620  41.1502910  25.3481600
  76.3011050  35.0205030  21.1366730  76.0157970  34.6560700  21.9745350
  76.2389910  34.2885490  20.5229870  81.2269930  39.3169980  27.3257470
  80.9227000  40.1961960  27.5507830  82.1816390  39.3769770  27.3614910
  79.7551720  43.5230970  17.9224320  78.9813980  42.9828590  17.7623040
  80.4846350  43.0037580  17.5842080  90.5139700  42.5196330  23.7150710
  91.2338820  43.0151620  23.3246820  90.3121520  41.8414220  23.0704580
  85.9749640  33.9134290  17.8580100  85.1614250  33.4147460  17.7825410
  85.7811590  34.7532540  17.4416450  85.8958500  42.5905390  29.6019710
  85.8295810  41.6701060  29.3477300  85.2663640  42.6880830  30.3164350
  88.6898030  38.2853940  16.1542260  89.5777650  38.5971170  15.9793600
  88.6603120  37.4126190  15.7622840  79.7989120  43.1911350  21.5603130
  80.3167790  42.3879610  21.5060020  79.3473140  43.1290490  22.4019960
  84.6858620  44.4577630  16.8330430  85.0274320  45.2019860  16.3373750
  83.8571330  44.7708750  17.1955260  77.2833660  40.1572720  28.4728830
  76.9248600  40.8226570  29.0602170  76.9888220  39.3256270  28.8441450
  80.4846780  40.6156960  31.3568380  80.1846920  40.7614140  30.4596200
  81.2558020  40.0562250  31.2641770  85.8275230  45.4125960  29.3523510
  85.8419770  44.4806920  29.1342420  85.1200330  45.4985720  29.9913280
  90.9612300  39.5965780  15.6222120  90.8776020  40.0280000  14.7718560
  91.6806490  40.0564130  16.0548940  91.9899550  46.4508040  18.3504250
  91.3475710  45.7963660  18.6247970  91.6030210  46.8563130  17.5744920
  87.5686030  43.7793470  22.1975940  87.9209850  43.1821600  21.5377310
  86.6848360  43.4537700  22.3684190  83.6549310  44.5391160  19.6046350
  84.3420440  45.0860370  19.9853940  82.8681730  45.0831890  19.6395960
  75.7941710  40.1563980  15.0963430  76.6636560  40.4388780  15.3799350
  75.3032030  40.9699850  14.9812240  82.9576520  41.5437190  19.2171710
  83.4139300  42.3542440  19.4431900  82.6064730  41.2260330  20.0490200
  85.2609130  47.0543530  26.4464010  85.9051350  47.2602910  27.1237430
  85.6238570  46.2931930  25.9934860  78.8588300  31.8874840  19.6894230
  78.7302930  31.8792740  20.6379150  78.0350320  32.2257930  19.3385240
  86.5341210  45.0575880  25.1641460  87.1763440  44.3569040  25.2773630
  87.0590560  45.8374320  24.9838350  90.3796930  45.3424500  14.8880600
  90.1534510  44.6254940  15.4805240  89.9893130  45.0936940  14.0502350
  88.3078830  45.8570780  28.3677520  88.6435070  46.4437470  29.0455440
  87.3879170  45.7263490  28.5975310  76.1612960  49.3691360  15.6625060
  76.5210600  49.9680700  15.0082330  76.0205300  49.9151250  16.4360090
  75.8582230  33.6465960  29.1500930  75.1440750  33.8462880  29.7553540
  76.2777270  32.8705530  29.5215730  89.9613180  43.2596440  16.5494760
  89.6734880  43.7209130  17.3372640  90.7565350  42.7994210  16.8178980
  76.1454820  47.6346220  30.1367460  76.2545940  46.6940960  29.9962850
  75.4935380  47.9000970  29.4881190  84.1367410  45.9062110  31.5365580
  83.8164280  45.1871350  32.0811270  83.4625770  46.5817180  31.6101640
  82.1781580  46.7522560  16.4798730  82.1691680  47.4852250  15.8643240
  81.2579940  46.5054140  16.5725690  77.7788220  41.9737450  17.2245490
  77.1716170  42.7136350  17.2340790  78.2537570  42.0636810  16.3983690
  87.3521010  36.1388270  26.9002380  87.7201830  35.3183480  27.2281950
  86.4919210  36.1990160  27.3158030  90.7183040  35.0945210  17.7089940
  90.0896200  35.1990880  16.9948170  90.2234960  35.3141990  18.4983820
  85.1641180  46.8150800  15.1423920  85.2653160  46.6114790  14.2125900
  84.2642920  46.5609080  15.3471700  82.6867070  37.3731160  19.1247820
  81.9783220  37.8417500  19.5661430  82.9711550  36.7153170  19.7593010
  84.3123000  38.7927860  27.1240350  84.8108250  39.2673680  27.7892200
  84.4545950  37.8691380  27.3310380  86.7182500  34.0981820  20.5643610
  86.5950280  34.1167950  19.6153120  87.6667060  34.1460760  20.6842010
  83.8059290  49.3337120  19.8371590  84.0600790  49.2958510  18.9150960
  82.8571770  49.2070450  19.8299840  80.8902090  35.6816240  16.4998530
  81.7392620  36.1186390  16.4338720  80.5233360  35.9936500  17.3270590
  91.5189860  35.0095820  27.9668740  91.0163460  35.7501220  28.3062550
  92.3346520  35.3979820  27.6505530  89.8111870  40.2529000  21.4130100
  88.8702010  40.2679230  21.5877790  90.1255940  39.4664960  21.8590400
  79.7893510  41.9348600  14.9734060  80.5556780  41.8229960  15.5359490
  79.8668200  41.2386570  14.3210830  78.4840270  39.3673670  15.6566950
  78.5643860  38.4201180  15.7684350  79.3760020  39.6980550  15.7627610
  79.2854980  49.5169060  22.7601490  80.0217460  48.9684520  23.0310060
  79.6695900  50.3825070  22.6207480  76.1700460  45.5842630  18.6343000
  75.2440240  45.8263770  18.6248410  76.6356890  46.4116890  18.5127750
  78.2913260  48.7015130  31.9487070  79.0925990  49.0227180  32.3622470
  77.7765080  48.3410710  32.6706980  82.3957290  48.6899370  14.5827060
  83.1885900  48.9788200  14.1308850  81.8761640  48.2591540  13.9039540
  87.1277890  44.8095000  31.8962480  86.5216050  44.8326600  31.1558230
  86.8232000  44.0778040  32.4329730  88.5578260  48.5375290  30.5071890
  89.5100010  48.4533310  30.4572130  88.4106480  49.2017000  31.1805680
  91.4487460  47.9169500  16.0063800  91.1628970  47.5034640  15.1917980
  91.2507010  48.8457210  15.8864320  76.0111070  41.1888590  30.8923120
  76.5150090  40.6095870  31.4639350  75.2718490  41.4728820  31.4299490
  82.9134690  43.9102780  14.4469410  82.8085330  43.2955130  15.1730790
  82.7458910  43.3868670  13.6632420  83.0649010  42.5959580  30.4258640
  82.2994680  43.1644580  30.3413310  83.2464970  42.3035790  29.5326870
  86.1537420  42.9722810  15.0511400  85.6047520  43.4192110  15.6954140
  86.7756680  42.4672060  15.5749070  90.2072360  44.3264910  30.9833660
  90.9481830  44.6640670  30.4801120  89.4445040  44.4956970  30.4303430
  78.0434150  39.3318180  31.7873190  78.0839490  39.0332050  32.6958420
  78.8979650  39.7325790  31.6280710  81.8212540  41.9313730  16.9476700
  82.2428960  41.7653600  17.7908090  81.9463380  41.1213960  16.4531840
  79.9839960  37.9110280  29.7547680  79.4536420  37.4201230  29.1271020
  80.6528030  38.3394480  29.2205610  84.3340180  40.9551340  14.1953800
  84.8545840  40.2400360  13.8294950  84.9808580  41.5937210  14.4954310
  88.8818020  42.3779740  29.5188870  89.2959040  42.5324820  30.3679290
  87.9469020  42.5034960  29.6814650  89.3540190  39.7175900  31.5228020
  89.9360960  38.9628220  31.4348500  89.5301960  40.2483340  30.7459500
  80.4712260  34.8772650  29.8344970  80.3769130  34.2593400  29.1095840
  79.8909650  35.6038940  29.6074880  83.2373700  33.4345890  26.8672360
  82.7891000  33.4570150  26.0217910  82.6038900  33.0364910  27.4642660
  83.6433250  42.3300220  27.4884800  84.0621360  43.1732950  27.3161040
  82.7241880  42.4672260  27.2591580  85.9797150  40.0616400  28.8722640
  86.0993360  39.4657540  29.6117480  86.8391150  40.0986090  28.4523940
  88.3185050  40.6153590  27.4485150  87.7920270  41.1396210  26.8450290
  88.6616390  41.2480980  28.0794880  80.7171440  38.0046960  13.8934860
  80.5160500  37.1414320  14.2548200  80.5463490  37.9180320  12.9556460
  81.4940670  48.6353230  28.6042530  80.9561760  49.3599290  28.2851230
  81.7474630  48.1583570  27.8139870  82.7465920  36.6037750  30.1298460
  83.3365610  36.2953600  30.8176280  81.9286160  36.1317500  30.2858360
  87.5659350  36.2203560  30.3631480  86.8774870  35.5585100  30.2981470
  88.2865370  35.7741830  30.8079940  88.1959750  32.8155190  16.4221740
  88.4762040  31.9723090  16.7781160  87.4225480  33.0478300  16.9360490
  79.5154240  35.1047580  13.8812740  79.8180140  35.1115010  12.9731890
  80.2548830  34.7545440  14.3780400  84.3502880  49.8704440  28.8629180
  84.2761580  50.7739580  29.1701550  83.4481720  49.5516340  28.8351250
  82.7339170  34.0482200  14.8668940  82.3861170  33.3706190  14.2871390
  82.9351940  33.5871710  15.6812330  84.8988210  49.0362950  16.4855540
  85.7939000  49.3747920  16.5074300  84.9305840  48.3142360  15.8579820
  78.5384370  44.4090000  14.7142540  78.9759240  44.9519670  15.3700120
  79.0232100  43.5836950  14.7238880  75.7530170  47.1979030  22.1662800
  76.0833180  46.3300090  21.9341440  76.1821170  47.4037550  22.9967760
  80.3492090  45.5288040  19.8264770  80.0487630  45.4053010  20.7268680
  80.2429580  44.6696630  19.4180500  76.2420380  48.0649620  24.9044430
  75.8051370  48.2450420  25.7368580  76.8098060  48.8224240  24.7626150
  91.8782560  47.5666620  29.1921740  91.2784550  47.6259180  28.4485660
  92.0076460  46.6271600  29.3218590  76.0744810  40.5769850  21.2633310
  75.4193650  40.3081490  20.6193010  76.9122760  40.4674330  20.8135290
  90.5634200  44.2918600  27.2897900  89.7494040  44.7215760  27.5523690
  90.9708400  44.9037010  26.6766950  89.0235250  35.3711140  15.4851800
  89.4420130  35.1842120  14.6448460  88.7171310  34.5190190  15.7954730
  77.1120740  40.9622420  25.8036650  77.4793780  40.8749820  26.6832670
  76.5431560  40.1988970  25.7043510  91.9124600  39.4306800  28.8167120
  91.6810690  39.2019550  27.9165070  92.1729150  40.3506350  28.7712010
  76.6636740  37.8731510  29.7095070  75.7692790  37.8398270  30.0488780
  77.2034290  38.0718300  30.4746320  90.3512670  34.6563230  31.5946820
  91.2282850  34.6646630  31.9780820  90.3633510  33.9194070  30.9839170
  75.2882890  37.7868780  17.2058640  74.3846970  38.0498980  17.0310300
  75.7723510  38.0579950  16.4258600  91.7975940  38.5092770  22.4834840
  92.3213420  38.0155420  21.8525010  92.3835360  38.6443130  23.2282410
  91.9765660  38.5932640  26.0054390  91.0268370  38.5596180  26.1199380
  92.1578670  39.5032750  25.7704160  77.8310100  36.8434320  15.1153020
  78.5401800  36.4217540  14.6300300  77.1150040  36.9109550  14.4836370
  77.4784260  32.8973650  14.1555670  78.2012390  33.4382590  14.4736890
  77.7508780  32.6237070  13.2797210  91.2875910  37.7666120  18.4227250
  91.7835030  37.5336990  19.2076130  91.0891980  36.9277960  18.0064890
  77.1676450  32.1479840  24.0578290  77.8152640  31.5977220  23.6173450
  77.5878290  32.4022990  24.8794100  91.0628790  32.3421200  27.4147930
  91.7001010  32.9555340  27.7807120  91.2103680  32.3781860  26.4697160
  90.6210250  49.0437200  20.8166170  91.2169320  48.7221770  20.1400590
  90.8788400  48.5709020  21.6079440  76.9208450  32.3035510  26.8003610
  76.5723270  32.7599330  27.5661790  76.5896150  31.4092640  26.8826040
  78.5272820  45.4755110  30.9656800  78.4842450  45.1048020  31.8471260
  78.6583830  46.4132680  31.1058620  82.2278850  47.0314700  26.5666520
  81.9870210  47.2989260  25.6797040  83.1681490  47.2020430  26.6217380
  84.4333270  33.4947390  30.3223030  84.3722160  34.0869220  31.0718440
  85.3733650  33.3873350  30.1773290  87.0707830  33.1517450  29.9615320
  87.6848240  33.4696740  29.2996400  87.6157390  32.6666040  30.5811180
  77.5929090  31.8311710  30.0754380  78.1412080  31.6499760  29.3120490
  77.6584400  31.0405820  30.6110690  78.3660850  48.4217360  28.0854580
  77.7721170  48.2902060  28.8244620  78.3584690  47.5855500  27.6196680
  87.8115870  31.7149590  26.2884610  86.9375710  32.0484700  26.0857540
  87.7026620  31.2422770  27.1136480  88.7187850  33.9220460  27.6726330
  88.3901210  33.1072220  27.2928060  89.6670150  33.8790270  27.5492020
  91.1722460  49.6932500  24.6463900  90.7125430  50.4448310  24.2721920
  90.5434920  48.9738970  24.5878700  77.9973080  45.7875740  27.0362620
  77.2707140  45.1681030  26.9688570  78.0582230  46.1816350  26.1660700
  81.6018180  48.0020740  23.8212030  82.1183200  47.3908100  23.2960290
  82.2515560  48.5049520  24.3123040  84.3413680  48.8929230  24.6481010
  84.6291490  48.6383530  23.7714020  84.8536900  48.3406590  25.2386580
  85.5590690  32.6319430  25.2277520  84.7762480  33.1064930  25.5074280
  85.2653620  31.7274260  25.1190700  90.1111760  33.3342530  23.2726610
  90.5519850  33.2787630  22.4248210  89.8419350  34.2500540  23.3436790
  76.2803080  49.1050130  20.2459380  76.1125120  48.4720810  20.9441270
  75.4137590  49.3109530  19.8953570  76.9031100  32.9366910  17.7491240
  77.6610460  33.0495790  17.1755270  76.4408270  33.7736110  17.7034670
  83.4444910  35.0506180  20.7393550  82.6319420  34.6763070  20.3989430
  83.9486550  34.2951260  21.0414740  87.9469890  31.7148630  21.9776620
  88.5499260  32.2868840  22.4525140  87.2062880  32.2788070  21.7550520
  91.0904490  32.1170190  17.2516900  91.2855120  33.0153640  17.5184330
  90.3034360  31.8857270  17.7449850  77.8865780  47.7983360  17.6909520
  77.3613400  48.1791390  16.9871480  77.8110360  48.4234130  18.4119230
  79.2756250  33.4630960  16.2893210  79.8049010  32.6760760  16.1601160
  79.9084570  34.1422150  16.5228740  81.4694090  33.2006100  19.3438600
  80.8396830  32.4993410  19.5108730  80.9299230  33.9610230  19.1271760
  84.4086040  49.8145330  32.0149210  85.3353350  49.5789600  32.0585170
  84.3936470  50.6417330  31.5335240  81.5949650  32.4790080  31.7791090
  81.3133920  32.9823680  31.0151910  81.9769350  31.6811830  31.4133220
  80.4858750  49.7465740  16.5658770  81.2177570  49.4625020  16.0182660
  80.7452420  49.5079020  17.4558150  79.6473540  45.8630470  16.5705100
  79.0182420  46.3315570  17.1190930  79.7621370  45.0179690  17.0051290
  88.1965110  31.8943660  32.3571560  88.0830560  32.2138270  33.2523080
  89.0134850  32.2956170  32.0608840  90.9763600  49.0415190  31.8390250
  91.7688920  48.5464420  31.6316210  91.2696750  49.7205330  32.4465860
  87.1023260  39.9136130   2.7206300  87.0217310  38.9990740   2.4498010
  86.6887680  40.4103200   2.0146010  85.2341300  41.6915150   4.6015570
  84.4583400  41.2115590   4.8914140  85.8854230  41.0120800   4.4271730
  79.2507130  42.0034960   5.4791330  78.4192010  41.7483670   5.8787840
  79.8588110  42.0745730   6.2149250  89.2548730  46.0975340   3.3814700
  88.7930260  45.3262580   3.7101870  90.0674280  46.1241410   3.8867150
  79.2308390  46.0375050   5.6749350  79.5336430  45.1472790   5.4959570
  79.9751980  46.5945270   5.4471600  75.6232090  39.5642500   5.1473420
  76.1948200  38.7964700   5.1477060  75.6233630  39.8631260   4.2380030
  85.4812040  48.3833350   3.0018690  84.8623480  48.8390850   2.4313130
  86.3363820  48.5384810   2.6008390  84.6750290  44.3672340   4.6085730
  84.6058570  43.4262280   4.4474860  85.4370150  44.4573750   5.1808300
  76.8656960  34.9726860   6.9342350  76.6859800  34.0752610   7.2145110
  76.4637040  35.5198730   7.6089300  85.7055460  37.1742720   4.8354660
  86.0820280  36.3014600   4.7228330  85.6074970  37.5101420   3.9445100
  89.4879580  34.6693160   1.7683000  90.3089200  34.1789730   1.8108480
  89.5213660  35.2590820   2.5214840  77.4843630  37.4687360   5.5424690
  78.1653740  37.7325730   6.1612090  77.1691680  36.6288230   5.8762700
  81.6768200  38.5154720   4.6297280  82.1846420  39.0135690   5.2702300
  82.2081440  37.7389920   4.4536640  79.9604300  33.1553280   8.8960700
  79.9622740  33.6725670   8.0906600  79.1308610  32.6783460   8.8730630
  81.2107150  42.7948460   7.0734200  80.8776530  43.4217380   7.7155270
  81.3873830  43.3210340   6.2935870  89.7241060  36.6093540   4.5410540
  89.0196630  36.8978430   5.1213650  90.0853220  37.4193650   4.1810100
  79.6419630  34.8663240   6.9031150  79.9836440  35.7105290   6.6085020
  78.7035440  35.0146980   7.0196490  80.4226250  44.7629260   8.8883380
  81.0400250  45.4380340   8.6067830  79.5619370  45.1717240   8.7970880
  91.3403840  46.2268670   6.8038020  90.6567360  46.8967780   6.7954690
  91.8798130  46.4249320   6.0382880  83.3247520  32.3545510   3.2275740
  83.6322500  31.7992400   2.5111240  82.3948220  32.4889970   3.0448730
  88.8762580  48.0712800   5.5183200  88.8889740  47.6675090   4.6505460
  88.3237800  48.8460090   5.4144630  88.2748020  42.9742640   6.8465810
  88.6916810  42.7602750   6.0119270  88.9987840  43.2315430   7.4174430
  89.1852130  38.1599180   7.8836920  88.7723310  38.9852890   8.1376910
  88.4528080  37.5744220   7.6913280  81.3184920  40.9459080   2.7455590
  80.9141920  40.2336330   2.2501490  81.4048040  40.6012320   3.6343630
  81.7866620  44.6326640   4.9094800  81.4894910  44.0272110   4.2302580
  82.7366440  44.6703950   4.7984160  80.0313540  37.7202290   6.5254630
  80.5828130  37.8297630   5.7507880  80.5457050  38.0939890   7.2409860
  89.8752230  48.2058510   8.5717900  89.3982790  49.0130700   8.3790510
  89.1914020  47.5536840   8.7244110  80.8785050  44.3708330  11.5602600
  79.9813580  44.5948300  11.8076000  80.9037920  44.4943270  10.6114000
  79.7056270  41.2421650  10.1359970  79.5664040  42.1144450  10.5047370
  78.8237630  40.8994460   9.9907910  81.5036620  47.1843350  12.3445120
  81.4752050  47.5886300  11.4773550  81.3401590  46.2553710  12.1816720
  75.6574920  43.0119200   6.0530880  75.7355340  43.1467970   5.1086600
  76.2716600  42.3035090   6.2459000  76.9022550  44.7119390   2.4637060
  76.4950630  44.8533980   1.6090660  77.7935560  44.4279550   2.2608270
  86.7201430  48.8611300   9.3704110  87.2346100  48.7719310  10.1726540
  85.8770510  49.2071000   9.6632020  75.7134440  44.0533370   8.5925340
  75.8765480  43.5838730   7.7744710  76.1786890  43.5456930   9.2574180
  80.4853210  33.1839130   3.6285910  80.0421360  33.9648670   3.2970430
  81.0438200  33.5069020   4.3356850  84.7723020  36.0507650   9.2321230
  84.3102390  36.2590670  10.0441170  84.3701130  35.2367000   8.9291900
  89.7727530  37.2716600  10.3617890  88.9221120  36.9722350  10.6826960
  89.6129320  37.5158610   9.4501710  86.8677240  38.7718350  12.4616680
  87.1930650  37.9382100  12.1218910  87.6557570  39.2946870  12.6095010
  82.5229110  33.7286460   5.4875510  82.8201440  34.6349290   5.4067530
  83.0714670  33.2405240   4.8735080  82.7166640  39.2058280  12.0227430
  82.6210240  38.2653010  11.8727830  83.5598620  39.4273350  11.6275500
  77.8477180  35.6171950  10.1761210  77.4540570  36.4647160  10.3833990
  77.1595580  34.9798320  10.3669850  84.4222230  35.7006920  13.2457950
  83.7320550  35.5079120  13.8804040  85.1654530  35.9841560  13.7782250
  75.1494230  33.5400410   4.2091290  74.8607280  34.1103270   4.9216270
  75.8939990  33.0604860   4.5722520  86.6985200  39.5405360   6.0811870
  85.9666320  40.0492170   6.4301970  86.3009540  38.7235340   5.7800650
  83.1362590  36.2159560   4.4864360  83.1398650  35.7749510   3.6368900
  84.0313710  36.5376890   4.5936180  78.9864970  36.0986050   3.4458570
  78.6465020  36.5761280   4.2025620  78.2242290  35.6451170   3.0859670
  87.1611110  34.9939040   5.4934810  87.1783850  35.4447690   6.3376660
  86.9126690  34.0944680   5.7068250  90.5881860  32.4071220  11.3321190
  90.9127630  31.6760880  11.8579170  90.6238370  32.0884860  10.4302180
  77.2873420  43.4284800  10.7521150  76.9028210  42.7878470  11.3504110
  77.5985610  44.1320920  11.3215880  83.4370560  40.2761340   6.2329770
  83.8040690  39.8019910   6.9791110  83.2475620  41.1502910   6.5738110
  76.3011050  35.0205030   2.3623240  76.0157970  34.6560700   3.2001860
  76.2389910  34.2885490   1.7486380  81.2269930  39.3169980   8.5513980
  80.9227000  40.1961960   8.7764340  82.1816390  39.3769770   8.5871420
  90.5139700  42.5196330   4.9407220  91.2338820  43.0151620   4.5503330
  90.3121520  41.8414220   4.2961090  85.8958500  42.5905390  10.8276220
  85.8295810  41.6701060  10.5733810  85.2663640  42.6880830  11.5420860
  79.7989120  43.1911350   2.7859640  80.3167790  42.3879610   2.7316530
  79.3473140  43.1290490   3.6276470  77.2833660  40.1572720   9.6985340
  76.9248600  40.8226570  10.2858680  76.9888220  39.3256270  10.0697960
  80.4846780  40.6156960  12.5824890  80.1846920  40.7614140  11.6852710
  81.2558020  40.0562250  12.4898280  85.8275230  45.4125960  10.5780020
  85.8419770  44.4806920  10.3598930  85.1200330  45.4985720  11.2169790
  87.5686030  43.7793470   3.4232450  87.9209850  43.1821600   2.7633820
  86.6848360  43.4537700   3.5940700  85.2609130  47.0543530   7.6720520
  85.9051350  47.2602910   8.3493940  85.6238570  46.2931930   7.2191370
  86.5341210  45.0575880   6.3897970  87.1763440  44.3569040   6.5030140
  87.0590560  45.8374320   6.2094860  88.3078830  45.8570780   9.5934030
  88.6435070  46.4437470  10.2711950  87.3879170  45.7263490   9.8231820
  75.8582230  33.6465960  10.3757440  75.1440750  33.8462880  10.9810050
  76.2777270  32.8705530  10.7472240  76.1454820  47.6346220  11.3623970
  76.2545940  46.6940960  11.2219360  75.4935380  47.9000970  10.7137700
  84.1367410  45.9062110  12.7622090  83.8164280  45.1871350  13.3067780
  83.4625770  46.5817180  12.8358150  87.3521010  36.1388270   8.1258890
  87.7201830  35.3183480   8.4538460  86.4919210  36.1990160   8.5414540
  84.3123000  38.7927860   8.3496860  84.8108250  39.2673680   9.0148710
  84.4545950  37.8691380   8.5566890  91.5189860  35.0095820   9.1925250
  91.0163460  35.7501220   9.5319060  92.3346520  35.3979820   8.8762040
  89.8111870  40.2529000   2.6386610  88.8702010  40.2679230   2.8134300
  90.1255940  39.4664960   3.0846910  79.2854980  49.5169060   3.9858000
  80.0217460  48.9684520   4.2566570  79.6695900  50.3825070   3.8463990
  78.2913260  48.7015130  13.1743580  79.0925990  49.0227180  13.5878980
  77.7765080  48.3410710  13.8963490  87.1277890  44.8095000  13.1218990
  86.5216050  44.8326600  12.3814740  86.8232000  44.0778040  13.6586240
  88.5578260  48.5375290  11.7328400  89.5100010  48.4533310  11.6828640
  88.4106480  49.2017000  12.4062190  76.0111070  41.1888590  12.1179630
  76.5150090  40.6095870  12.6895860  75.2718490  41.4728820  12.6556000
  83.0649010  42.5959580  11.6515150  82.2994680  43.1644580  11.5669820
  83.2464970  42.3035790  10.7583380  90.2072360  44.3264910  12.2090170
  90.9481830  44.6640670  11.7057630  89.4445040  44.4956970  11.6559940
  78.0434150  39.3318180  13.0129700  78.0839490  39.0332050  13.9214930
  78.8979650  39.7325790  12.8537220  79.9839960  37.9110280  10.9804190
  79.4536420  37.4201230  10.3527530  80.6528030  38.3394480  10.4462120
  88.8818020  42.3779740  10.7445380  89.2959040  42.5324820  11.5935800
  87.9469020  42.5034960  10.9071160  89.3540190  39.7175900  12.7484530
  89.9360960  38.9628220  12.6605010  89.5301960  40.2483340  11.9716010
  80.4712260  34.8772650  11.0601480  80.3769130  34.2593400  10.3352350
  79.8909650  35.6038940  10.8331390  83.2373700  33.4345890   8.0928870
  82.7891000  33.4570150   7.2474420  82.6038900  33.0364910   8.6899170
  83.6433250  42.3300220   8.7141310  84.0621360  43.1732950   8.5417550
  82.7241880  42.4672260   8.4848090  85.9797150  40.0616400  10.0979150
  86.0993360  39.4657540  10.8373990  86.8391150  40.0986090   9.6780450
  88.3185050  40.6153590   8.6741660  87.7920270  41.1396210   8.0706800
  88.6616390  41.2480980   9.3051390  81.4940670  48.6353230   9.8299040
  80.9561760  49.3599290   9.5107740  81.7474630  48.1583570   9.0396380
  82.7465920  36.6037750  11.3554970  83.3365610  36.2953600  12.0432790
  81.9286160  36.1317500  11.5114870  87.5659350  36.2203560  11.5887990
  86.8774870  35.5585100  11.5237980  88.2865370  35.7741830  12.0336450
  84.3502880  49.8704440  10.0885690  84.2761580  50.7739580  10.3958060
  83.4481720  49.5516340  10.0607760  75.7530170  47.1979030   3.3919310
  76.0833180  46.3300090   3.1597950  76.1821170  47.4037550   4.2224270
  76.2420380  48.0649620   6.1300940  75.8051370  48.2450420   6.9625090
  76.8098060  48.8224240   5.9882660  91.8782560  47.5666620  10.4178250
  91.2784550  47.6259180   9.6742170  92.0076460  46.6271600  10.5475100
  76.0744810  40.5769850   2.4889820  75.4193650  40.3081490   1.8449520
  76.9122760  40.4674330   2.0391800  90.5634200  44.2918600   8.5154410
  89.7494040  44.7215760   8.7780200  90.9708400  44.9037010   7.9023460
  77.1120740  40.9622420   7.0293160  77.4793780  40.8749820   7.9089180
  76.5431560  40.1988970   6.9300020  91.9124600  39.4306800  10.0423630
  91.6810690  39.2019550   9.1421580  92.1729150  40.3506350   9.9968520
  76.6636740  37.8731510  10.9351580  75.7692790  37.8398270  11.2745290
  77.2034290  38.0718300  11.7002830  90.3512670  34.6563230  12.8203330
  91.2282850  34.6646630  13.2037330  90.3633510  33.9194070  12.2095680
  91.7975940  38.5092770   3.7091350  92.3213420  38.0155420   3.0781520
  92.3835360  38.6443130   4.4538920  91.9765660  38.5932640   7.2310900
  91.0268370  38.5596180   7.3455890  92.1578670  39.5032750   6.9960670
  77.1676450  32.1479840   5.2834800  77.8152640  31.5977220   4.8429960
  77.5878290  32.4022990   6.1050610  91.0628790  32.3421200   8.6404440
  91.7001010  32.9555340   9.0063630  91.2103680  32.3781860   7.6953670
  76.9208450  32.3035510   8.0260120  76.5723270  32.7599330   8.7918300
  76.5896150  31.4092640   8.1082550  78.5272820  45.4755110  12.1913310
  78.4842450  45.1048020  13.0727770  78.6583830  46.4132680  12.3315130
  82.2278850  47.0314700   7.7923030  81.9870210  47.2989260   6.9053550
  83.1681490  47.2020430   7.8473890  84.4333270  33.4947390  11.5479540
  84.3722160  34.0869220  12.2974950  85.3733650  33.3873350  11.4029800
  87.0707830  33.1517450  11.1871830  87.6848240  33.4696740  10.5252910
  87.6157390  32.6666040  11.8067690  77.5929090  31.8311710  11.3010890
  78.1412080  31.6499760  10.5377000  77.6584400  31.0405820  11.8367200
  78.3660850  48.4217360   9.3111090  77.7721170  48.2902060  10.0501130
  78.3584690  47.5855500   8.8453190  87.8115870  31.7149590   7.5141120
  86.9375710  32.0484700   7.3114050  87.7026620  31.2422770   8.3392990
  88.7187850  33.9220460   8.8982840  88.3901210  33.1072220   8.5184570
  89.6670150  33.8790270   8.7748530  91.1722460  49.6932500   5.8720410
  90.7125430  50.4448310   5.4978430  90.5434920  48.9738970   5.8135210
  77.9973080  45.7875740   8.2619130  77.2707140  45.1681030   8.1945080
  78.0582230  46.1816350   7.3917210  81.6018180  48.0020740   5.0468540
  82.1183200  47.3908100   4.5216800  82.2515560  48.5049520   5.5379550
  84.3413680  48.8929230   5.8737520  84.6291490  48.6383530   4.9970530
  84.8536900  48.3406590   6.4643090  85.5590690  32.6319430   6.4534030
  84.7762480  33.1064930   6.7330790  85.2653620  31.7274260   6.3447210
  90.1111760  33.3342530   4.4983120  90.5519850  33.2787630   3.6504720
  89.8419350  34.2500540   4.5693300  83.4444910  35.0506180   1.9650060
  82.6319420  34.6763070   1.6245940  83.9486550  34.2951260   2.2671250
  87.9469890  31.7148630   3.2033130  88.5499260  32.2868840   3.6781650
  87.2062880  32.2788070   2.9807030  84.4086040  49.8145330  13.2405720
  85.3353350  49.5789600  13.2841680  84.3936470  50.6417330  12.7591750
  81.5949650  32.4790080  13.0047600  81.3133920  32.9823680  12.2408420
  81.9769350  31.6811830  12.6389730  88.1965110  31.8943660  13.5828070
  88.0830560  32.2138270  14.4779590  89.0134850  32.2956170  13.2865350
  90.9763600  49.0415190  13.0646760  91.7688920  48.5464420  12.8572720
  91.2696750  49.7205330  13.6722370  87.1023260  21.1392640  77.8180260
  87.0217310  20.2247250  77.5471970  86.6887680  21.6359710  77.1119970
  85.2341300  22.9171660  79.6989530  84.4583400  22.4372100  79.9888100
  85.8854230  22.2377310  79.5245690  79.2507130  23.2291470  80.5765290
  78.4192010  22.9740180  80.9761800  79.8588110  23.3002240  81.3123210
  89.2548730  27.3231850  78.4788660  88.7930260  26.5519090  78.8075830
  90.0674280  27.3497920  78.9841110  79.2308390  27.2631560  80.7723310
  79.5336430  26.3729300  80.5933530  79.9751980  27.8201780  80.5445560
  77.6599080  18.1893360  74.3607680  76.7715780  18.5309330  74.2587560
  77.9440270  17.9893680  73.4688510  75.6232090  20.7899010  80.2447380
  76.1948200  20.0221210  80.2451020  75.6233630  21.0887770  79.3353990
  85.4812040  29.6089860  78.0992650  84.8623480  30.0647360  77.5287090
  86.3363820  29.7641320  77.6982350  84.6750290  25.5928850  79.7059690
  84.6058570  24.6518790  79.5448820  85.4370150  25.6830260  80.2782260
  85.7055460  18.3999230  79.9328620  86.0820280  17.5271110  79.8202290
  85.6074970  18.7357930  79.0419060  79.8360470  16.7724860  75.3946060
  79.9427220  17.6728590  75.7014820  78.9252830  16.7242830  75.1040710
  89.4879580  15.8949670  76.8656960  90.3089200  15.4046240  76.9082440
  89.5213660  16.4847330  77.6188800  77.4843630  18.6943870  80.6398650
  78.1653740  18.9582240  81.2586050  77.1691680  17.8544740  80.9736660
  81.6768200  19.7411230  79.7271240  82.1846420  20.2392200  80.3676260
  82.2081440  18.9646430  79.5510600  86.3475390  24.4929100  75.4924560
  85.7292660  24.9578550  74.9287280  86.8598640  25.1856580  75.9094070
  89.7241060  17.8350050  79.6384500  89.0196630  18.1234940  80.2187610
  90.0853220  18.6450160  79.2784060  79.6419630  16.0919750  82.0005110
  79.9836440  16.9361800  81.7058980  78.7035440  16.2403490  82.1170450
  75.7158590  25.1785630  72.8664190  75.3386570  25.6672730  72.1349090
  75.9731660  25.8510910  73.4970720  91.3403840  27.4525180  81.9011980
  90.6567360  28.1224290  81.8928650  91.8798130  27.6505830  81.1356840
  83.3247520  13.5802020  78.3249700  83.6322500  13.0248910  77.6085200
  82.3948220  13.7146480  78.1422690  88.8762580  29.2969310  80.6157160
  88.8889740  28.8931600  79.7479420  88.3237800  30.0716600  80.5118590
  90.1708000  26.0185530  75.7047330  90.0604330  25.0759860  75.8296750
  90.1676250  26.3801170  76.5910090  85.7128280  21.6450850  75.0609820
  84.7857560  21.5788230  75.2898290  85.8653100  22.5830980  74.9465060
  85.6997360  17.9167850  72.0576980  84.7601030  18.0781810  72.1429440
  86.0180620  18.6353530  71.5112970  89.7425570  23.2071150  75.5645070
  89.1237990  22.8690700  74.9171370  89.7250020  22.5630910  76.2724260
  81.3184920  22.1715590  77.8429550  80.9141920  21.4592840  77.3475450
  81.4048040  21.8268830  78.7317590  81.7866620  25.8583150  80.0068760
  81.4894910  25.2528620  79.3276540  82.7366440  25.8960460  79.8958120
  87.9190270  22.4457960  72.5717820  88.3583550  21.6080390  72.4255640
  88.6318690  23.0787360  72.6581960  86.0285650  27.3854030  76.5399060
  86.4681560  28.1278360  76.1254450  85.9672540  27.6280600  77.4638020
  91.5007410  13.7000770  70.8858860  91.1880070  13.7927600  71.7857930
  92.2619880  14.2781800  70.8356290  78.0189550  21.0660570  75.3436200
  77.8987150  21.7922660  74.7317470  77.7090440  20.2963480  74.8664110
  75.6574920  24.2375710  81.1504840  75.7355340  24.3724480  80.2060560
  76.2716600  23.5291600  81.3432960  76.9022550  25.9375900  77.5611020
  76.4950630  26.0790490  76.7064620  77.7935560  25.6536060  77.3582230
  88.6955830  30.3723150  73.8962070  88.5356970  30.0826090  74.7943900
  88.5302540  29.5963280  73.3607300  81.1744210  30.1521680  75.6733690
  80.9986690  29.2357220  75.4601490  80.3199950  30.5108970  75.9131490
  88.3981960  27.8810710  72.4560070  87.7047120  27.8788000  71.7962350
  89.1404820  27.4570030  72.0254240  87.9631890  29.5073420  76.5308560
  88.4188840  28.7262800  76.8447180  88.3024410  30.2180240  77.0749740
  80.4853210  14.4095640  78.7259870  80.0421360  15.1905180  78.3944390
  81.0438200  14.7325530  79.4330810  83.6012030  14.0306340  73.6065700
  82.9766210  14.0266210  74.3319010  83.5142150  13.1637300  73.2101670
  82.5229110  14.9542970  80.5849470  82.8201440  15.8605800  80.5041490
  83.0714670  14.4661750  79.9709040  80.2767430  19.5329210  76.4541120
  80.0508350  19.3166380  77.3587740  79.4959960  19.9657670  76.1087090
  87.5065190  19.5392580  75.0531770  86.9074080  20.2628380  74.8695390
  88.0544800  19.4769360  74.2708220  86.1130060  18.1756120  77.0835050
  86.5059630  18.4928320  76.2703740  86.4746910  17.2968000  77.1979570
  75.1494230  14.7656920  79.3065250  74.8607280  15.3359780  80.0190230
  75.8939990  14.2861370  79.6696480  75.3364460  18.7077040  70.5167970
  75.2539130  19.6507800  70.6582960  74.9847520  18.5651950  69.6380320
  86.6985200  20.7661870  81.1785830  85.9666320  21.2748680  81.5275930
  86.3009540  19.9491850  80.8774610  83.1362590  17.4416070  79.5838320
  83.1398650  17.0006020  78.7342860  84.0313710  17.7633400  79.6910140
  78.9864970  17.3242560  78.5432530  78.6465020  17.8017790  79.2999580
  78.2242290  16.8707680  78.1833630  83.1982740  18.4428150  72.5745080
  83.3195560  18.4014630  73.5230900  82.8131250  19.3052300  72.4191810
  87.1611110  16.2195550  80.5908770  87.1783850  16.6704200  81.4350620
  86.9126690  15.3201190  80.8042210  82.2104240  20.7529290  71.9728380
  81.6421140  20.3047540  71.3464290  82.9193240  21.1122070  71.4393530
  83.4370560  21.5017850  81.3303730  83.8040690  21.0276420  82.0765070
  83.2475620  22.3759420  81.6712070  76.3011050  16.2461540  77.4597200
  76.0157970  15.8817210  78.2975820  76.2389910  15.5142000  76.8460340
  79.7551720  24.7487480  74.2454790  78.9813980  24.2085100  74.0853510
  80.4846350  24.2294090  73.9072550  90.5139700  23.7452840  80.0381180
  91.2338820  24.2408130  79.6477290  90.3121520  23.0670730  79.3935050
  85.9749640  15.1390800  74.1810570  85.1614250  14.6403970  74.1055880
  85.7811590  15.9789050  73.7646920  88.6898030  19.5110450  72.4772730
  89.5777650  19.8227680  72.3024070  88.6603120  18.6382700  72.0853310
  79.7989120  24.4167860  77.8833600  80.3167790  23.6136120  77.8290490
  79.3473140  24.3547000  78.7250430  84.6858620  25.6834140  73.1560900
  85.0274320  26.4276370  72.6604220  83.8571330  25.9965260  73.5185730
  90.9612300  20.8222290  71.9452590  90.8776020  21.2536510  71.0949030
  91.6806490  21.2820640  72.3779410  91.9899550  27.6764550  74.6734720
  91.3475710  27.0220170  74.9478440  91.6030210  28.0819640  73.8975390
  87.5686030  25.0049980  78.5206410  87.9209850  24.4078110  77.8607780
  86.6848360  24.6794210  78.6914660  83.6549310  25.7647670  75.9276820
  84.3420440  26.3116880  76.3084410  82.8681730  26.3088400  75.9626430
  75.7941710  21.3820490  71.4193900  76.6636560  21.6645290  71.7029820
  75.3032030  22.1956360  71.3042710  82.9576520  22.7693700  75.5402180
  83.4139300  23.5798950  75.7662370  82.6064730  22.4516840  76.3720670
  78.8588300  13.1131350  76.0124700  78.7302930  13.1049250  76.9609620
  78.0350320  13.4514440  75.6615710  86.5341210  26.2832390  81.4871930
  87.1763440  25.5825550  81.6004100  87.0590560  27.0630830  81.3068820
  90.3796930  26.5681010  71.2111070  90.1534510  25.8511450  71.8035710
  89.9893130  26.3193450  70.3732820  76.1612960  30.5947870  71.9855530
  76.5210600  31.1937210  71.3312800  76.0205300  31.1407760  72.7590560
  89.9613180  24.4852950  72.8725230  89.6734880  24.9465640  73.6603110
  90.7565350  24.0250720  73.1409450  82.1781580  27.9779070  72.8029200
  82.1691680  28.7108760  72.1873710  81.2579940  27.7310650  72.8956160
  77.7788220  23.1993960  73.5475960  77.1716170  23.9392860  73.5571260
  78.2537570  23.2893320  72.7214160  90.7183040  16.3201720  74.0320410
  90.0896200  16.4247390  73.3178640  90.2234960  16.5398500  74.8214290
  85.1641180  28.0407310  71.4654390  85.2653160  27.8371300  70.5356370
  84.2642920  27.7865590  71.6702170  82.6867070  18.5987670  75.4478290
  81.9783220  19.0674010  75.8891900  82.9711550  17.9409680  76.0823480
  86.7182500  15.3238330  76.8874080  86.5950280  15.3424460  75.9383590
  87.6667060  15.3717270  77.0072480  83.8059290  30.5593630  76.1602060
  84.0600790  30.5215020  75.2381430  82.8571770  30.4326960  76.1530310
  80.8902090  16.9072750  72.8229000  81.7392620  17.3442900  72.7569190
  80.5233360  17.2193010  73.6501060  89.8111870  21.4785510  77.7360570
  88.8702010  21.4935740  77.9108260  90.1255940  20.6921470  78.1820870
  79.7893510  23.1605110  71.2964530  80.5556780  23.0486470  71.8589960
  79.8668200  22.4643080  70.6441300  78.4840270  20.5930180  71.9797420
  78.5643860  19.6457690  72.0914820  79.3760020  20.9237060  72.0858080
  79.2854980  30.7425570  79.0831960  80.0217460  30.1941030  79.3540530
  79.6695900  31.6081580  78.9437950  76.1700460  26.8099140  74.9573470
  75.2440240  27.0520280  74.9478880  76.6356890  27.6373400  74.8358220
  82.3957290  29.9155880  70.9057530  83.1885900  30.2044710  70.4539320
  81.8761640  29.4848050  70.2270010  91.4487460  29.1426010  72.3294270
  91.1628970  28.7291150  71.5148450  91.2507010  30.0713720  72.2094790
  82.9134690  25.1359290  70.7699880  82.8085330  24.5211640  71.4961260
  82.7458910  24.6125180  69.9862890  86.1537420  24.1979320  71.3741870
  85.6047520  24.6448620  72.0184610  86.7756680  23.6928570  71.8979540
  81.8212540  23.1570240  73.2707170  82.2428960  22.9910110  74.1138560
  81.9463380  22.3470470  72.7762310  84.3340180  22.1807850  70.5184270
  84.8545840  21.4656870  70.1525420  84.9808580  22.8193720  70.8184780
  80.7171440  19.2303470  70.2165330  80.5160500  18.3670830  70.5778670
  80.5463490  19.1436830  69.2786930  88.1959750  14.0411700  72.7452210
  88.4762040  13.1979600  73.1011630  87.4225480  14.2734810  73.2590960
  79.5154240  16.3304090  70.2043210  79.8180140  16.3371520  69.2962360
  80.2548830  15.9801950  70.7010870  82.7339170  15.2738710  71.1899410
  82.3861170  14.5962700  70.6101860  82.9351940  14.8128220  72.0042800
  84.8988210  30.2619460  72.8086010  85.7939000  30.6004430  72.8304770
  84.9305840  29.5398870  72.1810290  78.5384370  25.6346510  71.0373010
  78.9759240  26.1776180  71.6930590  79.0232100  24.8093460  71.0469350
  75.7530170  28.4235540  78.4893270  76.0833180  27.5556600  78.2571910
  76.1821170  28.6294060  79.3198230  80.3492090  26.7544550  76.1495240
  80.0487630  26.6309520  77.0499150  80.2429580  25.8953140  75.7410970
  76.2420380  29.2906130  81.2274900  75.8051370  29.4706930  82.0599050
  76.8098060  30.0480750  81.0856620  76.0744810  21.8026360  77.5863780
  75.4193650  21.5338000  76.9423480  76.9122760  21.6930840  77.1365760
  89.0235250  16.5967650  71.8082270  89.4420130  16.4098630  70.9678930
  88.7171310  15.7446700  72.1185200  75.2882890  19.0125290  73.5289110
  74.3846970  19.2755490  73.3540770  75.7723510  19.2836460  72.7489070
  91.7975940  19.7349280  78.8065310  92.3213420  19.2411930  78.1755480
  92.3835360  19.8699640  79.5512880  77.8310100  18.0690830  71.4383490
  78.5401800  17.6474050  70.9530770  77.1150040  18.1366060  70.8066840
  77.4784260  14.1230160  70.4786140  78.2012390  14.6639100  70.7967360
  77.7508780  13.8493580  69.6027680  91.2875910  18.9922630  74.7457720
  91.7835030  18.7593500  75.5306600  91.0891980  18.1534470  74.3295360
  77.1676450  13.3736350  80.3808760  77.8152640  12.8233730  79.9403920
  77.5878290  13.6279500  81.2024570  90.6210250  30.2693710  77.1396640
  91.2169320  29.9478280  76.4631060  90.8788400  29.7965530  77.9309910
  91.1722460  30.9189010  80.9694370  90.7125430  31.6704820  80.5952390
  90.5434920  30.1995480  80.9109170  81.6018180  29.2277250  80.1442500
  82.1183200  28.6164610  79.6190760  82.2515560  29.7306030  80.6353510
  84.3413680  30.1185740  80.9711480  84.6291490  29.8640040  80.0944490
  84.8536900  29.5663100  81.5617050  85.5590690  13.8575940  81.5507990
  84.7762480  14.3321440  81.8304750  85.2653620  12.9530770  81.4421170
  90.1111760  14.5599040  79.5957080  90.5519850  14.5044140  78.7478680
  89.8419350  15.4757050  79.6667260  76.2803080  30.3306640  76.5689850
  76.1125120  29.6977320  77.2671740  75.4137590  30.5366040  76.2184040
  76.9031100  14.1623420  74.0721710  77.6610460  14.2752300  73.4985740
  76.4408270  14.9992620  74.0265140  83.4444910  16.2762690  77.0624020
  82.6319420  15.9019580  76.7219900  83.9486550  15.5207770  77.3645210
  87.9469890  12.9405140  78.3007090  88.5499260  13.5125350  78.7755610
  87.2062880  13.5044580  78.0780990  91.0904490  13.3426700  73.5747370
  91.2855120  14.2410150  73.8414800  90.3034360  13.1113780  74.0680320
  77.8865780  29.0239870  74.0139990  77.3613400  29.4047900  73.3101950
  77.8110360  29.6490640  74.7349700  79.2756250  14.6887470  72.6123680
  79.8049010  13.9017270  72.4831630  79.9084570  15.3678660  72.8459210
  81.4694090  14.4262610  75.6669070  80.8396830  13.7249920  75.8339200
  80.9299230  15.1866740  75.4502230  80.4858750  30.9722250  72.8889240
  81.2177570  30.6881530  72.3413130  80.7452420  30.7335530  73.7788620
  79.6473540  27.0886980  72.8935570  79.0182420  27.5572080  73.4421400
  79.7621370  26.2436200  73.3281760  87.1023260  21.1392640  59.0436770
  87.0217310  20.2247250  58.7728480  86.6887680  21.6359710  58.3376480
  85.2341300  22.9171660  60.9246040  84.4583400  22.4372100  61.2144610
  85.8854230  22.2377310  60.7502200  79.2507130  23.2291470  61.8021800
  78.4192010  22.9740180  62.2018310  79.8588110  23.3002240  62.5379720
  89.2548730  27.3231850  59.7045170  88.7930260  26.5519090  60.0332340
  90.0674280  27.3497920  60.2097620  79.2308390  27.2631560  61.9979820
  79.5336430  26.3729300  61.8190040  79.9751980  27.8201780  61.7702070
  77.6599080  18.1893360  55.5864190  76.7715780  18.5309330  55.4844070
  77.9440270  17.9893680  54.6945020  75.6232090  20.7899010  61.4703890
  76.1948200  20.0221210  61.4707530  75.6233630  21.0887770  60.5610500
  85.4812040  29.6089860  59.3249160  84.8623480  30.0647360  58.7543600
  86.3363820  29.7641320  58.9238860  84.6750290  25.5928850  60.9316200
  84.6058570  24.6518790  60.7705330  85.4370150  25.6830260  61.5038770
  76.8656960  16.1983370  63.2572820  76.6859800  15.3009120  63.5375580
  76.4637040  16.7455240  63.9319770  85.7055460  18.3999230  61.1585130
  86.0820280  17.5271110  61.0458800  85.6074970  18.7357930  60.2675570
  79.8360470  16.7724860  56.6202570  79.9427220  17.6728590  56.9271330
  78.9252830  16.7242830  56.3297220  89.4879580  15.8949670  58.0913470
  90.3089200  15.4046240  58.1338950  89.5213660  16.4847330  58.8445310
  77.4843630  18.6943870  61.8655160  78.1653740  18.9582240  62.4842560
  77.1691680  17.8544740  62.1993170  81.6768200  19.7411230  60.9527750
  82.1846420  20.2392200  61.5932770  82.2081440  18.9646430  60.7767110
  79.9604300  14.3809790  65.2191170  79.9622740  14.8982180  64.4137070
  79.1308610  13.9039970  65.1961100  86.3475390  24.4929100  56.7181070
  85.7292660  24.9578550  56.1543790  86.8598640  25.1856580  57.1350580
  81.2107150  24.0204970  63.3964670  80.8776530  24.6473890  64.0385740
  81.3873830  24.5466850  62.6166340  89.7241060  17.8350050  60.8641010
  89.0196630  18.1234940  61.4444120  90.0853220  18.6450160  60.5040570
  79.6419630  16.0919750  63.2261620  79.9836440  16.9361800  62.9315490
  78.7035440  16.2403490  63.3426960  80.4226250  25.9885770  65.2113850
  81.0400250  26.6636850  64.9298300  79.5619370  26.3973750  65.1201350
  75.7158590  25.1785630  54.0920700  75.3386570  25.6672730  53.3605600
  75.9731660  25.8510910  54.7227230  91.3403840  27.4525180  63.1268490
  90.6567360  28.1224290  63.1185160  91.8798130  27.6505830  62.3613350
  83.3247520  13.5802020  59.5506210  83.6322500  13.0248910  58.8341710
  82.3948220  13.7146480  59.3679200  88.8762580  29.2969310  61.8413670
  88.8889740  28.8931600  60.9735930  88.3237800  30.0716600  61.7375100
  90.1708000  26.0185530  56.9303840  90.0604330  25.0759860  57.0553260
  90.1676250  26.3801170  57.8166600  88.2748020  24.1999150  63.1696280
  88.6916810  23.9859260  62.3349740  88.9987840  24.4571940  63.7404900
  85.7128280  21.6450850  56.2866330  84.7857560  21.5788230  56.5154800
  85.8653100  22.5830980  56.1721570  85.6997360  17.9167850  53.2833490
  84.7601030  18.0781810  53.3685950  86.0180620  18.6353530  52.7369480
  89.7425570  23.2071150  56.7901580  89.1237990  22.8690700  56.1427880
  89.7250020  22.5630910  57.4980770  89.1852130  19.3855690  64.2067390
  88.7723310  20.2109400  64.4607380  88.4528080  18.8000730  64.0143750
  81.3184920  22.1715590  59.0686060  80.9141920  21.4592840  58.5731960
  81.4048040  21.8268830  59.9574100  81.7866620  25.8583150  61.2325270
  81.4894910  25.2528620  60.5533050  82.7366440  25.8960460  61.1214630
  80.0313540  18.9458800  62.8485100  80.5828130  19.0554140  62.0738350
  80.5457050  19.3196400  63.5640330  89.8752230  29.4315020  64.8948370
  89.3982790  30.2387210  64.7020980  89.1914020  28.7793350  65.0474580
  80.8785050  25.5964840  67.8833070  79.9813580  25.8204810  68.1306470
  80.9037920  25.7199780  66.9344470  87.9190270  22.4457960  53.7974330
  88.3583550  21.6080390  53.6512150  88.6318690  23.0787360  53.8838470
  79.7056270  22.4678160  66.4590440  79.5664040  23.3400960  66.8277840
  78.8237630  22.1250970  66.3138380  86.0285650  27.3854030  57.7655570
  86.4681560  28.1278360  57.3510960  85.9672540  27.6280600  58.6894530
  81.5036620  28.4099860  68.6675590  81.4752050  28.8142810  67.8004020
  81.3401590  27.4810220  68.5047190  91.5007410  13.7000770  52.1115370
  91.1880070  13.7927600  53.0114440  92.2619880  14.2781800  52.0612800
  78.0189550  21.0660570  56.5692710  77.8987150  21.7922660  55.9573980
  77.7090440  20.2963480  56.0920620  75.6574920  24.2375710  62.3761350
  75.7355340  24.3724480  61.4317070  76.2716600  23.5291600  62.5689470
  76.9022550  25.9375900  58.7867530  76.4950630  26.0790490  57.9321130
  77.7935560  25.6536060  58.5838740  86.7201430  30.0867810  65.6934580
  87.2346100  29.9975820  66.4957010  85.8770510  30.4327510  65.9862490
  88.6955830  30.3723150  55.1218580  88.5356970  30.0826090  56.0200410
  88.5302540  29.5963280  54.5863810  81.1744210  30.1521680  56.8990200
  80.9986690  29.2357220  56.6858000  80.3199950  30.5108970  57.1388000
  88.3981960  27.8810710  53.6816580  87.7047120  27.8788000  53.0218860
  89.1404820  27.4570030  53.2510750  87.9631890  29.5073420  57.7565070
  88.4188840  28.7262800  58.0703690  88.3024410  30.2180240  58.3006250
  75.7134440  25.2789880  64.9155810  75.8765480  24.8095240  64.0975180
  76.1786890  24.7713440  65.5804650  80.4853210  14.4095640  59.9516380
  80.0421360  15.1905180  59.6200900  81.0438200  14.7325530  60.6587320
  84.7723020  17.2764160  65.5551700  84.3102390  17.4847180  66.3671640
  84.3701130  16.4623510  65.2522370  89.7727530  18.4973110  66.6848360
  88.9221120  18.1978860  67.0057430  89.6129320  18.7415120  65.7732180
  86.8677240  19.9974860  68.7847150  87.1930650  19.1638610  68.4449380
  87.6557570  20.5203380  68.9325480  83.6012030  14.0306340  54.8322210
  82.9766210  14.0266210  55.5575520  83.5142150  13.1637300  54.4358180
  82.5229110  14.9542970  61.8105980  82.8201440  15.8605800  61.7298000
  83.0714670  14.4661750  61.1965550  80.2767430  19.5329210  57.6797630
  80.0508350  19.3166380  58.5844250  79.4959960  19.9657670  57.3343600
  87.5065190  19.5392580  56.2788280  86.9074080  20.2628380  56.0951900
  88.0544800  19.4769360  55.4964730  82.7166640  20.4314790  68.3457900
  82.6210240  19.4909520  68.1958300  83.5598620  20.6529860  67.9505970
  86.1130060  18.1756120  58.3091560  86.5059630  18.4928320  57.4960250
  86.4746910  17.2968000  58.4236080  77.8477180  16.8428460  66.4991680
  77.4540570  17.6903670  66.7064460  77.1595580  16.2054830  66.6900320
  84.4222230  16.9263430  69.5688420  83.7320550  16.7335630  70.2034510
  85.1654530  17.2098070  70.1012720  75.1494230  14.7656920  60.5321760
  74.8607280  15.3359780  61.2446740  75.8939990  14.2861370  60.8952990
  75.3364460  18.7077040  51.7424480  75.2539130  19.6507800  51.8839470
  74.9847520  18.5651950  50.8636830  86.6985200  20.7661870  62.4042340
  85.9666320  21.2748680  62.7532440  86.3009540  19.9491850  62.1031120
  83.1362590  17.4416070  60.8094830  83.1398650  17.0006020  59.9599370
  84.0313710  17.7633400  60.9166650  78.9864970  17.3242560  59.7689040
  78.6465020  17.8017790  60.5256090  78.2242290  16.8707680  59.4090140
  83.1982740  18.4428150  53.8001590  83.3195560  18.4014630  54.7487410
  82.8131250  19.3052300  53.6448320  87.1611110  16.2195550  61.8165280
  87.1783850  16.6704200  62.6607130  86.9126690  15.3201190  62.0298720
  82.2104240  20.7529290  53.1984890  81.6421140  20.3047540  52.5720800
  82.9193240  21.1122070  52.6650040  90.5881860  13.6327730  67.6551660
  90.9127630  12.9017390  68.1809640  90.6238370  13.3141370  66.7532650
  77.2873420  24.6541310  67.0751620  76.9028210  24.0134980  67.6734580
  77.5985610  25.3577430  67.6446350  83.4370560  21.5017850  62.5560240
  83.8040690  21.0276420  63.3021580  83.2475620  22.3759420  62.8968580
  76.3011050  16.2461540  58.6853710  76.0157970  15.8817210  59.5232330
  76.2389910  15.5142000  58.0716850  81.2269930  20.5426490  64.8744450
  80.9227000  21.4218470  65.0994810  82.1816390  20.6026280  64.9101890
  79.7551720  24.7487480  55.4711300  78.9813980  24.2085100  55.3110020
  80.4846350  24.2294090  55.1329060  90.5139700  23.7452840  61.2637690
  91.2338820  24.2408130  60.8733800  90.3121520  23.0670730  60.6191560
  85.9749640  15.1390800  55.4067080  85.1614250  14.6403970  55.3312390
  85.7811590  15.9789050  54.9903430  85.8958500  23.8161900  67.1506690
  85.8295810  22.8957570  66.8964280  85.2663640  23.9137340  67.8651330
  88.6898030  19.5110450  53.7029240  89.5777650  19.8227680  53.5280580
  88.6603120  18.6382700  53.3109820  79.7989120  24.4167860  59.1090110
  80.3167790  23.6136120  59.0547000  79.3473140  24.3547000  59.9506940
  84.6858620  25.6834140  54.3817410  85.0274320  26.4276370  53.8860730
  83.8571330  25.9965260  54.7442240  77.2833660  21.3829230  66.0215810
  76.9248600  22.0483080  66.6089150  76.9888220  20.5512780  66.3928430
  80.4846780  21.8413470  68.9055360  80.1846920  21.9870650  68.0083180
  81.2558020  21.2818760  68.8128750  85.8275230  26.6382470  66.9010490
  85.8419770  25.7063430  66.6829400  85.1200330  26.7242230  67.5400260
  90.9612300  20.8222290  53.1709100  90.8776020  21.2536510  52.3205540
  91.6806490  21.2820640  53.6035920  91.9899550  27.6764550  55.8991230
  91.3475710  27.0220170  56.1734950  91.6030210  28.0819640  55.1231900
  87.5686030  25.0049980  59.7462920  87.9209850  24.4078110  59.0864290
  86.6848360  24.6794210  59.9171170  83.6549310  25.7647670  57.1533330
  84.3420440  26.3116880  57.5340920  82.8681730  26.3088400  57.1882940
  75.7941710  21.3820490  52.6450410  76.6636560  21.6645290  52.9286330
  75.3032030  22.1956360  52.5299220  82.9576520  22.7693700  56.7658690
  83.4139300  23.5798950  56.9918880  82.6064730  22.4516840  57.5977180
  85.2609130  28.2800040  63.9950990  85.9051350  28.4859420  64.6724410
  85.6238570  27.5188440  63.5421840  78.8588300  13.1131350  57.2381210
  78.7302930  13.1049250  58.1866130  78.0350320  13.4514440  56.8872220
  86.5341210  26.2832390  62.7128440  87.1763440  25.5825550  62.8260610
  87.0590560  27.0630830  62.5325330  90.3796930  26.5681010  52.4367580
  90.1534510  25.8511450  53.0292220  89.9893130  26.3193450  51.5989330
  88.3078830  27.0827290  65.9164500  88.6435070  27.6693980  66.5942420
  87.3879170  26.9520000  66.1462290  76.1612960  30.5947870  53.2112040
  76.5210600  31.1937210  52.5569310  76.0205300  31.1407760  53.9847070
  75.8582230  14.8722470  66.6987910  75.1440750  15.0719390  67.3040520
  76.2777270  14.0962040  67.0702710  89.9613180  24.4852950  54.0981740
  89.6734880  24.9465640  54.8859620  90.7565350  24.0250720  54.3665960
  76.1454820  28.8602730  67.6854440  76.2545940  27.9197470  67.5449830
  75.4935380  29.1257480  67.0368170  84.1367410  27.1318620  69.0852560
  83.8164280  26.4127860  69.6298250  83.4625770  27.8073690  69.1588620
  82.1781580  27.9779070  54.0285710  82.1691680  28.7108760  53.4130220
  81.2579940  27.7310650  54.1212670  77.7788220  23.1993960  54.7732470
  77.1716170  23.9392860  54.7827770  78.2537570  23.2893320  53.9470670
  87.3521010  17.3644780  64.4489360  87.7201830  16.5439990  64.7768930
  86.4919210  17.4246670  64.8645010  90.7183040  16.3201720  55.2576920
  90.0896200  16.4247390  54.5435150  90.2234960  16.5398500  56.0470800
  85.1641180  28.0407310  52.6910900  85.2653160  27.8371300  51.7612880
  84.2642920  27.7865590  52.8958680  82.6867070  18.5987670  56.6734800
  81.9783220  19.0674010  57.1148410  82.9711550  17.9409680  57.3079990
  84.3123000  20.0184370  64.6727330  84.8108250  20.4930190  65.3379180
  84.4545950  19.0947890  64.8797360  86.7182500  15.3238330  58.1130590
  86.5950280  15.3424460  57.1640100  87.6667060  15.3717270  58.2328990
  83.8059290  30.5593630  57.3858570  84.0600790  30.5215020  56.4637940
  82.8571770  30.4326960  57.3786820  80.8902090  16.9072750  54.0485510
  81.7392620  17.3442900  53.9825700  80.5233360  17.2193010  54.8757570
  91.5189860  16.2352330  65.5155720  91.0163460  16.9757730  65.8549530
  92.3346520  16.6236330  65.1992510  89.8111870  21.4785510  58.9617080
  88.8702010  21.4935740  59.1364770  90.1255940  20.6921470  59.4077380
  79.7893510  23.1605110  52.5221040  80.5556780  23.0486470  53.0846470
  79.8668200  22.4643080  51.8697810  78.4840270  20.5930180  53.2053930
  78.5643860  19.6457690  53.3171330  79.3760020  20.9237060  53.3114590
  79.2854980  30.7425570  60.3088470  80.0217460  30.1941030  60.5797040
  79.6695900  31.6081580  60.1694460  76.1700460  26.8099140  56.1829980
  75.2440240  27.0520280  56.1735390  76.6356890  27.6373400  56.0614730
  78.2913260  29.9271640  69.4974050  79.0925990  30.2483690  69.9109450
  77.7765080  29.5667220  70.2193960  82.3957290  29.9155880  52.1314040
  83.1885900  30.2044710  51.6795830  81.8761640  29.4848050  51.4526520
  87.1277890  26.0351510  69.4449460  86.5216050  26.0583110  68.7045210
  86.8232000  25.3034550  69.9816710  88.5578260  29.7631800  68.0558870
  89.5100010  29.6789820  68.0059110  88.4106480  30.4273510  68.7292660
  91.4487460  29.1426010  53.5550780  91.1628970  28.7291150  52.7404960
  91.2507010  30.0713720  53.4351300  76.0111070  22.4145100  68.4410100
  76.5150090  21.8352380  69.0126330  75.2718490  22.6985330  68.9786470
  82.9134690  25.1359290  51.9956390  82.8085330  24.5211640  52.7217770
  82.7458910  24.6125180  51.2119400  83.0649010  23.8216090  67.9745620
  82.2994680  24.3901090  67.8900290  83.2464970  23.5292300  67.0813850
  86.1537420  24.1979320  52.5998380  85.6047520  24.6448620  53.2441120
  86.7756680  23.6928570  53.1236050  90.2072360  25.5521420  68.5320640
  90.9481830  25.8897180  68.0288100  89.4445040  25.7213480  67.9790410
  78.0434150  20.5574690  69.3360170  78.0839490  20.2588560  70.2445400
  78.8979650  20.9582300  69.1767690  81.8212540  23.1570240  54.4963680
  82.2428960  22.9910110  55.3395070  81.9463380  22.3470470  54.0018820
  79.9839960  19.1366790  67.3034660  79.4536420  18.6457740  66.6758000
  80.6528030  19.5650990  66.7692590  84.3340180  22.1807850  51.7440780
  84.8545840  21.4656870  51.3781930  84.9808580  22.8193720  52.0441290
  88.8818020  23.6036250  67.0675850  89.2959040  23.7581330  67.9166270
  87.9469020  23.7291470  67.2301630  89.3540190  20.9432410  69.0715000
  89.9360960  20.1884730  68.9835480  89.5301960  21.4739850  68.2946480
  80.4712260  16.1029160  67.3831950  80.3769130  15.4849910  66.6582820
  79.8909650  16.8295450  67.1561860  83.2373700  14.6602400  64.4159340
  82.7891000  14.6826660  63.5704890  82.6038900  14.2621420  65.0129640
  83.6433250  23.5556730  65.0371780  84.0621360  24.3989460  64.8648020
  82.7241880  23.6928770  64.8078560  85.9797150  21.2872910  66.4209620
  86.0993360  20.6914050  67.1604460  86.8391150  21.3242600  66.0010920
  88.3185050  21.8410100  64.9972130  87.7920270  22.3652720  64.3937270
  88.6616390  22.4737490  65.6281860  80.7171440  19.2303470  51.4421840
  80.5160500  18.3670830  51.8035180  80.5463490  19.1436830  50.5043440
  81.4940670  29.8609740  66.1529510  80.9561760  30.5855800  65.8338210
  81.7474630  29.3840080  65.3626850  82.7465920  17.8294260  67.6785440
  83.3365610  17.5210110  68.3663260  81.9286160  17.3574010  67.8345340
  87.5659350  17.4460070  67.9118460  86.8774870  16.7841610  67.8468450
  88.2865370  16.9998340  68.3566920  88.1959750  14.0411700  53.9708720
  88.4762040  13.1979600  54.3268140  87.4225480  14.2734810  54.4847470
  79.5154240  16.3304090  51.4299720  79.8180140  16.3371520  50.5218870
  80.2548830  15.9801950  51.9267380  84.3502880  31.0960950  66.4116160
  84.2761580  31.9996090  66.7188530  83.4481720  30.7772850  66.3838230
  82.7339170  15.2738710  52.4155920  82.3861170  14.5962700  51.8358370
  82.9351940  14.8128220  53.2299310  84.8988210  30.2619460  54.0342520
  85.7939000  30.6004430  54.0561280  84.9305840  29.5398870  53.4066800
  78.5384370  25.6346510  52.2629520  78.9759240  26.1776180  52.9187100
  79.0232100  24.8093460  52.2725860  75.7530170  28.4235540  59.7149780
  76.0833180  27.5556600  59.4828420  76.1821170  28.6294060  60.5454740
  80.3492090  26.7544550  57.3751750  80.0487630  26.6309520  58.2755660
  80.2429580  25.8953140  56.9667480  76.2420380  29.2906130  62.4531410
  75.8051370  29.4706930  63.2855560  76.8098060  30.0480750  62.3113130
  91.8782560  28.7923130  66.7408720  91.2784550  28.8515690  65.9972640
  92.0076460  27.8528110  66.8705570  76.0744810  21.8026360  58.8120290
  75.4193650  21.5338000  58.1679990  76.9122760  21.6930840  58.3622270
  90.5634200  25.5175110  64.8384880  89.7494040  25.9472270  65.1010670
  90.9708400  26.1293520  64.2253930  89.0235250  16.5967650  53.0338780
  89.4420130  16.4098630  52.1935440  88.7171310  15.7446700  53.3441710
  77.1120740  22.1878930  63.3523630  77.4793780  22.1006330  64.2319650
  76.5431560  21.4245480  63.2530490  91.9124600  20.6563310  66.3654100
  91.6810690  20.4276060  65.4652050  92.1729150  21.5762860  66.3198990
  76.6636740  19.0988020  67.2582050  75.7692790  19.0654780  67.5975760
  77.2034290  19.2974810  68.0233300  90.3512670  15.8819740  69.1433800
  91.2282850  15.8903140  69.5267800  90.3633510  15.1450580  68.5326150
  75.2882890  19.0125290  54.7545620  74.3846970  19.2755490  54.5797280
  75.7723510  19.2836460  53.9745580  91.7975940  19.7349280  60.0321820
  92.3213420  19.2411930  59.4011990  92.3835360  19.8699640  60.7769390
  91.9765660  19.8189150  63.5541370  91.0268370  19.7852690  63.6686360
  92.1578670  20.7289260  63.3191140  77.8310100  18.0690830  52.6640000
  78.5401800  17.6474050  52.1787280  77.1150040  18.1366060  52.0323350
  77.4784260  14.1230160  51.7042650  78.2012390  14.6639100  52.0223870
  77.7508780  13.8493580  50.8284190  91.2875910  18.9922630  55.9714230
  91.7835030  18.7593500  56.7563110  91.0891980  18.1534470  55.5551870
  77.1676450  13.3736350  61.6065270  77.8152640  12.8233730  61.1660430
  77.5878290  13.6279500  62.4281080  91.0628790  13.5677710  64.9634910
  91.7001010  14.1811850  65.3294100  91.2103680  13.6038370  64.0184140
  90.6210250  30.2693710  58.3653150  91.2169320  29.9478280  57.6887570
  90.8788400  29.7965530  59.1566420  76.9208450  13.5292020  64.3490590
  76.5723270  13.9855840  65.1148770  76.5896150  12.6349150  64.4313020
  78.5272820  26.7011620  68.5143780  78.4842450  26.3304530  69.3958240
  78.6583830  27.6389190  68.6545600  82.2278850  28.2571210  64.1153500
  81.9870210  28.5245770  63.2284020  83.1681490  28.4276940  64.1704360
  84.4333270  14.7203900  67.8710010  84.3722160  15.3125730  68.6205420
  85.3733650  14.6129860  67.7260270  87.0707830  14.3773960  67.5102300
  87.6848240  14.6953250  66.8483380  87.6157390  13.8922550  68.1298160
  77.5929090  13.0568220  67.6241360  78.1412080  12.8756270  66.8607470
  77.6584400  12.2662330  68.1597670  78.3660850  29.6473870  65.6341560
  77.7721170  29.5158570  66.3731600  78.3584690  28.8112010  65.1683660
  87.8115870  12.9406100  63.8371590  86.9375710  13.2741210  63.6344520
  87.7026620  12.4679280  64.6623460  88.7187850  15.1476970  65.2213310
  88.3901210  14.3328730  64.8415040  89.6670150  15.1046780  65.0979000
  91.1722460  30.9189010  62.1950880  90.7125430  31.6704820  61.8208900
  90.5434920  30.1995480  62.1365680  77.9973080  27.0132250  64.5849600
  77.2707140  26.3937540  64.5175550  78.0582230  27.4072860  63.7147680
  81.6018180  29.2277250  61.3699010  82.1183200  28.6164610  60.8447270
  82.2515560  29.7306030  61.8610020  84.3413680  30.1185740  62.1967990
  84.6291490  29.8640040  61.3201000  84.8536900  29.5663100  62.7873560
  85.5590690  13.8575940  62.7764500  84.7762480  14.3321440  63.0561260
  85.2653620  12.9530770  62.6677680  90.1111760  14.5599040  60.8213590
  90.5519850  14.5044140  59.9735190  89.8419350  15.4757050  60.8923770
  76.2803080  30.3306640  57.7946360  76.1125120  29.6977320  58.4928250
  75.4137590  30.5366040  57.4440550  76.9031100  14.1623420  55.2978220
  77.6610460  14.2752300  54.7242250  76.4408270  14.9992620  55.2521650
  83.4444910  16.2762690  58.2880530  82.6319420  15.9019580  57.9476410
  83.9486550  15.5207770  58.5901720  87.9469890  12.9405140  59.5263600
  88.5499260  13.5125350  60.0012120  87.2062880  13.5044580  59.3037500
  91.0904490  13.3426700  54.8003880  91.2855120  14.2410150  55.0671310
  90.3034360  13.1113780  55.2936830  77.8865780  29.0239870  55.2396500
  77.3613400  29.4047900  54.5358460  77.8110360  29.6490640  55.9606210
  79.2756250  14.6887470  53.8380190  79.8049010  13.9017270  53.7088140
  79.9084570  15.3678660  54.0715720  81.4694090  14.4262610  56.8925580
  80.8396830  13.7249920  57.0595710  80.9299230  15.1866740  56.6758740
  84.4086040  31.0401840  69.5636190  85.3353350  30.8046110  69.6072150
  84.3936470  31.8673840  69.0822220  81.5949650  13.7046590  69.3278070
  81.3133920  14.2080190  68.5638890  81.9769350  12.9068340  68.9620200
  80.4858750  30.9722250  54.1145750  81.2177570  30.6881530  53.5669640
  80.7452420  30.7335530  55.0045130  79.6473540  27.0886980  54.1192080
  79.0182420  27.5572080  54.6677910  79.7621370  26.2436200  54.5538270
  88.1965110  13.1200170  69.9058540  88.0830560  13.4394780  70.8010060
  89.0134850  13.5212680  69.6095820  90.9763600  30.2671700  69.3877230
  91.7688920  29.7720930  69.1803190  91.2696750  30.9461840  69.9952840
  87.1023260  21.1392640  40.2693280  87.0217310  20.2247250  39.9984990
  86.6887680  21.6359710  39.5632990  85.2341300  22.9171660  42.1502550
  84.4583400  22.4372100  42.4401120  85.8854230  22.2377310  41.9758710
  79.2507130  23.2291470  43.0278310  78.4192010  22.9740180  43.4274820
  79.8588110  23.3002240  43.7636230  89.2548730  27.3231850  40.9301680
  88.7930260  26.5519090  41.2588850  90.0674280  27.3497920  41.4354130
  79.2308390  27.2631560  43.2236330  79.5336430  26.3729300  43.0446550
  79.9751980  27.8201780  42.9958580  77.6599080  18.1893360  36.8120700
  76.7715780  18.5309330  36.7100580  77.9440270  17.9893680  35.9201530
  75.6232090  20.7899010  42.6960400  76.1948200  20.0221210  42.6964040
  75.6233630  21.0887770  41.7867010  85.4812040  29.6089860  40.5505670
  84.8623480  30.0647360  39.9800110  86.3363820  29.7641320  40.1495370
  84.6750290  25.5928850  42.1572710  84.6058570  24.6518790  41.9961840
  85.4370150  25.6830260  42.7295280  76.8656960  16.1983370  44.4829330
  76.6859800  15.3009120  44.7632090  76.4637040  16.7455240  45.1576280
  85.7055460  18.3999230  42.3841640  86.0820280  17.5271110  42.2715310
  85.6074970  18.7357930  41.4932080  79.8360470  16.7724860  37.8459080
  79.9427220  17.6728590  38.1527840  78.9252830  16.7242830  37.5553730
  89.4879580  15.8949670  39.3169980  90.3089200  15.4046240  39.3595460
  89.5213660  16.4847330  40.0701820  77.4843630  18.6943870  43.0911670
  78.1653740  18.9582240  43.7099070  77.1691680  17.8544740  43.4249680
  81.6768200  19.7411230  42.1784260  82.1846420  20.2392200  42.8189280
  82.2081440  18.9646430  42.0023620  79.9604300  14.3809790  46.4447680
  79.9622740  14.8982180  45.6393580  79.1308610  13.9039970  46.4217610
  86.3475390  24.4929100  37.9437580  85.7292660  24.9578550  37.3800300
  86.8598640  25.1856580  38.3607090  81.2107150  24.0204970  44.6221180
  80.8776530  24.6473890  45.2642250  81.3873830  24.5466850  43.8422850
  89.7241060  17.8350050  42.0897520  89.0196630  18.1234940  42.6700630
  90.0853220  18.6450160  41.7297080  79.6419630  16.0919750  44.4518130
  79.9836440  16.9361800  44.1572000  78.7035440  16.2403490  44.5683470
  80.4226250  25.9885770  46.4370360  81.0400250  26.6636850  46.1554810
  79.5619370  26.3973750  46.3457860  75.7158590  25.1785630  35.3177210
  75.3386570  25.6672730  34.5862110  75.9731660  25.8510910  35.9483740
  91.3403840  27.4525180  44.3525000  90.6567360  28.1224290  44.3441670
  91.8798130  27.6505830  43.5869860  83.3247520  13.5802020  40.7762720
  83.6322500  13.0248910  40.0598220  82.3948220  13.7146480  40.5935710
  88.8762580  29.2969310  43.0670180  88.8889740  28.8931600  42.1992440
  88.3237800  30.0716600  42.9631610  90.1708000  26.0185530  38.1560350
  90.0604330  25.0759860  38.2809770  90.1676250  26.3801170  39.0423110
  88.2748020  24.1999150  44.3952790  88.6916810  23.9859260  43.5606250
  88.9987840  24.4571940  44.9661410  85.7128280  21.6450850  37.5122840
  84.7857560  21.5788230  37.7411310  85.8653100  22.5830980  37.3978080
  85.6997360  17.9167850  34.5090000  84.7601030  18.0781810  34.5942460
  86.0180620  18.6353530  33.9625990  89.7425570  23.2071150  38.0158090
  89.1237990  22.8690700  37.3684390  89.7250020  22.5630910  38.7237280
  89.1852130  19.3855690  45.4323900  88.7723310  20.2109400  45.6863890
  88.4528080  18.8000730  45.2400260  81.3184920  22.1715590  40.2942570
  80.9141920  21.4592840  39.7988470  81.4048040  21.8268830  41.1830610
  81.7866620  25.8583150  42.4581780  81.4894910  25.2528620  41.7789560
  82.7366440  25.8960460  42.3471140  80.0313540  18.9458800  44.0741610
  80.5828130  19.0554140  43.2994860  80.5457050  19.3196400  44.7896840
  89.8752230  29.4315020  46.1204880  89.3982790  30.2387210  45.9277490
  89.1914020  28.7793350  46.2731090  80.8785050  25.5964840  49.1089580
  79.9813580  25.8204810  49.3562980  80.9037920  25.7199780  48.1600980
  87.9190270  22.4457960  35.0230840  88.3583550  21.6080390  34.8768660
  88.6318690  23.0787360  35.1094980  79.7056270  22.4678160  47.6846950
  79.5664040  23.3400960  48.0534350  78.8237630  22.1250970  47.5394890
  86.0285650  27.3854030  38.9912080  86.4681560  28.1278360  38.5767470
  85.9672540  27.6280600  39.9151040  81.5036620  28.4099860  49.8932100
  81.4752050  28.8142810  49.0260530  81.3401590  27.4810220  49.7303700
  91.5007410  13.7000770  33.3371880  91.1880070  13.7927600  34.2370950
  92.2619880  14.2781800  33.2869310  78.0189550  21.0660570  37.7949220
  77.8987150  21.7922660  37.1830490  77.7090440  20.2963480  37.3177130
  75.6574920  24.2375710  43.6017860  75.7355340  24.3724480  42.6573580
  76.2716600  23.5291600  43.7945980  76.9022550  25.9375900  40.0124040
  76.4950630  26.0790490  39.1577640  77.7935560  25.6536060  39.8095250
  86.7201430  30.0867810  46.9191090  87.2346100  29.9975820  47.7213520
  85.8770510  30.4327510  47.2119000  88.6955830  30.3723150  36.3475090
  88.5356970  30.0826090  37.2456920  88.5302540  29.5963280  35.8120320
  81.1744210  30.1521680  38.1246710  80.9986690  29.2357220  37.9114510
  80.3199950  30.5108970  38.3644510  88.3981960  27.8810710  34.9073090
  87.7047120  27.8788000  34.2475370  89.1404820  27.4570030  34.4767260
  87.9631890  29.5073420  38.9821580  88.4188840  28.7262800  39.2960200
  88.3024410  30.2180240  39.5262760  75.7134440  25.2789880  46.1412320
  75.8765480  24.8095240  45.3231690  76.1786890  24.7713440  46.8061160
  80.4853210  14.4095640  41.1772890  80.0421360  15.1905180  40.8457410
  81.0438200  14.7325530  41.8843830  84.7723020  17.2764160  46.7808210
  84.3102390  17.4847180  47.5928150  84.3701130  16.4623510  46.4778880
  89.7727530  18.4973110  47.9104870  88.9221120  18.1978860  48.2313940
  89.6129320  18.7415120  46.9988690  86.8677240  19.9974860  50.0103660
  87.1930650  19.1638610  49.6705890  87.6557570  20.5203380  50.1581990
  83.6012030  14.0306340  36.0578720  82.9766210  14.0266210  36.7832030
  83.5142150  13.1637300  35.6614690  82.5229110  14.9542970  43.0362490
  82.8201440  15.8605800  42.9554510  83.0714670  14.4661750  42.4222060
  80.2767430  19.5329210  38.9054140  80.0508350  19.3166380  39.8100760
  79.4959960  19.9657670  38.5600110  87.5065190  19.5392580  37.5044790
  86.9074080  20.2628380  37.3208410  88.0544800  19.4769360  36.7221240
  82.7166640  20.4314790  49.5714410  82.6210240  19.4909520  49.4214810
  83.5598620  20.6529860  49.1762480  86.1130060  18.1756120  39.5348070
  86.5059630  18.4928320  38.7216760  86.4746910  17.2968000  39.6492590
  77.8477180  16.8428460  47.7248190  77.4540570  17.6903670  47.9320970
  77.1595580  16.2054830  47.9156830  84.4222230  16.9263430  50.7944930
  83.7320550  16.7335630  51.4291020  85.1654530  17.2098070  51.3269230
  75.1494230  14.7656920  41.7578270  74.8607280  15.3359780  42.4703250
  75.8939990  14.2861370  42.1209500  75.3364460  18.7077040  32.9680990
  75.2539130  19.6507800  33.1095980  74.9847520  18.5651950  32.0893340
  86.6985200  20.7661870  43.6298850  85.9666320  21.2748680  43.9788950
  86.3009540  19.9491850  43.3287630  83.1362590  17.4416070  42.0351340
  83.1398650  17.0006020  41.1855880  84.0313710  17.7633400  42.1423160
  78.9864970  17.3242560  40.9945550  78.6465020  17.8017790  41.7512600
  78.2242290  16.8707680  40.6346650  83.1982740  18.4428150  35.0258100
  83.3195560  18.4014630  35.9743920  82.8131250  19.3052300  34.8704830
  87.1611110  16.2195550  43.0421790  87.1783850  16.6704200  43.8863640
  86.9126690  15.3201190  43.2555230  82.2104240  20.7529290  34.4241400
  81.6421140  20.3047540  33.7977310  82.9193240  21.1122070  33.8906550
  90.5881860  13.6327730  48.8808170  90.9127630  12.9017390  49.4066150
  90.6238370  13.3141370  47.9789160  77.2873420  24.6541310  48.3008130
  76.9028210  24.0134980  48.8991090  77.5985610  25.3577430  48.8702860
  83.4370560  21.5017850  43.7816750  83.8040690  21.0276420  44.5278090
  83.2475620  22.3759420  44.1225090  76.3011050  16.2461540  39.9110220
  76.0157970  15.8817210  40.7488840  76.2389910  15.5142000  39.2973360
  81.2269930  20.5426490  46.1000960  80.9227000  21.4218470  46.3251320
  82.1816390  20.6026280  46.1358400  79.7551720  24.7487480  36.6967810
  78.9813980  24.2085100  36.5366530  80.4846350  24.2294090  36.3585570
  90.5139700  23.7452840  42.4894200  91.2338820  24.2408130  42.0990310
  90.3121520  23.0670730  41.8448070  85.9749640  15.1390800  36.6323590
  85.1614250  14.6403970  36.5568900  85.7811590  15.9789050  36.2159940
  85.8958500  23.8161900  48.3763200  85.8295810  22.8957570  48.1220790
  85.2663640  23.9137340  49.0907840  88.6898030  19.5110450  34.9285750
  89.5777650  19.8227680  34.7537090  88.6603120  18.6382700  34.5366330
  79.7989120  24.4167860  40.3346620  80.3167790  23.6136120  40.2803510
  79.3473140  24.3547000  41.1763450  84.6858620  25.6834140  35.6073920
  85.0274320  26.4276370  35.1117240  83.8571330  25.9965260  35.9698750
  77.2833660  21.3829230  47.2472320  76.9248600  22.0483080  47.8345660
  76.9888220  20.5512780  47.6184940  80.4846780  21.8413470  50.1311870
  80.1846920  21.9870650  49.2339690  81.2558020  21.2818760  50.0385260
  85.8275230  26.6382470  48.1267000  85.8419770  25.7063430  47.9085910
  85.1200330  26.7242230  48.7656770  90.9612300  20.8222290  34.3965610
  90.8776020  21.2536510  33.5462050  91.6806490  21.2820640  34.8292430
  91.9899550  27.6764550  37.1247740  91.3475710  27.0220170  37.3991460
  91.6030210  28.0819640  36.3488410  87.5686030  25.0049980  40.9719430
  87.9209850  24.4078110  40.3120800  86.6848360  24.6794210  41.1427680
  83.6549310  25.7647670  38.3789840  84.3420440  26.3116880  38.7597430
  82.8681730  26.3088400  38.4139450  75.7941710  21.3820490  33.8706920
  76.6636560  21.6645290  34.1542840  75.3032030  22.1956360  33.7555730
  82.9576520  22.7693700  37.9915200  83.4139300  23.5798950  38.2175390
  82.6064730  22.4516840  38.8233690  85.2609130  28.2800040  45.2207500
  85.9051350  28.4859420  45.8980920  85.6238570  27.5188440  44.7678350
  78.8588300  13.1131350  38.4637720  78.7302930  13.1049250  39.4122640
  78.0350320  13.4514440  38.1128730  86.5341210  26.2832390  43.9384950
  87.1763440  25.5825550  44.0517120  87.0590560  27.0630830  43.7581840
  90.3796930  26.5681010  33.6624090  90.1534510  25.8511450  34.2548730
  89.9893130  26.3193450  32.8245840  88.3078830  27.0827290  47.1421010
  88.6435070  27.6693980  47.8198930  87.3879170  26.9520000  47.3718800
  76.1612960  30.5947870  34.4368550  76.5210600  31.1937210  33.7825820
  76.0205300  31.1407760  35.2103580  75.8582230  14.8722470  47.9244420
  75.1440750  15.0719390  48.5297030  76.2777270  14.0962040  48.2959220
  89.9613180  24.4852950  35.3238250  89.6734880  24.9465640  36.1116130
  90.7565350  24.0250720  35.5922470  76.1454820  28.8602730  48.9110950
  76.2545940  27.9197470  48.7706340  75.4935380  29.1257480  48.2624680
  84.1367410  27.1318620  50.3109070  83.8164280  26.4127860  50.8554760
  83.4625770  27.8073690  50.3845130  82.1781580  27.9779070  35.2542220
  82.1691680  28.7108760  34.6386730  81.2579940  27.7310650  35.3469180
  77.7788220  23.1993960  35.9988980  77.1716170  23.9392860  36.0084280
  78.2537570  23.2893320  35.1727180  87.3521010  17.3644780  45.6745870
  87.7201830  16.5439990  46.0025440  86.4919210  17.4246670  46.0901520
  90.7183040  16.3201720  36.4833430  90.0896200  16.4247390  35.7691660
  90.2234960  16.5398500  37.2727310  85.1641180  28.0407310  33.9167410
  85.2653160  27.8371300  32.9869390  84.2642920  27.7865590  34.1215190
  82.6867070  18.5987670  37.8991310  81.9783220  19.0674010  38.3404920
  82.9711550  17.9409680  38.5336500  84.3123000  20.0184370  45.8983840
  84.8108250  20.4930190  46.5635690  84.4545950  19.0947890  46.1053870
  86.7182500  15.3238330  39.3387100  86.5950280  15.3424460  38.3896610
  87.6667060  15.3717270  39.4585500  83.8059290  30.5593630  38.6115080
  84.0600790  30.5215020  37.6894450  82.8571770  30.4326960  38.6043330
  80.8902090  16.9072750  35.2742020  81.7392620  17.3442900  35.2082210
  80.5233360  17.2193010  36.1014080  91.5189860  16.2352330  46.7412230
  91.0163460  16.9757730  47.0806040  92.3346520  16.6236330  46.4249020
  89.8111870  21.4785510  40.1873590  88.8702010  21.4935740  40.3621280
  90.1255940  20.6921470  40.6333890  79.7893510  23.1605110  33.7477550
  80.5556780  23.0486470  34.3102980  79.8668200  22.4643080  33.0954320
  78.4840270  20.5930180  34.4310440  78.5643860  19.6457690  34.5427840
  79.3760020  20.9237060  34.5371100  79.2854980  30.7425570  41.5344980
  80.0217460  30.1941030  41.8053550  79.6695900  31.6081580  41.3950970
  76.1700460  26.8099140  37.4086490  75.2440240  27.0520280  37.3991900
  76.6356890  27.6373400  37.2871240  78.2913260  29.9271640  50.7230560
  79.0925990  30.2483690  51.1365960  77.7765080  29.5667220  51.4450470
  82.3957290  29.9155880  33.3570550  83.1885900  30.2044710  32.9052340
  81.8761640  29.4848050  32.6783030  87.1277890  26.0351510  50.6705970
  86.5216050  26.0583110  49.9301720  86.8232000  25.3034550  51.2073220
  88.5578260  29.7631800  49.2815380  89.5100010  29.6789820  49.2315620
  88.4106480  30.4273510  49.9549170  91.4487460  29.1426010  34.7807290
  91.1628970  28.7291150  33.9661470  91.2507010  30.0713720  34.6607810
  76.0111070  22.4145100  49.6666610  76.5150090  21.8352380  50.2382840
  75.2718490  22.6985330  50.2042980  82.9134690  25.1359290  33.2212900
  82.8085330  24.5211640  33.9474280  82.7458910  24.6125180  32.4375910
  83.0649010  23.8216090  49.2002130  82.2994680  24.3901090  49.1156800
  83.2464970  23.5292300  48.3070360  86.1537420  24.1979320  33.8254890
  85.6047520  24.6448620  34.4697630  86.7756680  23.6928570  34.3492560
  90.2072360  25.5521420  49.7577150  90.9481830  25.8897180  49.2544610
  89.4445040  25.7213480  49.2046920  78.0434150  20.5574690  50.5616680
  78.0839490  20.2588560  51.4701910  78.8979650  20.9582300  50.4024200
  81.8212540  23.1570240  35.7220190  82.2428960  22.9910110  36.5651580
  81.9463380  22.3470470  35.2275330  79.9839960  19.1366790  48.5291170
  79.4536420  18.6457740  47.9014510  80.6528030  19.5650990  47.9949100
  84.3340180  22.1807850  32.9697290  84.8545840  21.4656870  32.6038440
  84.9808580  22.8193720  33.2697800  88.8818020  23.6036250  48.2932360
  89.2959040  23.7581330  49.1422780  87.9469020  23.7291470  48.4558140
  89.3540190  20.9432410  50.2971510  89.9360960  20.1884730  50.2091990
  89.5301960  21.4739850  49.5202990  80.4712260  16.1029160  48.6088460
  80.3769130  15.4849910  47.8839330  79.8909650  16.8295450  48.3818370
  83.2373700  14.6602400  45.6415850  82.7891000  14.6826660  44.7961400
  82.6038900  14.2621420  46.2386150  83.6433250  23.5556730  46.2628290
  84.0621360  24.3989460  46.0904530  82.7241880  23.6928770  46.0335070
  85.9797150  21.2872910  47.6466130  86.0993360  20.6914050  48.3860970
  86.8391150  21.3242600  47.2267430  88.3185050  21.8410100  46.2228640
  87.7920270  22.3652720  45.6193780  88.6616390  22.4737490  46.8538370
  80.7171440  19.2303470  32.6678350  80.5160500  18.3670830  33.0291690
  80.5463490  19.1436830  31.7299950  81.4940670  29.8609740  47.3786020
  80.9561760  30.5855800  47.0594720  81.7474630  29.3840080  46.5883360
  82.7465920  17.8294260  48.9041950  83.3365610  17.5210110  49.5919770
  81.9286160  17.3574010  49.0601850  87.5659350  17.4460070  49.1374970
  86.8774870  16.7841610  49.0724960  88.2865370  16.9998340  49.5823430
  88.1959750  14.0411700  35.1965230  88.4762040  13.1979600  35.5524650
  87.4225480  14.2734810  35.7103980  79.5154240  16.3304090  32.6556230
  79.8180140  16.3371520  31.7475380  80.2548830  15.9801950  33.1523890
  84.3502880  31.0960950  47.6372670  84.2761580  31.9996090  47.9445040
  83.4481720  30.7772850  47.6094740  82.7339170  15.2738710  33.6412430
  82.3861170  14.5962700  33.0614880  82.9351940  14.8128220  34.4555820
  84.8988210  30.2619460  35.2599030  85.7939000  30.6004430  35.2817790
  84.9305840  29.5398870  34.6323310  78.5384370  25.6346510  33.4886030
  78.9759240  26.1776180  34.1443610  79.0232100  24.8093460  33.4982370
  75.7530170  28.4235540  40.9406290  76.0833180  27.5556600  40.7084930
  76.1821170  28.6294060  41.7711250  80.3492090  26.7544550  38.6008260
  80.0487630  26.6309520  39.5012170  80.2429580  25.8953140  38.1923990
  76.2420380  29.2906130  43.6787920  75.8051370  29.4706930  44.5112070
  76.8098060  30.0480750  43.5369640  91.8782560  28.7923130  47.9665230
  91.2784550  28.8515690  47.2229150  92.0076460  27.8528110  48.0962080
  76.0744810  21.8026360  40.0376800  75.4193650  21.5338000  39.3936500
  76.9122760  21.6930840  39.5878780  90.5634200  25.5175110  46.0641390
  89.7494040  25.9472270  46.3267180  90.9708400  26.1293520  45.4510440
  89.0235250  16.5967650  34.2595290  89.4420130  16.4098630  33.4191950
  88.7171310  15.7446700  34.5698220  77.1120740  22.1878930  44.5780140
  77.4793780  22.1006330  45.4576160  76.5431560  21.4245480  44.4787000
  91.9124600  20.6563310  47.5910610  91.6810690  20.4276060  46.6908560
  92.1729150  21.5762860  47.5455500  76.6636740  19.0988020  48.4838560
  75.7692790  19.0654780  48.8232270  77.2034290  19.2974810  49.2489810
  90.3512670  15.8819740  50.3690310  91.2282850  15.8903140  50.7524310
  90.3633510  15.1450580  49.7582660  75.2882890  19.0125290  35.9802130
  74.3846970  19.2755490  35.8053790  75.7723510  19.2836460  35.2002090
  91.7975940  19.7349280  41.2578330  92.3213420  19.2411930  40.6268500
  92.3835360  19.8699640  42.0025900  91.9765660  19.8189150  44.7797880
  91.0268370  19.7852690  44.8942870  92.1578670  20.7289260  44.5447650
  77.8310100  18.0690830  33.8896510  78.5401800  17.6474050  33.4043790
  77.1150040  18.1366060  33.2579860  77.4784260  14.1230160  32.9299160
  78.2012390  14.6639100  33.2480380  77.7508780  13.8493580  32.0540700
  91.2875910  18.9922630  37.1970740  91.7835030  18.7593500  37.9819620
  91.0891980  18.1534470  36.7808380  77.1676450  13.3736350  42.8321780
  77.8152640  12.8233730  42.3916940  77.5878290  13.6279500  43.6537590
  91.0628790  13.5677710  46.1891420  91.7001010  14.1811850  46.5550610
  91.2103680  13.6038370  45.2440650  90.6210250  30.2693710  39.5909660
  91.2169320  29.9478280  38.9144080  90.8788400  29.7965530  40.3822930
  76.9208450  13.5292020  45.5747100  76.5723270  13.9855840  46.3405280
  76.5896150  12.6349150  45.6569530  78.5272820  26.7011620  49.7400290
  78.4842450  26.3304530  50.6214750  78.6583830  27.6389190  49.8802110
  82.2278850  28.2571210  45.3410010  81.9870210  28.5245770  44.4540530
  83.1681490  28.4276940  45.3960870  84.4333270  14.7203900  49.0966520
  84.3722160  15.3125730  49.8461930  85.3733650  14.6129860  48.9516780
  87.0707830  14.3773960  48.7358810  87.6848240  14.6953250  48.0739890
  87.6157390  13.8922550  49.3554670  77.5929090  13.0568220  48.8497870
  78.1412080  12.8756270  48.0863980  77.6584400  12.2662330  49.3854180
  78.3660850  29.6473870  46.8598070  77.7721170  29.5158570  47.5988110
  78.3584690  28.8112010  46.3940170  87.8115870  12.9406100  45.0628100
  86.9375710  13.2741210  44.8601030  87.7026620  12.4679280  45.8879970
  88.7187850  15.1476970  46.4469820  88.3901210  14.3328730  46.0671550
  89.6670150  15.1046780  46.3235510  91.1722460  30.9189010  43.4207390
  90.7125430  31.6704820  43.0465410  90.5434920  30.1995480  43.3622190
  77.9973080  27.0132250  45.8106110  77.2707140  26.3937540  45.7432060
  78.0582230  27.4072860  44.9404190  81.6018180  29.2277250  42.5955520
  82.1183200  28.6164610  42.0703780  82.2515560  29.7306030  43.0866530
  84.3413680  30.1185740  43.4224500  84.6291490  29.8640040  42.5457510
  84.8536900  29.5663100  44.0130070  85.5590690  13.8575940  44.0021010
  84.7762480  14.3321440  44.2817770  85.2653620  12.9530770  43.8934190
  90.1111760  14.5599040  42.0470100  90.5519850  14.5044140  41.1991700
  89.8419350  15.4757050  42.1180280  76.2803080  30.3306640  39.0202870
  76.1125120  29.6977320  39.7184760  75.4137590  30.5366040  38.6697060
  76.9031100  14.1623420  36.5234730  77.6610460  14.2752300  35.9498760
  76.4408270  14.9992620  36.4778160  83.4444910  16.2762690  39.5137040
  82.6319420  15.9019580  39.1732920  83.9486550  15.5207770  39.8158230
  87.9469890  12.9405140  40.7520110  88.5499260  13.5125350  41.2268630
  87.2062880  13.5044580  40.5294010  91.0904490  13.3426700  36.0260390
  91.2855120  14.2410150  36.2927820  90.3034360  13.1113780  36.5193340
  77.8865780  29.0239870  36.4653010  77.3613400  29.4047900  35.7614970
  77.8110360  29.6490640  37.1862720  79.2756250  14.6887470  35.0636700
  79.8049010  13.9017270  34.9344650  79.9084570  15.3678660  35.2972230
  81.4694090  14.4262610  38.1182090  80.8396830  13.7249920  38.2852220
  80.9299230  15.1866740  37.9015250  84.4086040  31.0401840  50.7892700
  85.3353350  30.8046110  50.8328660  84.3936470  31.8673840  50.3078730
  81.5949650  13.7046590  50.5534580  81.3133920  14.2080190  49.7895400
  81.9769350  12.9068340  50.1876710  80.4858750  30.9722250  35.3402260
  81.2177570  30.6881530  34.7926150  80.7452420  30.7335530  36.2301640
  79.6473540  27.0886980  35.3448590  79.0182420  27.5572080  35.8934420
  79.7621370  26.2436200  35.7794780  88.1965110  13.1200170  51.1315050
  88.0830560  13.4394780  52.0266570  89.0134850  13.5212680  50.8352330
  90.9763600  30.2671700  50.6133740  91.7688920  29.7720930  50.4059700
  91.2696750  30.9461840  51.2209350  87.1023260  21.1392640  21.4949790
  87.0217310  20.2247250  21.2241500  86.6887680  21.6359710  20.7889500
  85.2341300  22.9171660  23.3759060  84.4583400  22.4372100  23.6657630
  85.8854230  22.2377310  23.2015220  79.2507130  23.2291470  24.2534820
  78.4192010  22.9740180  24.6531330  79.8588110  23.3002240  24.9892740
  89.2548730  27.3231850  22.1558190  88.7930260  26.5519090  22.4845360
  90.0674280  27.3497920  22.6610640  79.2308390  27.2631560  24.4492840
  79.5336430  26.3729300  24.2703060  79.9751980  27.8201780  24.2215090
  77.6599080  18.1893360  18.0377210  76.7715780  18.5309330  17.9357090
  77.9440270  17.9893680  17.1458040  75.6232090  20.7899010  23.9216910
  76.1948200  20.0221210  23.9220550  75.6233630  21.0887770  23.0123520
  85.4812040  29.6089860  21.7762180  84.8623480  30.0647360  21.2056620
  86.3363820  29.7641320  21.3751880  84.6750290  25.5928850  23.3829220
  84.6058570  24.6518790  23.2218350  85.4370150  25.6830260  23.9551790
  76.8656960  16.1983370  25.7085840  76.6859800  15.3009120  25.9888600
  76.4637040  16.7455240  26.3832790  85.7055460  18.3999230  23.6098150
  86.0820280  17.5271110  23.4971820  85.6074970  18.7357930  22.7188590
  79.8360470  16.7724860  19.0715590  79.9427220  17.6728590  19.3784350
  78.9252830  16.7242830  18.7810240  89.4879580  15.8949670  20.5426490
  90.3089200  15.4046240  20.5851970  89.5213660  16.4847330  21.2958330
  77.4843630  18.6943870  24.3168180  78.1653740  18.9582240  24.9355580
  77.1691680  17.8544740  24.6506190  81.6768200  19.7411230  23.4040770
  82.1846420  20.2392200  24.0445790  82.2081440  18.9646430  23.2280130
  79.9604300  14.3809790  27.6704190  79.9622740  14.8982180  26.8650090
  79.1308610  13.9039970  27.6474120  86.3475390  24.4929100  19.1694090
  85.7292660  24.9578550  18.6056810  86.8598640  25.1856580  19.5863600
  81.2107150  24.0204970  25.8477690  80.8776530  24.6473890  26.4898760
  81.3873830  24.5466850  25.0679360  89.7241060  17.8350050  23.3154030
  89.0196630  18.1234940  23.8957140  90.0853220  18.6450160  22.9553590
  79.6419630  16.0919750  25.6774640  79.9836440  16.9361800  25.3828510
  78.7035440  16.2403490  25.7939980  80.4226250  25.9885770  27.6626870
  81.0400250  26.6636850  27.3811320  79.5619370  26.3973750  27.5714370
  75.7158590  25.1785630  16.5433720  75.3386570  25.6672730  15.8118620
  75.9731660  25.8510910  17.1740250  91.3403840  27.4525180  25.5781510
  90.6567360  28.1224290  25.5698180  91.8798130  27.6505830  24.8126370
  83.3247520  13.5802020  22.0019230  83.6322500  13.0248910  21.2854730
  82.3948220  13.7146480  21.8192220  88.8762580  29.2969310  24.2926690
  88.8889740  28.8931600  23.4248950  88.3237800  30.0716600  24.1888120
  90.1708000  26.0185530  19.3816860  90.0604330  25.0759860  19.5066280
  90.1676250  26.3801170  20.2679620  88.2748020  24.1999150  25.6209300
  88.6916810  23.9859260  24.7862760  88.9987840  24.4571940  26.1917920
  85.7128280  21.6450850  18.7379350  84.7857560  21.5788230  18.9667820
  85.8653100  22.5830980  18.6234590  85.6997360  17.9167850  15.7346510
  84.7601030  18.0781810  15.8198970  86.0180620  18.6353530  15.1882500
  89.7425570  23.2071150  19.2414600  89.1237990  22.8690700  18.5940900
  89.7250020  22.5630910  19.9493790  89.1852130  19.3855690  26.6580410
  88.7723310  20.2109400  26.9120400  88.4528080  18.8000730  26.4656770
  81.3184920  22.1715590  21.5199080  80.9141920  21.4592840  21.0244980
  81.4048040  21.8268830  22.4087120  81.7866620  25.8583150  23.6838290
  81.4894910  25.2528620  23.0046070  82.7366440  25.8960460  23.5727650
  80.0313540  18.9458800  25.2998120  80.5828130  19.0554140  24.5251370
  80.5457050  19.3196400  26.0153350  89.8752230  29.4315020  27.3461390
  89.3982790  30.2387210  27.1534000  89.1914020  28.7793350  27.4987600
  80.8785050  25.5964840  30.3346090  79.9813580  25.8204810  30.5819490
  80.9037920  25.7199780  29.3857490  87.9190270  22.4457960  16.2487350
  88.3583550  21.6080390  16.1025170  88.6318690  23.0787360  16.3351490
  79.7056270  22.4678160  28.9103460  79.5664040  23.3400960  29.2790860
  78.8237630  22.1250970  28.7651400  86.0285650  27.3854030  20.2168590
  86.4681560  28.1278360  19.8023980  85.9672540  27.6280600  21.1407550
  81.5036620  28.4099860  31.1188610  81.4752050  28.8142810  30.2517040
  81.3401590  27.4810220  30.9560210  91.5007410  13.7000770  14.5628390
  91.1880070  13.7927600  15.4627460  92.2619880  14.2781800  14.5125820
  78.0189550  21.0660570  19.0205730  77.8987150  21.7922660  18.4087000
  77.7090440  20.2963480  18.5433640  75.6574920  24.2375710  24.8274370
  75.7355340  24.3724480  23.8830090  76.2716600  23.5291600  25.0202490
  76.9022550  25.9375900  21.2380550  76.4950630  26.0790490  20.3834150
  77.7935560  25.6536060  21.0351760  86.7201430  30.0867810  28.1447600
  87.2346100  29.9975820  28.9470030  85.8770510  30.4327510  28.4375510
  88.6955830  30.3723150  17.5731600  88.5356970  30.0826090  18.4713430
  88.5302540  29.5963280  17.0376830  81.1744210  30.1521680  19.3503220
  80.9986690  29.2357220  19.1371020  80.3199950  30.5108970  19.5901020
  88.3981960  27.8810710  16.1329600  87.7047120  27.8788000  15.4731880
  89.1404820  27.4570030  15.7023770  87.9631890  29.5073420  20.2078090
  88.4188840  28.7262800  20.5216710  88.3024410  30.2180240  20.7519270
  75.7134440  25.2789880  27.3668830  75.8765480  24.8095240  26.5488200
  76.1786890  24.7713440  28.0317670  80.4853210  14.4095640  22.4029400
  80.0421360  15.1905180  22.0713920  81.0438200  14.7325530  23.1100340
  84.7723020  17.2764160  28.0064720  84.3102390  17.4847180  28.8184660
  84.3701130  16.4623510  27.7035390  89.7727530  18.4973110  29.1361380
  88.9221120  18.1978860  29.4570450  89.6129320  18.7415120  28.2245200
  86.8677240  19.9974860  31.2360170  87.1930650  19.1638610  30.8962400
  87.6557570  20.5203380  31.3838500  83.6012030  14.0306340  17.2835230
  82.9766210  14.0266210  18.0088540  83.5142150  13.1637300  16.8871200
  82.5229110  14.9542970  24.2619000  82.8201440  15.8605800  24.1811020
  83.0714670  14.4661750  23.6478570  80.2767430  19.5329210  20.1310650
  80.0508350  19.3166380  21.0357270  79.4959960  19.9657670  19.7856620
  87.5065190  19.5392580  18.7301300  86.9074080  20.2628380  18.5464920
  88.0544800  19.4769360  17.9477750  82.7166640  20.4314790  30.7970920
  82.6210240  19.4909520  30.6471320  83.5598620  20.6529860  30.4018990
  86.1130060  18.1756120  20.7604580  86.5059630  18.4928320  19.9473270
  86.4746910  17.2968000  20.8749100  77.8477180  16.8428460  28.9504700
  77.4540570  17.6903670  29.1577480  77.1595580  16.2054830  29.1413340
  84.4222230  16.9263430  32.0201440  83.7320550  16.7335630  32.6547530
  85.1654530  17.2098070  32.5525740  75.1494230  14.7656920  22.9834780
  74.8607280  15.3359780  23.6959760  75.8939990  14.2861370  23.3466010
  75.3364460  18.7077040  14.1937500  75.2539130  19.6507800  14.3352490
  74.9847520  18.5651950  13.3149850  86.6985200  20.7661870  24.8555360
  85.9666320  21.2748680  25.2045460  86.3009540  19.9491850  24.5544140
  83.1362590  17.4416070  23.2607850  83.1398650  17.0006020  22.4112390
  84.0313710  17.7633400  23.3679670  78.9864970  17.3242560  22.2202060
  78.6465020  17.8017790  22.9769110  78.2242290  16.8707680  21.8603160
  83.1982740  18.4428150  16.2514610  83.3195560  18.4014630  17.2000430
  82.8131250  19.3052300  16.0961340  87.1611110  16.2195550  24.2678300
  87.1783850  16.6704200  25.1120150  86.9126690  15.3201190  24.4811740
  82.2104240  20.7529290  15.6497910  81.6421140  20.3047540  15.0233820
  82.9193240  21.1122070  15.1163060  90.5881860  13.6327730  30.1064680
  90.9127630  12.9017390  30.6322660  90.6238370  13.3141370  29.2045670
  77.2873420  24.6541310  29.5264640  76.9028210  24.0134980  30.1247600
  77.5985610  25.3577430  30.0959370  83.4370560  21.5017850  25.0073260
  83.8040690  21.0276420  25.7534600  83.2475620  22.3759420  25.3481600
  76.3011050  16.2461540  21.1366730  76.0157970  15.8817210  21.9745350
  76.2389910  15.5142000  20.5229870  81.2269930  20.5426490  27.3257470
  80.9227000  21.4218470  27.5507830  82.1816390  20.6026280  27.3614910
  79.7551720  24.7487480  17.9224320  78.9813980  24.2085100  17.7623040
  80.4846350  24.2294090  17.5842080  90.5139700  23.7452840  23.7150710
  91.2338820  24.2408130  23.3246820  90.3121520  23.0670730  23.0704580
  85.9749640  15.1390800  17.8580100  85.1614250  14.6403970  17.7825410
  85.7811590  15.9789050  17.4416450  85.8958500  23.8161900  29.6019710
  85.8295810  22.8957570  29.3477300  85.2663640  23.9137340  30.3164350
  88.6898030  19.5110450  16.1542260  89.5777650  19.8227680  15.9793600
  88.6603120  18.6382700  15.7622840  79.7989120  24.4167860  21.5603130
  80.3167790  23.6136120  21.5060020  79.3473140  24.3547000  22.4019960
  84.6858620  25.6834140  16.8330430  85.0274320  26.4276370  16.3373750
  83.8571330  25.9965260  17.1955260  77.2833660  21.3829230  28.4728830
  76.9248600  22.0483080  29.0602170  76.9888220  20.5512780  28.8441450
  80.4846780  21.8413470  31.3568380  80.1846920  21.9870650  30.4596200
  81.2558020  21.2818760  31.2641770  85.8275230  26.6382470  29.3523510
  85.8419770  25.7063430  29.1342420  85.1200330  26.7242230  29.9913280
  90.9612300  20.8222290  15.6222120  90.8776020  21.2536510  14.7718560
  91.6806490  21.2820640  16.0548940  91.9899550  27.6764550  18.3504250
  91.3475710  27.0220170  18.6247970  91.6030210  28.0819640  17.5744920
  87.5686030  25.0049980  22.1975940  87.9209850  24.4078110  21.5377310
  86.6848360  24.6794210  22.3684190  83.6549310  25.7647670  19.6046350
  84.3420440  26.3116880  19.9853940  82.8681730  26.3088400  19.6395960
  75.7941710  21.3820490  15.0963430  76.6636560  21.6645290  15.3799350
  75.3032030  22.1956360  14.9812240  82.9576520  22.7693700  19.2171710
  83.4139300  23.5798950  19.4431900  82.6064730  22.4516840  20.0490200
  85.2609130  28.2800040  26.4464010  85.9051350  28.4859420  27.1237430
  85.6238570  27.5188440  25.9934860  78.8588300  13.1131350  19.6894230
  78.7302930  13.1049250  20.6379150  78.0350320  13.4514440  19.3385240
  86.5341210  26.2832390  25.1641460  87.1763440  25.5825550  25.2773630
  87.0590560  27.0630830  24.9838350  90.3796930  26.5681010  14.8880600
  90.1534510  25.8511450  15.4805240  89.9893130  26.3193450  14.0502350
  88.3078830  27.0827290  28.3677520  88.6435070  27.6693980  29.0455440
  87.3879170  26.9520000  28.5975310  76.1612960  30.5947870  15.6625060
  76.5210600  31.1937210  15.0082330  76.0205300  31.1407760  16.4360090
  75.8582230  14.8722470  29.1500930  75.1440750  15.0719390  29.7553540
  76.2777270  14.0962040  29.5215730  89.9613180  24.4852950  16.5494760
  89.6734880  24.9465640  17.3372640  90.7565350  24.0250720  16.8178980
  76.1454820  28.8602730  30.1367460  76.2545940  27.9197470  29.9962850
  75.4935380  29.1257480  29.4881190  84.1367410  27.1318620  31.5365580
  83.8164280  26.4127860  32.0811270  83.4625770  27.8073690  31.6101640
  82.1781580  27.9779070  16.4798730  82.1691680  28.7108760  15.8643240
  81.2579940  27.7310650  16.5725690  77.7788220  23.1993960  17.2245490
  77.1716170  23.9392860  17.2340790  78.2537570  23.2893320  16.3983690
  87.3521010  17.3644780  26.9002380  87.7201830  16.5439990  27.2281950
  86.4919210  17.4246670  27.3158030  90.7183040  16.3201720  17.7089940
  90.0896200  16.4247390  16.9948170  90.2234960  16.5398500  18.4983820
  85.1641180  28.0407310  15.1423920  85.2653160  27.8371300  14.2125900
  84.2642920  27.7865590  15.3471700  82.6867070  18.5987670  19.1247820
  81.9783220  19.0674010  19.5661430  82.9711550  17.9409680  19.7593010
  84.3123000  20.0184370  27.1240350  84.8108250  20.4930190  27.7892200
  84.4545950  19.0947890  27.3310380  86.7182500  15.3238330  20.5643610
  86.5950280  15.3424460  19.6153120  87.6667060  15.3717270  20.6842010
  83.8059290  30.5593630  19.8371590  84.0600790  30.5215020  18.9150960
  82.8571770  30.4326960  19.8299840  80.8902090  16.9072750  16.4998530
  81.7392620  17.3442900  16.4338720  80.5233360  17.2193010  17.3270590
  91.5189860  16.2352330  27.9668740  91.0163460  16.9757730  28.3062550
  92.3346520  16.6236330  27.6505530  89.8111870  21.4785510  21.4130100
  88.8702010  21.4935740  21.5877790  90.1255940  20.6921470  21.8590400
  79.7893510  23.1605110  14.9734060  80.5556780  23.0486470  15.5359490
  79.8668200  22.4643080  14.3210830  78.4840270  20.5930180  15.6566950
  78.5643860  19.6457690  15.7684350  79.3760020  20.9237060  15.7627610
  79.2854980  30.7425570  22.7601490  80.0217460  30.1941030  23.0310060
  79.6695900  31.6081580  22.6207480  76.1700460  26.8099140  18.6343000
  75.2440240  27.0520280  18.6248410  76.6356890  27.6373400  18.5127750
  78.2913260  29.9271640  31.9487070  79.0925990  30.2483690  32.3622470
  77.7765080  29.5667220  32.6706980  82.3957290  29.9155880  14.5827060
  83.1885900  30.2044710  14.1308850  81.8761640  29.4848050  13.9039540
  87.1277890  26.0351510  31.8962480  86.5216050  26.0583110  31.1558230
  86.8232000  25.3034550  32.4329730  88.5578260  29.7631800  30.5071890
  89.5100010  29.6789820  30.4572130  88.4106480  30.4273510  31.1805680
  91.4487460  29.1426010  16.0063800  91.1628970  28.7291150  15.1917980
  91.2507010  30.0713720  15.8864320  76.0111070  22.4145100  30.8923120
  76.5150090  21.8352380  31.4639350  75.2718490  22.6985330  31.4299490
  82.9134690  25.1359290  14.4469410  82.8085330  24.5211640  15.1730790
  82.7458910  24.6125180  13.6632420  83.0649010  23.8216090  30.4258640
  82.2994680  24.3901090  30.3413310  83.2464970  23.5292300  29.5326870
  86.1537420  24.1979320  15.0511400  85.6047520  24.6448620  15.6954140
  86.7756680  23.6928570  15.5749070  90.2072360  25.5521420  30.9833660
  90.9481830  25.8897180  30.4801120  89.4445040  25.7213480  30.4303430
  78.0434150  20.5574690  31.7873190  78.0839490  20.2588560  32.6958420
  78.8979650  20.9582300  31.6280710  81.8212540  23.1570240  16.9476700
  82.2428960  22.9910110  17.7908090  81.9463380  22.3470470  16.4531840
  79.9839960  19.1366790  29.7547680  79.4536420  18.6457740  29.1271020
  80.6528030  19.5650990  29.2205610  84.3340180  22.1807850  14.1953800
  84.8545840  21.4656870  13.8294950  84.9808580  22.8193720  14.4954310
  88.8818020  23.6036250  29.5188870  89.2959040  23.7581330  30.3679290
  87.9469020  23.7291470  29.6814650  89.3540190  20.9432410  31.5228020
  89.9360960  20.1884730  31.4348500  89.5301960  21.4739850  30.7459500
  80.4712260  16.1029160  29.8344970  80.3769130  15.4849910  29.1095840
  79.8909650  16.8295450  29.6074880  83.2373700  14.6602400  26.8672360
  82.7891000  14.6826660  26.0217910  82.6038900  14.2621420  27.4642660
  83.6433250  23.5556730  27.4884800  84.0621360  24.3989460  27.3161040
  82.7241880  23.6928770  27.2591580  85.9797150  21.2872910  28.8722640
  86.0993360  20.6914050  29.6117480  86.8391150  21.3242600  28.4523940
  88.3185050  21.8410100  27.4485150  87.7920270  22.3652720  26.8450290
  88.6616390  22.4737490  28.0794880  80.7171440  19.2303470  13.8934860
  80.5160500  18.3670830  14.2548200  80.5463490  19.1436830  12.9556460
  81.4940670  29.8609740  28.6042530  80.9561760  30.5855800  28.2851230
  81.7474630  29.3840080  27.8139870  82.7465920  17.8294260  30.1298460
  83.3365610  17.5210110  30.8176280  81.9286160  17.3574010  30.2858360
  87.5659350  17.4460070  30.3631480  86.8774870  16.7841610  30.2981470
  88.2865370  16.9998340  30.8079940  88.1959750  14.0411700  16.4221740
  88.4762040  13.1979600  16.7781160  87.4225480  14.2734810  16.9360490
  79.5154240  16.3304090  13.8812740  79.8180140  16.3371520  12.9731890
  80.2548830  15.9801950  14.3780400  84.3502880  31.0960950  28.8629180
  84.2761580  31.9996090  29.1701550  83.4481720  30.7772850  28.8351250
  82.7339170  15.2738710  14.8668940  82.3861170  14.5962700  14.2871390
  82.9351940  14.8128220  15.6812330  84.8988210  30.2619460  16.4855540
  85.7939000  30.6004430  16.5074300  84.9305840  29.5398870  15.8579820
  78.5384370  25.6346510  14.7142540  78.9759240  26.1776180  15.3700120
  79.0232100  24.8093460  14.7238880  75.7530170  28.4235540  22.1662800
  76.0833180  27.5556600  21.9341440  76.1821170  28.6294060  22.9967760
  80.3492090  26.7544550  19.8264770  80.0487630  26.6309520  20.7268680
  80.2429580  25.8953140  19.4180500  76.2420380  29.2906130  24.9044430
  75.8051370  29.4706930  25.7368580  76.8098060  30.0480750  24.7626150
  91.8782560  28.7923130  29.1921740  91.2784550  28.8515690  28.4485660
  92.0076460  27.8528110  29.3218590  76.0744810  21.8026360  21.2633310
  75.4193650  21.5338000  20.6193010  76.9122760  21.6930840  20.8135290
  90.5634200  25.5175110  27.2897900  89.7494040  25.9472270  27.5523690
  90.9708400  26.1293520  26.6766950  89.0235250  16.5967650  15.4851800
  89.4420130  16.4098630  14.6448460  88.7171310  15.7446700  15.7954730
  77.1120740  22.1878930  25.8036650  77.4793780  22.1006330  26.6832670
  76.5431560  21.4245480  25.7043510  91.9124600  20.6563310  28.8167120
  91.6810690  20.4276060  27.9165070  92.1729150  21.5762860  28.7712010
  76.6636740  19.0988020  29.7095070  75.7692790  19.0654780  30.0488780
  77.2034290  19.2974810  30.4746320  90.3512670  15.8819740  31.5946820
  91.2282850  15.8903140  31.9780820  90.3633510  15.1450580  30.9839170
  75.2882890  19.0125290  17.2058640  74.3846970  19.2755490  17.0310300
  75.7723510  19.2836460  16.4258600  91.7975940  19.7349280  22.4834840
  92.3213420  19.2411930  21.8525010  92.3835360  19.8699640  23.2282410
  91.9765660  19.8189150  26.0054390  91.0268370  19.7852690  26.1199380
  92.1578670  20.7289260  25.7704160  77.8310100  18.0690830  15.1153020
  78.5401800  17.6474050  14.6300300  77.1150040  18.1366060  14.4836370
  77.4784260  14.1230160  14.1555670  78.2012390  14.6639100  14.4736890
  77.7508780  13.8493580  13.2797210  91.2875910  18.9922630  18.4227250
  91.7835030  18.7593500  19.2076130  91.0891980  18.1534470  18.0064890
  77.1676450  13.3736350  24.0578290  77.8152640  12.8233730  23.6173450
  77.5878290  13.6279500  24.8794100  91.0628790  13.5677710  27.4147930
  91.7001010  14.1811850  27.7807120  91.2103680  13.6038370  26.4697160
  90.6210250  30.2693710  20.8166170  91.2169320  29.9478280  20.1400590
  90.8788400  29.7965530  21.6079440  76.9208450  13.5292020  26.8003610
  76.5723270  13.9855840  27.5661790  76.5896150  12.6349150  26.8826040
  78.5272820  26.7011620  30.9656800  78.4842450  26.3304530  31.8471260
  78.6583830  27.6389190  31.1058620  82.2278850  28.2571210  26.5666520
  81.9870210  28.5245770  25.6797040  83.1681490  28.4276940  26.6217380
  84.4333270  14.7203900  30.3223030  84.3722160  15.3125730  31.0718440
  85.3733650  14.6129860  30.1773290  87.0707830  14.3773960  29.9615320
  87.6848240  14.6953250  29.2996400  87.6157390  13.8922550  30.5811180
  77.5929090  13.0568220  30.0754380  78.1412080  12.8756270  29.3120490
  77.6584400  12.2662330  30.6110690  78.3660850  29.6473870  28.0854580
  77.7721170  29.5158570  28.8244620  78.3584690  28.8112010  27.6196680
  87.8115870  12.9406100  26.2884610  86.9375710  13.2741210  26.0857540
  87.7026620  12.4679280  27.1136480  88.7187850  15.1476970  27.6726330
  88.3901210  14.3328730  27.2928060  89.6670150  15.1046780  27.5492020
  91.1722460  30.9189010  24.6463900  90.7125430  31.6704820  24.2721920
  90.5434920  30.1995480  24.5878700  77.9973080  27.0132250  27.0362620
  77.2707140  26.3937540  26.9688570  78.0582230  27.4072860  26.1660700
  81.6018180  29.2277250  23.8212030  82.1183200  28.6164610  23.2960290
  82.2515560  29.7306030  24.3123040  84.3413680  30.1185740  24.6481010
  84.6291490  29.8640040  23.7714020  84.8536900  29.5663100  25.2386580
  85.5590690  13.8575940  25.2277520  84.7762480  14.3321440  25.5074280
  85.2653620  12.9530770  25.1190700  90.1111760  14.5599040  23.2726610
  90.5519850  14.5044140  22.4248210  89.8419350  15.4757050  23.3436790
  76.2803080  30.3306640  20.2459380  76.1125120  29.6977320  20.9441270
  75.4137590  30.5366040  19.8953570  76.9031100  14.1623420  17.7491240
  77.6610460  14.2752300  17.1755270  76.4408270  14.9992620  17.7034670
  83.4444910  16.2762690  20.7393550  82.6319420  15.9019580  20.3989430
  83.9486550  15.5207770  21.0414740  87.9469890  12.9405140  21.9776620
  88.5499260  13.5125350  22.4525140  87.2062880  13.5044580  21.7550520
  91.0904490  13.3426700  17.2516900  91.2855120  14.2410150  17.5184330
  90.3034360  13.1113780  17.7449850  77.8865780  29.0239870  17.6909520
  77.3613400  29.4047900  16.9871480  77.8110360  29.6490640  18.4119230
  79.2756250  14.6887470  16.2893210  79.8049010  13.9017270  16.1601160
  79.9084570  15.3678660  16.5228740  81.4694090  14.4262610  19.3438600
  80.8396830  13.7249920  19.5108730  80.9299230  15.1866740  19.1271760
  84.4086040  31.0401840  32.0149210  85.3353350  30.8046110  32.0585170
  84.3936470  31.8673840  31.5335240  81.5949650  13.7046590  31.7791090
  81.3133920  14.2080190  31.0151910  81.9769350  12.9068340  31.4133220
  80.4858750  30.9722250  16.5658770  81.2177570  30.6881530  16.0182660
  80.7452420  30.7335530  17.4558150  79.6473540  27.0886980  16.5705100
  79.0182420  27.5572080  17.1190930  79.7621370  26.2436200  17.0051290
  88.1965110  13.1200170  32.3571560  88.0830560  13.4394780  33.2523080
  89.0134850  13.5212680  32.0608840  90.9763600  30.2671700  31.8390250
  91.7688920  29.7720930  31.6316210  91.2696750  30.9461840  32.4465860
  87.1023260  21.1392640   2.7206300  87.0217310  20.2247250   2.4498010
  86.6887680  21.6359710   2.0146010  85.2341300  22.9171660   4.6015570
  84.4583400  22.4372100   4.8914140  85.8854230  22.2377310   4.4271730
  79.2507130  23.2291470   5.4791330  78.4192010  22.9740180   5.8787840
  79.8588110  23.3002240   6.2149250  89.2548730  27.3231850   3.3814700
  88.7930260  26.5519090   3.7101870  90.0674280  27.3497920   3.8867150
  79.2308390  27.2631560   5.6749350  79.5336430  26.3729300   5.4959570
  79.9751980  27.8201780   5.4471600  75.6232090  20.7899010   5.1473420
  76.1948200  20.0221210   5.1477060  75.6233630  21.0887770   4.2380030
  85.4812040  29.6089860   3.0018690  84.8623480  30.0647360   2.4313130
  86.3363820  29.7641320   2.6008390  84.6750290  25.5928850   4.6085730
  84.6058570  24.6518790   4.4474860  85.4370150  25.6830260   5.1808300
  76.8656960  16.1983370   6.9342350  76.6859800  15.3009120   7.2145110
  76.4637040  16.7455240   7.6089300  85.7055460  18.3999230   4.8354660
  86.0820280  17.5271110   4.7228330  85.6074970  18.7357930   3.9445100
  89.4879580  15.8949670   1.7683000  90.3089200  15.4046240   1.8108480
  89.5213660  16.4847330   2.5214840  77.4843630  18.6943870   5.5424690
  78.1653740  18.9582240   6.1612090  77.1691680  17.8544740   5.8762700
  81.6768200  19.7411230   4.6297280  82.1846420  20.2392200   5.2702300
  82.2081440  18.9646430   4.4536640  79.9604300  14.3809790   8.8960700
  79.9622740  14.8982180   8.0906600  79.1308610  13.9039970   8.8730630
  81.2107150  24.0204970   7.0734200  80.8776530  24.6473890   7.7155270
  81.3873830  24.5466850   6.2935870  89.7241060  17.8350050   4.5410540
  89.0196630  18.1234940   5.1213650  90.0853220  18.6450160   4.1810100
  79.6419630  16.0919750   6.9031150  79.9836440  16.9361800   6.6085020
  78.7035440  16.2403490   7.0196490  80.4226250  25.9885770   8.8883380
  81.0400250  26.6636850   8.6067830  79.5619370  26.3973750   8.7970880
  91.3403840  27.4525180   6.8038020  90.6567360  28.1224290   6.7954690
  91.8798130  27.6505830   6.0382880  83.3247520  13.5802020   3.2275740
  83.6322500  13.0248910   2.5111240  82.3948220  13.7146480   3.0448730
  88.8762580  29.2969310   5.5183200  88.8889740  28.8931600   4.6505460
  88.3237800  30.0716600   5.4144630  88.2748020  24.1999150   6.8465810
  88.6916810  23.9859260   6.0119270  88.9987840  24.4571940   7.4174430
  89.1852130  19.3855690   7.8836920  88.7723310  20.2109400   8.1376910
  88.4528080  18.8000730   7.6913280  81.3184920  22.1715590   2.7455590
  80.9141920  21.4592840   2.2501490  81.4048040  21.8268830   3.6343630
  81.7866620  25.8583150   4.9094800  81.4894910  25.2528620   4.2302580
  82.7366440  25.8960460   4.7984160  80.0313540  18.9458800   6.5254630
  80.5828130  19.0554140   5.7507880  80.5457050  19.3196400   7.2409860
  89.8752230  29.4315020   8.5717900  89.3982790  30.2387210   8.3790510
  89.1914020  28.7793350   8.7244110  80.8785050  25.5964840  11.5602600
  79.9813580  25.8204810  11.8076000  80.9037920  25.7199780  10.6114000
  79.7056270  22.4678160  10.1359970  79.5664040  23.3400960  10.5047370
  78.8237630  22.1250970   9.9907910  81.5036620  28.4099860  12.3445120
  81.4752050  28.8142810  11.4773550  81.3401590  27.4810220  12.1816720
  75.6574920  24.2375710   6.0530880  75.7355340  24.3724480   5.1086600
  76.2716600  23.5291600   6.2459000  76.9022550  25.9375900   2.4637060
  76.4950630  26.0790490   1.6090660  77.7935560  25.6536060   2.2608270
  86.7201430  30.0867810   9.3704110  87.2346100  29.9975820  10.1726540
  85.8770510  30.4327510   9.6632020  75.7134440  25.2789880   8.5925340
  75.8765480  24.8095240   7.7744710  76.1786890  24.7713440   9.2574180
  80.4853210  14.4095640   3.6285910  80.0421360  15.1905180   3.2970430
  81.0438200  14.7325530   4.3356850  84.7723020  17.2764160   9.2321230
  84.3102390  17.4847180  10.0441170  84.3701130  16.4623510   8.9291900
  89.7727530  18.4973110  10.3617890  88.9221120  18.1978860  10.6826960
  89.6129320  18.7415120   9.4501710  86.8677240  19.9974860  12.4616680
  87.1930650  19.1638610  12.1218910  87.6557570  20.5203380  12.6095010
  82.5229110  14.9542970   5.4875510  82.8201440  15.8605800   5.4067530
  83.0714670  14.4661750   4.8735080  82.7166640  20.4314790  12.0227430
  82.6210240  19.4909520  11.8727830  83.5598620  20.6529860  11.6275500
  77.8477180  16.8428460  10.1761210  77.4540570  17.6903670  10.3833990
  77.1595580  16.2054830  10.3669850  84.4222230  16.9263430  13.2457950
  83.7320550  16.7335630  13.8804040  85.1654530  17.2098070  13.7782250
  75.1494230  14.7656920   4.2091290  74.8607280  15.3359780   4.9216270
  75.8939990  14.2861370   4.5722520  86.6985200  20.7661870   6.0811870
  85.9666320  21.2748680   6.4301970  86.3009540  19.9491850   5.7800650
  83.1362590  17.4416070   4.4864360  83.1398650  17.0006020   3.6368900
  84.0313710  17.7633400   4.5936180  78.9864970  17.3242560   3.4458570
  78.6465020  17.8017790   4.2025620  78.2242290  16.8707680   3.0859670
  87.1611110  16.2195550   5.4934810  87.1783850  16.6704200   6.3376660
  86.9126690  15.3201190   5.7068250  90.5881860  13.6327730  11.3321190
  90.9127630  12.9017390  11.8579170  90.6238370  13.3141370  10.4302180
  77.2873420  24.6541310  10.7521150  76.9028210  24.0134980  11.3504110
  77.5985610  25.3577430  11.3215880  83.4370560  21.5017850   6.2329770
  83.8040690  21.0276420   6.9791110  83.2475620  22.3759420   6.5738110
  76.3011050  16.2461540   2.3623240  76.0157970  15.8817210   3.2001860
  76.2389910  15.5142000   1.7486380  81.2269930  20.5426490   8.5513980
  80.9227000  21.4218470   8.7764340  82.1816390  20.6026280   8.5871420
  90.5139700  23.7452840   4.9407220  91.2338820  24.2408130   4.5503330
  90.3121520  23.0670730   4.2961090  85.8958500  23.8161900  10.8276220
  85.8295810  22.8957570  10.5733810  85.2663640  23.9137340  11.5420860
  79.7989120  24.4167860   2.7859640  80.3167790  23.6136120   2.7316530
  79.3473140  24.3547000   3.6276470  77.2833660  21.3829230   9.6985340
  76.9248600  22.0483080  10.2858680  76.9888220  20.5512780  10.0697960
  80.4846780  21.8413470  12.5824890  80.1846920  21.9870650  11.6852710
  81.2558020  21.2818760  12.4898280  85.8275230  26.6382470  10.5780020
  85.8419770  25.7063430  10.3598930  85.1200330  26.7242230  11.2169790
  87.5686030  25.0049980   3.4232450  87.9209850  24.4078110   2.7633820
  86.6848360  24.6794210   3.5940700  85.2609130  28.2800040   7.6720520
  85.9051350  28.4859420   8.3493940  85.6238570  27.5188440   7.2191370
  86.5341210  26.2832390   6.3897970  87.1763440  25.5825550   6.5030140
  87.0590560  27.0630830   6.2094860  88.3078830  27.0827290   9.5934030
  88.6435070  27.6693980  10.2711950  87.3879170  26.9520000   9.8231820
  75.8582230  14.8722470  10.3757440  75.1440750  15.0719390  10.9810050
  76.2777270  14.0962040  10.7472240  76.1454820  28.8602730  11.3623970
  76.2545940  27.9197470  11.2219360  75.4935380  29.1257480  10.7137700
  84.1367410  27.1318620  12.7622090  83.8164280  26.4127860  13.3067780
  83.4625770  27.8073690  12.8358150  87.3521010  17.3644780   8.1258890
  87.7201830  16.5439990   8.4538460  86.4919210  17.4246670   8.5414540
  84.3123000  20.0184370   8.3496860  84.8108250  20.4930190   9.0148710
  84.4545950  19.0947890   8.5566890  91.5189860  16.2352330   9.1925250
  91.0163460  16.9757730   9.5319060  92.3346520  16.6236330   8.8762040
  89.8111870  21.4785510   2.6386610  88.8702010  21.4935740   2.8134300
  90.1255940  20.6921470   3.0846910  79.2854980  30.7425570   3.9858000
  80.0217460  30.1941030   4.2566570  79.6695900  31.6081580   3.8463990
  78.2913260  29.9271640  13.1743580  79.0925990  30.2483690  13.5878980
  77.7765080  29.5667220  13.8963490  87.1277890  26.0351510  13.1218990
  86.5216050  26.0583110  12.3814740  86.8232000  25.3034550  13.6586240
  88.5578260  29.7631800  11.7328400  89.5100010  29.6789820  11.6828640
  88.4106480  30.4273510  12.4062190  76.0111070  22.4145100  12.1179630
  76.5150090  21.8352380  12.6895860  75.2718490  22.6985330  12.6556000
  83.0649010  23.8216090  11.6515150  82.2994680  24.3901090  11.5669820
  83.2464970  23.5292300  10.7583380  90.2072360  25.5521420  12.2090170
  90.9481830  25.8897180  11.7057630  89.4445040  25.7213480  11.6559940
  78.0434150  20.5574690  13.0129700  78.0839490  20.2588560  13.9214930
  78.8979650  20.9582300  12.8537220  79.9839960  19.1366790  10.9804190
  79.4536420  18.6457740  10.3527530  80.6528030  19.5650990  10.4462120
  88.8818020  23.6036250  10.7445380  89.2959040  23.7581330  11.5935800
  87.9469020  23.7291470  10.9071160  89.3540190  20.9432410  12.7484530
  89.9360960  20.1884730  12.6605010  89.5301960  21.4739850  11.9716010
  80.4712260  16.1029160  11.0601480  80.3769130  15.4849910  10.3352350
  79.8909650  16.8295450  10.8331390  83.2373700  14.6602400   8.0928870
  82.7891000  14.6826660   7.2474420  82.6038900  14.2621420   8.6899170
  83.6433250  23.5556730   8.7141310  84.0621360  24.3989460   8.5417550
  82.7241880  23.6928770   8.4848090  85.9797150  21.2872910  10.0979150
  86.0993360  20.6914050  10.8373990  86.8391150  21.3242600   9.6780450
  88.3185050  21.8410100   8.6741660  87.7920270  22.3652720   8.0706800
  88.6616390  22.4737490   9.3051390  81.4940670  29.8609740   9.8299040
  80.9561760  30.5855800   9.5107740  81.7474630  29.3840080   9.0396380
  82.7465920  17.8294260  11.3554970  83.3365610  17.5210110  12.0432790
  81.9286160  17.3574010  11.5114870  87.5659350  17.4460070  11.5887990
  86.8774870  16.7841610  11.5237980  88.2865370  16.9998340  12.0336450
  84.3502880  31.0960950  10.0885690  84.2761580  31.9996090  10.3958060
  83.4481720  30.7772850  10.0607760  75.7530170  28.4235540   3.3919310
  76.0833180  27.5556600   3.1597950  76.1821170  28.6294060   4.2224270
  76.2420380  29.2906130   6.1300940  75.8051370  29.4706930   6.9625090
  76.8098060  30.0480750   5.9882660  91.8782560  28.7923130  10.4178250
  91.2784550  28.8515690   9.6742170  92.0076460  27.8528110  10.5475100
  76.0744810  21.8026360   2.4889820  75.4193650  21.5338000   1.8449520
  76.9122760  21.6930840   2.0391800  90.5634200  25.5175110   8.5154410
  89.7494040  25.9472270   8.7780200  90.9708400  26.1293520   7.9023460
  77.1120740  22.1878930   7.0293160  77.4793780  22.1006330   7.9089180
  76.5431560  21.4245480   6.9300020  91.9124600  20.6563310  10.0423630
  91.6810690  20.4276060   9.1421580  92.1729150  21.5762860   9.9968520
  76.6636740  19.0988020  10.9351580  75.7692790  19.0654780  11.2745290
  77.2034290  19.2974810  11.7002830  90.3512670  15.8819740  12.8203330
  91.2282850  15.8903140  13.2037330  90.3633510  15.1450580  12.2095680
  91.7975940  19.7349280   3.7091350  92.3213420  19.2411930   3.0781520
  92.3835360  19.8699640   4.4538920  91.9765660  19.8189150   7.2310900
  91.0268370  19.7852690   7.3455890  92.1578670  20.7289260   6.9960670
  77.1676450  13.3736350   5.2834800  77.8152640  12.8233730   4.8429960
  77.5878290  13.6279500   6.1050610  91.0628790  13.5677710   8.6404440
  91.7001010  14.1811850   9.0063630  91.2103680  13.6038370   7.6953670
  76.9208450  13.5292020   8.0260120  76.5723270  13.9855840   8.7918300
  76.5896150  12.6349150   8.1082550  78.5272820  26.7011620  12.1913310
  78.4842450  26.3304530  13.0727770  78.6583830  27.6389190  12.3315130
  82.2278850  28.2571210   7.7923030  81.9870210  28.5245770   6.9053550
  83.1681490  28.4276940   7.8473890  84.4333270  14.7203900  11.5479540
  84.3722160  15.3125730  12.2974950  85.3733650  14.6129860  11.4029800
  87.0707830  14.3773960  11.1871830  87.6848240  14.6953250  10.5252910
  87.6157390  13.8922550  11.8067690  77.5929090  13.0568220  11.3010890
  78.1412080  12.8756270  10.5377000  77.6584400  12.2662330  11.8367200
  78.3660850  29.6473870   9.3111090  77.7721170  29.5158570  10.0501130
  78.3584690  28.8112010   8.8453190  87.8115870  12.9406100   7.5141120
  86.9375710  13.2741210   7.3114050  87.7026620  12.4679280   8.3392990
  88.7187850  15.1476970   8.8982840  88.3901210  14.3328730   8.5184570
  89.6670150  15.1046780   8.7748530  91.1722460  30.9189010   5.8720410
  90.7125430  31.6704820   5.4978430  90.5434920  30.1995480   5.8135210
  77.9973080  27.0132250   8.2619130  77.2707140  26.3937540   8.1945080
  78.0582230  27.4072860   7.3917210  81.6018180  29.2277250   5.0468540
  82.1183200  28.6164610   4.5216800  82.2515560  29.7306030   5.5379550
  84.3413680  30.1185740   5.8737520  84.6291490  29.8640040   4.9970530
  84.8536900  29.5663100   6.4643090  85.5590690  13.8575940   6.4534030
  84.7762480  14.3321440   6.7330790  85.2653620  12.9530770   6.3447210
  90.1111760  14.5599040   4.4983120  90.5519850  14.5044140   3.6504720
  89.8419350  15.4757050   4.5693300  83.4444910  16.2762690   1.9650060
  82.6319420  15.9019580   1.6245940  83.9486550  15.5207770   2.2671250
  87.9469890  12.9405140   3.2033130  88.5499260  13.5125350   3.6781650
  87.2062880  13.5044580   2.9807030  84.4086040  31.0401840  13.2405720
  85.3353350  30.8046110  13.2841680  84.3936470  31.8673840  12.7591750
  81.5949650  13.7046590  13.0047600  81.3133920  14.2080190  12.2408420
  81.9769350  12.9068340  12.6389730  88.1965110  13.1200170  13.5828070
  88.0830560  13.4394780  14.4779590  89.0134850  13.5212680  13.2865350
  90.9763600  30.2671700  13.0646760  91.7688920  29.7720930  12.8572720
  91.2696750  30.9461840  13.6722370  85.2341300   4.1428170  79.6989530
  84.4583400   3.6628610  79.9888100  85.8854230   3.4633820  79.5245690
  79.2507130   4.4547980  80.5765290  78.4192010   4.1996690  80.9761800
  79.8588110   4.5258750  81.3123210  89.2548730   8.5488360  78.4788660
  88.7930260   7.7775600  78.8075830  90.0674280   8.5754430  78.9841110
  79.2308390   8.4888070  80.7723310  79.5336430   7.5985810  80.5933530
  79.9751980   9.0458290  80.5445560  85.4812040  10.8346370  78.0992650
  84.8623480  11.2903870  77.5287090  86.3363820  10.9897830  77.6982350
  84.6750290   6.8185360  79.7059690  84.6058570   5.8775300  79.5448820
  85.4370150   6.9086770  80.2782260  86.3475390   5.7185610  75.4924560
  85.7292660   6.1835060  74.9287280  86.8598640   6.4113090  75.9094070
  75.7158590   6.4042140  72.8664190  75.3386570   6.8929240  72.1349090
  75.9731660   7.0767420  73.4970720  91.3403840   8.6781690  81.9011980
  90.6567360   9.3480800  81.8928650  91.8798130   8.8762340  81.1356840
  88.8762580  10.5225820  80.6157160  88.8889740  10.1188110  79.7479420
  88.3237800  11.2973110  80.5118590  90.1708000   7.2442040  75.7047330
  90.0604330   6.3016370  75.8296750  90.1676250   7.6057680  76.5910090
  85.7128280   2.8707360  75.0609820  84.7857560   2.8044740  75.2898290
  85.8653100   3.8087490  74.9465060  89.7425570   4.4327660  75.5645070
  89.1237990   4.0947210  74.9171370  89.7250020   3.7887420  76.2724260
  81.3184920   3.3972100  77.8429550  80.9141920   2.6849350  77.3475450
  81.4048040   3.0525340  78.7317590  81.7866620   7.0839660  80.0068760
  81.4894910   6.4785130  79.3276540  82.7366440   7.1216970  79.8958120
  87.9190270   3.6714470  72.5717820  88.3583550   2.8336900  72.4255640
  88.6318690   4.3043870  72.6581960  86.0285650   8.6110540  76.5399060
  86.4681560   9.3534870  76.1254450  85.9672540   8.8537110  77.4638020
  75.6574920   5.4632220  81.1504840  75.7355340   5.5980990  80.2060560
  76.2716600   4.7548110  81.3432960  76.9022550   7.1632410  77.5611020
  76.4950630   7.3047000  76.7064620  77.7935560   6.8792570  77.3582230
  88.6955830  11.5979660  73.8962070  88.5356970  11.3082600  74.7943900
  88.5302540  10.8219790  73.3607300  81.1744210  11.3778190  75.6733690
  80.9986690  10.4613730  75.4601490  80.3199950  11.7365480  75.9131490
  88.3981960   9.1067220  72.4560070  87.7047120   9.1044510  71.7962350
  89.1404820   8.6826540  72.0254240  87.9631890  10.7329930  76.5308560
  88.4188840   9.9519310  76.8447180  88.3024410  11.4436750  77.0749740
  83.4370560   2.7274360  81.3303730  83.8040690   2.2532930  82.0765070
  83.2475620   3.6015930  81.6712070  79.7551720   5.9743990  74.2454790
  78.9813980   5.4341610  74.0853510  80.4846350   5.4550600  73.9072550
  90.5139700   4.9709350  80.0381180  91.2338820   5.4664640  79.6477290
  90.3121520   4.2927240  79.3935050  79.7989120   5.6424370  77.8833600
  80.3167790   4.8392630  77.8290490  79.3473140   5.5803510  78.7250430
  84.6858620   6.9090650  73.1560900  85.0274320   7.6532880  72.6604220
  83.8571330   7.2221770  73.5185730  90.9612300   2.0478800  71.9452590
  90.8776020   2.4793020  71.0949030  91.6806490   2.5077150  72.3779410
  91.9899550   8.9021060  74.6734720  91.3475710   8.2476680  74.9478440
  91.6030210   9.3076150  73.8975390  87.5686030   6.2306490  78.5206410
  87.9209850   5.6334620  77.8607780  86.6848360   5.9050720  78.6914660
  83.6549310   6.9904180  75.9276820  84.3420440   7.5373390  76.3084410
  82.8681730   7.5344910  75.9626430  75.7941710   2.6077000  71.4193900
  76.6636560   2.8901800  71.7029820  75.3032030   3.4212870  71.3042710
  82.9576520   3.9950210  75.5402180  83.4139300   4.8055460  75.7662370
  82.6064730   3.6773350  76.3720670  86.5341210   7.5088900  81.4871930
  87.1763440   6.8082060  81.6004100  87.0590560   8.2887340  81.3068820
  90.3796930   7.7937520  71.2111070  90.1534510   7.0767960  71.8035710
  89.9893130   7.5449960  70.3732820  76.1612960  11.8204380  71.9855530
  76.5210600  12.4193720  71.3312800  76.0205300  12.3664270  72.7590560
  89.9613180   5.7109460  72.8725230  89.6734880   6.1722150  73.6603110
  90.7565350   5.2507230  73.1409450  82.1781580   9.2035580  72.8029200
  82.1691680   9.9365270  72.1873710  81.2579940   8.9567160  72.8956160
  77.7788220   4.4250470  73.5475960  77.1716170   5.1649370  73.5571260
  78.2537570   4.5149830  72.7214160  85.1641180   9.2663820  71.4654390
  85.2653160   9.0627810  70.5356370  84.2642920   9.0122100  71.6702170
  83.8059290  11.7850140  76.1602060  84.0600790  11.7471530  75.2381430
  82.8571770  11.6583470  76.1530310  89.8111870   2.7042020  77.7360570
  88.8702010   2.7192250  77.9108260  90.1255940   1.9177980  78.1820870
  79.7893510   4.3861620  71.2964530  80.5556780   4.2742980  71.8589960
  79.8668200   3.6899590  70.6441300  79.2854980  11.9682080  79.0831960
  80.0217460  11.4197540  79.3540530  79.6695900  12.8338090  78.9437950
  76.1700460   8.0355650  74.9573470  75.2440240   8.2776790  74.9478880
  76.6356890   8.8629910  74.8358220  82.3957290  11.1412390  70.9057530
  83.1885900  11.4301220  70.4539320  81.8761640  10.7104560  70.2270010
  91.4487460  10.3682520  72.3294270  91.1628970   9.9547660  71.5148450
  91.2507010  11.2970230  72.2094790  82.9134690   6.3615800  70.7699880
  82.8085330   5.7468150  71.4961260  82.7458910   5.8381690  69.9862890
  86.1537420   5.4235830  71.3741870  85.6047520   5.8705130  72.0184610
  86.7756680   4.9185080  71.8979540  81.8212540   4.3826750  73.2707170
  82.2428960   4.2166620  74.1138560  81.9463380   3.5726980  72.7762310
  84.3340180   3.4064360  70.5184270  84.8545840   2.6913380  70.1525420
  84.9808580   4.0450230  70.8184780  84.8988210  11.4875970  72.8086010
  85.7939000  11.8260940  72.8304770  84.9305840  10.7655380  72.1810290
  78.5384370   6.8603020  71.0373010  78.9759240   7.4032690  71.6930590
  79.0232100   6.0349970  71.0469350  75.7530170   9.6492050  78.4893270
  76.0833180   8.7813110  78.2571910  76.1821170   9.8550570  79.3198230
  80.3492090   7.9801060  76.1495240  80.0487630   7.8566030  77.0499150
  80.2429580   7.1209650  75.7410970  76.2420380  10.5162640  81.2274900
  75.8051370  10.6963440  82.0599050  76.8098060  11.2737260  81.0856620
  76.0744810   3.0282870  77.5863780  75.4193650   2.7594510  76.9423480
  76.9122760   2.9187350  77.1365760  90.6210250  11.4950220  77.1396640
  91.2169320  11.1734790  76.4631060  90.8788400  11.0222040  77.9309910
  91.1722460  12.1445520  80.9694370  90.7125430  12.8961330  80.5952390
  90.5434920  11.4251990  80.9109170  81.6018180  10.4533760  80.1442500
  82.1183200   9.8421120  79.6190760  82.2515560  10.9562540  80.6353510
  84.3413680  11.3442250  80.9711480  84.6291490  11.0896550  80.0944490
  84.8536900  10.7919610  81.5617050  76.2803080  11.5563150  76.5689850
  76.1125120  10.9233830  77.2671740  75.4137590  11.7622550  76.2184040
  77.8865780  10.2496380  74.0139990  77.3613400  10.6304410  73.3101950
  77.8110360  10.8747150  74.7349700  80.4858750  12.1978760  72.8889240
  81.2177570  11.9138040  72.3413130  80.7452420  11.9592040  73.7788620
  79.6473540   8.3143490  72.8935570  79.0182420   8.7828590  73.4421400
  79.7621370   7.4692710  73.3281760  85.2341300   4.1428170  60.9246040
  84.4583400   3.6628610  61.2144610  85.8854230   3.4633820  60.7502200
  79.2507130   4.4547980  61.8021800  78.4192010   4.1996690  62.2018310
  79.8588110   4.5258750  62.5379720  89.2548730   8.5488360  59.7045170
  88.7930260   7.7775600  60.0332340  90.0674280   8.5754430  60.2097620
  79.2308390   8.4888070  61.9979820  79.5336430   7.5985810  61.8190040
  79.9751980   9.0458290  61.7702070  85.4812040  10.8346370  59.3249160
  84.8623480  11.2903870  58.7543600  86.3363820  10.9897830  58.9238860
  84.6750290   6.8185360  60.9316200  84.6058570   5.8775300  60.7705330
  85.4370150   6.9086770  61.5038770  86.3475390   5.7185610  56.7181070
  85.7292660   6.1835060  56.1543790  86.8598640   6.4113090  57.1350580
  81.2107150   5.2461480  63.3964670  80.8776530   5.8730400  64.0385740
  81.3873830   5.7723360  62.6166340  80.4226250   7.2142280  65.2113850
  81.0400250   7.8893360  64.9298300  79.5619370   7.6230260  65.1201350
  75.7158590   6.4042140  54.0920700  75.3386570   6.8929240  53.3605600
  75.9731660   7.0767420  54.7227230  91.3403840   8.6781690  63.1268490
  90.6567360   9.3480800  63.1185160  91.8798130   8.8762340  62.3613350
  88.8762580  10.5225820  61.8413670  88.8889740  10.1188110  60.9735930
  88.3237800  11.2973110  61.7375100  90.1708000   7.2442040  56.9303840
  90.0604330   6.3016370  57.0553260  90.1676250   7.6057680  57.8166600
  88.2748020   5.4255660  63.1696280  88.6916810   5.2115770  62.3349740
  88.9987840   5.6828450  63.7404900  85.7128280   2.8707360  56.2866330
  84.7857560   2.8044740  56.5154800  85.8653100   3.8087490  56.1721570
  89.7425570   4.4327660  56.7901580  89.1237990   4.0947210  56.1427880
  89.7250020   3.7887420  57.4980770  81.3184920   3.3972100  59.0686060
  80.9141920   2.6849350  58.5731960  81.4048040   3.0525340  59.9574100
  81.7866620   7.0839660  61.2325270  81.4894910   6.4785130  60.5533050
  82.7366440   7.1216970  61.1214630  89.8752230  10.6571530  64.8948370
  89.3982790  11.4643720  64.7020980  89.1914020  10.0049860  65.0474580
  80.8785050   6.8221350  67.8833070  79.9813580   7.0461320  68.1306470
  80.9037920   6.9456290  66.9344470  87.9190270   3.6714470  53.7974330
  88.3583550   2.8336900  53.6512150  88.6318690   4.3043870  53.8838470
  79.7056270   3.6934670  66.4590440  79.5664040   4.5657470  66.8277840
  78.8237630   3.3507480  66.3138380  86.0285650   8.6110540  57.7655570
  86.4681560   9.3534870  57.3510960  85.9672540   8.8537110  58.6894530
  81.5036620   9.6356370  68.6675590  81.4752050  10.0399320  67.8004020
  81.3401590   8.7066730  68.5047190  75.6574920   5.4632220  62.3761350
  75.7355340   5.5980990  61.4317070  76.2716600   4.7548110  62.5689470
  76.9022550   7.1632410  58.7867530  76.4950630   7.3047000  57.9321130
  77.7935560   6.8792570  58.5838740  86.7201430  11.3124320  65.6934580
  87.2346100  11.2232330  66.4957010  85.8770510  11.6584020  65.9862490
  88.6955830  11.5979660  55.1218580  88.5356970  11.3082600  56.0200410
  88.5302540  10.8219790  54.5863810  81.1744210  11.3778190  56.8990200
  80.9986690  10.4613730  56.6858000  80.3199950  11.7365480  57.1388000
  88.3981960   9.1067220  53.6816580  87.7047120   9.1044510  53.0218860
  89.1404820   8.6826540  53.2510750  87.9631890  10.7329930  57.7565070
  88.4188840   9.9519310  58.0703690  88.3024410  11.4436750  58.3006250
  75.7134440   6.5046390  64.9155810  75.8765480   6.0351750  64.0975180
  76.1786890   5.9969950  65.5804650  77.2873420   5.8797820  67.0751620
  76.9028210   5.2391490  67.6734580  77.5985610   6.5833940  67.6446350
  83.4370560   2.7274360  62.5560240  83.8040690   2.2532930  63.3021580
  83.2475620   3.6015930  62.8968580  81.2269930   1.7683000  64.8744450
  80.9227000   2.6474980  65.0994810  82.1816390   1.8282790  64.9101890
  79.7551720   5.9743990  55.4711300  78.9813980   5.4341610  55.3110020
  80.4846350   5.4550600  55.1329060  90.5139700   4.9709350  61.2637690
  91.2338820   5.4664640  60.8733800  90.3121520   4.2927240  60.6191560
  85.8958500   5.0418410  67.1506690  85.8295810   4.1214080  66.8964280
  85.2663640   5.1393850  67.8651330  79.7989120   5.6424370  59.1090110
  80.3167790   4.8392630  59.0547000  79.3473140   5.5803510  59.9506940
  84.6858620   6.9090650  54.3817410  85.0274320   7.6532880  53.8860730
  83.8571330   7.2221770  54.7442240  77.2833660   2.6085740  66.0215810
  76.9248600   3.2739590  66.6089150  76.9888220   1.7769290  66.3928430
  80.4846780   3.0669980  68.9055360  80.1846920   3.2127160  68.0083180
  81.2558020   2.5075270  68.8128750  85.8275230   7.8638980  66.9010490
  85.8419770   6.9319940  66.6829400  85.1200330   7.9498740  67.5400260
  90.9612300   2.0478800  53.1709100  90.8776020   2.4793020  52.3205540
  91.6806490   2.5077150  53.6035920  91.9899550   8.9021060  55.8991230
  91.3475710   8.2476680  56.1734950  91.6030210   9.3076150  55.1231900
  87.5686030   6.2306490  59.7462920  87.9209850   5.6334620  59.0864290
  86.6848360   5.9050720  59.9171170  83.6549310   6.9904180  57.1533330
  84.3420440   7.5373390  57.5340920  82.8681730   7.5344910  57.1882940
  75.7941710   2.6077000  52.6450410  76.6636560   2.8901800  52.9286330
  75.3032030   3.4212870  52.5299220  82.9576520   3.9950210  56.7658690
  83.4139300   4.8055460  56.9918880  82.6064730   3.6773350  57.5977180
  85.2609130   9.5056550  63.9950990  85.9051350   9.7115930  64.6724410
  85.6238570   8.7444950  63.5421840  86.5341210   7.5088900  62.7128440
  87.1763440   6.8082060  62.8260610  87.0590560   8.2887340  62.5325330
  90.3796930   7.7937520  52.4367580  90.1534510   7.0767960  53.0292220
  89.9893130   7.5449960  51.5989330  88.3078830   8.3083800  65.9164500
  88.6435070   8.8950490  66.5942420  87.3879170   8.1776510  66.1462290
  76.1612960  11.8204380  53.2112040  76.5210600  12.4193720  52.5569310
  76.0205300  12.3664270  53.9847070  89.9613180   5.7109460  54.0981740
  89.6734880   6.1722150  54.8859620  90.7565350   5.2507230  54.3665960
  76.1454820  10.0859240  67.6854440  76.2545940   9.1453980  67.5449830
  75.4935380  10.3513990  67.0368170  84.1367410   8.3575130  69.0852560
  83.8164280   7.6384370  69.6298250  83.4625770   9.0330200  69.1588620
  82.1781580   9.2035580  54.0285710  82.1691680   9.9365270  53.4130220
  81.2579940   8.9567160  54.1212670  77.7788220   4.4250470  54.7732470
  77.1716170   5.1649370  54.7827770  78.2537570   4.5149830  53.9470670
  85.1641180   9.2663820  52.6910900  85.2653160   9.0627810  51.7612880
  84.2642920   9.0122100  52.8958680  83.8059290  11.7850140  57.3858570
  84.0600790  11.7471530  56.4637940  82.8571770  11.6583470  57.3786820
  89.8111870   2.7042020  58.9617080  88.8702010   2.7192250  59.1364770
  90.1255940   1.9177980  59.4077380  79.7893510   4.3861620  52.5221040
  80.5556780   4.2742980  53.0846470  79.8668200   3.6899590  51.8697810
  79.2854980  11.9682080  60.3088470  80.0217460  11.4197540  60.5797040
  79.6695900  12.8338090  60.1694460  76.1700460   8.0355650  56.1829980
  75.2440240   8.2776790  56.1735390  76.6356890   8.8629910  56.0614730
  78.2913260  11.1528150  69.4974050  79.0925990  11.4740200  69.9109450
  77.7765080  10.7923730  70.2193960  82.3957290  11.1412390  52.1314040
  83.1885900  11.4301220  51.6795830  81.8761640  10.7104560  51.4526520
  87.1277890   7.2608020  69.4449460  86.5216050   7.2839620  68.7045210
  86.8232000   6.5291060  69.9816710  88.5578260  10.9888310  68.0558870
  89.5100010  10.9046330  68.0059110  88.4106480  11.6530020  68.7292660
  91.4487460  10.3682520  53.5550780  91.1628970   9.9547660  52.7404960
  91.2507010  11.2970230  53.4351300  76.0111070   3.6401610  68.4410100
  76.5150090   3.0608890  69.0126330  75.2718490   3.9241840  68.9786470
  82.9134690   6.3615800  51.9956390  82.8085330   5.7468150  52.7217770
  82.7458910   5.8381690  51.2119400  83.0649010   5.0472600  67.9745620
  82.2994680   5.6157600  67.8900290  83.2464970   4.7548810  67.0813850
  86.1537420   5.4235830  52.5998380  85.6047520   5.8705130  53.2441120
  86.7756680   4.9185080  53.1236050  90.2072360   6.7777930  68.5320640
  90.9481830   7.1153690  68.0288100  89.4445040   6.9469990  67.9790410
  81.8212540   4.3826750  54.4963680  82.2428960   4.2166620  55.3395070
  81.9463380   3.5726980  54.0018820  84.3340180   3.4064360  51.7440780
  84.8545840   2.6913380  51.3781930  84.9808580   4.0450230  52.0441290
  88.8818020   4.8292760  67.0675850  89.2959040   4.9837840  67.9166270
  87.9469020   4.9547980  67.2301630  83.6433250   4.7813240  65.0371780
  84.0621360   5.6245970  64.8648020  82.7241880   4.9185280  64.8078560
  85.9797150   2.5129420  66.4209620  86.0993360   1.9170560  67.1604460
  86.8391150   2.5499110  66.0010920  88.3185050   3.0666610  64.9972130
  87.7920270   3.5909230  64.3937270  88.6616390   3.6994000  65.6281860
  81.4940670  11.0866250  66.1529510  80.9561760  11.8112310  65.8338210
  81.7474630  10.6096590  65.3626850  84.3502880  12.3217460  66.4116160
  84.2761580  13.2252600  66.7188530  83.4481720  12.0029360  66.3838230
  84.8988210  11.4875970  54.0342520  85.7939000  11.8260940  54.0561280
  84.9305840  10.7655380  53.4066800  78.5384370   6.8603020  52.2629520
  78.9759240   7.4032690  52.9187100  79.0232100   6.0349970  52.2725860
  75.7530170   9.6492050  59.7149780  76.0833180   8.7813110  59.4828420
  76.1821170   9.8550570  60.5454740  80.3492090   7.9801060  57.3751750
  80.0487630   7.8566030  58.2755660  80.2429580   7.1209650  56.9667480
  76.2420380  10.5162640  62.4531410  75.8051370  10.6963440  63.2855560
  76.8098060  11.2737260  62.3113130  91.8782560  10.0179640  66.7408720
  91.2784550  10.0772200  65.9972640  92.0076460   9.0784620  66.8705570
  76.0744810   3.0282870  58.8120290  75.4193650   2.7594510  58.1679990
  76.9122760   2.9187350  58.3622270  90.5634200   6.7431620  64.8384880
  89.7494040   7.1728780  65.1010670  90.9708400   7.3550030  64.2253930
  77.1120740   3.4135440  63.3523630  77.4793780   3.3262840  64.2319650
  76.5431560   2.6501990  63.2530490  90.6210250  11.4950220  58.3653150
  91.2169320  11.1734790  57.6887570  90.8788400  11.0222040  59.1566420
  78.5272820   7.9268130  68.5143780  78.4842450   7.5561040  69.3958240
  78.6583830   8.8645700  68.6545600  82.2278850   9.4827720  64.1153500
  81.9870210   9.7502280  63.2284020  83.1681490   9.6533450  64.1704360
  78.3660850  10.8730380  65.6341560  77.7721170  10.7415080  66.3731600
  78.3584690  10.0368520  65.1683660  91.1722460  12.1445520  62.1950880
  90.7125430  12.8961330  61.8208900  90.5434920  11.4251990  62.1365680
  77.9973080   8.2388760  64.5849600  77.2707140   7.6194050  64.5175550
  78.0582230   8.6329370  63.7147680  81.6018180  10.4533760  61.3699010
  82.1183200   9.8421120  60.8447270  82.2515560  10.9562540  61.8610020
  84.3413680  11.3442250  62.1967990  84.6291490  11.0896550  61.3201000
  84.8536900  10.7919610  62.7873560  76.2803080  11.5563150  57.7946360
  76.1125120  10.9233830  58.4928250  75.4137590  11.7622550  57.4440550
  77.8865780  10.2496380  55.2396500  77.3613400  10.6304410  54.5358460
  77.8110360  10.8747150  55.9606210  84.4086040  12.2658350  69.5636190
  85.3353350  12.0302620  69.6072150  84.3936470  13.0930350  69.0822220
  80.4858750  12.1978760  54.1145750  81.2177570  11.9138040  53.5669640
  80.7452420  11.9592040  55.0045130  79.6473540   8.3143490  54.1192080
  79.0182420   8.7828590  54.6677910  79.7621370   7.4692710  54.5538270
  90.9763600  11.4928210  69.3877230  91.7688920  10.9977440  69.1803190
  91.2696750  12.1718350  69.9952840  85.2341300   4.1428170  42.1502550
  84.4583400   3.6628610  42.4401120  85.8854230   3.4633820  41.9758710
  79.2507130   4.4547980  43.0278310  78.4192010   4.1996690  43.4274820
  79.8588110   4.5258750  43.7636230  89.2548730   8.5488360  40.9301680
  88.7930260   7.7775600  41.2588850  90.0674280   8.5754430  41.4354130
  79.2308390   8.4888070  43.2236330  79.5336430   7.5985810  43.0446550
  79.9751980   9.0458290  42.9958580  85.4812040  10.8346370  40.5505670
  84.8623480  11.2903870  39.9800110  86.3363820  10.9897830  40.1495370
  84.6750290   6.8185360  42.1572710  84.6058570   5.8775300  41.9961840
  85.4370150   6.9086770  42.7295280  86.3475390   5.7185610  37.9437580
  85.7292660   6.1835060  37.3800300  86.8598640   6.4113090  38.3607090
  81.2107150   5.2461480  44.6221180  80.8776530   5.8730400  45.2642250
  81.3873830   5.7723360  43.8422850  80.4226250   7.2142280  46.4370360
  81.0400250   7.8893360  46.1554810  79.5619370   7.6230260  46.3457860
  75.7158590   6.4042140  35.3177210  75.3386570   6.8929240  34.5862110
  75.9731660   7.0767420  35.9483740  91.3403840   8.6781690  44.3525000
  90.6567360   9.3480800  44.3441670  91.8798130   8.8762340  43.5869860
  88.8762580  10.5225820  43.0670180  88.8889740  10.1188110  42.1992440
  88.3237800  11.2973110  42.9631610  90.1708000   7.2442040  38.1560350
  90.0604330   6.3016370  38.2809770  90.1676250   7.6057680  39.0423110
  88.2748020   5.4255660  44.3952790  88.6916810   5.2115770  43.5606250
  88.9987840   5.6828450  44.9661410  85.7128280   2.8707360  37.5122840
  84.7857560   2.8044740  37.7411310  85.8653100   3.8087490  37.3978080
  89.7425570   4.4327660  38.0158090  89.1237990   4.0947210  37.3684390
  89.7250020   3.7887420  38.7237280  81.3184920   3.3972100  40.2942570
  80.9141920   2.6849350  39.7988470  81.4048040   3.0525340  41.1830610
  81.7866620   7.0839660  42.4581780  81.4894910   6.4785130  41.7789560
  82.7366440   7.1216970  42.3471140  89.8752230  10.6571530  46.1204880
  89.3982790  11.4643720  45.9277490  89.1914020  10.0049860  46.2731090
  80.8785050   6.8221350  49.1089580  79.9813580   7.0461320  49.3562980
  80.9037920   6.9456290  48.1600980  87.9190270   3.6714470  35.0230840
  88.3583550   2.8336900  34.8768660  88.6318690   4.3043870  35.1094980
  79.7056270   3.6934670  47.6846950  79.5664040   4.5657470  48.0534350
  78.8237630   3.3507480  47.5394890  86.0285650   8.6110540  38.9912080
  86.4681560   9.3534870  38.5767470  85.9672540   8.8537110  39.9151040
  81.5036620   9.6356370  49.8932100  81.4752050  10.0399320  49.0260530
  81.3401590   8.7066730  49.7303700  75.6574920   5.4632220  43.6017860
  75.7355340   5.5980990  42.6573580  76.2716600   4.7548110  43.7945980
  76.9022550   7.1632410  40.0124040  76.4950630   7.3047000  39.1577640
  77.7935560   6.8792570  39.8095250  86.7201430  11.3124320  46.9191090
  87.2346100  11.2232330  47.7213520  85.8770510  11.6584020  47.2119000
  88.6955830  11.5979660  36.3475090  88.5356970  11.3082600  37.2456920
  88.5302540  10.8219790  35.8120320  81.1744210  11.3778190  38.1246710
  80.9986690  10.4613730  37.9114510  80.3199950  11.7365480  38.3644510
  88.3981960   9.1067220  34.9073090  87.7047120   9.1044510  34.2475370
  89.1404820   8.6826540  34.4767260  87.9631890  10.7329930  38.9821580
  88.4188840   9.9519310  39.2960200  88.3024410  11.4436750  39.5262760
  75.7134440   6.5046390  46.1412320  75.8765480   6.0351750  45.3231690
  76.1786890   5.9969950  46.8061160  77.2873420   5.8797820  48.3008130
  76.9028210   5.2391490  48.8991090  77.5985610   6.5833940  48.8702860
  83.4370560   2.7274360  43.7816750  83.8040690   2.2532930  44.5278090
  83.2475620   3.6015930  44.1225090  81.2269930   1.7683000  46.1000960
  80.9227000   2.6474980  46.3251320  82.1816390   1.8282790  46.1358400
  79.7551720   5.9743990  36.6967810  78.9813980   5.4341610  36.5366530
  80.4846350   5.4550600  36.3585570  90.5139700   4.9709350  42.4894200
  91.2338820   5.4664640  42.0990310  90.3121520   4.2927240  41.8448070
  85.8958500   5.0418410  48.3763200  85.8295810   4.1214080  48.1220790
  85.2663640   5.1393850  49.0907840  79.7989120   5.6424370  40.3346620
  80.3167790   4.8392630  40.2803510  79.3473140   5.5803510  41.1763450
  84.6858620   6.9090650  35.6073920  85.0274320   7.6532880  35.1117240
  83.8571330   7.2221770  35.9698750  77.2833660   2.6085740  47.2472320
  76.9248600   3.2739590  47.8345660  76.9888220   1.7769290  47.6184940
  80.4846780   3.0669980  50.1311870  80.1846920   3.2127160  49.2339690
  81.2558020   2.5075270  50.0385260  85.8275230   7.8638980  48.1267000
  85.8419770   6.9319940  47.9085910  85.1200330   7.9498740  48.7656770
  90.9612300   2.0478800  34.3965610  90.8776020   2.4793020  33.5462050
  91.6806490   2.5077150  34.8292430  91.9899550   8.9021060  37.1247740
  91.3475710   8.2476680  37.3991460  91.6030210   9.3076150  36.3488410
  87.5686030   6.2306490  40.9719430  87.9209850   5.6334620  40.3120800
  86.6848360   5.9050720  41.1427680  83.6549310   6.9904180  38.3789840
  84.3420440   7.5373390  38.7597430  82.8681730   7.5344910  38.4139450
  75.7941710   2.6077000  33.8706920  76.6636560   2.8901800  34.1542840
  75.3032030   3.4212870  33.7555730  82.9576520   3.9950210  37.9915200
  83.4139300   4.8055460  38.2175390  82.6064730   3.6773350  38.8233690
  85.2609130   9.5056550  45.2207500  85.9051350   9.7115930  45.8980920
  85.6238570   8.7444950  44.7678350  86.5341210   7.5088900  43.9384950
  87.1763440   6.8082060  44.0517120  87.0590560   8.2887340  43.7581840
  90.3796930   7.7937520  33.6624090  90.1534510   7.0767960  34.2548730
  89.9893130   7.5449960  32.8245840  88.3078830   8.3083800  47.1421010
  88.6435070   8.8950490  47.8198930  87.3879170   8.1776510  47.3718800
  76.1612960  11.8204380  34.4368550  76.5210600  12.4193720  33.7825820
  76.0205300  12.3664270  35.2103580  89.9613180   5.7109460  35.3238250
  89.6734880   6.1722150  36.1116130  90.7565350   5.2507230  35.5922470
  76.1454820  10.0859240  48.9110950  76.2545940   9.1453980  48.7706340
  75.4935380  10.3513990  48.2624680  84.1367410   8.3575130  50.3109070
  83.8164280   7.6384370  50.8554760  83.4625770   9.0330200  50.3845130
  82.1781580   9.2035580  35.2542220  82.1691680   9.9365270  34.6386730
  81.2579940   8.9567160  35.3469180  77.7788220   4.4250470  35.9988980
  77.1716170   5.1649370  36.0084280  78.2537570   4.5149830  35.1727180
  85.1641180   9.2663820  33.9167410  85.2653160   9.0627810  32.9869390
  84.2642920   9.0122100  34.1215190  83.8059290  11.7850140  38.6115080
  84.0600790  11.7471530  37.6894450  82.8571770  11.6583470  38.6043330
  89.8111870   2.7042020  40.1873590  88.8702010   2.7192250  40.3621280
  90.1255940   1.9177980  40.6333890  79.7893510   4.3861620  33.7477550
  80.5556780   4.2742980  34.3102980  79.8668200   3.6899590  33.0954320
  79.2854980  11.9682080  41.5344980  80.0217460  11.4197540  41.8053550
  79.6695900  12.8338090  41.3950970  76.1700460   8.0355650  37.4086490
  75.2440240   8.2776790  37.3991900  76.6356890   8.8629910  37.2871240
  78.2913260  11.1528150  50.7230560  79.0925990  11.4740200  51.1365960
  77.7765080  10.7923730  51.4450470  82.3957290  11.1412390  33.3570550
  83.1885900  11.4301220  32.9052340  81.8761640  10.7104560  32.6783030
  87.1277890   7.2608020  50.6705970  86.5216050   7.2839620  49.9301720
  86.8232000   6.5291060  51.2073220  88.5578260  10.9888310  49.2815380
  89.5100010  10.9046330  49.2315620  88.4106480  11.6530020  49.9549170
  91.4487460  10.3682520  34.7807290  91.1628970   9.9547660  33.9661470
  91.2507010  11.2970230  34.6607810  76.0111070   3.6401610  49.6666610
  76.5150090   3.0608890  50.2382840  75.2718490   3.9241840  50.2042980
  82.9134690   6.3615800  33.2212900  82.8085330   5.7468150  33.9474280
  82.7458910   5.8381690  32.4375910  83.0649010   5.0472600  49.2002130
  82.2994680   5.6157600  49.1156800  83.2464970   4.7548810  48.3070360
  86.1537420   5.4235830  33.8254890  85.6047520   5.8705130  34.4697630
  86.7756680   4.9185080  34.3492560  90.2072360   6.7777930  49.7577150
  90.9481830   7.1153690  49.2544610  89.4445040   6.9469990  49.2046920
  81.8212540   4.3826750  35.7220190  82.2428960   4.2166620  36.5651580
  81.9463380   3.5726980  35.2275330  84.3340180   3.4064360  32.9697290
  84.8545840   2.6913380  32.6038440  84.9808580   4.0450230  33.2697800
  88.8818020   4.8292760  48.2932360  89.2959040   4.9837840  49.1422780
  87.9469020   4.9547980  48.4558140  83.6433250   4.7813240  46.2628290
  84.0621360   5.6245970  46.0904530  82.7241880   4.9185280  46.0335070
  85.9797150   2.5129420  47.6466130  86.0993360   1.9170560  48.3860970
  86.8391150   2.5499110  47.2267430  88.3185050   3.0666610  46.2228640
  87.7920270   3.5909230  45.6193780  88.6616390   3.6994000  46.8538370
  81.4940670  11.0866250  47.3786020  80.9561760  11.8112310  47.0594720
  81.7474630  10.6096590  46.5883360  84.3502880  12.3217460  47.6372670
  84.2761580  13.2252600  47.9445040  83.4481720  12.0029360  47.6094740
  84.8988210  11.4875970  35.2599030  85.7939000  11.8260940  35.2817790
  84.9305840  10.7655380  34.6323310  78.5384370   6.8603020  33.4886030
  78.9759240   7.4032690  34.1443610  79.0232100   6.0349970  33.4982370
  75.7530170   9.6492050  40.9406290  76.0833180   8.7813110  40.7084930
  76.1821170   9.8550570  41.7711250  80.3492090   7.9801060  38.6008260
  80.0487630   7.8566030  39.5012170  80.2429580   7.1209650  38.1923990
  76.2420380  10.5162640  43.6787920  75.8051370  10.6963440  44.5112070
  76.8098060  11.2737260  43.5369640  91.8782560  10.0179640  47.9665230
  91.2784550  10.0772200  47.2229150  92.0076460   9.0784620  48.0962080
  76.0744810   3.0282870  40.0376800  75.4193650   2.7594510  39.3936500
  76.9122760   2.9187350  39.5878780  90.5634200   6.7431620  46.0641390
  89.7494040   7.1728780  46.3267180  90.9708400   7.3550030  45.4510440
  77.1120740   3.4135440  44.5780140  77.4793780   3.3262840  45.4576160
  76.5431560   2.6501990  44.4787000  90.6210250  11.4950220  39.5909660
  91.2169320  11.1734790  38.9144080  90.8788400  11.0222040  40.3822930
  78.5272820   7.9268130  49.7400290  78.4842450   7.5561040  50.6214750
  78.6583830   8.8645700  49.8802110  82.2278850   9.4827720  45.3410010
  81.9870210   9.7502280  44.4540530  83.1681490   9.6533450  45.3960870
  78.3660850  10.8730380  46.8598070  77.7721170  10.7415080  47.5988110
  78.3584690  10.0368520  46.3940170  91.1722460  12.1445520  43.4207390
  90.7125430  12.8961330  43.0465410  90.5434920  11.4251990  43.3622190
  77.9973080   8.2388760  45.8106110  77.2707140   7.6194050  45.7432060
  78.0582230   8.6329370  44.9404190  81.6018180  10.4533760  42.5955520
  82.1183200   9.8421120  42.0703780  82.2515560  10.9562540  43.0866530
  84.3413680  11.3442250  43.4224500  84.6291490  11.0896550  42.5457510
  84.8536900  10.7919610  44.0130070  76.2803080  11.5563150  39.0202870
  76.1125120  10.9233830  39.7184760  75.4137590  11.7622550  38.6697060
  77.8865780  10.2496380  36.4653010  77.3613400  10.6304410  35.7614970
  77.8110360  10.8747150  37.1862720  84.4086040  12.2658350  50.7892700
  85.3353350  12.0302620  50.8328660  84.3936470  13.0930350  50.3078730
  80.4858750  12.1978760  35.3402260  81.2177570  11.9138040  34.7926150
  80.7452420  11.9592040  36.2301640  79.6473540   8.3143490  35.3448590
  79.0182420   8.7828590  35.8934420  79.7621370   7.4692710  35.7794780
  90.9763600  11.4928210  50.6133740  91.7688920  10.9977440  50.4059700
  91.2696750  12.1718350  51.2209350  85.2341300   4.1428170  23.3759060
  84.4583400   3.6628610  23.6657630  85.8854230   3.4633820  23.2015220
  79.2507130   4.4547980  24.2534820  78.4192010   4.1996690  24.6531330
  79.8588110   4.5258750  24.9892740  89.2548730   8.5488360  22.1558190
  88.7930260   7.7775600  22.4845360  90.0674280   8.5754430  22.6610640
  79.2308390   8.4888070  24.4492840  79.5336430   7.5985810  24.2703060
  79.9751980   9.0458290  24.2215090  85.4812040  10.8346370  21.7762180
  84.8623480  11.2903870  21.2056620  86.3363820  10.9897830  21.3751880
  84.6750290   6.8185360  23.3829220  84.6058570   5.8775300  23.2218350
  85.4370150   6.9086770  23.9551790  86.3475390   5.7185610  19.1694090
  85.7292660   6.1835060  18.6056810  86.8598640   6.4113090  19.5863600
  81.2107150   5.2461480  25.8477690  80.8776530   5.8730400  26.4898760
  81.3873830   5.7723360  25.0679360  80.4226250   7.2142280  27.6626870
  81.0400250   7.8893360  27.3811320  79.5619370   7.6230260  27.5714370
  75.7158590   6.4042140  16.5433720  75.3386570   6.8929240  15.8118620
  75.9731660   7.0767420  17.1740250  91.3403840   8.6781690  25.5781510
  90.6567360   9.3480800  25.5698180  91.8798130   8.8762340  24.8126370
  88.8762580  10.5225820  24.2926690  88.8889740  10.1188110  23.4248950
  88.3237800  11.2973110  24.1888120  90.1708000   7.2442040  19.3816860
  90.0604330   6.3016370  19.5066280  90.1676250   7.6057680  20.2679620
  88.2748020   5.4255660  25.6209300  88.6916810   5.2115770  24.7862760
  88.9987840   5.6828450  26.1917920  85.7128280   2.8707360  18.7379350
  84.7857560   2.8044740  18.9667820  85.8653100   3.8087490  18.6234590
  89.7425570   4.4327660  19.2414600  89.1237990   4.0947210  18.5940900
  89.7250020   3.7887420  19.9493790  81.3184920   3.3972100  21.5199080
  80.9141920   2.6849350  21.0244980  81.4048040   3.0525340  22.4087120
  81.7866620   7.0839660  23.6838290  81.4894910   6.4785130  23.0046070
  82.7366440   7.1216970  23.5727650  89.8752230  10.6571530  27.3461390
  89.3982790  11.4643720  27.1534000  89.1914020  10.0049860  27.4987600
  80.8785050   6.8221350  30.3346090  79.9813580   7.0461320  30.5819490
  80.9037920   6.9456290  29.3857490  87.9190270   3.6714470  16.2487350
  88.3583550   2.8336900  16.1025170  88.6318690   4.3043870  16.3351490
  79.7056270   3.6934670  28.9103460  79.5664040   4.5657470  29.2790860
  78.8237630   3.3507480  28.7651400  86.0285650   8.6110540  20.2168590
  86.4681560   9.3534870  19.8023980  85.9672540   8.8537110  21.1407550
  81.5036620   9.6356370  31.1188610  81.4752050  10.0399320  30.2517040
  81.3401590   8.7066730  30.9560210  75.6574920   5.4632220  24.8274370
  75.7355340   5.5980990  23.8830090  76.2716600   4.7548110  25.0202490
  76.9022550   7.1632410  21.2380550  76.4950630   7.3047000  20.3834150
  77.7935560   6.8792570  21.0351760  86.7201430  11.3124320  28.1447600
  87.2346100  11.2232330  28.9470030  85.8770510  11.6584020  28.4375510
  88.6955830  11.5979660  17.5731600  88.5356970  11.3082600  18.4713430
  88.5302540  10.8219790  17.0376830  81.1744210  11.3778190  19.3503220
  80.9986690  10.4613730  19.1371020  80.3199950  11.7365480  19.5901020
  88.3981960   9.1067220  16.1329600  87.7047120   9.1044510  15.4731880
  89.1404820   8.6826540  15.7023770  87.9631890  10.7329930  20.2078090
  88.4188840   9.9519310  20.5216710  88.3024410  11.4436750  20.7519270
  75.7134440   6.5046390  27.3668830  75.8765480   6.0351750  26.5488200
  76.1786890   5.9969950  28.0317670  77.2873420   5.8797820  29.5264640
  76.9028210   5.2391490  30.1247600  77.5985610   6.5833940  30.0959370
  83.4370560   2.7274360  25.0073260  83.8040690   2.2532930  25.7534600
  83.2475620   3.6015930  25.3481600  81.2269930   1.7683000  27.3257470
  80.9227000   2.6474980  27.5507830  82.1816390   1.8282790  27.3614910
  79.7551720   5.9743990  17.9224320  78.9813980   5.4341610  17.7623040
  80.4846350   5.4550600  17.5842080  90.5139700   4.9709350  23.7150710
  91.2338820   5.4664640  23.3246820  90.3121520   4.2927240  23.0704580
  85.8958500   5.0418410  29.6019710  85.8295810   4.1214080  29.3477300
  85.2663640   5.1393850  30.3164350  79.7989120   5.6424370  21.5603130
  80.3167790   4.8392630  21.5060020  79.3473140   5.5803510  22.4019960
  84.6858620   6.9090650  16.8330430  85.0274320   7.6532880  16.3373750
  83.8571330   7.2221770  17.1955260  77.2833660   2.6085740  28.4728830
  76.9248600   3.2739590  29.0602170  76.9888220   1.7769290  28.8441450
  80.4846780   3.0669980  31.3568380  80.1846920   3.2127160  30.4596200
  81.2558020   2.5075270  31.2641770  85.8275230   7.8638980  29.3523510
  85.8419770   6.9319940  29.1342420  85.1200330   7.9498740  29.9913280
  90.9612300   2.0478800  15.6222120  90.8776020   2.4793020  14.7718560
  91.6806490   2.5077150  16.0548940  91.9899550   8.9021060  18.3504250
  91.3475710   8.2476680  18.6247970  91.6030210   9.3076150  17.5744920
  87.5686030   6.2306490  22.1975940  87.9209850   5.6334620  21.5377310
  86.6848360   5.9050720  22.3684190  83.6549310   6.9904180  19.6046350
  84.3420440   7.5373390  19.9853940  82.8681730   7.5344910  19.6395960
  75.7941710   2.6077000  15.0963430  76.6636560   2.8901800  15.3799350
  75.3032030   3.4212870  14.9812240  82.9576520   3.9950210  19.2171710
  83.4139300   4.8055460  19.4431900  82.6064730   3.6773350  20.0490200
  85.2609130   9.5056550  26.4464010  85.9051350   9.7115930  27.1237430
  85.6238570   8.7444950  25.9934860  86.5341210   7.5088900  25.1641460
  87.1763440   6.8082060  25.2773630  87.0590560   8.2887340  24.9838350
  90.3796930   7.7937520  14.8880600  90.1534510   7.0767960  15.4805240
  89.9893130   7.5449960  14.0502350  88.3078830   8.3083800  28.3677520
  88.6435070   8.8950490  29.0455440  87.3879170   8.1776510  28.5975310
  76.1612960  11.8204380  15.6625060  76.5210600  12.4193720  15.0082330
  76.0205300  12.3664270  16.4360090  89.9613180   5.7109460  16.5494760
  89.6734880   6.1722150  17.3372640  90.7565350   5.2507230  16.8178980
  76.1454820  10.0859240  30.1367460  76.2545940   9.1453980  29.9962850
  75.4935380  10.3513990  29.4881190  84.1367410   8.3575130  31.5365580
  83.8164280   7.6384370  32.0811270  83.4625770   9.0330200  31.6101640
  82.1781580   9.2035580  16.4798730  82.1691680   9.9365270  15.8643240
  81.2579940   8.9567160  16.5725690  77.7788220   4.4250470  17.2245490
  77.1716170   5.1649370  17.2340790  78.2537570   4.5149830  16.3983690
  85.1641180   9.2663820  15.1423920  85.2653160   9.0627810  14.2125900
  84.2642920   9.0122100  15.3471700  83.8059290  11.7850140  19.8371590
  84.0600790  11.7471530  18.9150960  82.8571770  11.6583470  19.8299840
  89.8111870   2.7042020  21.4130100  88.8702010   2.7192250  21.5877790
  90.1255940   1.9177980  21.8590400  79.7893510   4.3861620  14.9734060
  80.5556780   4.2742980  15.5359490  79.8668200   3.6899590  14.3210830
  79.2854980  11.9682080  22.7601490  80.0217460  11.4197540  23.0310060
  79.6695900  12.8338090  22.6207480  76.1700460   8.0355650  18.6343000
  75.2440240   8.2776790  18.6248410  76.6356890   8.8629910  18.5127750
  78.2913260  11.1528150  31.9487070  79.0925990  11.4740200  32.3622470
  77.7765080  10.7923730  32.6706980  82.3957290  11.1412390  14.5827060
  83.1885900  11.4301220  14.1308850  81.8761640  10.7104560  13.9039540
  87.1277890   7.2608020  31.8962480  86.5216050   7.2839620  31.1558230
  86.8232000   6.5291060  32.4329730  88.5578260  10.9888310  30.5071890
  89.5100010  10.9046330  30.4572130  88.4106480  11.6530020  31.1805680
  91.4487460  10.3682520  16.0063800  91.1628970   9.9547660  15.1917980
  91.2507010  11.2970230  15.8864320  76.0111070   3.6401610  30.8923120
  76.5150090   3.0608890  31.4639350  75.2718490   3.9241840  31.4299490
  82.9134690   6.3615800  14.4469410  82.8085330   5.7468150  15.1730790
  82.7458910   5.8381690  13.6632420  83.0649010   5.0472600  30.4258640
  82.2994680   5.6157600  30.3413310  83.2464970   4.7548810  29.5326870
  86.1537420   5.4235830  15.0511400  85.6047520   5.8705130  15.6954140
  86.7756680   4.9185080  15.5749070  90.2072360   6.7777930  30.9833660
  90.9481830   7.1153690  30.4801120  89.4445040   6.9469990  30.4303430
  81.8212540   4.3826750  16.9476700  82.2428960   4.2166620  17.7908090
  81.9463380   3.5726980  16.4531840  84.3340180   3.4064360  14.1953800
  84.8545840   2.6913380  13.8294950  84.9808580   4.0450230  14.4954310
  88.8818020   4.8292760  29.5188870  89.2959040   4.9837840  30.3679290
  87.9469020   4.9547980  29.6814650  83.6433250   4.7813240  27.4884800
  84.0621360   5.6245970  27.3161040  82.7241880   4.9185280  27.2591580
  85.9797150   2.5129420  28.8722640  86.0993360   1.9170560  29.6117480
  86.8391150   2.5499110  28.4523940  88.3185050   3.0666610  27.4485150
  87.7920270   3.5909230  26.8450290  88.6616390   3.6994000  28.0794880
  81.4940670  11.0866250  28.6042530  80.9561760  11.8112310  28.2851230
  81.7474630  10.6096590  27.8139870  84.3502880  12.3217460  28.8629180
  84.2761580  13.2252600  29.1701550  83.4481720  12.0029360  28.8351250
  84.8988210  11.4875970  16.4855540  85.7939000  11.8260940  16.5074300
  84.9305840  10.7655380  15.8579820  78.5384370   6.8603020  14.7142540
  78.9759240   7.4032690  15.3700120  79.0232100   6.0349970  14.7238880
  75.7530170   9.6492050  22.1662800  76.0833180   8.7813110  21.9341440
  76.1821170   9.8550570  22.9967760  80.3492090   7.9801060  19.8264770
  80.0487630   7.8566030  20.7268680  80.2429580   7.1209650  19.4180500
  76.2420380  10.5162640  24.9044430  75.8051370  10.6963440  25.7368580
  76.8098060  11.2737260  24.7626150  91.8782560  10.0179640  29.1921740
  91.2784550  10.0772200  28.4485660  92.0076460   9.0784620  29.3218590
  76.0744810   3.0282870  21.2633310  75.4193650   2.7594510  20.6193010
  76.9122760   2.9187350  20.8135290  90.5634200   6.7431620  27.2897900
  89.7494040   7.1728780  27.5523690  90.9708400   7.3550030  26.6766950
  77.1120740   3.4135440  25.8036650  77.4793780   3.3262840  26.6832670
  76.5431560   2.6501990  25.7043510  90.6210250  11.4950220  20.8166170
  91.2169320  11.1734790  20.1400590  90.8788400  11.0222040  21.6079440
  78.5272820   7.9268130  30.9656800  78.4842450   7.5561040  31.8471260
  78.6583830   8.8645700  31.1058620  82.2278850   9.4827720  26.5666520
  81.9870210   9.7502280  25.6797040  83.1681490   9.6533450  26.6217380
  78.3660850  10.8730380  28.0854580  77.7721170  10.7415080  28.8244620
  78.3584690  10.0368520  27.6196680  91.1722460  12.1445520  24.6463900
  90.7125430  12.8961330  24.2721920  90.5434920  11.4251990  24.5878700
  77.9973080   8.2388760  27.0362620  77.2707140   7.6194050  26.9688570
  78.0582230   8.6329370  26.1660700  81.6018180  10.4533760  23.8212030
  82.1183200   9.8421120  23.2960290  82.2515560  10.9562540  24.3123040
  84.3413680  11.3442250  24.6481010  84.6291490  11.0896550  23.7714020
  84.8536900  10.7919610  25.2386580  76.2803080  11.5563150  20.2459380
  76.1125120  10.9233830  20.9441270  75.4137590  11.7622550  19.8953570
  77.8865780  10.2496380  17.6909520  77.3613400  10.6304410  16.9871480
  77.8110360  10.8747150  18.4119230  84.4086040  12.2658350  32.0149210
  85.3353350  12.0302620  32.0585170  84.3936470  13.0930350  31.5335240
  80.4858750  12.1978760  16.5658770  81.2177570  11.9138040  16.0182660
  80.7452420  11.9592040  17.4558150  79.6473540   8.3143490  16.5705100
  79.0182420   8.7828590  17.1190930  79.7621370   7.4692710  17.0051290
  90.9763600  11.4928210  31.8390250  91.7688920  10.9977440  31.6316210
  91.2696750  12.1718350  32.4465860  85.2341300   4.1428170   4.6015570
  84.4583400   3.6628610   4.8914140  85.8854230   3.4633820   4.4271730
  79.2507130   4.4547980   5.4791330  78.4192010   4.1996690   5.8787840
  79.8588110   4.5258750   6.2149250  89.2548730   8.5488360   3.3814700
  88.7930260   7.7775600   3.7101870  90.0674280   8.5754430   3.8867150
  79.2308390   8.4888070   5.6749350  79.5336430   7.5985810   5.4959570
  79.9751980   9.0458290   5.4471600  85.4812040  10.8346370   3.0018690
  84.8623480  11.2903870   2.4313130  86.3363820  10.9897830   2.6008390
  84.6750290   6.8185360   4.6085730  84.6058570   5.8775300   4.4474860
  85.4370150   6.9086770   5.1808300  81.2107150   5.2461480   7.0734200
  80.8776530   5.8730400   7.7155270  81.3873830   5.7723360   6.2935870
  80.4226250   7.2142280   8.8883380  81.0400250   7.8893360   8.6067830
  79.5619370   7.6230260   8.7970880  91.3403840   8.6781690   6.8038020
  90.6567360   9.3480800   6.7954690  91.8798130   8.8762340   6.0382880
  88.8762580  10.5225820   5.5183200  88.8889740  10.1188110   4.6505460
  88.3237800  11.2973110   5.4144630  88.2748020   5.4255660   6.8465810
  88.6916810   5.2115770   6.0119270  88.9987840   5.6828450   7.4174430
  81.3184920   3.3972100   2.7455590  80.9141920   2.6849350   2.2501490
  81.4048040   3.0525340   3.6343630  81.7866620   7.0839660   4.9094800
  81.4894910   6.4785130   4.2302580  82.7366440   7.1216970   4.7984160
  89.8752230  10.6571530   8.5717900  89.3982790  11.4643720   8.3790510
  89.1914020  10.0049860   8.7244110  80.8785050   6.8221350  11.5602600
  79.9813580   7.0461320  11.8076000  80.9037920   6.9456290  10.6114000
  79.7056270   3.6934670  10.1359970  79.5664040   4.5657470  10.5047370
  78.8237630   3.3507480   9.9907910  81.5036620   9.6356370  12.3445120
  81.4752050  10.0399320  11.4773550  81.3401590   8.7066730  12.1816720
  75.6574920   5.4632220   6.0530880  75.7355340   5.5980990   5.1086600
  76.2716600   4.7548110   6.2459000  76.9022550   7.1632410   2.4637060
  76.4950630   7.3047000   1.6090660  77.7935560   6.8792570   2.2608270
  86.7201430  11.3124320   9.3704110  87.2346100  11.2232330  10.1726540
  85.8770510  11.6584020   9.6632020  75.7134440   6.5046390   8.5925340
  75.8765480   6.0351750   7.7744710  76.1786890   5.9969950   9.2574180
  77.2873420   5.8797820  10.7521150  76.9028210   5.2391490  11.3504110
  77.5985610   6.5833940  11.3215880  83.4370560   2.7274360   6.2329770
  83.8040690   2.2532930   6.9791110  83.2475620   3.6015930   6.5738110
  81.2269930   1.7683000   8.5513980  80.9227000   2.6474980   8.7764340
  82.1816390   1.8282790   8.5871420  90.5139700   4.9709350   4.9407220
  91.2338820   5.4664640   4.5503330  90.3121520   4.2927240   4.2961090
  85.8958500   5.0418410  10.8276220  85.8295810   4.1214080  10.5733810
  85.2663640   5.1393850  11.5420860  79.7989120   5.6424370   2.7859640
  80.3167790   4.8392630   2.7316530  79.3473140   5.5803510   3.6276470
  77.2833660   2.6085740   9.6985340  76.9248600   3.2739590  10.2858680
  76.9888220   1.7769290  10.0697960  80.4846780   3.0669980  12.5824890
  80.1846920   3.2127160  11.6852710  81.2558020   2.5075270  12.4898280
  85.8275230   7.8638980  10.5780020  85.8419770   6.9319940  10.3598930
  85.1200330   7.9498740  11.2169790  87.5686030   6.2306490   3.4232450
  87.9209850   5.6334620   2.7633820  86.6848360   5.9050720   3.5940700
  85.2609130   9.5056550   7.6720520  85.9051350   9.7115930   8.3493940
  85.6238570   8.7444950   7.2191370  86.5341210   7.5088900   6.3897970
  87.1763440   6.8082060   6.5030140  87.0590560   8.2887340   6.2094860
  88.3078830   8.3083800   9.5934030  88.6435070   8.8950490  10.2711950
  87.3879170   8.1776510   9.8231820  76.1454820  10.0859240  11.3623970
  76.2545940   9.1453980  11.2219360  75.4935380  10.3513990  10.7137700
  84.1367410   8.3575130  12.7622090  83.8164280   7.6384370  13.3067780
  83.4625770   9.0330200  12.8358150  89.8111870   2.7042020   2.6386610
  88.8702010   2.7192250   2.8134300  90.1255940   1.9177980   3.0846910
  79.2854980  11.9682080   3.9858000  80.0217460  11.4197540   4.2566570
  79.6695900  12.8338090   3.8463990  78.2913260  11.1528150  13.1743580
  79.0925990  11.4740200  13.5878980  77.7765080  10.7923730  13.8963490
  87.1277890   7.2608020  13.1218990  86.5216050   7.2839620  12.3814740
  86.8232000   6.5291060  13.6586240  88.5578260  10.9888310  11.7328400
  89.5100010  10.9046330  11.6828640  88.4106480  11.6530020  12.4062190
  76.0111070   3.6401610  12.1179630  76.5150090   3.0608890  12.6895860
  75.2718490   3.9241840  12.6556000  83.0649010   5.0472600  11.6515150
  82.2994680   5.6157600  11.5669820  83.2464970   4.7548810  10.7583380
  90.2072360   6.7777930  12.2090170  90.9481830   7.1153690  11.7057630
  89.4445040   6.9469990  11.6559940  88.8818020   4.8292760  10.7445380
  89.2959040   4.9837840  11.5935800  87.9469020   4.9547980  10.9071160
  83.6433250   4.7813240   8.7141310  84.0621360   5.6245970   8.5417550
  82.7241880   4.9185280   8.4848090  85.9797150   2.5129420  10.0979150
  86.0993360   1.9170560  10.8373990  86.8391150   2.5499110   9.6780450
  88.3185050   3.0666610   8.6741660  87.7920270   3.5909230   8.0706800
  88.6616390   3.6994000   9.3051390  81.4940670  11.0866250   9.8299040
  80.9561760  11.8112310   9.5107740  81.7474630  10.6096590   9.0396380
  84.3502880  12.3217460  10.0885690  84.2761580  13.2252600  10.3958060
  83.4481720  12.0029360  10.0607760  75.7530170   9.6492050   3.3919310
  76.0833180   8.7813110   3.1597950  76.1821170   9.8550570   4.2224270
  76.2420380  10.5162640   6.1300940  75.8051370  10.6963440   6.9625090
  76.8098060  11.2737260   5.9882660  91.8782560  10.0179640  10.4178250
  91.2784550  10.0772200   9.6742170  92.0076460   9.0784620  10.5475100
  76.0744810   3.0282870   2.4889820  75.4193650   2.7594510   1.8449520
  76.9122760   2.9187350   2.0391800  90.5634200   6.7431620   8.5154410
  89.7494040   7.1728780   8.7780200  90.9708400   7.3550030   7.9023460
  77.1120740   3.4135440   7.0293160  77.4793780   3.3262840   7.9089180
  76.5431560   2.6501990   6.9300020  78.5272820   7.9268130  12.1913310
  78.4842450   7.5561040  13.0727770  78.6583830   8.8645700  12.3315130
  82.2278850   9.4827720   7.7923030  81.9870210   9.7502280   6.9053550
  83.1681490   9.6533450   7.8473890  78.3660850  10.8730380   9.3111090
  77.7721170  10.7415080  10.0501130  78.3584690  10.0368520   8.8453190
  91.1722460  12.1445520   5.8720410  90.7125430  12.8961330   5.4978430
  90.5434920  11.4251990   5.8135210  77.9973080   8.2388760   8.2619130
  77.2707140   7.6194050   8.1945080  78.0582230   8.6329370   7.3917210
  81.6018180  10.4533760   5.0468540  82.1183200   9.8421120   4.5216800
  82.2515560  10.9562540   5.5379550  84.3413680  11.3442250   5.8737520
  84.6291490  11.0896550   4.9970530  84.8536900  10.7919610   6.4643090
  84.4086040  12.2658350  13.2405720  85.3353350  12.0302620  13.2841680
  84.3936470  13.0930350  12.7591750  90.9763600  11.4928210  13.0646760
  91.7688920  10.9977440  12.8572720  91.2696750  12.1718350  13.6722370
  68.3279770  96.2366600  77.8180260  68.2473820  95.3221210  77.5471970
  67.9144190  96.7333670  77.1119970  66.4597810  98.0145620  79.6989530
  65.6839910  97.5346060  79.9888100  67.1110740  97.3351270  79.5245690
  60.4763640  98.3265430  80.5765290  59.6448520  98.0714140  80.9761800
  61.0844620  98.3976200  81.3123210  58.8855590  93.2867320  74.3607680
  57.9972290  93.6283290  74.2587560  59.1696780  93.0867640  73.4688510
  56.8488600  95.8872970  80.2447380  57.4204710  95.1195170  80.2451020
  56.8490140  96.1861730  79.3353990  66.9311970  93.4973190  79.9328620
  67.3076790  92.6245070  79.8202290  66.8331480  93.8331890  79.0419060
  61.0616980  91.8698820  75.3946060  61.1683730  92.7702550  75.7014820
  60.1509340  91.8216790  75.1040710  70.7136090  90.9923630  76.8656960
  71.5345710  90.5020200  76.9082440  70.7470170  91.5821290  77.6188800
  58.7100140  93.7917830  80.6398650  59.3910250  94.0556200  81.2586050
  58.3948190  92.9518700  80.9736660  62.9024710  94.8385190  79.7271240
  63.4102930  95.3366160  80.3676260  63.4337950  94.0620390  79.5510600
  70.9497570  92.9324010  79.6384500  70.2453140  93.2208900  80.2187610
  71.3109730  93.7424120  79.2784060  60.8676140  91.1893710  82.0005110
  61.2092950  92.0335760  81.7058980  59.9291950  91.3377450  82.1170450
  74.0184490  92.3778800  80.0293710  73.0709400  92.4117780  80.1609140
  74.3434480  93.1917750  80.4143070  64.5504030  88.6775980  78.3249700
  64.8579010  88.1222870  77.6085200  63.6204730  88.8120440  78.1422690
  66.9384790  96.7424810  75.0609820  66.0114070  96.6762190  75.2898290
  67.0909610  97.6804940  74.9465060  66.9253870  93.0141810  72.0576980
  65.9857540  93.1755770  72.1429440  67.2437130  93.7327490  71.5112970
  73.4466630  97.6960330  82.0356010  72.6185260  97.7653420  81.5606140
  74.0417110  98.2814640  81.5671840  70.9682080  98.3045110  75.5645070
  70.3494500  97.9664660  74.9171370  70.9506530  97.6604870  76.2724260
  62.5441430  97.2689550  77.8429550  62.1398430  96.5566800  77.3475450
  62.6304550  96.9242790  78.7317590  69.1446780  97.5431920  72.5717820
  69.5840060  96.7054350  72.4255640  69.8575200  98.1761320  72.6581960
  72.7263920  88.7974730  70.8858860  72.4136580  88.8901560  71.7857930
  73.4876390  89.3755760  70.8356290  59.2446060  96.1634530  75.3436200
  59.1243660  96.8896620  74.7317470  58.9346950  95.3937440  74.8664110
  61.7109720  89.5069600  78.7259870  61.2677870  90.2879140  78.3944390
  62.2694710  89.8299490  79.4330810  64.8268540  89.1280300  73.6065700
  64.2022720  89.1240170  74.3319010  64.7398660  88.2611260  73.2101670
  63.7485620  90.0516930  80.5849470  64.0457950  90.9579760  80.5041490
  64.2971180  89.5635710  79.9709040  61.5023940  94.6303170  76.4541120
  61.2764860  94.4140340  77.3587740  60.7216470  95.0631630  76.1087090
  68.7321700  94.6366540  75.0531770  68.1330590  95.3602340  74.8695390
  69.2801310  94.5743320  74.2708220  67.3386570  93.2730080  77.0835050
  67.7316140  93.5902280  76.2703740  67.7003420  92.3941960  77.1979570
  56.3750740  89.8630880  79.3065250  56.0863790  90.4333740  80.0190230
  57.1196500  89.3835330  79.6696480  56.5620970  93.8051000  70.5167970
  56.4795640  94.7481760  70.6582960  56.2104030  93.6625910  69.6380320
  67.9241710  95.8635830  81.1785830  67.1922830  96.3722640  81.5275930
  67.5266050  95.0465810  80.8774610  64.3619100  92.5390030  79.5838320
  64.3655160  92.0979980  78.7342860  65.2570220  92.8607360  79.6910140
  60.2121480  92.4216520  78.5432530  59.8721530  92.8991750  79.2999580
  59.4498800  91.9681640  78.1833630  64.4239250  93.5402110  72.5745080
  64.5452070  93.4988590  73.5230900  64.0387760  94.4026260  72.4191810
  68.3867620  91.3169510  80.5908770  68.4040360  91.7678160  81.4350620
  68.1383200  90.4175150  80.8042210  63.4360750  95.8503250  71.9728380
  62.8677650  95.4021500  71.3464290  64.1449750  96.2096030  71.4393530
  64.6627070  96.5991810  81.3303730  65.0297200  96.1250380  82.0765070
  64.4732130  97.4733380  81.6712070  57.5267560  91.3435500  77.4597200
  57.2414480  90.9791170  78.2975820  57.4646420  90.6115960  76.8460340
  67.2006150  90.2364760  74.1810570  66.3870760  89.7377930  74.1055880
  67.0068100  91.0763010  73.7646920  69.9154540  94.6084410  72.4772730
  70.8034160  94.9201640  72.3024070  69.8859630  93.7356660  72.0853310
  72.1868810  95.9196250  71.9452590  72.1032530  96.3510470  71.0949030
  72.9063000  96.3794600  72.3779410  57.0198220  96.4794450  71.4193900
  57.8893070  96.7619250  71.7029820  56.5288540  97.2930320  71.3042710
  60.0844810  88.2105310  76.0124700  59.9559440  88.2023210  76.9609620
  59.2606830  88.5488400  75.6615710  71.9439550  91.4175680  74.0320410
  71.3152710  91.5221350  73.3178640  71.4491470  91.6372460  74.8214290
  63.9123580  93.6961630  75.4478290  63.2039730  94.1647970  75.8891900
  64.1968060  93.0383640  76.0823480  67.9439010  90.4212290  76.8874080
  67.8206790  90.4398420  75.9383590  68.8923570  90.4691230  77.0072480
  62.1158600  92.0046710  72.8229000  62.9649130  92.4416860  72.7569190
  61.7489870  92.3166970  73.6501060  71.0368380  96.5759470  77.7360570
  70.0958520  96.5909700  77.9108260  71.3512450  95.7895430  78.1820870
  61.0150020  98.2579070  71.2964530  61.7813290  98.1460430  71.8589960
  61.0924710  97.5617040  70.6441300  59.7096780  95.6904140  71.9797420
  59.7900370  94.7431650  72.0914820  60.6016530  96.0211020  72.0858080
  63.0469050  98.2544200  73.2707170  63.4685470  98.0884070  74.1138560
  63.1719890  97.4444430  72.7762310  65.5596690  97.2781810  70.5184270
  66.0802350  96.5630830  70.1525420  66.2065090  97.9167680  70.8184780
  61.9427950  94.3277430  70.2165330  61.7417010  93.4644790  70.5778670
  61.7720000  94.2410790  69.2786930  69.4216260  89.1385660  72.7452210
  69.7018550  88.2953560  73.1011630  68.6481990  89.3708770  73.2590960
  60.7410750  91.4278050  70.2043210  61.0436650  91.4345480  69.2962360
  61.4805340  91.0775910  70.7010870  63.9595680  90.3712670  71.1899410
  63.6117680  89.6936660  70.6101860  64.1608450  89.9102180  72.0042800
  57.3001320  96.9000320  77.5863780  56.6450160  96.6311960  76.9423480
  58.1379270  96.7904800  77.1365760  70.2491760  91.6941610  71.8082270
  70.6676640  91.5072590  70.9678930  69.9427820  90.8420660  72.1185200
  73.7481490  96.6065750  75.5058070  73.3725090  95.8393680  75.0739360
  73.0184610  96.9888450  75.9933000  56.5139400  94.1099250  73.5289110
  55.6103480  94.3729450  73.3540770  56.9980020  94.3810420  72.7489070
  73.0232450  94.8323240  78.8065310  73.5469930  94.3385890  78.1755480
  73.6091870  94.9673600  79.5512880  59.0566610  93.1664790  71.4383490
  59.7658310  92.7448010  70.9530770  58.3406550  93.2340020  70.8066840
  58.7040770  89.2204120  70.4786140  59.4268900  89.7613060  70.7967360
  58.9765290  88.9467540  69.6027680  72.5132420  94.0896590  74.7457720
  73.0091540  93.8567460  75.5306600  72.3148490  93.2508430  74.3295360
  58.3932960  88.4710310  80.3808760  59.0409150  87.9207690  79.9403920
  58.8134800  88.7253460  81.2024570  73.9419580  92.7257540  77.2795400
  73.8318860  92.5713580  78.2177670  74.7027170  92.1978480  77.0370810
  74.8309850  90.5565460  70.5201540  75.7559160  90.4246640  70.3119830
  74.8085640  90.6358280  71.4737990  74.9048340  91.3276120  73.1458250
  74.1099840  91.2621240  73.6751160  75.1091620  92.2626760  73.1343600
  66.7847200  88.9549900  81.5507990  66.0018990  89.4295400  81.8304750
  66.4910130  88.0504730  81.4421170  71.3368270  89.6573000  79.5957080
  71.7776360  89.6018100  78.7478680  71.0675860  90.5731010  79.6667260
  73.2006840  89.2888240  77.6065900  73.1395240  88.3449460  77.4596920
  73.9798870  89.3968330  78.1519360  58.1287610  89.2597380  74.0721710
  58.8866970  89.3726260  73.4985740  57.6664780  90.0966580  74.0265140
  64.6701420  91.3736650  77.0624020  63.8575930  90.9993540  76.7219900
  65.1743060  90.6181730  77.3645210  69.1726400  88.0379100  78.3007090
  69.7755770  88.6099310  78.7755610  68.4319390  88.6018540  78.0780990
  72.3161000  88.4400660  73.5747370  72.5111630  89.3384110  73.8414800
  71.5290870  88.2087740  74.0680320  60.5012760  89.7861430  72.6123680
  61.0305520  88.9991230  72.4831630  61.1341080  90.4652620  72.8459210
  62.6950600  89.5236570  75.6669070  62.0653340  88.8223880  75.8339200
  62.1555740  90.2840700  75.4502230  68.3279770  96.2366600  59.0436770
  68.2473820  95.3221210  58.7728480  67.9144190  96.7333670  58.3376480
  66.4597810  98.0145620  60.9246040  65.6839910  97.5346060  61.2144610
  67.1110740  97.3351270  60.7502200  60.4763640  98.3265430  61.8021800
  59.6448520  98.0714140  62.2018310  61.0844620  98.3976200  62.5379720
  58.8855590  93.2867320  55.5864190  57.9972290  93.6283290  55.4844070
  59.1696780  93.0867640  54.6945020  56.8488600  95.8872970  61.4703890
  57.4204710  95.1195170  61.4707530  56.8490140  96.1861730  60.5610500
  58.0913470  91.2957330  63.2572820  57.9116310  90.3983080  63.5375580
  57.6893550  91.8429200  63.9319770  66.9311970  93.4973190  61.1585130
  67.3076790  92.6245070  61.0458800  66.8331480  93.8331890  60.2675570
  61.0616980  91.8698820  56.6202570  61.1683730  92.7702550  56.9271330
  60.1509340  91.8216790  56.3297220  70.7136090  90.9923630  58.0913470
  71.5345710  90.5020200  58.1338950  70.7470170  91.5821290  58.8445310
  58.7100140  93.7917830  61.8655160  59.3910250  94.0556200  62.4842560
  58.3948190  92.9518700  62.1993170  62.9024710  94.8385190  60.9527750
  63.4102930  95.3366160  61.5932770  63.4337950  94.0620390  60.7767110
  75.0035640  93.0090380  64.6557100  74.2987810  93.3972090  64.1372210
  75.2693560  93.7040670  65.2578030  61.1860810  89.4783750  65.2191170
  61.1879250  89.9956140  64.4137070  60.3565120  89.0013930  65.1961100
  70.9497570  92.9324010  60.8641010  70.2453140  93.2208900  61.4444120
  71.3109730  93.7424120  60.5040570  60.8676140  91.1893710  63.2261620
  61.2092950  92.0335760  62.9315490  59.9291950  91.3377450  63.3426960
  74.0184490  92.3778800  61.2550220  73.0709400  92.4117780  61.3865650
  74.3434480  93.1917750  61.6399580  64.5504030  88.6775980  59.5506210
  64.8579010  88.1222870  58.8341710  63.6204730  88.8120440  59.3679200
  66.9384790  96.7424810  56.2866330  66.0114070  96.6762190  56.5154800
  67.0909610  97.6804940  56.1721570  66.9253870  93.0141810  53.2833490
  65.9857540  93.1755770  53.3685950  67.2437130  93.7327490  52.7369480
  73.4466630  97.6960330  63.2612520  72.6185260  97.7653420  62.7862650
  74.0417110  98.2814640  62.7928350  70.9682080  98.3045110  56.7901580
  70.3494500  97.9664660  56.1427880  70.9506530  97.6604870  57.4980770
  70.4108640  94.4829650  64.2067390  69.9979820  95.3083360  64.4607380
  69.6784590  93.8974690  64.0143750  62.5441430  97.2689550  59.0686060
  62.1398430  96.5566800  58.5731960  62.6304550  96.9242790  59.9574100
  61.2570050  94.0432760  62.8485100  61.8084640  94.1528100  62.0738350
  61.7713560  94.4170360  63.5640330  69.1446780  97.5431920  53.7974330
  69.5840060  96.7054350  53.6512150  69.8575200  98.1761320  53.8838470
  60.9312780  97.5652120  66.4590440  60.7920550  98.4374920  66.8277840
  60.0494140  97.2224930  66.3138380  72.7263920  88.7974730  52.1115370
  72.4136580  88.8901560  53.0114440  73.4876390  89.3755760  52.0612800
  59.2446060  96.1634530  56.5692710  59.1243660  96.8896620  55.9573980
  58.9346950  95.3937440  56.0920620  73.9365210  93.5346230  68.0889510
  73.3209480  94.0425900  67.5604970  73.6161630  92.6344560  68.0315450
  61.7109720  89.5069600  59.9516380  61.2677870  90.2879140  59.6200900
  62.2694710  89.8299490  60.6587320  65.9979530  92.3738120  65.5551700
  65.5358900  92.5821140  66.3671640  65.5957640  91.5597470  65.2522370
  70.9984040  93.5947070  66.6848360  70.1477630  93.2952820  67.0057430
  70.8385830  93.8389080  65.7732180  68.0933750  95.0948820  68.7847150
  68.4187160  94.2612570  68.4449380  68.8814080  95.6177340  68.9325480
  64.8268540  89.1280300  54.8322210  64.2022720  89.1240170  55.5575520
  64.7398660  88.2611260  54.4358180  63.7485620  90.0516930  61.8105980
  64.0457950  90.9579760  61.7298000  64.2971180  89.5635710  61.1965550
  61.5023940  94.6303170  57.6797630  61.2764860  94.4140340  58.5844250
  60.7216470  95.0631630  57.3343600  68.7321700  94.6366540  56.2788280
  68.1330590  95.3602340  56.0951900  69.2801310  94.5743320  55.4964730
  63.9423150  95.5288750  68.3457900  63.8466750  94.5883480  68.1958300
  64.7855130  95.7503820  67.9505970  67.3386570  93.2730080  58.3091560
  67.7316140  93.5902280  57.4960250  67.7003420  92.3941960  58.4236080
  59.0733690  91.9402420  66.4991680  58.6797080  92.7877630  66.7064460
  58.3852090  91.3028790  66.6900320  65.6478740  92.0237390  69.5688420
  64.9577060  91.8309590  70.2034510  66.3911040  92.3072030  70.1012720
  56.3750740  89.8630880  60.5321760  56.0863790  90.4333740  61.2446740
  57.1196500  89.3835330  60.8952990  56.5620970  93.8051000  51.7424480
  56.4795640  94.7481760  51.8839470  56.2104030  93.6625910  50.8636830
  67.9241710  95.8635830  62.4042340  67.1922830  96.3722640  62.7532440
  67.5266050  95.0465810  62.1031120  64.3619100  92.5390030  60.8094830
  64.3655160  92.0979980  59.9599370  65.2570220  92.8607360  60.9166650
  60.2121480  92.4216520  59.7689040  59.8721530  92.8991750  60.5256090
  59.4498800  91.9681640  59.4090140  64.4239250  93.5402110  53.8001590
  64.5452070  93.4988590  54.7487410  64.0387760  94.4026260  53.6448320
  68.3867620  91.3169510  61.8165280  68.4040360  91.7678160  62.6607130
  68.1383200  90.4175150  62.0298720  63.4360750  95.8503250  53.1984890
  62.8677650  95.4021500  52.5720800  64.1449750  96.2096030  52.6650040
  71.8138370  88.7301690  67.6551660  72.1384140  87.9991350  68.1809640
  71.8494880  88.4115330  66.7532650  64.6627070  96.5991810  62.5560240
  65.0297200  96.1250380  63.3021580  64.4732130  97.4733380  62.8968580
  57.5267560  91.3435500  58.6853710  57.2414480  90.9791170  59.5232330
  57.4646420  90.6115960  58.0716850  62.4526440  95.6400450  64.8744450
  62.1483510  96.5192430  65.0994810  63.4072900  95.7000240  64.9101890
  67.2006150  90.2364760  55.4067080  66.3870760  89.7377930  55.3312390
  67.0068100  91.0763010  54.9903430  69.9154540  94.6084410  53.7029240
  70.8034160  94.9201640  53.5280580  69.8859630  93.7356660  53.3109820
  58.5090170  96.4803190  66.0215810  58.1505110  97.1457040  66.6089150
  58.2144730  95.6486740  66.3928430  61.7103290  96.9387430  68.9055360
  61.4103430  97.0844610  68.0083180  62.4814530  96.3792720  68.8128750
  72.1868810  95.9196250  53.1709100  72.1032530  96.3510470  52.3205540
  72.9063000  96.3794600  53.6035920  57.0198220  96.4794450  52.6450410
  57.8893070  96.7619250  52.9286330  56.5288540  97.2930320  52.5299220
  60.0844810  88.2105310  57.2381210  59.9559440  88.2023210  58.1866130
  59.2606830  88.5488400  56.8872220  57.0838740  89.9696430  66.6987910
  56.3697260  90.1693350  67.3040520  57.5033780  89.1936000  67.0702710
  68.5777520  92.4618740  64.4489360  68.9458340  91.6413950  64.7768930
  67.7175720  92.5220630  64.8645010  71.9439550  91.4175680  55.2576920
  71.3152710  91.5221350  54.5435150  71.4491470  91.6372460  56.0470800
  63.9123580  93.6961630  56.6734800  63.2039730  94.1647970  57.1148410
  64.1968060  93.0383640  57.3079990  65.5379510  95.1158330  64.6727330
  66.0364760  95.5904150  65.3379180  65.6802460  94.1921850  64.8797360
  67.9439010  90.4212290  58.1130590  67.8206790  90.4398420  57.1640100
  68.8923570  90.4691230  58.2328990  62.1158600  92.0046710  54.0485510
  62.9649130  92.4416860  53.9825700  61.7489870  92.3166970  54.8757570
  72.7446370  91.3326290  65.5155720  72.2419970  92.0731690  65.8549530
  73.5603030  91.7210290  65.1992510  71.0368380  96.5759470  58.9617080
  70.0958520  96.5909700  59.1364770  71.3512450  95.7895430  59.4077380
  61.0150020  98.2579070  52.5221040  61.7813290  98.1460430  53.0846470
  61.0924710  97.5617040  51.8697810  59.7096780  95.6904140  53.2053930
  59.7900370  94.7431650  53.3171330  60.6016530  96.0211020  53.3114590
  57.2367580  97.5119060  68.4410100  57.7406600  96.9326340  69.0126330
  56.4975000  97.7959290  68.9786470  59.2690660  95.6548650  69.3360170
  59.3096000  95.3562520  70.2445400  60.1236160  96.0556260  69.1767690
  63.0469050  98.2544200  54.4963680  63.4685470  98.0884070  55.3395070
  63.1719890  97.4444430  54.0018820  61.2096470  94.2340750  67.3034660
  60.6792930  93.7431700  66.6758000  61.8784540  94.6624950  66.7692590
  65.5596690  97.2781810  51.7440780  66.0802350  96.5630830  51.3781930
  66.2065090  97.9167680  52.0441290  70.5796700  96.0406370  69.0715000
  71.1617470  95.2858690  68.9835480  70.7558470  96.5713810  68.2946480
  61.6968770  91.2003120  67.3831950  61.6025640  90.5823870  66.6582820
  61.1166160  91.9269410  67.1561860  64.4630210  89.7576360  64.4159340
  64.0147510  89.7800620  63.5704890  63.8295410  89.3595380  65.0129640
  67.2053660  96.3846870  66.4209620  67.3249870  95.7888010  67.1604460
  68.0647660  96.4216560  66.0010920  69.5441560  96.9384060  64.9972130
  69.0176780  97.4626680  64.3937270  69.8872900  97.5711450  65.6281860
  61.9427950  94.3277430  51.4421840  61.7417010  93.4644790  51.8035180
  61.7720000  94.2410790  50.5043440  63.9722430  92.9268220  67.6785440
  64.5622120  92.6184070  68.3663260  63.1542670  92.4547970  67.8345340
  68.7915860  92.5434030  67.9118460  68.1031380  91.8815570  67.8468450
  69.5121880  92.0972300  68.3566920  69.4216260  89.1385660  53.9708720
  69.7018550  88.2953560  54.3268140  68.6481990  89.3708770  54.4847470
  60.7410750  91.4278050  51.4299720  61.0436650  91.4345480  50.5218870
  61.4805340  91.0775910  51.9267380  63.9595680  90.3712670  52.4155920
  63.6117680  89.6936660  51.8358370  64.1608450  89.9102180  53.2299310
  57.3001320  96.9000320  58.8120290  56.6450160  96.6311960  58.1679990
  58.1379270  96.7904800  58.3622270  70.2491760  91.6941610  53.0338780
  70.6676640  91.5072590  52.1935440  69.9427820  90.8420660  53.3441710
  73.7481490  96.6065750  56.7314580  73.3725090  95.8393680  56.2995870
  73.0184610  96.9888450  57.2189510  58.3377250  97.2852890  63.3523630
  58.7050290  97.1980290  64.2319650  57.7688070  96.5219440  63.2530490
  73.1381110  95.7537270  66.3654100  72.9067200  95.5250020  65.4652050
  73.3985660  96.6736820  66.3198990  57.8893250  94.1961980  67.2582050
  56.9949300  94.1628740  67.5975760  58.4290800  94.3948770  68.0233300
  71.5769180  90.9793700  69.1433800  72.4539360  90.9877100  69.5267800
  71.5890020  90.2424540  68.5326150  56.5139400  94.1099250  54.7545620
  55.6103480  94.3729450  54.5797280  56.9980020  94.3810420  53.9745580
  73.0232450  94.8323240  60.0321820  73.5469930  94.3385890  59.4011990
  73.6091870  94.9673600  60.7769390  73.2022170  94.9163110  63.5541370
  72.2524880  94.8826650  63.6686360  73.3835180  95.8263220  63.3191140
  59.0566610  93.1664790  52.6640000  59.7658310  92.7448010  52.1787280
  58.3406550  93.2340020  52.0323350  58.7040770  89.2204120  51.7042650
  59.4268900  89.7613060  52.0223870  58.9765290  88.9467540  50.8284190
  72.5132420  94.0896590  55.9714230  73.0091540  93.8567460  56.7563110
  72.3148490  93.2508430  55.5551870  58.3932960  88.4710310  61.6065270
  59.0409150  87.9207690  61.1660430  58.8134800  88.7253460  62.4281080
  73.9419580  92.7257540  58.5051910  73.8318860  92.5713580  59.4434180
  74.7027170  92.1978480  58.2627320  72.2885300  88.6651670  64.9634910
  72.9257520  89.2785810  65.3294100  72.4360190  88.7012330  64.0184140
  74.8309850  90.5565460  51.7458050  75.7559160  90.4246640  51.5376340
  74.8085640  90.6358280  52.6994500  74.9048340  91.3276120  54.3714760
  74.1099840  91.2621240  54.9007670  75.1091620  92.2626760  54.3600110
  58.1464960  88.6265980  64.3490590  57.7979780  89.0829800  65.1148770
  57.8152660  87.7323110  64.4313020  65.6589780  89.8177860  67.8710010
  65.5978670  90.4099690  68.6205420  66.5990160  89.7103820  67.7260270
  68.2964340  89.4747920  67.5102300  68.9104750  89.7927210  66.8483380
  68.8413900  88.9896510  68.1298160  58.8185600  88.1542180  67.6241360
  59.3668590  87.9730230  66.8607470  58.8840910  87.3636290  68.1597670
  69.0372380  88.0380060  63.8371590  68.1632220  88.3715170  63.6344520
  68.9283130  87.5653240  64.6623460  69.9444360  90.2450930  65.2213310
  69.6157720  89.4302690  64.8415040  70.8926660  90.2020740  65.0979000
  66.7847200  88.9549900  62.7764500  66.0018990  89.4295400  63.0561260
  66.4910130  88.0504730  62.6677680  71.3368270  89.6573000  60.8213590
  71.7776360  89.6018100  59.9735190  71.0675860  90.5731010  60.8923770
  73.2006840  89.2888240  58.8322410  73.1395240  88.3449460  58.6853430
  73.9798870  89.3968330  59.3775870  58.1287610  89.2597380  55.2978220
  58.8866970  89.3726260  54.7242250  57.6664780  90.0966580  55.2521650
  64.6701420  91.3736650  58.2880530  63.8575930  90.9993540  57.9476410
  65.1743060  90.6181730  58.5901720  69.1726400  88.0379100  59.5263600
  69.7755770  88.6099310  60.0012120  68.4319390  88.6018540  59.3037500
  72.3161000  88.4400660  54.8003880  72.5111630  89.3384110  55.0671310
  71.5290870  88.2087740  55.2936830  60.5012760  89.7861430  53.8380190
  61.0305520  88.9991230  53.7088140  61.1341080  90.4652620  54.0715720
  62.6950600  89.5236570  56.8925580  62.0653340  88.8223880  57.0595710
  62.1555740  90.2840700  56.6758740  62.8206160  88.8020550  69.3278070
  62.5390430  89.3054150  68.5638890  63.2025860  88.0042300  68.9620200
  69.4221620  88.2174130  69.9058540  69.3087070  88.5368740  70.8010060
  70.2391360  88.6186640  69.6095820  68.3279770  96.2366600  40.2693280
  68.2473820  95.3221210  39.9984990  67.9144190  96.7333670  39.5632990
  66.4597810  98.0145620  42.1502550  65.6839910  97.5346060  42.4401120
  67.1110740  97.3351270  41.9758710  60.4763640  98.3265430  43.0278310
  59.6448520  98.0714140  43.4274820  61.0844620  98.3976200  43.7636230
  58.8855590  93.2867320  36.8120700  57.9972290  93.6283290  36.7100580
  59.1696780  93.0867640  35.9201530  56.8488600  95.8872970  42.6960400
  57.4204710  95.1195170  42.6964040  56.8490140  96.1861730  41.7867010
  58.0913470  91.2957330  44.4829330  57.9116310  90.3983080  44.7632090
  57.6893550  91.8429200  45.1576280  66.9311970  93.4973190  42.3841640
  67.3076790  92.6245070  42.2715310  66.8331480  93.8331890  41.4932080
  61.0616980  91.8698820  37.8459080  61.1683730  92.7702550  38.1527840
  60.1509340  91.8216790  37.5553730  70.7136090  90.9923630  39.3169980
  71.5345710  90.5020200  39.3595460  70.7470170  91.5821290  40.0701820
  58.7100140  93.7917830  43.0911670  59.3910250  94.0556200  43.7099070
  58.3948190  92.9518700  43.4249680  62.9024710  94.8385190  42.1784260
  63.4102930  95.3366160  42.8189280  63.4337950  94.0620390  42.0023620
  75.0035640  93.0090380  45.8813610  74.2987810  93.3972090  45.3628720
  75.2693560  93.7040670  46.4834540  61.1860810  89.4783750  46.4447680
  61.1879250  89.9956140  45.6393580  60.3565120  89.0013930  46.4217610
  70.9497570  92.9324010  42.0897520  70.2453140  93.2208900  42.6700630
  71.3109730  93.7424120  41.7297080  60.8676140  91.1893710  44.4518130
  61.2092950  92.0335760  44.1572000  59.9291950  91.3377450  44.5683470
  74.0184490  92.3778800  42.4806730  73.0709400  92.4117780  42.6122160
  74.3434480  93.1917750  42.8656090  64.5504030  88.6775980  40.7762720
  64.8579010  88.1222870  40.0598220  63.6204730  88.8120440  40.5935710
  66.9384790  96.7424810  37.5122840  66.0114070  96.6762190  37.7411310
  67.0909610  97.6804940  37.3978080  66.9253870  93.0141810  34.5090000
  65.9857540  93.1755770  34.5942460  67.2437130  93.7327490  33.9625990
  73.4466630  97.6960330  44.4869030  72.6185260  97.7653420  44.0119160
  74.0417110  98.2814640  44.0184860  70.9682080  98.3045110  38.0158090
  70.3494500  97.9664660  37.3684390  70.9506530  97.6604870  38.7237280
  70.4108640  94.4829650  45.4323900  69.9979820  95.3083360  45.6863890
  69.6784590  93.8974690  45.2400260  62.5441430  97.2689550  40.2942570
  62.1398430  96.5566800  39.7988470  62.6304550  96.9242790  41.1830610
  61.2570050  94.0432760  44.0741610  61.8084640  94.1528100  43.2994860
  61.7713560  94.4170360  44.7896840  69.1446780  97.5431920  35.0230840
  69.5840060  96.7054350  34.8768660  69.8575200  98.1761320  35.1094980
  60.9312780  97.5652120  47.6846950  60.7920550  98.4374920  48.0534350
  60.0494140  97.2224930  47.5394890  72.7263920  88.7974730  33.3371880
  72.4136580  88.8901560  34.2370950  73.4876390  89.3755760  33.2869310
  59.2446060  96.1634530  37.7949220  59.1243660  96.8896620  37.1830490
  58.9346950  95.3937440  37.3177130  73.9365210  93.5346230  49.3146020
  73.3209480  94.0425900  48.7861480  73.6161630  92.6344560  49.2571960
  61.7109720  89.5069600  41.1772890  61.2677870  90.2879140  40.8457410
  62.2694710  89.8299490  41.8843830  65.9979530  92.3738120  46.7808210
  65.5358900  92.5821140  47.5928150  65.5957640  91.5597470  46.4778880
  70.9984040  93.5947070  47.9104870  70.1477630  93.2952820  48.2313940
  70.8385830  93.8389080  46.9988690  68.0933750  95.0948820  50.0103660
  68.4187160  94.2612570  49.6705890  68.8814080  95.6177340  50.1581990
  64.8268540  89.1280300  36.0578720  64.2022720  89.1240170  36.7832030
  64.7398660  88.2611260  35.6614690  63.7485620  90.0516930  43.0362490
  64.0457950  90.9579760  42.9554510  64.2971180  89.5635710  42.4222060
  61.5023940  94.6303170  38.9054140  61.2764860  94.4140340  39.8100760
  60.7216470  95.0631630  38.5600110  68.7321700  94.6366540  37.5044790
  68.1330590  95.3602340  37.3208410  69.2801310  94.5743320  36.7221240
  63.9423150  95.5288750  49.5714410  63.8466750  94.5883480  49.4214810
  64.7855130  95.7503820  49.1762480  67.3386570  93.2730080  39.5348070
  67.7316140  93.5902280  38.7216760  67.7003420  92.3941960  39.6492590
  59.0733690  91.9402420  47.7248190  58.6797080  92.7877630  47.9320970
  58.3852090  91.3028790  47.9156830  65.6478740  92.0237390  50.7944930
  64.9577060  91.8309590  51.4291020  66.3911040  92.3072030  51.3269230
  56.3750740  89.8630880  41.7578270  56.0863790  90.4333740  42.4703250
  57.1196500  89.3835330  42.1209500  56.5620970  93.8051000  32.9680990
  56.4795640  94.7481760  33.1095980  56.2104030  93.6625910  32.0893340
  67.9241710  95.8635830  43.6298850  67.1922830  96.3722640  43.9788950
  67.5266050  95.0465810  43.3287630  64.3619100  92.5390030  42.0351340
  64.3655160  92.0979980  41.1855880  65.2570220  92.8607360  42.1423160
  60.2121480  92.4216520  40.9945550  59.8721530  92.8991750  41.7512600
  59.4498800  91.9681640  40.6346650  64.4239250  93.5402110  35.0258100
  64.5452070  93.4988590  35.9743920  64.0387760  94.4026260  34.8704830
  68.3867620  91.3169510  43.0421790  68.4040360  91.7678160  43.8863640
  68.1383200  90.4175150  43.2555230  63.4360750  95.8503250  34.4241400
  62.8677650  95.4021500  33.7977310  64.1449750  96.2096030  33.8906550
  71.8138370  88.7301690  48.8808170  72.1384140  87.9991350  49.4066150
  71.8494880  88.4115330  47.9789160  64.6627070  96.5991810  43.7816750
  65.0297200  96.1250380  44.5278090  64.4732130  97.4733380  44.1225090
  57.5267560  91.3435500  39.9110220  57.2414480  90.9791170  40.7488840
  57.4646420  90.6115960  39.2973360  62.4526440  95.6400450  46.1000960
  62.1483510  96.5192430  46.3251320  63.4072900  95.7000240  46.1358400
  67.2006150  90.2364760  36.6323590  66.3870760  89.7377930  36.5568900
  67.0068100  91.0763010  36.2159940  69.9154540  94.6084410  34.9285750
  70.8034160  94.9201640  34.7537090  69.8859630  93.7356660  34.5366330
  58.5090170  96.4803190  47.2472320  58.1505110  97.1457040  47.8345660
  58.2144730  95.6486740  47.6184940  61.7103290  96.9387430  50.1311870
  61.4103430  97.0844610  49.2339690  62.4814530  96.3792720  50.0385260
  72.1868810  95.9196250  34.3965610  72.1032530  96.3510470  33.5462050
  72.9063000  96.3794600  34.8292430  57.0198220  96.4794450  33.8706920
  57.8893070  96.7619250  34.1542840  56.5288540  97.2930320  33.7555730
  60.0844810  88.2105310  38.4637720  59.9559440  88.2023210  39.4122640
  59.2606830  88.5488400  38.1128730  57.0838740  89.9696430  47.9244420
  56.3697260  90.1693350  48.5297030  57.5033780  89.1936000  48.2959220
  68.5777520  92.4618740  45.6745870  68.9458340  91.6413950  46.0025440
  67.7175720  92.5220630  46.0901520  71.9439550  91.4175680  36.4833430
  71.3152710  91.5221350  35.7691660  71.4491470  91.6372460  37.2727310
  63.9123580  93.6961630  37.8991310  63.2039730  94.1647970  38.3404920
  64.1968060  93.0383640  38.5336500  65.5379510  95.1158330  45.8983840
  66.0364760  95.5904150  46.5635690  65.6802460  94.1921850  46.1053870
  67.9439010  90.4212290  39.3387100  67.8206790  90.4398420  38.3896610
  68.8923570  90.4691230  39.4585500  62.1158600  92.0046710  35.2742020
  62.9649130  92.4416860  35.2082210  61.7489870  92.3166970  36.1014080
  72.7446370  91.3326290  46.7412230  72.2419970  92.0731690  47.0806040
  73.5603030  91.7210290  46.4249020  71.0368380  96.5759470  40.1873590
  70.0958520  96.5909700  40.3621280  71.3512450  95.7895430  40.6333890
  61.0150020  98.2579070  33.7477550  61.7813290  98.1460430  34.3102980
  61.0924710  97.5617040  33.0954320  59.7096780  95.6904140  34.4310440
  59.7900370  94.7431650  34.5427840  60.6016530  96.0211020  34.5371100
  57.2367580  97.5119060  49.6666610  57.7406600  96.9326340  50.2382840
  56.4975000  97.7959290  50.2042980  59.2690660  95.6548650  50.5616680
  59.3096000  95.3562520  51.4701910  60.1236160  96.0556260  50.4024200
  63.0469050  98.2544200  35.7220190  63.4685470  98.0884070  36.5651580
  63.1719890  97.4444430  35.2275330  61.2096470  94.2340750  48.5291170
  60.6792930  93.7431700  47.9014510  61.8784540  94.6624950  47.9949100
  65.5596690  97.2781810  32.9697290  66.0802350  96.5630830  32.6038440
  66.2065090  97.9167680  33.2697800  70.5796700  96.0406370  50.2971510
  71.1617470  95.2858690  50.2091990  70.7558470  96.5713810  49.5202990
  61.6968770  91.2003120  48.6088460  61.6025640  90.5823870  47.8839330
  61.1166160  91.9269410  48.3818370  64.4630210  89.7576360  45.6415850
  64.0147510  89.7800620  44.7961400  63.8295410  89.3595380  46.2386150
  67.2053660  96.3846870  47.6466130  67.3249870  95.7888010  48.3860970
  68.0647660  96.4216560  47.2267430  69.5441560  96.9384060  46.2228640
  69.0176780  97.4626680  45.6193780  69.8872900  97.5711450  46.8538370
  61.9427950  94.3277430  32.6678350  61.7417010  93.4644790  33.0291690
  61.7720000  94.2410790  31.7299950  63.9722430  92.9268220  48.9041950
  64.5622120  92.6184070  49.5919770  63.1542670  92.4547970  49.0601850
  68.7915860  92.5434030  49.1374970  68.1031380  91.8815570  49.0724960
  69.5121880  92.0972300  49.5823430  69.4216260  89.1385660  35.1965230
  69.7018550  88.2953560  35.5524650  68.6481990  89.3708770  35.7103980
  60.7410750  91.4278050  32.6556230  61.0436650  91.4345480  31.7475380
  61.4805340  91.0775910  33.1523890  63.9595680  90.3712670  33.6412430
  63.6117680  89.6936660  33.0614880  64.1608450  89.9102180  34.4555820
  57.3001320  96.9000320  40.0376800  56.6450160  96.6311960  39.3936500
  58.1379270  96.7904800  39.5878780  70.2491760  91.6941610  34.2595290
  70.6676640  91.5072590  33.4191950  69.9427820  90.8420660  34.5698220
  73.7481490  96.6065750  37.9571090  73.3725090  95.8393680  37.5252380
  73.0184610  96.9888450  38.4446020  58.3377250  97.2852890  44.5780140
  58.7050290  97.1980290  45.4576160  57.7688070  96.5219440  44.4787000
  73.1381110  95.7537270  47.5910610  72.9067200  95.5250020  46.6908560
  73.3985660  96.6736820  47.5455500  57.8893250  94.1961980  48.4838560
  56.9949300  94.1628740  48.8232270  58.4290800  94.3948770  49.2489810
  71.5769180  90.9793700  50.3690310  72.4539360  90.9877100  50.7524310
  71.5890020  90.2424540  49.7582660  56.5139400  94.1099250  35.9802130
  55.6103480  94.3729450  35.8053790  56.9980020  94.3810420  35.2002090
  73.0232450  94.8323240  41.2578330  73.5469930  94.3385890  40.6268500
  73.6091870  94.9673600  42.0025900  73.2022170  94.9163110  44.7797880
  72.2524880  94.8826650  44.8942870  73.3835180  95.8263220  44.5447650
  59.0566610  93.1664790  33.8896510  59.7658310  92.7448010  33.4043790
  58.3406550  93.2340020  33.2579860  58.7040770  89.2204120  32.9299160
  59.4268900  89.7613060  33.2480380  58.9765290  88.9467540  32.0540700
  72.5132420  94.0896590  37.1970740  73.0091540  93.8567460  37.9819620
  72.3148490  93.2508430  36.7808380  58.3932960  88.4710310  42.8321780
  59.0409150  87.9207690  42.3916940  58.8134800  88.7253460  43.6537590
  73.9419580  92.7257540  39.7308420  73.8318860  92.5713580  40.6690690
  74.7027170  92.1978480  39.4883830  72.2885300  88.6651670  46.1891420
  72.9257520  89.2785810  46.5550610  72.4360190  88.7012330  45.2440650
  74.8309850  90.5565460  32.9714560  75.7559160  90.4246640  32.7632850
  74.8085640  90.6358280  33.9251010  74.9048340  91.3276120  35.5971270
  74.1099840  91.2621240  36.1264180  75.1091620  92.2626760  35.5856620
  58.1464960  88.6265980  45.5747100  57.7979780  89.0829800  46.3405280
  57.8152660  87.7323110  45.6569530  65.6589780  89.8177860  49.0966520
  65.5978670  90.4099690  49.8461930  66.5990160  89.7103820  48.9516780
  68.2964340  89.4747920  48.7358810  68.9104750  89.7927210  48.0739890
  68.8413900  88.9896510  49.3554670  58.8185600  88.1542180  48.8497870
  59.3668590  87.9730230  48.0863980  58.8840910  87.3636290  49.3854180
  69.0372380  88.0380060  45.0628100  68.1632220  88.3715170  44.8601030
  68.9283130  87.5653240  45.8879970  69.9444360  90.2450930  46.4469820
  69.6157720  89.4302690  46.0671550  70.8926660  90.2020740  46.3235510
  66.7847200  88.9549900  44.0021010  66.0018990  89.4295400  44.2817770
  66.4910130  88.0504730  43.8934190  71.3368270  89.6573000  42.0470100
  71.7776360  89.6018100  41.1991700  71.0675860  90.5731010  42.1180280
  73.2006840  89.2888240  40.0578920  73.1395240  88.3449460  39.9109940
  73.9798870  89.3968330  40.6032380  58.1287610  89.2597380  36.5234730
  58.8866970  89.3726260  35.9498760  57.6664780  90.0966580  36.4778160
  64.6701420  91.3736650  39.5137040  63.8575930  90.9993540  39.1732920
  65.1743060  90.6181730  39.8158230  69.1726400  88.0379100  40.7520110
  69.7755770  88.6099310  41.2268630  68.4319390  88.6018540  40.5294010
  72.3161000  88.4400660  36.0260390  72.5111630  89.3384110  36.2927820
  71.5290870  88.2087740  36.5193340  60.5012760  89.7861430  35.0636700
  61.0305520  88.9991230  34.9344650  61.1341080  90.4652620  35.2972230
  62.6950600  89.5236570  38.1182090  62.0653340  88.8223880  38.2852220
  62.1555740  90.2840700  37.9015250  62.8206160  88.8020550  50.5534580
  62.5390430  89.3054150  49.7895400  63.2025860  88.0042300  50.1876710
  69.4221620  88.2174130  51.1315050  69.3087070  88.5368740  52.0266570
  70.2391360  88.6186640  50.8352330  68.3279770  96.2366600  21.4949790
  68.2473820  95.3221210  21.2241500  67.9144190  96.7333670  20.7889500
  66.4597810  98.0145620  23.3759060  65.6839910  97.5346060  23.6657630
  67.1110740  97.3351270  23.2015220  60.4763640  98.3265430  24.2534820
  59.6448520  98.0714140  24.6531330  61.0844620  98.3976200  24.9892740
  58.8855590  93.2867320  18.0377210  57.9972290  93.6283290  17.9357090
  59.1696780  93.0867640  17.1458040  56.8488600  95.8872970  23.9216910
  57.4204710  95.1195170  23.9220550  56.8490140  96.1861730  23.0123520
  58.0913470  91.2957330  25.7085840  57.9116310  90.3983080  25.9888600
  57.6893550  91.8429200  26.3832790  66.9311970  93.4973190  23.6098150
  67.3076790  92.6245070  23.4971820  66.8331480  93.8331890  22.7188590
  61.0616980  91.8698820  19.0715590  61.1683730  92.7702550  19.3784350
  60.1509340  91.8216790  18.7810240  70.7136090  90.9923630  20.5426490
  71.5345710  90.5020200  20.5851970  70.7470170  91.5821290  21.2958330
  58.7100140  93.7917830  24.3168180  59.3910250  94.0556200  24.9355580
  58.3948190  92.9518700  24.6506190  62.9024710  94.8385190  23.4040770
  63.4102930  95.3366160  24.0445790  63.4337950  94.0620390  23.2280130
  75.0035640  93.0090380  27.1070120  74.2987810  93.3972090  26.5885230
  75.2693560  93.7040670  27.7091050  61.1860810  89.4783750  27.6704190
  61.1879250  89.9956140  26.8650090  60.3565120  89.0013930  27.6474120
  70.9497570  92.9324010  23.3154030  70.2453140  93.2208900  23.8957140
  71.3109730  93.7424120  22.9553590  60.8676140  91.1893710  25.6774640
  61.2092950  92.0335760  25.3828510  59.9291950  91.3377450  25.7939980
  74.0184490  92.3778800  23.7063240  73.0709400  92.4117780  23.8378670
  74.3434480  93.1917750  24.0912600  64.5504030  88.6775980  22.0019230
  64.8579010  88.1222870  21.2854730  63.6204730  88.8120440  21.8192220
  66.9384790  96.7424810  18.7379350  66.0114070  96.6762190  18.9667820
  67.0909610  97.6804940  18.6234590  66.9253870  93.0141810  15.7346510
  65.9857540  93.1755770  15.8198970  67.2437130  93.7327490  15.1882500
  73.4466630  97.6960330  25.7125540  72.6185260  97.7653420  25.2375670
  74.0417110  98.2814640  25.2441370  70.9682080  98.3045110  19.2414600
  70.3494500  97.9664660  18.5940900  70.9506530  97.6604870  19.9493790
  70.4108640  94.4829650  26.6580410  69.9979820  95.3083360  26.9120400
  69.6784590  93.8974690  26.4656770  62.5441430  97.2689550  21.5199080
  62.1398430  96.5566800  21.0244980  62.6304550  96.9242790  22.4087120
  61.2570050  94.0432760  25.2998120  61.8084640  94.1528100  24.5251370
  61.7713560  94.4170360  26.0153350  69.1446780  97.5431920  16.2487350
  69.5840060  96.7054350  16.1025170  69.8575200  98.1761320  16.3351490
  60.9312780  97.5652120  28.9103460  60.7920550  98.4374920  29.2790860
  60.0494140  97.2224930  28.7651400  72.7263920  88.7974730  14.5628390
  72.4136580  88.8901560  15.4627460  73.4876390  89.3755760  14.5125820
  59.2446060  96.1634530  19.0205730  59.1243660  96.8896620  18.4087000
  58.9346950  95.3937440  18.5433640  73.9365210  93.5346230  30.5402530
  73.3209480  94.0425900  30.0117990  73.6161630  92.6344560  30.4828470
  61.7109720  89.5069600  22.4029400  61.2677870  90.2879140  22.0713920
  62.2694710  89.8299490  23.1100340  65.9979530  92.3738120  28.0064720
  65.5358900  92.5821140  28.8184660  65.5957640  91.5597470  27.7035390
  70.9984040  93.5947070  29.1361380  70.1477630  93.2952820  29.4570450
  70.8385830  93.8389080  28.2245200  68.0933750  95.0948820  31.2360170
  68.4187160  94.2612570  30.8962400  68.8814080  95.6177340  31.3838500
  64.8268540  89.1280300  17.2835230  64.2022720  89.1240170  18.0088540
  64.7398660  88.2611260  16.8871200  63.7485620  90.0516930  24.2619000
  64.0457950  90.9579760  24.1811020  64.2971180  89.5635710  23.6478570
  61.5023940  94.6303170  20.1310650  61.2764860  94.4140340  21.0357270
  60.7216470  95.0631630  19.7856620  68.7321700  94.6366540  18.7301300
  68.1330590  95.3602340  18.5464920  69.2801310  94.5743320  17.9477750
  63.9423150  95.5288750  30.7970920  63.8466750  94.5883480  30.6471320
  64.7855130  95.7503820  30.4018990  67.3386570  93.2730080  20.7604580
  67.7316140  93.5902280  19.9473270  67.7003420  92.3941960  20.8749100
  59.0733690  91.9402420  28.9504700  58.6797080  92.7877630  29.1577480
  58.3852090  91.3028790  29.1413340  65.6478740  92.0237390  32.0201440
  64.9577060  91.8309590  32.6547530  66.3911040  92.3072030  32.5525740
  56.3750740  89.8630880  22.9834780  56.0863790  90.4333740  23.6959760
  57.1196500  89.3835330  23.3466010  56.5620970  93.8051000  14.1937500
  56.4795640  94.7481760  14.3352490  56.2104030  93.6625910  13.3149850
  67.9241710  95.8635830  24.8555360  67.1922830  96.3722640  25.2045460
  67.5266050  95.0465810  24.5544140  64.3619100  92.5390030  23.2607850
  64.3655160  92.0979980  22.4112390  65.2570220  92.8607360  23.3679670
  60.2121480  92.4216520  22.2202060  59.8721530  92.8991750  22.9769110
  59.4498800  91.9681640  21.8603160  64.4239250  93.5402110  16.2514610
  64.5452070  93.4988590  17.2000430  64.0387760  94.4026260  16.0961340
  68.3867620  91.3169510  24.2678300  68.4040360  91.7678160  25.1120150
  68.1383200  90.4175150  24.4811740  63.4360750  95.8503250  15.6497910
  62.8677650  95.4021500  15.0233820  64.1449750  96.2096030  15.1163060
  71.8138370  88.7301690  30.1064680  72.1384140  87.9991350  30.6322660
  71.8494880  88.4115330  29.2045670  64.6627070  96.5991810  25.0073260
  65.0297200  96.1250380  25.7534600  64.4732130  97.4733380  25.3481600
  57.5267560  91.3435500  21.1366730  57.2414480  90.9791170  21.9745350
  57.4646420  90.6115960  20.5229870  62.4526440  95.6400450  27.3257470
  62.1483510  96.5192430  27.5507830  63.4072900  95.7000240  27.3614910
  67.2006150  90.2364760  17.8580100  66.3870760  89.7377930  17.7825410
  67.0068100  91.0763010  17.4416450  69.9154540  94.6084410  16.1542260
  70.8034160  94.9201640  15.9793600  69.8859630  93.7356660  15.7622840
  58.5090170  96.4803190  28.4728830  58.1505110  97.1457040  29.0602170
  58.2144730  95.6486740  28.8441450  61.7103290  96.9387430  31.3568380
  61.4103430  97.0844610  30.4596200  62.4814530  96.3792720  31.2641770
  72.1868810  95.9196250  15.6222120  72.1032530  96.3510470  14.7718560
  72.9063000  96.3794600  16.0548940  57.0198220  96.4794450  15.0963430
  57.8893070  96.7619250  15.3799350  56.5288540  97.2930320  14.9812240
  60.0844810  88.2105310  19.6894230  59.9559440  88.2023210  20.6379150
  59.2606830  88.5488400  19.3385240  57.0838740  89.9696430  29.1500930
  56.3697260  90.1693350  29.7553540  57.5033780  89.1936000  29.5215730
  68.5777520  92.4618740  26.9002380  68.9458340  91.6413950  27.2281950
  67.7175720  92.5220630  27.3158030  71.9439550  91.4175680  17.7089940
  71.3152710  91.5221350  16.9948170  71.4491470  91.6372460  18.4983820
  63.9123580  93.6961630  19.1247820  63.2039730  94.1647970  19.5661430
  64.1968060  93.0383640  19.7593010  65.5379510  95.1158330  27.1240350
  66.0364760  95.5904150  27.7892200  65.6802460  94.1921850  27.3310380
  67.9439010  90.4212290  20.5643610  67.8206790  90.4398420  19.6153120
  68.8923570  90.4691230  20.6842010  62.1158600  92.0046710  16.4998530
  62.9649130  92.4416860  16.4338720  61.7489870  92.3166970  17.3270590
  72.7446370  91.3326290  27.9668740  72.2419970  92.0731690  28.3062550
  73.5603030  91.7210290  27.6505530  71.0368380  96.5759470  21.4130100
  70.0958520  96.5909700  21.5877790  71.3512450  95.7895430  21.8590400
  61.0150020  98.2579070  14.9734060  61.7813290  98.1460430  15.5359490
  61.0924710  97.5617040  14.3210830  59.7096780  95.6904140  15.6566950
  59.7900370  94.7431650  15.7684350  60.6016530  96.0211020  15.7627610
  57.2367580  97.5119060  30.8923120  57.7406600  96.9326340  31.4639350
  56.4975000  97.7959290  31.4299490  59.2690660  95.6548650  31.7873190
  59.3096000  95.3562520  32.6958420  60.1236160  96.0556260  31.6280710
  63.0469050  98.2544200  16.9476700  63.4685470  98.0884070  17.7908090
  63.1719890  97.4444430  16.4531840  61.2096470  94.2340750  29.7547680
  60.6792930  93.7431700  29.1271020  61.8784540  94.6624950  29.2205610
  65.5596690  97.2781810  14.1953800  66.0802350  96.5630830  13.8294950
  66.2065090  97.9167680  14.4954310  70.5796700  96.0406370  31.5228020
  71.1617470  95.2858690  31.4348500  70.7558470  96.5713810  30.7459500
  61.6968770  91.2003120  29.8344970  61.6025640  90.5823870  29.1095840
  61.1166160  91.9269410  29.6074880  64.4630210  89.7576360  26.8672360
  64.0147510  89.7800620  26.0217910  63.8295410  89.3595380  27.4642660
  67.2053660  96.3846870  28.8722640  67.3249870  95.7888010  29.6117480
  68.0647660  96.4216560  28.4523940  69.5441560  96.9384060  27.4485150
  69.0176780  97.4626680  26.8450290  69.8872900  97.5711450  28.0794880
  61.9427950  94.3277430  13.8934860  61.7417010  93.4644790  14.2548200
  61.7720000  94.2410790  12.9556460  63.9722430  92.9268220  30.1298460
  64.5622120  92.6184070  30.8176280  63.1542670  92.4547970  30.2858360
  68.7915860  92.5434030  30.3631480  68.1031380  91.8815570  30.2981470
  69.5121880  92.0972300  30.8079940  69.4216260  89.1385660  16.4221740
  69.7018550  88.2953560  16.7781160  68.6481990  89.3708770  16.9360490
  60.7410750  91.4278050  13.8812740  61.0436650  91.4345480  12.9731890
  61.4805340  91.0775910  14.3780400  63.9595680  90.3712670  14.8668940
  63.6117680  89.6936660  14.2871390  64.1608450  89.9102180  15.6812330
  57.3001320  96.9000320  21.2633310  56.6450160  96.6311960  20.6193010
  58.1379270  96.7904800  20.8135290  70.2491760  91.6941610  15.4851800
  70.6676640  91.5072590  14.6448460  69.9427820  90.8420660  15.7954730
  73.7481490  96.6065750  19.1827600  73.3725090  95.8393680  18.7508890
  73.0184610  96.9888450  19.6702530  58.3377250  97.2852890  25.8036650
  58.7050290  97.1980290  26.6832670  57.7688070  96.5219440  25.7043510
  73.1381110  95.7537270  28.8167120  72.9067200  95.5250020  27.9165070
  73.3985660  96.6736820  28.7712010  57.8893250  94.1961980  29.7095070
  56.9949300  94.1628740  30.0488780  58.4290800  94.3948770  30.4746320
  71.5769180  90.9793700  31.5946820  72.4539360  90.9877100  31.9780820
  71.5890020  90.2424540  30.9839170  56.5139400  94.1099250  17.2058640
  55.6103480  94.3729450  17.0310300  56.9980020  94.3810420  16.4258600
  73.0232450  94.8323240  22.4834840  73.5469930  94.3385890  21.8525010
  73.6091870  94.9673600  23.2282410  73.2022170  94.9163110  26.0054390
  72.2524880  94.8826650  26.1199380  73.3835180  95.8263220  25.7704160
  59.0566610  93.1664790  15.1153020  59.7658310  92.7448010  14.6300300
  58.3406550  93.2340020  14.4836370  58.7040770  89.2204120  14.1555670
  59.4268900  89.7613060  14.4736890  58.9765290  88.9467540  13.2797210
  72.5132420  94.0896590  18.4227250  73.0091540  93.8567460  19.2076130
  72.3148490  93.2508430  18.0064890  58.3932960  88.4710310  24.0578290
  59.0409150  87.9207690  23.6173450  58.8134800  88.7253460  24.8794100
  73.9419580  92.7257540  20.9564930  73.8318860  92.5713580  21.8947200
  74.7027170  92.1978480  20.7140340  72.2885300  88.6651670  27.4147930
  72.9257520  89.2785810  27.7807120  72.4360190  88.7012330  26.4697160
  74.8309850  90.5565460  14.1971070  75.7559160  90.4246640  13.9889360
  74.8085640  90.6358280  15.1507520  74.9048340  91.3276120  16.8227780
  74.1099840  91.2621240  17.3520690  75.1091620  92.2626760  16.8113130
  58.1464960  88.6265980  26.8003610  57.7979780  89.0829800  27.5661790
  57.8152660  87.7323110  26.8826040  65.6589780  89.8177860  30.3223030
  65.5978670  90.4099690  31.0718440  66.5990160  89.7103820  30.1773290
  68.2964340  89.4747920  29.9615320  68.9104750  89.7927210  29.2996400
  68.8413900  88.9896510  30.5811180  58.8185600  88.1542180  30.0754380
  59.3668590  87.9730230  29.3120490  58.8840910  87.3636290  30.6110690
  69.0372380  88.0380060  26.2884610  68.1632220  88.3715170  26.0857540
  68.9283130  87.5653240  27.1136480  69.9444360  90.2450930  27.6726330
  69.6157720  89.4302690  27.2928060  70.8926660  90.2020740  27.5492020
  66.7847200  88.9549900  25.2277520  66.0018990  89.4295400  25.5074280
  66.4910130  88.0504730  25.1190700  71.3368270  89.6573000  23.2726610
  71.7776360  89.6018100  22.4248210  71.0675860  90.5731010  23.3436790
  73.2006840  89.2888240  21.2835430  73.1395240  88.3449460  21.1366450
  73.9798870  89.3968330  21.8288890  58.1287610  89.2597380  17.7491240
  58.8866970  89.3726260  17.1755270  57.6664780  90.0966580  17.7034670
  64.6701420  91.3736650  20.7393550  63.8575930  90.9993540  20.3989430
  65.1743060  90.6181730  21.0414740  69.1726400  88.0379100  21.9776620
  69.7755770  88.6099310  22.4525140  68.4319390  88.6018540  21.7550520
  72.3161000  88.4400660  17.2516900  72.5111630  89.3384110  17.5184330
  71.5290870  88.2087740  17.7449850  60.5012760  89.7861430  16.2893210
  61.0305520  88.9991230  16.1601160  61.1341080  90.4652620  16.5228740
  62.6950600  89.5236570  19.3438600  62.0653340  88.8223880  19.5108730
  62.1555740  90.2840700  19.1271760  62.8206160  88.8020550  31.7791090
  62.5390430  89.3054150  31.0151910  63.2025860  88.0042300  31.4133220
  69.4221620  88.2174130  32.3571560  69.3087070  88.5368740  33.2523080
  70.2391360  88.6186640  32.0608840  68.3279770  96.2366600   2.7206300
  68.2473820  95.3221210   2.4498010  67.9144190  96.7333670   2.0146010
  66.4597810  98.0145620   4.6015570  65.6839910  97.5346060   4.8914140
  67.1110740  97.3351270   4.4271730  60.4763640  98.3265430   5.4791330
  59.6448520  98.0714140   5.8787840  61.0844620  98.3976200   6.2149250
  56.8488600  95.8872970   5.1473420  57.4204710  95.1195170   5.1477060
  56.8490140  96.1861730   4.2380030  58.0913470  91.2957330   6.9342350
  57.9116310  90.3983080   7.2145110  57.6893550  91.8429200   7.6089300
  66.9311970  93.4973190   4.8354660  67.3076790  92.6245070   4.7228330
  66.8331480  93.8331890   3.9445100  70.7136090  90.9923630   1.7683000
  71.5345710  90.5020200   1.8108480  70.7470170  91.5821290   2.5214840
  58.7100140  93.7917830   5.5424690  59.3910250  94.0556200   6.1612090
  58.3948190  92.9518700   5.8762700  62.9024710  94.8385190   4.6297280
  63.4102930  95.3366160   5.2702300  63.4337950  94.0620390   4.4536640
  75.0035640  93.0090380   8.3326630  74.2987810  93.3972090   7.8141740
  75.2693560  93.7040670   8.9347560  61.1860810  89.4783750   8.8960700
  61.1879250  89.9956140   8.0906600  60.3565120  89.0013930   8.8730630
  70.9497570  92.9324010   4.5410540  70.2453140  93.2208900   5.1213650
  71.3109730  93.7424120   4.1810100  60.8676140  91.1893710   6.9031150
  61.2092950  92.0335760   6.6085020  59.9291950  91.3377450   7.0196490
  74.0184490  92.3778800   4.9319750  73.0709400  92.4117780   5.0635180
  74.3434480  93.1917750   5.3169110  64.5504030  88.6775980   3.2275740
  64.8579010  88.1222870   2.5111240  63.6204730  88.8120440   3.0448730
  73.4466630  97.6960330   6.9382050  72.6185260  97.7653420   6.4632180
  74.0417110  98.2814640   6.4697880  70.4108640  94.4829650   7.8836920
  69.9979820  95.3083360   8.1376910  69.6784590  93.8974690   7.6913280
  62.5441430  97.2689550   2.7455590  62.1398430  96.5566800   2.2501490
  62.6304550  96.9242790   3.6343630  61.2570050  94.0432760   6.5254630
  61.8084640  94.1528100   5.7507880  61.7713560  94.4170360   7.2409860
  60.9312780  97.5652120  10.1359970  60.7920550  98.4374920  10.5047370
  60.0494140  97.2224930   9.9907910  73.9365210  93.5346230  11.7659040
  73.3209480  94.0425900  11.2374500  73.6161630  92.6344560  11.7084980
  61.7109720  89.5069600   3.6285910  61.2677870  90.2879140   3.2970430
  62.2694710  89.8299490   4.3356850  65.9979530  92.3738120   9.2321230
  65.5358900  92.5821140  10.0441170  65.5957640  91.5597470   8.9291900
  70.9984040  93.5947070  10.3617890  70.1477630  93.2952820  10.6826960
  70.8385830  93.8389080   9.4501710  68.0933750  95.0948820  12.4616680
  68.4187160  94.2612570  12.1218910  68.8814080  95.6177340  12.6095010
  63.7485620  90.0516930   5.4875510  64.0457950  90.9579760   5.4067530
  64.2971180  89.5635710   4.8735080  63.9423150  95.5288750  12.0227430
  63.8466750  94.5883480  11.8727830  64.7855130  95.7503820  11.6275500
  59.0733690  91.9402420  10.1761210  58.6797080  92.7877630  10.3833990
  58.3852090  91.3028790  10.3669850  65.6478740  92.0237390  13.2457950
  64.9577060  91.8309590  13.8804040  66.3911040  92.3072030  13.7782250
  56.3750740  89.8630880   4.2091290  56.0863790  90.4333740   4.9216270
  57.1196500  89.3835330   4.5722520  67.9241710  95.8635830   6.0811870
  67.1922830  96.3722640   6.4301970  67.5266050  95.0465810   5.7800650
  64.3619100  92.5390030   4.4864360  64.3655160  92.0979980   3.6368900
  65.2570220  92.8607360   4.5936180  60.2121480  92.4216520   3.4458570
  59.8721530  92.8991750   4.2025620  59.4498800  91.9681640   3.0859670
  68.3867620  91.3169510   5.4934810  68.4040360  91.7678160   6.3376660
  68.1383200  90.4175150   5.7068250  71.8138370  88.7301690  11.3321190
  72.1384140  87.9991350  11.8579170  71.8494880  88.4115330  10.4302180
  64.6627070  96.5991810   6.2329770  65.0297200  96.1250380   6.9791110
  64.4732130  97.4733380   6.5738110  57.5267560  91.3435500   2.3623240
  57.2414480  90.9791170   3.2001860  57.4646420  90.6115960   1.7486380
  62.4526440  95.6400450   8.5513980  62.1483510  96.5192430   8.7764340
  63.4072900  95.7000240   8.5871420  58.5090170  96.4803190   9.6985340
  58.1505110  97.1457040  10.2858680  58.2144730  95.6486740  10.0697960
  61.7103290  96.9387430  12.5824890  61.4103430  97.0844610  11.6852710
  62.4814530  96.3792720  12.4898280  57.0838740  89.9696430  10.3757440
  56.3697260  90.1693350  10.9810050  57.5033780  89.1936000  10.7472240
  68.5777520  92.4618740   8.1258890  68.9458340  91.6413950   8.4538460
  67.7175720  92.5220630   8.5414540  65.5379510  95.1158330   8.3496860
  66.0364760  95.5904150   9.0148710  65.6802460  94.1921850   8.5566890
  72.7446370  91.3326290   9.1925250  72.2419970  92.0731690   9.5319060
  73.5603030  91.7210290   8.8762040  71.0368380  96.5759470   2.6386610
  70.0958520  96.5909700   2.8134300  71.3512450  95.7895430   3.0846910
  57.2367580  97.5119060  12.1179630  57.7406600  96.9326340  12.6895860
  56.4975000  97.7959290  12.6556000  59.2690660  95.6548650  13.0129700
  59.3096000  95.3562520  13.9214930  60.1236160  96.0556260  12.8537220
  61.2096470  94.2340750  10.9804190  60.6792930  93.7431700  10.3527530
  61.8784540  94.6624950  10.4462120  70.5796700  96.0406370  12.7484530
  71.1617470  95.2858690  12.6605010  70.7558470  96.5713810  11.9716010
  61.6968770  91.2003120  11.0601480  61.6025640  90.5823870  10.3352350
  61.1166160  91.9269410  10.8331390  64.4630210  89.7576360   8.0928870
  64.0147510  89.7800620   7.2474420  63.8295410  89.3595380   8.6899170
  67.2053660  96.3846870  10.0979150  67.3249870  95.7888010  10.8373990
  68.0647660  96.4216560   9.6780450  69.5441560  96.9384060   8.6741660
  69.0176780  97.4626680   8.0706800  69.8872900  97.5711450   9.3051390
  63.9722430  92.9268220  11.3554970  64.5622120  92.6184070  12.0432790
  63.1542670  92.4547970  11.5114870  68.7915860  92.5434030  11.5887990
  68.1031380  91.8815570  11.5237980  69.5121880  92.0972300  12.0336450
  57.3001320  96.9000320   2.4889820  56.6450160  96.6311960   1.8449520
  58.1379270  96.7904800   2.0391800  58.3377250  97.2852890   7.0293160
  58.7050290  97.1980290   7.9089180  57.7688070  96.5219440   6.9300020
  73.1381110  95.7537270  10.0423630  72.9067200  95.5250020   9.1421580
  73.3985660  96.6736820   9.9968520  57.8893250  94.1961980  10.9351580
  56.9949300  94.1628740  11.2745290  58.4290800  94.3948770  11.7002830
  71.5769180  90.9793700  12.8203330  72.4539360  90.9877100  13.2037330
  71.5890020  90.2424540  12.2095680  73.0232450  94.8323240   3.7091350
  73.5469930  94.3385890   3.0781520  73.6091870  94.9673600   4.4538920
  73.2022170  94.9163110   7.2310900  72.2524880  94.8826650   7.3455890
  73.3835180  95.8263220   6.9960670  58.3932960  88.4710310   5.2834800
  59.0409150  87.9207690   4.8429960  58.8134800  88.7253460   6.1050610
  73.9419580  92.7257540   2.1821440  73.8318860  92.5713580   3.1203710
  74.7027170  92.1978480   1.9396850  72.2885300  88.6651670   8.6404440
  72.9257520  89.2785810   9.0063630  72.4360190  88.7012330   7.6953670
  58.1464960  88.6265980   8.0260120  57.7979780  89.0829800   8.7918300
  57.8152660  87.7323110   8.1082550  65.6589780  89.8177860  11.5479540
  65.5978670  90.4099690  12.2974950  66.5990160  89.7103820  11.4029800
  68.2964340  89.4747920  11.1871830  68.9104750  89.7927210  10.5252910
  68.8413900  88.9896510  11.8067690  58.8185600  88.1542180  11.3010890
  59.3668590  87.9730230  10.5377000  58.8840910  87.3636290  11.8367200
  69.0372380  88.0380060   7.5141120  68.1632220  88.3715170   7.3114050
  68.9283130  87.5653240   8.3392990  69.9444360  90.2450930   8.8982840
  69.6157720  89.4302690   8.5184570  70.8926660  90.2020740   8.7748530
  66.7847200  88.9549900   6.4534030  66.0018990  89.4295400   6.7330790
  66.4910130  88.0504730   6.3447210  71.3368270  89.6573000   4.4983120
  71.7776360  89.6018100   3.6504720  71.0675860  90.5731010   4.5693300
  73.2006840  89.2888240   2.5091940  73.1395240  88.3449460   2.3622960
  73.9798870  89.3968330   3.0545400  64.6701420  91.3736650   1.9650060
  63.8575930  90.9993540   1.6245940  65.1743060  90.6181730   2.2671250
  69.1726400  88.0379100   3.2033130  69.7755770  88.6099310   3.6781650
  68.4319390  88.6018540   2.9807030  62.8206160  88.8020550  13.0047600
  62.5390430  89.3054150  12.2408420  63.2025860  88.0042300  12.6389730
  69.4221620  88.2174130  13.5828070  69.3087070  88.5368740  14.4779590
  70.2391360  88.6186640  13.2865350  68.3279770  77.4623110  77.8180260
  68.2473820  76.5477720  77.5471970  67.9144190  77.9590180  77.1119970
  66.4597810  79.2402130  79.6989530  65.6839910  78.7602570  79.9888100
  67.1110740  78.5607780  79.5245690  60.4763640  79.5521940  80.5765290
  59.6448520  79.2970650  80.9761800  61.0844620  79.6232710  81.3123210
  70.4805240  83.6462320  78.4788660  70.0186770  82.8749560  78.8075830
  71.2930790  83.6728390  78.9841110  60.4564900  83.5862030  80.7723310
  60.7592940  82.6959770  80.5933530  61.2008490  84.1432250  80.5445560
  58.8855590  74.5123830  74.3607680  57.9972290  74.8539800  74.2587560
  59.1696780  74.3124150  73.4688510  56.8488600  77.1129480  80.2447380
  57.4204710  76.3451680  80.2451020  56.8490140  77.4118240  79.3353990
  66.7068550  85.9320330  78.0992650  66.0879990  86.3877830  77.5287090
  67.5620330  86.0871790  77.6982350  65.9006800  81.9159320  79.7059690
  65.8315080  80.9749260  79.5448820  66.6626660  82.0060730  80.2782260
  66.9311970  74.7229700  79.9328620  67.3076790  73.8501580  79.8202290
  66.8331480  75.0588400  79.0419060  61.0616980  73.0955330  75.3946060
  61.1683730  73.9959060  75.7014820  60.1509340  73.0473300  75.1040710
  70.7136090  72.2180140  76.8656960  71.5345710  71.7276710  76.9082440
  70.7470170  72.8077800  77.6188800  58.7100140  75.0174340  80.6398650
  59.3910250  75.2812710  81.2586050  58.3948190  74.1775210  80.9736660
  62.9024710  76.0641700  79.7271240  63.4102930  76.5622670  80.3676260
  63.4337950  75.2876900  79.5510600  67.5731900  80.8159570  75.4924560
  66.9549170  81.2809020  74.9287280  68.0855150  81.5087050  75.9094070
  70.9497570  74.1580520  79.6384500  70.2453140  74.4465410  80.2187610
  71.3109730  74.9680630  79.2784060  60.8676140  72.4150220  82.0005110
  61.2092950  73.2592270  81.7058980  59.9291950  72.5633960  82.1170450
  56.9415100  81.5016100  72.8664190  56.5643080  81.9903200  72.1349090
  57.1988170  82.1741380  73.4970720  72.5660350  83.7755650  81.9011980
  71.8823870  84.4454760  81.8928650  73.1054640  83.9736300  81.1356840
  74.0184490  73.6035310  80.0293710  73.0709400  73.6374290  80.1609140
  74.3434480  74.4174260  80.4143070  64.5504030  69.9032490  78.3249700
  64.8579010  69.3479380  77.6085200  63.6204730  70.0376950  78.1422690
  70.1019090  85.6199780  80.6157160  70.1146250  85.2162070  79.7479420
  69.5494310  86.3947070  80.5118590  71.3964510  82.3416000  75.7047330
  71.2860840  81.3990330  75.8296750  71.3932760  82.7031640  76.5910090
  66.9384790  77.9681320  75.0609820  66.0114070  77.9018700  75.2898290
  67.0909610  78.9061450  74.9465060  66.9253870  74.2398320  72.0576980
  65.9857540  74.4012280  72.1429440  67.2437130  74.9584000  71.5112970
  73.4466630  78.9216840  82.0356010  72.6185260  78.9909930  81.5606140
  74.0417110  79.5071150  81.5671840  70.9682080  79.5301620  75.5645070
  70.3494500  79.1921170  74.9171370  70.9506530  78.8861380  76.2724260
  62.5441430  78.4946060  77.8429550  62.1398430  77.7823310  77.3475450
  62.6304550  78.1499300  78.7317590  63.0123130  82.1813620  80.0068760
  62.7151420  81.5759090  79.3276540  63.9622950  82.2190930  79.8958120
  69.1446780  78.7688430  72.5717820  69.5840060  77.9310860  72.4255640
  69.8575200  79.4017830  72.6581960  67.2542160  83.7084500  76.5399060
  67.6938070  84.4508830  76.1254450  67.1929050  83.9511070  77.4638020
  72.7263920  70.0231240  70.8858860  72.4136580  70.1158070  71.7857930
  73.4876390  70.6012270  70.8356290  59.2446060  77.3891040  75.3436200
  59.1243660  78.1153130  74.7317470  58.9346950  76.6193950  74.8664110
  56.8831430  80.5606180  81.1504840  56.9611850  80.6954950  80.2060560
  57.4973110  79.8522070  81.3432960  58.1279060  82.2606370  77.5611020
  57.7207140  82.4020960  76.7064620  59.0192070  81.9766530  77.3582230
  69.9212340  86.6953620  73.8962070  69.7613480  86.4056560  74.7943900
  69.7559050  85.9193750  73.3607300  62.4000720  86.4752150  75.6733690
  62.2243200  85.5587690  75.4601490  61.5456460  86.8339440  75.9131490
  69.6238470  84.2041180  72.4560070  68.9303630  84.2018470  71.7962350
  70.3661330  83.7800500  72.0254240  69.1888400  85.8303890  76.5308560
  69.6445350  85.0493270  76.8447180  69.5280920  86.5410710  77.0749740
  61.7109720  70.7326110  78.7259870  61.2677870  71.5135650  78.3944390
  62.2694710  71.0556000  79.4330810  64.8268540  70.3536810  73.6065700
  64.2022720  70.3496680  74.3319010  64.7398660  69.4867770  73.2101670
  63.7485620  71.2773440  80.5849470  64.0457950  72.1836270  80.5041490
  64.2971180  70.7892220  79.9709040  61.5023940  75.8559680  76.4541120
  61.2764860  75.6396850  77.3587740  60.7216470  76.2888140  76.1087090
  68.7321700  75.8623050  75.0531770  68.1330590  76.5858850  74.8695390
  69.2801310  75.7999830  74.2708220  67.3386570  74.4986590  77.0835050
  67.7316140  74.8158790  76.2703740  67.7003420  73.6198470  77.1979570
  56.3750740  71.0887390  79.3065250  56.0863790  71.6590250  80.0190230
  57.1196500  70.6091840  79.6696480  56.5620970  75.0307510  70.5167970
  56.4795640  75.9738270  70.6582960  56.2104030  74.8882420  69.6380320
  67.9241710  77.0892340  81.1785830  67.1922830  77.5979150  81.5275930
  67.5266050  76.2722320  80.8774610  64.3619100  73.7646540  79.5838320
  64.3655160  73.3236490  78.7342860  65.2570220  74.0863870  79.6910140
  60.2121480  73.6473030  78.5432530  59.8721530  74.1248260  79.2999580
  59.4498800  73.1938150  78.1833630  64.4239250  74.7658620  72.5745080
  64.5452070  74.7245100  73.5230900  64.0387760  75.6282770  72.4191810
  68.3867620  72.5426020  80.5908770  68.4040360  72.9934670  81.4350620
  68.1383200  71.6431660  80.8042210  63.4360750  77.0759760  71.9728380
  62.8677650  76.6278010  71.3464290  64.1449750  77.4352540  71.4393530
  64.6627070  77.8248320  81.3303730  65.0297200  77.3506890  82.0765070
  64.4732130  78.6989890  81.6712070  57.5267560  72.5692010  77.4597200
  57.2414480  72.2047680  78.2975820  57.4646420  71.8372470  76.8460340
  60.9808230  81.0717950  74.2454790  60.2070490  80.5315570  74.0853510
  61.7102860  80.5524560  73.9072550  71.7396210  80.0683310  80.0381180
  72.4595330  80.5638600  79.6477290  71.5378030  79.3901200  79.3935050
  67.2006150  71.4621270  74.1810570  66.3870760  70.9634440  74.1055880
  67.0068100  72.3019520  73.7646920  69.9154540  75.8340920  72.4772730
  70.8034160  76.1458150  72.3024070  69.8859630  74.9613170  72.0853310
  61.0245630  80.7398330  77.8833600  61.5424300  79.9366590  77.8290490
  60.5729650  80.6777470  78.7250430  65.9115130  82.0064610  73.1560900
  66.2530830  82.7506840  72.6604220  65.0827840  82.3195730  73.5185730
  72.1868810  77.1452760  71.9452590  72.1032530  77.5766980  71.0949030
  72.9063000  77.6051110  72.3779410  73.2156060  83.9995020  74.6734720
  72.5732220  83.3450640  74.9478440  72.8286720  84.4050110  73.8975390
  68.7942540  81.3280450  78.5206410  69.1466360  80.7308580  77.8607780
  67.9104870  81.0024680  78.6914660  64.8805820  82.0878140  75.9276820
  65.5676950  82.6347350  76.3084410  64.0938240  82.6318870  75.9626430
  57.0198220  77.7050960  71.4193900  57.8893070  77.9875760  71.7029820
  56.5288540  78.5186830  71.3042710  64.1833030  79.0924170  75.5402180
  64.6395810  79.9029420  75.7662370  63.8321240  78.7747310  76.3720670
  60.0844810  69.4361820  76.0124700  59.9559440  69.4279720  76.9609620
  59.2606830  69.7744910  75.6615710  67.7597720  82.6062860  81.4871930
  68.4019950  81.9056020  81.6004100  68.2847070  83.3861300  81.3068820
  71.6053440  82.8911480  71.2111070  71.3791020  82.1741920  71.8035710
  71.2149640  82.6423920  70.3732820  57.3869470  86.9178340  71.9855530
  57.7467110  87.5167680  71.3312800  57.2461810  87.4638230  72.7590560
  71.1869690  80.8083420  72.8725230  70.8991390  81.2696110  73.6603110
  71.9821860  80.3481190  73.1409450  63.4038090  84.3009540  72.8029200
  63.3948190  85.0339230  72.1873710  62.4836450  84.0541120  72.8956160
  59.0044730  79.5224430  73.5475960  58.3972680  80.2623330  73.5571260
  59.4794080  79.6123790  72.7214160  71.9439550  72.6432190  74.0320410
  71.3152710  72.7477860  73.3178640  71.4491470  72.8628970  74.8214290
  66.3897690  84.3637780  71.4654390  66.4909670  84.1601770  70.5356370
  65.4899430  84.1096060  71.6702170  63.9123580  74.9218140  75.4478290
  63.2039730  75.3904480  75.8891900  64.1968060  74.2640150  76.0823480
  67.9439010  71.6468800  76.8874080  67.8206790  71.6654930  75.9383590
  68.8923570  71.6947740  77.0072480  65.0315800  86.8824100  76.1602060
  65.2857300  86.8445490  75.2381430  64.0828280  86.7557430  76.1530310
  62.1158600  73.2303220  72.8229000  62.9649130  73.6673370  72.7569190
  61.7489870  73.5423480  73.6501060  71.0368380  77.8015980  77.7360570
  70.0958520  77.8166210  77.9108260  71.3512450  77.0151940  78.1820870
  61.0150020  79.4835580  71.2964530  61.7813290  79.3716940  71.8589960
  61.0924710  78.7873550  70.6441300  59.7096780  76.9160650  71.9797420
  59.7900370  75.9688160  72.0914820  60.6016530  77.2467530  72.0858080
  73.0393960  84.9724830  79.4114830  73.1641380  85.7956000  79.8838640
  73.9059520  84.7615560  79.0638980  60.5111490  87.0656040  79.0831960
  61.2473970  86.5171500  79.3540530  60.8952410  87.9312050  78.9437950
  57.3956970  83.1329610  74.9573470  56.4696750  83.3750750  74.9478880
  57.8613400  83.9603870  74.8358220  63.6213800  86.2386350  70.9057530
  64.4142410  86.5275180  70.4539320  63.1018150  85.8078520  70.2270010
  72.6743970  85.4656480  72.3294270  72.3885480  85.0521620  71.5148450
  72.4763520  86.3944190  72.2094790  64.1391200  81.4589760  70.7699880
  64.0341840  80.8442110  71.4961260  63.9715420  80.9355650  69.9862890
  67.3793930  80.5209790  71.3741870  66.8304030  80.9679090  72.0184610
  68.0013190  80.0159040  71.8979540  63.0469050  79.4800710  73.2707170
  63.4685470  79.3140580  74.1138560  63.1719890  78.6700940  72.7762310
  65.5596690  78.5038320  70.5184270  66.0802350  77.7887340  70.1525420
  66.2065090  79.1424190  70.8184780  61.9427950  75.5533940  70.2165330
  61.7417010  74.6901300  70.5778670  61.7720000  75.4667300  69.2786930
  69.4216260  70.3642170  72.7452210  69.7018550  69.5210070  73.1011630
  68.6481990  70.5965280  73.2590960  60.7410750  72.6534560  70.2043210
  61.0436650  72.6601990  69.2962360  61.4805340  72.3032420  70.7010870
  63.9595680  71.5969180  71.1899410  63.6117680  70.9193170  70.6101860
  64.1608450  71.1358690  72.0042800  66.1244720  86.5849930  72.8086010
  67.0195510  86.9234900  72.8304770  66.1562350  85.8629340  72.1810290
  59.7640880  81.9576980  71.0373010  60.2015750  82.5006650  71.6930590
  60.2488610  81.1323930  71.0469350  56.9786680  84.7466010  78.4893270
  57.3089690  83.8787070  78.2571910  57.4077680  84.9524530  79.3198230
  61.5748600  83.0775020  76.1495240  61.2744140  82.9539990  77.0499150
  61.4686090  82.2183610  75.7410970  57.4676890  85.6136600  81.2274900
  57.0307880  85.7937400  82.0599050  58.0354570  86.3711220  81.0856620
  74.3440520  82.8571420  70.8521920  73.5133480  82.9248070  71.3229150
  74.5212350  83.7475540  70.5488780  73.7996980  79.6018900  73.3556120
  74.5615890  80.1715550  73.4615810  73.8151350  79.0346100  74.1264430
  57.3001320  78.1256830  77.5863780  56.6450160  77.8568470  76.9423480
  58.1379270  78.0161310  77.1365760  74.8056950  80.4569000  78.1998050
  75.1765780  79.6736320  77.7934020  75.4458880  81.1458100  78.0215350
  73.8516150  79.8953270  70.5128640  74.1264990  80.8032150  70.3847860
  73.6626890  79.8315800  71.4490630  70.2491760  72.9198120  71.8082270
  70.6676640  72.7329100  70.9678930  69.9427820  72.0677170  72.1185200
  73.7481490  77.8322260  75.5058070  73.3725090  77.0650190  75.0739360
  73.0184610  78.2144960  75.9933000  56.5139400  75.3355760  73.5289110
  55.6103480  75.5985960  73.3540770  56.9980020  75.6066930  72.7489070
  73.0232450  76.0579750  78.8065310  73.5469930  75.5642400  78.1755480
  73.6091870  76.1930110  79.5512880  59.0566610  74.3921300  71.4383490
  59.7658310  73.9704520  70.9530770  58.3406550  74.4596530  70.8066840
  58.7040770  70.4460630  70.4786140  59.4268900  70.9869570  70.7967360
  58.9765290  70.1724050  69.6027680  72.5132420  75.3153100  74.7457720
  73.0091540  75.0823970  75.5306600  72.3148490  74.4764940  74.3295360
  58.3932960  69.6966820  80.3808760  59.0409150  69.1464200  79.9403920
  58.8134800  69.9509970  81.2024570  73.9419580  73.9514050  77.2795400
  73.8318860  73.7970090  78.2177670  74.7027170  73.4234990  77.0370810
  74.8309850  71.7821970  70.5201540  75.7559160  71.6503150  70.3119830
  74.8085640  71.8614790  71.4737990  74.9048340  72.5532630  73.1458250
  74.1099840  72.4877750  73.6751160  75.1091620  73.4883270  73.1343600
  71.8466760  86.5924180  77.1396640  72.4425830  86.2708750  76.4631060
  72.1044910  86.1196000  77.9309910  72.3978970  87.2419480  80.9694370
  71.9381940  87.9935290  80.5952390  71.7691430  86.5225950  80.9109170
  62.8274690  85.5507720  80.1442500  63.3439710  84.9395080  79.6190760
  63.4772070  86.0536500  80.6353510  65.5670190  86.4416210  80.9711480
  65.8548000  86.1870510  80.0944490  66.0793410  85.8893570  81.5617050
  66.7847200  70.1806410  81.5507990  66.0018990  70.6551910  81.8304750
  66.4910130  69.2761240  81.4421170  71.3368270  70.8829510  79.5957080
  71.7776360  70.8274610  78.7478680  71.0675860  71.7987520  79.6667260
  73.2006840  70.5144750  77.6065900  73.1395240  69.5705970  77.4596920
  73.9798870  70.6224840  78.1519360  57.5059590  86.6537110  76.5689850
  57.3381630  86.0207790  77.2671740  56.6394100  86.8596510  76.2184040
  58.1287610  70.4853890  74.0721710  58.8866970  70.5982770  73.4985740
  57.6664780  71.3223090  74.0265140  64.6701420  72.5993160  77.0624020
  63.8575930  72.2250050  76.7219900  65.1743060  71.8438240  77.3645210
  69.1726400  69.2635610  78.3007090  69.7755770  69.8355820  78.7755610
  68.4319390  69.8275050  78.0780990  72.3161000  69.6657170  73.5747370
  72.5111630  70.5640620  73.8414800  71.5290870  69.4344250  74.0680320
  59.1122290  85.3470340  74.0139990  58.5869910  85.7278370  73.3101950
  59.0366870  85.9721110  74.7349700  60.5012760  71.0117940  72.6123680
  61.0305520  70.2247740  72.4831630  61.1341080  71.6909130  72.8459210
  62.6950600  70.7493080  75.6669070  62.0653340  70.0480390  75.8339200
  62.1555740  71.5097210  75.4502230  73.8687610  86.9057880  75.3353930
  74.0439800  86.2195620  74.6914850  73.1709180  87.4304930  74.9430600
  61.7115260  87.2952720  72.8889240  62.4434080  87.0112000  72.3413130
  61.9708930  87.0566000  73.7788620  60.8730050  83.4117450  72.8935570
  60.2438930  83.8802550  73.4421400  60.9877880  82.5666670  73.3281760
  68.3279770  77.4623110  59.0436770  68.2473820  76.5477720  58.7728480
  67.9144190  77.9590180  58.3376480  66.4597810  79.2402130  60.9246040
  65.6839910  78.7602570  61.2144610  67.1110740  78.5607780  60.7502200
  60.4763640  79.5521940  61.8021800  59.6448520  79.2970650  62.2018310
  61.0844620  79.6232710  62.5379720  70.4805240  83.6462320  59.7045170
  70.0186770  82.8749560  60.0332340  71.2930790  83.6728390  60.2097620
  60.4564900  83.5862030  61.9979820  60.7592940  82.6959770  61.8190040
  61.2008490  84.1432250  61.7702070  56.8488600  77.1129480  61.4703890
  57.4204710  76.3451680  61.4707530  56.8490140  77.4118240  60.5610500
  66.7068550  85.9320330  59.3249160  66.0879990  86.3877830  58.7543600
  67.5620330  86.0871790  58.9238860  65.9006800  81.9159320  60.9316200
  65.8315080  80.9749260  60.7705330  66.6626660  82.0060730  61.5038770
  58.0913470  72.5213840  63.2572820  57.9116310  71.6239590  63.5375580
  57.6893550  73.0685710  63.9319770  66.9311970  74.7229700  61.1585130
  67.3076790  73.8501580  61.0458800  66.8331480  75.0588400  60.2675570
  70.7136090  72.2180140  58.0913470  71.5345710  71.7276710  58.1338950
  70.7470170  72.8077800  58.8445310  58.7100140  75.0174340  61.8655160
  59.3910250  75.2812710  62.4842560  58.3948190  74.1775210  62.1993170
  62.9024710  76.0641700  60.9527750  63.4102930  76.5622670  61.5932770
  63.4337950  75.2876900  60.7767110  75.0035640  74.2346890  64.6557100
  74.2987810  74.6228600  64.1372210  75.2693560  74.9297180  65.2578030
  61.1860810  70.7040260  65.2191170  61.1879250  71.2212650  64.4137070
  60.3565120  70.2270440  65.1961100  67.5731900  80.8159570  56.7181070
  66.9549170  81.2809020  56.1543790  68.0855150  81.5087050  57.1350580
  62.4363660  80.3435440  63.3964670  62.1033040  80.9704360  64.0385740
  62.6130340  80.8697320  62.6166340  70.9497570  74.1580520  60.8641010
  70.2453140  74.4465410  61.4444120  71.3109730  74.9680630  60.5040570
  60.8676140  72.4150220  63.2261620  61.2092950  73.2592270  62.9315490
  59.9291950  72.5633960  63.3426960  61.6482760  82.3116240  65.2113850
  62.2656760  82.9867320  64.9298300  60.7875880  82.7204220  65.1201350
  56.9415100  81.5016100  54.0920700  56.5643080  81.9903200  53.3605600
  57.1988170  82.1741380  54.7227230  72.5660350  83.7755650  63.1268490
  71.8823870  84.4454760  63.1185160  73.1054640  83.9736300  62.3613350
  74.0184490  73.6035310  61.2550220  73.0709400  73.6374290  61.3865650
  74.3434480  74.4174260  61.6399580  70.1019090  85.6199780  61.8413670
  70.1146250  85.2162070  60.9735930  69.5494310  86.3947070  61.7375100
  71.3964510  82.3416000  56.9303840  71.2860840  81.3990330  57.0553260
  71.3932760  82.7031640  57.8166600  69.5004530  80.5229620  63.1696280
  69.9173320  80.3089730  62.3349740  70.2244350  80.7802410  63.7404900
  66.9384790  77.9681320  56.2866330  66.0114070  77.9018700  56.5154800
  67.0909610  78.9061450  56.1721570  73.4466630  78.9216840  63.2612520
  72.6185260  78.9909930  62.7862650  74.0417110  79.5071150  62.7928350
  70.9682080  79.5301620  56.7901580  70.3494500  79.1921170  56.1427880
  70.9506530  78.8861380  57.4980770  70.4108640  75.7086160  64.2067390
  69.9979820  76.5339870  64.4607380  69.6784590  75.1231200  64.0143750
  62.5441430  78.4946060  59.0686060  62.1398430  77.7823310  58.5731960
  62.6304550  78.1499300  59.9574100  63.0123130  82.1813620  61.2325270
  62.7151420  81.5759090  60.5533050  63.9622950  82.2190930  61.1214630
  61.2570050  75.2689270  62.8485100  61.8084640  75.3784610  62.0738350
  61.7713560  75.6426870  63.5640330  71.1008740  85.7545490  64.8948370
  70.6239300  86.5617680  64.7020980  70.4170530  85.1023820  65.0474580
  62.1041560  81.9195310  67.8833070  61.2070090  82.1435280  68.1306470
  62.1294430  82.0430250  66.9344470  69.1446780  78.7688430  53.7974330
  69.5840060  77.9310860  53.6512150  69.8575200  79.4017830  53.8838470
  60.9312780  78.7908630  66.4590440  60.7920550  79.6631430  66.8277840
  60.0494140  78.4481440  66.3138380  67.2542160  83.7084500  57.7655570
  67.6938070  84.4508830  57.3510960  67.1929050  83.9511070  58.6894530
  62.7293130  84.7330330  68.6675590  62.7008560  85.1373280  67.8004020
  62.5658100  83.8040690  68.5047190  74.6807950  85.5157430  69.9639760
  75.1567670  85.9940320  70.6428840  75.3015110  85.4474920  69.2385260
  56.8831430  80.5606180  62.3761350  56.9611850  80.6954950  61.4317070
  57.4973110  79.8522070  62.5689470  58.1279060  82.2606370  58.7867530
  57.7207140  82.4020960  57.9321130  59.0192070  81.9766530  58.5838740
  74.0841200  82.7070280  67.1239770  74.2104260  82.4682160  66.2056950
  74.1262580  81.8754820  67.5961850  67.9457940  86.4098280  65.6934580
  68.4602610  86.3206290  66.4957010  67.1027020  86.7557980  65.9862490
  69.9212340  86.6953620  55.1218580  69.7613480  86.4056560  56.0200410
  69.7559050  85.9193750  54.5863810  62.4000720  86.4752150  56.8990200
  62.2243200  85.5587690  56.6858000  61.5456460  86.8339440  57.1388000
  69.6238470  84.2041180  53.6816580  68.9303630  84.2018470  53.0218860
  70.3661330  83.7800500  53.2510750  69.1888400  85.8303890  57.7565070
  69.6445350  85.0493270  58.0703690  69.5280920  86.5410710  58.3006250
  73.9365210  74.7602740  68.0889510  73.3209480  75.2682410  67.5604970
  73.6161630  73.8601070  68.0315450  56.9390950  81.6020350  64.9155810
  57.1021990  81.1325710  64.0975180  57.4043400  81.0943910  65.5804650
  65.9979530  73.5994630  65.5551700  65.5358900  73.8077650  66.3671640
  65.5957640  72.7853980  65.2522370  70.9984040  74.8203580  66.6848360
  70.1477630  74.5209330  67.0057430  70.8385830  75.0645590  65.7732180
  68.0933750  76.3205330  68.7847150  68.4187160  75.4869080  68.4449380
  68.8814080  76.8433850  68.9325480  63.7485620  71.2773440  61.8105980
  64.0457950  72.1836270  61.7298000  64.2971180  70.7892220  61.1965550
  68.7321700  75.8623050  56.2788280  68.1330590  76.5858850  56.0951900
  69.2801310  75.7999830  55.4964730  63.9423150  76.7545260  68.3457900
  63.8466750  75.8139990  68.1958300  64.7855130  76.9760330  67.9505970
  59.0733690  73.1658930  66.4991680  58.6797080  74.0134140  66.7064460
  58.3852090  72.5285300  66.6900320  65.6478740  73.2493900  69.5688420
  64.9577060  73.0566100  70.2034510  66.3911040  73.5328540  70.1012720
  67.9241710  77.0892340  62.4042340  67.1922830  77.5979150  62.7532440
  67.5266050  76.2722320  62.1031120  68.3867620  72.5426020  61.8165280
  68.4040360  72.9934670  62.6607130  68.1383200  71.6431660  62.0298720
  71.8138370  69.9558200  67.6551660  72.1384140  69.2247860  68.1809640
  71.8494880  69.6371840  66.7532650  58.5129930  80.9771780  67.0751620
  58.1284720  80.3365450  67.6734580  58.8242120  81.6807900  67.6446350
  64.6627070  77.8248320  62.5560240  65.0297200  77.3506890  63.3021580
  64.4732130  78.6989890  62.8968580  62.4526440  76.8656960  64.8744450
  62.1483510  77.7448940  65.0994810  63.4072900  76.9256750  64.9101890
  60.9808230  81.0717950  55.4711300  60.2070490  80.5315570  55.3110020
  61.7102860  80.5524560  55.1329060  71.7396210  80.0683310  61.2637690
  72.4595330  80.5638600  60.8733800  71.5378030  79.3901200  60.6191560
  67.1215010  80.1392370  67.1506690  67.0552320  79.2188040  66.8964280
  66.4920150  80.2367810  67.8651330  69.9154540  75.8340920  53.7029240
  70.8034160  76.1458150  53.5280580  69.8859630  74.9613170  53.3109820
  61.0245630  80.7398330  59.1090110  61.5424300  79.9366590  59.0547000
  60.5729650  80.6777470  59.9506940  65.9115130  82.0064610  54.3817410
  66.2530830  82.7506840  53.8860730  65.0827840  82.3195730  54.7442240
  58.5090170  77.7059700  66.0215810  58.1505110  78.3713550  66.6089150
  58.2144730  76.8743250  66.3928430  61.7103290  78.1643940  68.9055360
  61.4103430  78.3101120  68.0083180  62.4814530  77.6049230  68.8128750
  67.0531740  82.9612940  66.9010490  67.0676280  82.0293900  66.6829400
  66.3456840  83.0472700  67.5400260  72.1868810  77.1452760  53.1709100
  72.1032530  77.5766980  52.3205540  72.9063000  77.6051110  53.6035920
  73.2642950  79.6020280  66.2479070  72.5391140  80.1949060  66.0508460
  73.7918410  79.5943820  65.4492440  73.2156060  83.9995020  55.8991230
  72.5732220  83.3450640  56.1734950  72.8286720  84.4050110  55.1231900
  68.7942540  81.3280450  59.7462920  69.1466360  80.7308580  59.0864290
  67.9104870  81.0024680  59.9171170  64.8805820  82.0878140  57.1533330
  65.5676950  82.6347350  57.5340920  64.0938240  82.6318870  57.1882940
  64.1833030  79.0924170  56.7658690  64.6395810  79.9029420  56.9918880
  63.8321240  78.7747310  57.5977180  66.4865640  84.6030510  63.9950990
  67.1307860  84.8089890  64.6724410  66.8495080  83.8418910  63.5421840
  67.7597720  82.6062860  62.7128440  68.4019950  81.9056020  62.8260610
  68.2847070  83.3861300  62.5325330  71.6053440  82.8911480  52.4367580
  71.3791020  82.1741920  53.0292220  71.2149640  82.6423920  51.5989330
  69.5335340  83.4057760  65.9164500  69.8691580  83.9924450  66.5942420
  68.6135680  83.2750470  66.1462290  57.3869470  86.9178340  53.2112040
  57.7467110  87.5167680  52.5569310  57.2461810  87.4638230  53.9847070
  57.0838740  71.1952940  66.6987910  56.3697260  71.3949860  67.3040520
  57.5033780  70.4192510  67.0702710  71.1869690  80.8083420  54.0981740
  70.8991390  81.2696110  54.8859620  71.9821860  80.3481190  54.3665960
  57.3711330  85.1833200  67.6854440  57.4802450  84.2427940  67.5449830
  56.7191890  85.4487950  67.0368170  65.3623920  83.4549090  69.0852560
  65.0420790  82.7358330  69.6298250  64.6882280  84.1304160  69.1588620
  63.4038090  84.3009540  54.0285710  63.3948190  85.0339230  53.4130220
  62.4836450  84.0541120  54.1212670  68.5777520  73.6875250  64.4489360
  68.9458340  72.8670460  64.7768930  67.7175720  73.7477140  64.8645010
  71.9439550  72.6432190  55.2576920  71.3152710  72.7477860  54.5435150
  71.4491470  72.8628970  56.0470800  66.3897690  84.3637780  52.6910900
  66.4909670  84.1601770  51.7612880  65.4899430  84.1096060  52.8958680
  65.5379510  76.3414840  64.6727330  66.0364760  76.8160660  65.3379180
  65.6802460  75.4178360  64.8797360  65.0315800  86.8824100  57.3858570
  65.2857300  86.8445490  56.4637940  64.0828280  86.7557430  57.3786820
  72.7446370  72.5582800  65.5155720  72.2419970  73.2988200  65.8549530
  73.5603030  72.9466800  65.1992510  71.0368380  77.8015980  58.9617080
  70.0958520  77.8166210  59.1364770  71.3512450  77.0151940  59.4077380
  61.0150020  79.4835580  52.5221040  61.7813290  79.3716940  53.0846470
  61.0924710  78.7873550  51.8697810  73.0393960  84.9724830  60.6371340
  73.1641380  85.7956000  61.1095150  73.9059520  84.7615560  60.2895490
  60.5111490  87.0656040  60.3088470  61.2473970  86.5171500  60.5797040
  60.8952410  87.9312050  60.1694460  57.3956970  83.1329610  56.1829980
  56.4696750  83.3750750  56.1735390  57.8613400  83.9603870  56.0614730
  59.5169770  86.2502110  69.4974050  60.3182500  86.5714160  69.9109450
  59.0021590  85.8897690  70.2193960  63.6213800  86.2386350  52.1314040
  64.4142410  86.5275180  51.6795830  63.1018150  85.8078520  51.4526520
  68.3534400  82.3581980  69.4449460  67.7472560  82.3813580  68.7045210
  68.0488510  81.6265020  69.9816710  69.7834770  86.0862270  68.0558870
  70.7356520  86.0020290  68.0059110  69.6362990  86.7503980  68.7292660
  72.6743970  85.4656480  53.5550780  72.3885480  85.0521620  52.7404960
  72.4763520  86.3944190  53.4351300  57.2367580  78.7375570  68.4410100
  57.7406600  78.1582850  69.0126330  56.4975000  79.0215800  68.9786470
  64.1391200  81.4589760  51.9956390  64.0341840  80.8442110  52.7217770
  63.9715420  80.9355650  51.2119400  64.2905520  80.1446560  67.9745620
  63.5251190  80.7131560  67.8900290  64.4721480  79.8522770  67.0813850
  67.3793930  80.5209790  52.5998380  66.8304030  80.9679090  53.2441120
  68.0013190  80.0159040  53.1236050  71.4328870  81.8751890  68.5320640
  72.1738340  82.2127650  68.0288100  70.6701550  82.0443950  67.9790410
  59.2690660  76.8805160  69.3360170  59.3096000  76.5819030  70.2445400
  60.1236160  77.2812770  69.1767690  63.0469050  79.4800710  54.4963680
  63.4685470  79.3140580  55.3395070  63.1719890  78.6700940  54.0018820
  61.2096470  75.4597260  67.3034660  60.6792930  74.9688210  66.6758000
  61.8784540  75.8881460  66.7692590  65.5596690  78.5038320  51.7440780
  66.0802350  77.7887340  51.3781930  66.2065090  79.1424190  52.0441290
  70.1074530  79.9266720  67.0675850  70.5215550  80.0811800  67.9166270
  69.1725530  80.0521940  67.2301630  70.5796700  77.2662880  69.0715000
  71.1617470  76.5115200  68.9835480  70.7558470  77.7970320  68.2946480
  61.6968770  72.4259630  67.3831950  61.6025640  71.8080380  66.6582820
  61.1166160  73.1525920  67.1561860  64.4630210  70.9832870  64.4159340
  64.0147510  71.0057130  63.5704890  63.8295410  70.5851890  65.0129640
  64.8689760  79.8787200  65.0371780  65.2877870  80.7219930  64.8648020
  63.9498390  80.0159240  64.8078560  67.2053660  77.6103380  66.4209620
  67.3249870  77.0144520  67.1604460  68.0647660  77.6473070  66.0010920
  69.5441560  78.1640570  64.9972130  69.0176780  78.6883190  64.3937270
  69.8872900  78.7967960  65.6281860  62.7197180  86.1840210  66.1529510
  62.1818270  86.9086270  65.8338210  62.9731140  85.7070550  65.3626850
  63.9722430  74.1524730  67.6785440  64.5622120  73.8440580  68.3663260
  63.1542670  73.6804480  67.8345340  68.7915860  73.7690540  67.9118460
  68.1031380  73.1072080  67.8468450  69.5121880  73.3228810  68.3566920
  65.5759390  87.4191420  66.4116160  65.5018090  88.3226560  66.7188530
  64.6738230  87.1003320  66.3838230  66.1244720  86.5849930  54.0342520
  67.0195510  86.9234900  54.0561280  66.1562350  85.8629340  53.4066800
  59.7640880  81.9576980  52.2629520  60.2015750  82.5006650  52.9187100
  60.2488610  81.1323930  52.2725860  56.9786680  84.7466010  59.7149780
  57.3089690  83.8787070  59.4828420  57.4077680  84.9524530  60.5454740
  61.5748600  83.0775020  57.3751750  61.2744140  82.9539990  58.2755660
  61.4686090  82.2183610  56.9667480  57.4676890  85.6136600  62.4531410
  57.0307880  85.7937400  63.2855560  58.0354570  86.3711220  62.3113130
  73.1039070  85.1153600  66.7408720  72.5041060  85.1746160  65.9972640
  73.2332970  84.1758580  66.8705570  74.3440520  82.8571420  52.0778430
  73.5133480  82.9248070  52.5485660  74.5212350  83.7475540  51.7745290
  73.7996980  79.6018900  54.5812630  74.5615890  80.1715550  54.6872320
  73.8151350  79.0346100  55.3520940  57.3001320  78.1256830  58.8120290
  56.6450160  77.8568470  58.1679990  58.1379270  78.0161310  58.3622270
  74.8056950  80.4569000  59.4254560  75.1765780  79.6736320  59.0190530
  75.4458880  81.1458100  59.2471860  71.7890710  81.8405580  64.8384880
  70.9750550  82.2702740  65.1010670  72.1964910  82.4523990  64.2253930
  73.8516150  79.8953270  51.7385150  74.1264990  80.8032150  51.6104370
  73.6626890  79.8315800  52.6747140  70.2491760  72.9198120  53.0338780
  70.6676640  72.7329100  52.1935440  69.9427820  72.0677170  53.3441710
  73.7481490  77.8322260  56.7314580  73.3725090  77.0650190  56.2995870
  73.0184610  78.2144960  57.2189510  58.3377250  78.5109400  63.3523630
  58.7050290  78.4236800  64.2319650  57.7688070  77.7475950  63.2530490
  73.1381110  76.9793780  66.3654100  72.9067200  76.7506530  65.4652050
  73.3985660  77.8993330  66.3198990  57.8893250  75.4218490  67.2582050
  56.9949300  75.3885250  67.5975760  58.4290800  75.6205280  68.0233300
  71.5769180  72.2050210  69.1433800  72.4539360  72.2133610  69.5267800
  71.5890020  71.4681050  68.5326150  73.0232450  76.0579750  60.0321820
  73.5469930  75.5642400  59.4011990  73.6091870  76.1930110  60.7769390
  73.2022170  76.1419620  63.5541370  72.2524880  76.1083160  63.6686360
  73.3835180  77.0519730  63.3191140  72.5132420  75.3153100  55.9714230
  73.0091540  75.0823970  56.7563110  72.3148490  74.4764940  55.5551870
  73.9419580  73.9514050  58.5051910  73.8318860  73.7970090  59.4434180
  74.7027170  73.4234990  58.2627320  72.2885300  69.8908180  64.9634910
  72.9257520  70.5042320  65.3294100  72.4360190  69.9268840  64.0184140
  74.8309850  71.7821970  51.7458050  75.7559160  71.6503150  51.5376340
  74.8085640  71.8614790  52.6994500  74.9048340  72.5532630  54.3714760
  74.1099840  72.4877750  54.9007670  75.1091620  73.4883270  54.3600110
  71.8466760  86.5924180  58.3653150  72.4425830  86.2708750  57.6887570
  72.1044910  86.1196000  59.1566420  58.1464960  69.8522490  64.3490590
  57.7979780  70.3086310  65.1148770  57.8152660  68.9579620  64.4313020
  59.7529330  83.0242090  68.5143780  59.7098960  82.6535000  69.3958240
  59.8840340  83.9619660  68.6545600  63.4535360  84.5801680  64.1153500
  63.2126720  84.8476240  63.2284020  64.3938000  84.7507410  64.1704360
  65.6589780  71.0434370  67.8710010  65.5978670  71.6356200  68.6205420
  66.5990160  70.9360330  67.7260270  68.2964340  70.7004430  67.5102300
  68.9104750  71.0183720  66.8483380  68.8413900  70.2153020  68.1298160
  74.7139520  86.5996060  64.9164140  74.2197800  86.9964930  64.1991270
  74.1052810  85.9745270  65.3101420  58.8185600  69.3798690  67.6241360
  59.3668590  69.1986740  66.8607470  58.8840910  68.5892800  68.1597670
  59.5917360  85.9704340  65.6341560  58.9977680  85.8389040  66.3731600
  59.5841200  85.1342480  65.1683660  69.0372380  69.2636570  63.8371590
  68.1632220  69.5971680  63.6344520  68.9283130  68.7909750  64.6623460
  69.9444360  71.4707440  65.2213310  69.6157720  70.6559200  64.8415040
  70.8926660  71.4277250  65.0979000  72.3978970  87.2419480  62.1950880
  71.9381940  87.9935290  61.8208900  71.7691430  86.5225950  62.1365680
  59.2229590  83.3362720  64.5849600  58.4963650  82.7168010  64.5175550
  59.2838740  83.7303330  63.7147680  62.8274690  85.5507720  61.3699010
  63.3439710  84.9395080  60.8447270  63.4772070  86.0536500  61.8610020
  65.5670190  86.4416210  62.1967990  65.8548000  86.1870510  61.3201000
  66.0793410  85.8893570  62.7873560  66.7847200  70.1806410  62.7764500
  66.0018990  70.6551910  63.0561260  66.4910130  69.2761240  62.6677680
  71.3368270  70.8829510  60.8213590  71.7776360  70.8274610  59.9735190
  71.0675860  71.7987520  60.8923770  73.2006840  70.5144750  58.8322410
  73.1395240  69.5705970  58.6853430  73.9798870  70.6224840  59.3775870
  57.5059590  86.6537110  57.7946360  57.3381630  86.0207790  58.4928250
  56.6394100  86.8596510  57.4440550  59.1122290  85.3470340  55.2396500
  58.5869910  85.7278370  54.5358460  59.0366870  85.9721110  55.9606210
  65.6342550  87.3632310  69.5636190  66.5609860  87.1276580  69.6072150
  65.6192980  88.1904310  69.0822220  73.8687610  86.9057880  56.5610440
  74.0439800  86.2195620  55.9171360  73.1709180  87.4304930  56.1687110
  62.8206160  70.0277060  69.3278070  62.5390430  70.5310660  68.5638890
  63.2025860  69.2298810  68.9620200  61.7115260  87.2952720  54.1145750
  62.4434080  87.0112000  53.5669640  61.9708930  87.0566000  55.0045130
  60.8730050  83.4117450  54.1192080  60.2438930  83.8802550  54.6677910
  60.9877880  82.5666670  54.5538270  69.4221620  69.4430640  69.9058540
  69.3087070  69.7625250  70.8010060  70.2391360  69.8443150  69.6095820
  72.2020110  86.5902170  69.3877230  72.9945430  86.0951400  69.1803190
  72.4953260  87.2692310  69.9952840  68.3279770  77.4623110  40.2693280
  68.2473820  76.5477720  39.9984990  67.9144190  77.9590180  39.5632990
  66.4597810  79.2402130  42.1502550  65.6839910  78.7602570  42.4401120
  67.1110740  78.5607780  41.9758710  60.4763640  79.5521940  43.0278310
  59.6448520  79.2970650  43.4274820  61.0844620  79.6232710  43.7636230
  70.4805240  83.6462320  40.9301680  70.0186770  82.8749560  41.2588850
  71.2930790  83.6728390  41.4354130  60.4564900  83.5862030  43.2236330
  60.7592940  82.6959770  43.0446550  61.2008490  84.1432250  42.9958580
  66.7068550  85.9320330  40.5505670  66.0879990  86.3877830  39.9800110
  67.5620330  86.0871790  40.1495370  65.9006800  81.9159320  42.1572710
  65.8315080  80.9749260  41.9961840  66.6626660  82.0060730  42.7295280
  70.7136090  72.2180140  39.3169980  71.5345710  71.7276710  39.3595460
  70.7470170  72.8077800  40.0701820  75.0035640  74.2346890  45.8813610
  74.2987810  74.6228600  45.3628720  75.2693560  74.9297180  46.4834540
  67.5731900  80.8159570  37.9437580  66.9549170  81.2809020  37.3800300
  68.0855150  81.5087050  38.3607090  62.4363660  80.3435440  44.6221180
  62.1033040  80.9704360  45.2642250  62.6130340  80.8697320  43.8422850
  70.9497570  74.1580520  42.0897520  70.2453140  74.4465410  42.6700630
  71.3109730  74.9680630  41.7297080  61.6482760  82.3116240  46.4370360
  62.2656760  82.9867320  46.1554810  60.7875880  82.7204220  46.3457860
  56.9415100  81.5016100  35.3177210  56.5643080  81.9903200  34.5862110
  57.1988170  82.1741380  35.9483740  72.5660350  83.7755650  44.3525000
  71.8823870  84.4454760  44.3441670  73.1054640  83.9736300  43.5869860
  74.0184490  73.6035310  42.4806730  73.0709400  73.6374290  42.6122160
  74.3434480  74.4174260  42.8656090  70.1019090  85.6199780  43.0670180
  70.1146250  85.2162070  42.1992440  69.5494310  86.3947070  42.9631610
  71.3964510  82.3416000  38.1560350  71.2860840  81.3990330  38.2809770
  71.3932760  82.7031640  39.0423110  69.5004530  80.5229620  44.3952790
  69.9173320  80.3089730  43.5606250  70.2244350  80.7802410  44.9661410
  66.9384790  77.9681320  37.5122840  66.0114070  77.9018700  37.7411310
  67.0909610  78.9061450  37.3978080  73.4466630  78.9216840  44.4869030
  72.6185260  78.9909930  44.0119160  74.0417110  79.5071150  44.0184860
  70.9682080  79.5301620  38.0158090  70.3494500  79.1921170  37.3684390
  70.9506530  78.8861380  38.7237280  70.4108640  75.7086160  45.4323900
  69.9979820  76.5339870  45.6863890  69.6784590  75.1231200  45.2400260
  62.5441430  78.4946060  40.2942570  62.1398430  77.7823310  39.7988470
  62.6304550  78.1499300  41.1830610  63.0123130  82.1813620  42.4581780
  62.7151420  81.5759090  41.7789560  63.9622950  82.2190930  42.3471140
  71.1008740  85.7545490  46.1204880  70.6239300  86.5617680  45.9277490
  70.4170530  85.1023820  46.2731090  62.1041560  81.9195310  49.1089580
  61.2070090  82.1435280  49.3562980  62.1294430  82.0430250  48.1600980
  69.1446780  78.7688430  35.0230840  69.5840060  77.9310860  34.8768660
  69.8575200  79.4017830  35.1094980  67.2542160  83.7084500  38.9912080
  67.6938070  84.4508830  38.5767470  67.1929050  83.9511070  39.9151040
  62.7293130  84.7330330  49.8932100  62.7008560  85.1373280  49.0260530
  62.5658100  83.8040690  49.7303700  72.7263920  70.0231240  33.3371880
  72.4136580  70.1158070  34.2370950  73.4876390  70.6012270  33.2869310
  74.6807950  85.5157430  51.1896270  75.1567670  85.9940320  51.8685350
  75.3015110  85.4474920  50.4641770  56.8831430  80.5606180  43.6017860
  56.9611850  80.6954950  42.6573580  57.4973110  79.8522070  43.7945980
  58.1279060  82.2606370  40.0124040  57.7207140  82.4020960  39.1577640
  59.0192070  81.9766530  39.8095250  74.0841200  82.7070280  48.3496280
  74.2104260  82.4682160  47.4313460  74.1262580  81.8754820  48.8218360
  67.9457940  86.4098280  46.9191090  68.4602610  86.3206290  47.7213520
  67.1027020  86.7557980  47.2119000  69.9212340  86.6953620  36.3475090
  69.7613480  86.4056560  37.2456920  69.7559050  85.9193750  35.8120320
  62.4000720  86.4752150  38.1246710  62.2243200  85.5587690  37.9114510
  61.5456460  86.8339440  38.3644510  69.6238470  84.2041180  34.9073090
  68.9303630  84.2018470  34.2475370  70.3661330  83.7800500  34.4767260
  69.1888400  85.8303890  38.9821580  69.6445350  85.0493270  39.2960200
  69.5280920  86.5410710  39.5262760  73.9365210  74.7602740  49.3146020
  73.3209480  75.2682410  48.7861480  73.6161630  73.8601070  49.2571960
  56.9390950  81.6020350  46.1412320  57.1021990  81.1325710  45.3231690
  57.4043400  81.0943910  46.8061160  70.9984040  74.8203580  47.9104870
  70.1477630  74.5209330  48.2313940  70.8385830  75.0645590  46.9988690
  68.0933750  76.3205330  50.0103660  68.4187160  75.4869080  49.6705890
  68.8814080  76.8433850  50.1581990  68.7321700  75.8623050  37.5044790
  68.1330590  76.5858850  37.3208410  69.2801310  75.7999830  36.7221240
  67.9241710  77.0892340  43.6298850  67.1922830  77.5979150  43.9788950
  67.5266050  76.2722320  43.3287630  71.8138370  69.9558200  48.8808170
  72.1384140  69.2247860  49.4066150  71.8494880  69.6371840  47.9789160
  58.5129930  80.9771780  48.3008130  58.1284720  80.3365450  48.8991090
  58.8242120  81.6807900  48.8702860  64.6627070  77.8248320  43.7816750
  65.0297200  77.3506890  44.5278090  64.4732130  78.6989890  44.1225090
  60.9808230  81.0717950  36.6967810  60.2070490  80.5315570  36.5366530
  61.7102860  80.5524560  36.3585570  71.7396210  80.0683310  42.4894200
  72.4595330  80.5638600  42.0990310  71.5378030  79.3901200  41.8448070
  67.1215010  80.1392370  48.3763200  67.0552320  79.2188040  48.1220790
  66.4920150  80.2367810  49.0907840  69.9154540  75.8340920  34.9285750
  70.8034160  76.1458150  34.7537090  69.8859630  74.9613170  34.5366330
  61.0245630  80.7398330  40.3346620  61.5424300  79.9366590  40.2803510
  60.5729650  80.6777470  41.1763450  65.9115130  82.0064610  35.6073920
  66.2530830  82.7506840  35.1117240  65.0827840  82.3195730  35.9698750
  67.0531740  82.9612940  48.1267000  67.0676280  82.0293900  47.9085910
  66.3456840  83.0472700  48.7656770  72.1868810  77.1452760  34.3965610
  72.1032530  77.5766980  33.5462050  72.9063000  77.6051110  34.8292430
  73.2642950  79.6020280  47.4735580  72.5391140  80.1949060  47.2764970
  73.7918410  79.5943820  46.6748950  73.2156060  83.9995020  37.1247740
  72.5732220  83.3450640  37.3991460  72.8286720  84.4050110  36.3488410
  68.7942540  81.3280450  40.9719430  69.1466360  80.7308580  40.3120800
  67.9104870  81.0024680  41.1427680  64.8805820  82.0878140  38.3789840
  65.5676950  82.6347350  38.7597430  64.0938240  82.6318870  38.4139450
  64.1833030  79.0924170  37.9915200  64.6395810  79.9029420  38.2175390
  63.8321240  78.7747310  38.8233690  66.4865640  84.6030510  45.2207500
  67.1307860  84.8089890  45.8980920  66.8495080  83.8418910  44.7678350
  67.7597720  82.6062860  43.9384950  68.4019950  81.9056020  44.0517120
  68.2847070  83.3861300  43.7581840  71.6053440  82.8911480  33.6624090
  71.3791020  82.1741920  34.2548730  71.2149640  82.6423920  32.8245840
  69.5335340  83.4057760  47.1421010  69.8691580  83.9924450  47.8198930
  68.6135680  83.2750470  47.3718800  57.3869470  86.9178340  34.4368550
  57.7467110  87.5167680  33.7825820  57.2461810  87.4638230  35.2103580
  71.1869690  80.8083420  35.3238250  70.8991390  81.2696110  36.1116130
  71.9821860  80.3481190  35.5922470  57.3711330  85.1833200  48.9110950
  57.4802450  84.2427940  48.7706340  56.7191890  85.4487950  48.2624680
  65.3623920  83.4549090  50.3109070  65.0420790  82.7358330  50.8554760
  64.6882280  84.1304160  50.3845130  63.4038090  84.3009540  35.2542220
  63.3948190  85.0339230  34.6386730  62.4836450  84.0541120  35.3469180
  68.5777520  73.6875250  45.6745870  68.9458340  72.8670460  46.0025440
  67.7175720  73.7477140  46.0901520  71.9439550  72.6432190  36.4833430
  71.3152710  72.7477860  35.7691660  71.4491470  72.8628970  37.2727310
  66.3897690  84.3637780  33.9167410  66.4909670  84.1601770  32.9869390
  65.4899430  84.1096060  34.1215190  65.0315800  86.8824100  38.6115080
  65.2857300  86.8445490  37.6894450  64.0828280  86.7557430  38.6043330
  72.7446370  72.5582800  46.7412230  72.2419970  73.2988200  47.0806040
  73.5603030  72.9466800  46.4249020  71.0368380  77.8015980  40.1873590
  70.0958520  77.8166210  40.3621280  71.3512450  77.0151940  40.6333890
  61.0150020  79.4835580  33.7477550  61.7813290  79.3716940  34.3102980
  61.0924710  78.7873550  33.0954320  73.0393960  84.9724830  41.8627850
  73.1641380  85.7956000  42.3351660  73.9059520  84.7615560  41.5152000
  60.5111490  87.0656040  41.5344980  61.2473970  86.5171500  41.8053550
  60.8952410  87.9312050  41.3950970  57.3956970  83.1329610  37.4086490
  56.4696750  83.3750750  37.3991900  57.8613400  83.9603870  37.2871240
  59.5169770  86.2502110  50.7230560  60.3182500  86.5714160  51.1365960
  59.0021590  85.8897690  51.4450470  63.6213800  86.2386350  33.3570550
  64.4142410  86.5275180  32.9052340  63.1018150  85.8078520  32.6783030
  68.3534400  82.3581980  50.6705970  67.7472560  82.3813580  49.9301720
  68.0488510  81.6265020  51.2073220  69.7834770  86.0862270  49.2815380
  70.7356520  86.0020290  49.2315620  69.6362990  86.7503980  49.9549170
  72.6743970  85.4656480  34.7807290  72.3885480  85.0521620  33.9661470
  72.4763520  86.3944190  34.6607810  64.1391200  81.4589760  33.2212900
  64.0341840  80.8442110  33.9474280  63.9715420  80.9355650  32.4375910
  64.2905520  80.1446560  49.2002130  63.5251190  80.7131560  49.1156800
  64.4721480  79.8522770  48.3070360  67.3793930  80.5209790  33.8254890
  66.8304030  80.9679090  34.4697630  68.0013190  80.0159040  34.3492560
  71.4328870  81.8751890  49.7577150  72.1738340  82.2127650  49.2544610
  70.6701550  82.0443950  49.2046920  63.0469050  79.4800710  35.7220190
  63.4685470  79.3140580  36.5651580  63.1719890  78.6700940  35.2275330
  65.5596690  78.5038320  32.9697290  66.0802350  77.7887340  32.6038440
  66.2065090  79.1424190  33.2697800  70.1074530  79.9266720  48.2932360
  70.5215550  80.0811800  49.1422780  69.1725530  80.0521940  48.4558140
  70.5796700  77.2662880  50.2971510  71.1617470  76.5115200  50.2091990
  70.7558470  77.7970320  49.5202990  64.8689760  79.8787200  46.2628290
  65.2877870  80.7219930  46.0904530  63.9498390  80.0159240  46.0335070
  67.2053660  77.6103380  47.6466130  67.3249870  77.0144520  48.3860970
  68.0647660  77.6473070  47.2267430  69.5441560  78.1640570  46.2228640
  69.0176780  78.6883190  45.6193780  69.8872900  78.7967960  46.8538370
  62.7197180  86.1840210  47.3786020  62.1818270  86.9086270  47.0594720
  62.9731140  85.7070550  46.5883360  68.7915860  73.7690540  49.1374970
  68.1031380  73.1072080  49.0724960  69.5121880  73.3228810  49.5823430
  65.5759390  87.4191420  47.6372670  65.5018090  88.3226560  47.9445040
  64.6738230  87.1003320  47.6094740  66.1244720  86.5849930  35.2599030
  67.0195510  86.9234900  35.2817790  66.1562350  85.8629340  34.6323310
  59.7640880  81.9576980  33.4886030  60.2015750  82.5006650  34.1443610
  60.2488610  81.1323930  33.4982370  56.9786680  84.7466010  40.9406290
  57.3089690  83.8787070  40.7084930  57.4077680  84.9524530  41.7711250
  61.5748600  83.0775020  38.6008260  61.2744140  82.9539990  39.5012170
  61.4686090  82.2183610  38.1923990  57.4676890  85.6136600  43.6787920
  57.0307880  85.7937400  44.5112070  58.0354570  86.3711220  43.5369640
  73.1039070  85.1153600  47.9665230  72.5041060  85.1746160  47.2229150
  73.2332970  84.1758580  48.0962080  74.3440520  82.8571420  33.3034940
  73.5133480  82.9248070  33.7742170  74.5212350  83.7475540  33.0001800
  73.7996980  79.6018900  35.8069140  74.5615890  80.1715550  35.9128830
  73.8151350  79.0346100  36.5777450  74.8056950  80.4569000  40.6511070
  75.1765780  79.6736320  40.2447040  75.4458880  81.1458100  40.4728370
  71.7890710  81.8405580  46.0641390  70.9750550  82.2702740  46.3267180
  72.1964910  82.4523990  45.4510440  73.8516150  79.8953270  32.9641660
  74.1264990  80.8032150  32.8360880  73.6626890  79.8315800  33.9003650
  70.2491760  72.9198120  34.2595290  70.6676640  72.7329100  33.4191950
  69.9427820  72.0677170  34.5698220  73.7481490  77.8322260  37.9571090
  73.3725090  77.0650190  37.5252380  73.0184610  78.2144960  38.4446020
  73.1381110  76.9793780  47.5910610  72.9067200  76.7506530  46.6908560
  73.3985660  77.8993330  47.5455500  71.5769180  72.2050210  50.3690310
  72.4539360  72.2133610  50.7524310  71.5890020  71.4681050  49.7582660
  73.0232450  76.0579750  41.2578330  73.5469930  75.5642400  40.6268500
  73.6091870  76.1930110  42.0025900  73.2022170  76.1419620  44.7797880
  72.2524880  76.1083160  44.8942870  73.3835180  77.0519730  44.5447650
  72.5132420  75.3153100  37.1970740  73.0091540  75.0823970  37.9819620
  72.3148490  74.4764940  36.7808380  73.9419580  73.9514050  39.7308420
  73.8318860  73.7970090  40.6690690  74.7027170  73.4234990  39.4883830
  72.2885300  69.8908180  46.1891420  72.9257520  70.5042320  46.5550610
  72.4360190  69.9268840  45.2440650  74.8309850  71.7821970  32.9714560
  75.7559160  71.6503150  32.7632850  74.8085640  71.8614790  33.9251010
  74.9048340  72.5532630  35.5971270  74.1099840  72.4877750  36.1264180
  75.1091620  73.4883270  35.5856620  71.8466760  86.5924180  39.5909660
  72.4425830  86.2708750  38.9144080  72.1044910  86.1196000  40.3822930
  59.7529330  83.0242090  49.7400290  59.7098960  82.6535000  50.6214750
  59.8840340  83.9619660  49.8802110  63.4535360  84.5801680  45.3410010
  63.2126720  84.8476240  44.4540530  64.3938000  84.7507410  45.3960870
  74.7139520  86.5996060  46.1420650  74.2197800  86.9964930  45.4247780
  74.1052810  85.9745270  46.5357930  59.5917360  85.9704340  46.8598070
  58.9977680  85.8389040  47.5988110  59.5841200  85.1342480  46.3940170
  69.9444360  71.4707440  46.4469820  69.6157720  70.6559200  46.0671550
  70.8926660  71.4277250  46.3235510  72.3978970  87.2419480  43.4207390
  71.9381940  87.9935290  43.0465410  71.7691430  86.5225950  43.3622190
  59.2229590  83.3362720  45.8106110  58.4963650  82.7168010  45.7432060
  59.2838740  83.7303330  44.9404190  62.8274690  85.5507720  42.5955520
  63.3439710  84.9395080  42.0703780  63.4772070  86.0536500  43.0866530
  65.5670190  86.4416210  43.4224500  65.8548000  86.1870510  42.5457510
  66.0793410  85.8893570  44.0130070  71.3368270  70.8829510  42.0470100
  71.7776360  70.8274610  41.1991700  71.0675860  71.7987520  42.1180280
  73.2006840  70.5144750  40.0578920  73.1395240  69.5705970  39.9109940
  73.9798870  70.6224840  40.6032380  57.5059590  86.6537110  39.0202870
  57.3381630  86.0207790  39.7184760  56.6394100  86.8596510  38.6697060
  72.3161000  69.6657170  36.0260390  72.5111630  70.5640620  36.2927820
  71.5290870  69.4344250  36.5193340  59.1122290  85.3470340  36.4653010
  58.5869910  85.7278370  35.7614970  59.0366870  85.9721110  37.1862720
  65.6342550  87.3632310  50.7892700  66.5609860  87.1276580  50.8328660
  65.6192980  88.1904310  50.3078730  73.8687610  86.9057880  37.7866950
  74.0439800  86.2195620  37.1427870  73.1709180  87.4304930  37.3943620
  61.7115260  87.2952720  35.3402260  62.4434080  87.0112000  34.7926150
  61.9708930  87.0566000  36.2301640  60.8730050  83.4117450  35.3448590
  60.2438930  83.8802550  35.8934420  60.9877880  82.5666670  35.7794780
  72.2020110  86.5902170  50.6133740  72.9945430  86.0951400  50.4059700
  72.4953260  87.2692310  51.2209350  68.3279770  77.4623110  21.4949790
  68.2473820  76.5477720  21.2241500  67.9144190  77.9590180  20.7889500
  66.4597810  79.2402130  23.3759060  65.6839910  78.7602570  23.6657630
  67.1110740  78.5607780  23.2015220  60.4763640  79.5521940  24.2534820
  59.6448520  79.2970650  24.6531330  61.0844620  79.6232710  24.9892740
  70.4805240  83.6462320  22.1558190  70.0186770  82.8749560  22.4845360
  71.2930790  83.6728390  22.6610640  60.4564900  83.5862030  24.4492840
  60.7592940  82.6959770  24.2703060  61.2008490  84.1432250  24.2215090
  58.8855590  74.5123830  18.0377210  57.9972290  74.8539800  17.9357090
  59.1696780  74.3124150  17.1458040  56.8488600  77.1129480  23.9216910
  57.4204710  76.3451680  23.9220550  56.8490140  77.4118240  23.0123520
  66.7068550  85.9320330  21.7762180  66.0879990  86.3877830  21.2056620
  67.5620330  86.0871790  21.3751880  65.9006800  81.9159320  23.3829220
  65.8315080  80.9749260  23.2218350  66.6626660  82.0060730  23.9551790
  66.9311970  74.7229700  23.6098150  67.3076790  73.8501580  23.4971820
  66.8331480  75.0588400  22.7188590  61.0616980  73.0955330  19.0715590
  61.1683730  73.9959060  19.3784350  60.1509340  73.0473300  18.7810240
  70.7136090  72.2180140  20.5426490  71.5345710  71.7276710  20.5851970
  70.7470170  72.8077800  21.2958330  62.9024710  76.0641700  23.4040770
  63.4102930  76.5622670  24.0445790  63.4337950  75.2876900  23.2280130
  75.0035640  74.2346890  27.1070120  74.2987810  74.6228600  26.5885230
  75.2693560  74.9297180  27.7091050  67.5731900  80.8159570  19.1694090
  66.9549170  81.2809020  18.6056810  68.0855150  81.5087050  19.5863600
  62.4363660  80.3435440  25.8477690  62.1033040  80.9704360  26.4898760
  62.6130340  80.8697320  25.0679360  70.9497570  74.1580520  23.3154030
  70.2453140  74.4465410  23.8957140  71.3109730  74.9680630  22.9553590
  61.6482760  82.3116240  27.6626870  62.2656760  82.9867320  27.3811320
  60.7875880  82.7204220  27.5714370  56.9415100  81.5016100  16.5433720
  56.5643080  81.9903200  15.8118620  57.1988170  82.1741380  17.1740250
  72.5660350  83.7755650  25.5781510  71.8823870  84.4454760  25.5698180
  73.1054640  83.9736300  24.8126370  74.0184490  73.6035310  23.7063240
  73.0709400  73.6374290  23.8378670  74.3434480  74.4174260  24.0912600
  64.5504030  69.9032490  22.0019230  64.8579010  69.3479380  21.2854730
  63.6204730  70.0376950  21.8192220  70.1019090  85.6199780  24.2926690
  70.1146250  85.2162070  23.4248950  69.5494310  86.3947070  24.1888120
  71.3964510  82.3416000  19.3816860  71.2860840  81.3990330  19.5066280
  71.3932760  82.7031640  20.2679620  69.5004530  80.5229620  25.6209300
  69.9173320  80.3089730  24.7862760  70.2244350  80.7802410  26.1917920
  66.9384790  77.9681320  18.7379350  66.0114070  77.9018700  18.9667820
  67.0909610  78.9061450  18.6234590  66.9253870  74.2398320  15.7346510
  65.9857540  74.4012280  15.8198970  67.2437130  74.9584000  15.1882500
  73.4466630  78.9216840  25.7125540  72.6185260  78.9909930  25.2375670
  74.0417110  79.5071150  25.2441370  70.9682080  79.5301620  19.2414600
  70.3494500  79.1921170  18.5940900  70.9506530  78.8861380  19.9493790
  70.4108640  75.7086160  26.6580410  69.9979820  76.5339870  26.9120400
  69.6784590  75.1231200  26.4656770  62.5441430  78.4946060  21.5199080
  62.1398430  77.7823310  21.0244980  62.6304550  78.1499300  22.4087120
  63.0123130  82.1813620  23.6838290  62.7151420  81.5759090  23.0046070
  63.9622950  82.2190930  23.5727650  71.1008740  85.7545490  27.3461390
  70.6239300  86.5617680  27.1534000  70.4170530  85.1023820  27.4987600
  62.1041560  81.9195310  30.3346090  61.2070090  82.1435280  30.5819490
  62.1294430  82.0430250  29.3857490  69.1446780  78.7688430  16.2487350
  69.5840060  77.9310860  16.1025170  69.8575200  79.4017830  16.3351490
  60.9312780  78.7908630  28.9103460  60.7920550  79.6631430  29.2790860
  60.0494140  78.4481440  28.7651400  67.2542160  83.7084500  20.2168590
  67.6938070  84.4508830  19.8023980  67.1929050  83.9511070  21.1407550
  62.7293130  84.7330330  31.1188610  62.7008560  85.1373280  30.2517040
  62.5658100  83.8040690  30.9560210  72.7263920  70.0231240  14.5628390
  72.4136580  70.1158070  15.4627460  73.4876390  70.6012270  14.5125820
  59.2446060  77.3891040  19.0205730  59.1243660  78.1153130  18.4087000
  58.9346950  76.6193950  18.5433640  74.6807950  85.5157430  32.4152780
  75.1567670  85.9940320  33.0941860  75.3015110  85.4474920  31.6898280
  56.8831430  80.5606180  24.8274370  56.9611850  80.6954950  23.8830090
  57.4973110  79.8522070  25.0202490  58.1279060  82.2606370  21.2380550
  57.7207140  82.4020960  20.3834150  59.0192070  81.9766530  21.0351760
  74.0841200  82.7070280  29.5752790  74.2104260  82.4682160  28.6569970
  74.1262580  81.8754820  30.0474870  67.9457940  86.4098280  28.1447600
  68.4602610  86.3206290  28.9470030  67.1027020  86.7557980  28.4375510
  69.9212340  86.6953620  17.5731600  69.7613480  86.4056560  18.4713430
  69.7559050  85.9193750  17.0376830  62.4000720  86.4752150  19.3503220
  62.2243200  85.5587690  19.1371020  61.5456460  86.8339440  19.5901020
  69.6238470  84.2041180  16.1329600  68.9303630  84.2018470  15.4731880
  70.3661330  83.7800500  15.7023770  69.1888400  85.8303890  20.2078090
  69.6445350  85.0493270  20.5216710  69.5280920  86.5410710  20.7519270
  73.9365210  74.7602740  30.5402530  73.3209480  75.2682410  30.0117990
  73.6161630  73.8601070  30.4828470  56.9390950  81.6020350  27.3668830
  57.1021990  81.1325710  26.5488200  57.4043400  81.0943910  28.0317670
  61.7109720  70.7326110  22.4029400  61.2677870  71.5135650  22.0713920
  62.2694710  71.0556000  23.1100340  70.9984040  74.8203580  29.1361380
  70.1477630  74.5209330  29.4570450  70.8385830  75.0645590  28.2245200
  68.0933750  76.3205330  31.2360170  68.4187160  75.4869080  30.8962400
  68.8814080  76.8433850  31.3838500  64.8268540  70.3536810  17.2835230
  64.2022720  70.3496680  18.0088540  64.7398660  69.4867770  16.8871200
  63.7485620  71.2773440  24.2619000  64.0457950  72.1836270  24.1811020
  64.2971180  70.7892220  23.6478570  61.5023940  75.8559680  20.1310650
  61.2764860  75.6396850  21.0357270  60.7216470  76.2888140  19.7856620
  68.7321700  75.8623050  18.7301300  68.1330590  76.5858850  18.5464920
  69.2801310  75.7999830  17.9477750  67.3386570  74.4986590  20.7604580
  67.7316140  74.8158790  19.9473270  67.7003420  73.6198470  20.8749100
  56.3750740  71.0887390  22.9834780  56.0863790  71.6590250  23.6959760
  57.1196500  70.6091840  23.3466010  56.5620970  75.0307510  14.1937500
  56.4795640  75.9738270  14.3352490  56.2104030  74.8882420  13.3149850
  67.9241710  77.0892340  24.8555360  67.1922830  77.5979150  25.2045460
  67.5266050  76.2722320  24.5544140  64.3619100  73.7646540  23.2607850
  64.3655160  73.3236490  22.4112390  65.2570220  74.0863870  23.3679670
  60.2121480  73.6473030  22.2202060  59.8721530  74.1248260  22.9769110
  59.4498800  73.1938150  21.8603160  64.4239250  74.7658620  16.2514610
  64.5452070  74.7245100  17.2000430  64.0387760  75.6282770  16.0961340
  68.3867620  72.5426020  24.2678300  68.4040360  72.9934670  25.1120150
  68.1383200  71.6431660  24.4811740  63.4360750  77.0759760  15.6497910
  62.8677650  76.6278010  15.0233820  64.1449750  77.4352540  15.1163060
  71.8138370  69.9558200  30.1064680  72.1384140  69.2247860  30.6322660
  71.8494880  69.6371840  29.2045670  58.5129930  80.9771780  29.5264640
  58.1284720  80.3365450  30.1247600  58.8242120  81.6807900  30.0959370
  64.6627070  77.8248320  25.0073260  65.0297200  77.3506890  25.7534600
  64.4732130  78.6989890  25.3481600  57.5267560  72.5692010  21.1366730
  57.2414480  72.2047680  21.9745350  57.4646420  71.8372470  20.5229870
  60.9808230  81.0717950  17.9224320  60.2070490  80.5315570  17.7623040
  61.7102860  80.5524560  17.5842080  71.7396210  80.0683310  23.7150710
  72.4595330  80.5638600  23.3246820  71.5378030  79.3901200  23.0704580
  67.2006150  71.4621270  17.8580100  66.3870760  70.9634440  17.7825410
  67.0068100  72.3019520  17.4416450  67.1215010  80.1392370  29.6019710
  67.0552320  79.2188040  29.3477300  66.4920150  80.2367810  30.3164350
  69.9154540  75.8340920  16.1542260  70.8034160  76.1458150  15.9793600
  69.8859630  74.9613170  15.7622840  61.0245630  80.7398330  21.5603130
  61.5424300  79.9366590  21.5060020  60.5729650  80.6777470  22.4019960
  65.9115130  82.0064610  16.8330430  66.2530830  82.7506840  16.3373750
  65.0827840  82.3195730  17.1955260  61.7103290  78.1643940  31.3568380
  61.4103430  78.3101120  30.4596200  62.4814530  77.6049230  31.2641770
  67.0531740  82.9612940  29.3523510  67.0676280  82.0293900  29.1342420
  66.3456840  83.0472700  29.9913280  72.1868810  77.1452760  15.6222120
  72.1032530  77.5766980  14.7718560  72.9063000  77.6051110  16.0548940
  73.2642950  79.6020280  28.6992090  72.5391140  80.1949060  28.5021480
  73.7918410  79.5943820  27.9005460  73.2156060  83.9995020  18.3504250
  72.5732220  83.3450640  18.6247970  72.8286720  84.4050110  17.5744920
  68.7942540  81.3280450  22.1975940  69.1466360  80.7308580  21.5377310
  67.9104870  81.0024680  22.3684190  64.8805820  82.0878140  19.6046350
  65.5676950  82.6347350  19.9853940  64.0938240  82.6318870  19.6395960
  57.0198220  77.7050960  15.0963430  57.8893070  77.9875760  15.3799350
  56.5288540  78.5186830  14.9812240  64.1833030  79.0924170  19.2171710
  64.6395810  79.9029420  19.4431900  63.8321240  78.7747310  20.0490200
  66.4865640  84.6030510  26.4464010  67.1307860  84.8089890  27.1237430
  66.8495080  83.8418910  25.9934860  60.0844810  69.4361820  19.6894230
  59.9559440  69.4279720  20.6379150  59.2606830  69.7744910  19.3385240
  67.7597720  82.6062860  25.1641460  68.4019950  81.9056020  25.2773630
  68.2847070  83.3861300  24.9838350  71.6053440  82.8911480  14.8880600
  71.3791020  82.1741920  15.4805240  71.2149640  82.6423920  14.0502350
  69.5335340  83.4057760  28.3677520  69.8691580  83.9924450  29.0455440
  68.6135680  83.2750470  28.5975310  57.3869470  86.9178340  15.6625060
  57.7467110  87.5167680  15.0082330  57.2461810  87.4638230  16.4360090
  71.1869690  80.8083420  16.5494760  70.8991390  81.2696110  17.3372640
  71.9821860  80.3481190  16.8178980  57.3711330  85.1833200  30.1367460
  57.4802450  84.2427940  29.9962850  56.7191890  85.4487950  29.4881190
  65.3623920  83.4549090  31.5365580  65.0420790  82.7358330  32.0811270
  64.6882280  84.1304160  31.6101640  63.4038090  84.3009540  16.4798730
  63.3948190  85.0339230  15.8643240  62.4836450  84.0541120  16.5725690
  59.0044730  79.5224430  17.2245490  58.3972680  80.2623330  17.2340790
  59.4794080  79.6123790  16.3983690  71.9439550  72.6432190  17.7089940
  71.3152710  72.7477860  16.9948170  71.4491470  72.8628970  18.4983820
  66.3897690  84.3637780  15.1423920  66.4909670  84.1601770  14.2125900
  65.4899430  84.1096060  15.3471700  63.9123580  74.9218140  19.1247820
  63.2039730  75.3904480  19.5661430  64.1968060  74.2640150  19.7593010
  67.9439010  71.6468800  20.5643610  67.8206790  71.6654930  19.6153120
  68.8923570  71.6947740  20.6842010  65.0315800  86.8824100  19.8371590
  65.2857300  86.8445490  18.9150960  64.0828280  86.7557430  19.8299840
  62.1158600  73.2303220  16.4998530  62.9649130  73.6673370  16.4338720
  61.7489870  73.5423480  17.3270590  72.7446370  72.5582800  27.9668740
  72.2419970  73.2988200  28.3062550  73.5603030  72.9466800  27.6505530
  71.0368380  77.8015980  21.4130100  70.0958520  77.8166210  21.5877790
  71.3512450  77.0151940  21.8590400  61.0150020  79.4835580  14.9734060
  61.7813290  79.3716940  15.5359490  61.0924710  78.7873550  14.3210830
  59.7096780  76.9160650  15.6566950  59.7900370  75.9688160  15.7684350
  60.6016530  77.2467530  15.7627610  73.0393960  84.9724830  23.0884360
  73.1641380  85.7956000  23.5608170  73.9059520  84.7615560  22.7408510
  60.5111490  87.0656040  22.7601490  61.2473970  86.5171500  23.0310060
  60.8952410  87.9312050  22.6207480  57.3956970  83.1329610  18.6343000
  56.4696750  83.3750750  18.6248410  57.8613400  83.9603870  18.5127750
  59.5169770  86.2502110  31.9487070  60.3182500  86.5714160  32.3622470
  59.0021590  85.8897690  32.6706980  63.6213800  86.2386350  14.5827060
  64.4142410  86.5275180  14.1308850  63.1018150  85.8078520  13.9039540
  68.3534400  82.3581980  31.8962480  67.7472560  82.3813580  31.1558230
  68.0488510  81.6265020  32.4329730  69.7834770  86.0862270  30.5071890
  70.7356520  86.0020290  30.4572130  69.6362990  86.7503980  31.1805680
  72.6743970  85.4656480  16.0063800  72.3885480  85.0521620  15.1917980
  72.4763520  86.3944190  15.8864320  64.1391200  81.4589760  14.4469410
  64.0341840  80.8442110  15.1730790  63.9715420  80.9355650  13.6632420
  64.2905520  80.1446560  30.4258640  63.5251190  80.7131560  30.3413310
  64.4721480  79.8522770  29.5326870  67.3793930  80.5209790  15.0511400
  66.8304030  80.9679090  15.6954140  68.0013190  80.0159040  15.5749070
  71.4328870  81.8751890  30.9833660  72.1738340  82.2127650  30.4801120
  70.6701550  82.0443950  30.4303430  63.0469050  79.4800710  16.9476700
  63.4685470  79.3140580  17.7908090  63.1719890  78.6700940  16.4531840
  65.5596690  78.5038320  14.1953800  66.0802350  77.7887340  13.8294950
  66.2065090  79.1424190  14.4954310  70.1074530  79.9266720  29.5188870
  70.5215550  80.0811800  30.3679290  69.1725530  80.0521940  29.6814650
  70.5796700  77.2662880  31.5228020  71.1617470  76.5115200  31.4348500
  70.7558470  77.7970320  30.7459500  64.8689760  79.8787200  27.4884800
  65.2877870  80.7219930  27.3161040  63.9498390  80.0159240  27.2591580
  67.2053660  77.6103380  28.8722640  67.3249870  77.0144520  29.6117480
  68.0647660  77.6473070  28.4523940  69.5441560  78.1640570  27.4485150
  69.0176780  78.6883190  26.8450290  69.8872900  78.7967960  28.0794880
  61.9427950  75.5533940  13.8934860  61.7417010  74.6901300  14.2548200
  61.7720000  75.4667300  12.9556460  62.7197180  86.1840210  28.6042530
  62.1818270  86.9086270  28.2851230  62.9731140  85.7070550  27.8139870
  68.7915860  73.7690540  30.3631480  68.1031380  73.1072080  30.2981470
  69.5121880  73.3228810  30.8079940  69.4216260  70.3642170  16.4221740
  69.7018550  69.5210070  16.7781160  68.6481990  70.5965280  16.9360490
  60.7410750  72.6534560  13.8812740  61.0436650  72.6601990  12.9731890
  61.4805340  72.3032420  14.3780400  65.5759390  87.4191420  28.8629180
  65.5018090  88.3226560  29.1701550  64.6738230  87.1003320  28.8351250
  63.9595680  71.5969180  14.8668940  63.6117680  70.9193170  14.2871390
  64.1608450  71.1358690  15.6812330  66.1244720  86.5849930  16.4855540
  67.0195510  86.9234900  16.5074300  66.1562350  85.8629340  15.8579820
  59.7640880  81.9576980  14.7142540  60.2015750  82.5006650  15.3700120
  60.2488610  81.1323930  14.7238880  56.9786680  84.7466010  22.1662800
  57.3089690  83.8787070  21.9341440  57.4077680  84.9524530  22.9967760
  61.5748600  83.0775020  19.8264770  61.2744140  82.9539990  20.7268680
  61.4686090  82.2183610  19.4180500  57.4676890  85.6136600  24.9044430
  57.0307880  85.7937400  25.7368580  58.0354570  86.3711220  24.7626150
  73.1039070  85.1153600  29.1921740  72.5041060  85.1746160  28.4485660
  73.2332970  84.1758580  29.3218590  74.3440520  82.8571420  14.5291450
  73.5133480  82.9248070  14.9998680  74.5212350  83.7475540  14.2258310
  73.7996980  79.6018900  17.0325650  74.5615890  80.1715550  17.1385340
  73.8151350  79.0346100  17.8033960  57.3001320  78.1256830  21.2633310
  56.6450160  77.8568470  20.6193010  58.1379270  78.0161310  20.8135290
  74.8056950  80.4569000  21.8767580  75.1765780  79.6736320  21.4703550
  75.4458880  81.1458100  21.6984880  71.7890710  81.8405580  27.2897900
  70.9750550  82.2702740  27.5523690  72.1964910  82.4523990  26.6766950
  73.8516150  79.8953270  14.1898170  74.1264990  80.8032150  14.0617390
  73.6626890  79.8315800  15.1260160  70.2491760  72.9198120  15.4851800
  70.6676640  72.7329100  14.6448460  69.9427820  72.0677170  15.7954730
  73.7481490  77.8322260  19.1827600  73.3725090  77.0650190  18.7508890
  73.0184610  78.2144960  19.6702530  73.1381110  76.9793780  28.8167120
  72.9067200  76.7506530  27.9165070  73.3985660  77.8993330  28.7712010
  71.5769180  72.2050210  31.5946820  72.4539360  72.2133610  31.9780820
  71.5890020  71.4681050  30.9839170  56.5139400  75.3355760  17.2058640
  55.6103480  75.5985960  17.0310300  56.9980020  75.6066930  16.4258600
  73.0232450  76.0579750  22.4834840  73.5469930  75.5642400  21.8525010
  73.6091870  76.1930110  23.2282410  73.2022170  76.1419620  26.0054390
  72.2524880  76.1083160  26.1199380  73.3835180  77.0519730  25.7704160
  59.0566610  74.3921300  15.1153020  59.7658310  73.9704520  14.6300300
  58.3406550  74.4596530  14.4836370  58.7040770  70.4460630  14.1555670
  59.4268900  70.9869570  14.4736890  58.9765290  70.1724050  13.2797210
  72.5132420  75.3153100  18.4227250  73.0091540  75.0823970  19.2076130
  72.3148490  74.4764940  18.0064890  73.9419580  73.9514050  20.9564930
  73.8318860  73.7970090  21.8947200  74.7027170  73.4234990  20.7140340
  72.2885300  69.8908180  27.4147930  72.9257520  70.5042320  27.7807120
  72.4360190  69.9268840  26.4697160  74.8309850  71.7821970  14.1971070
  75.7559160  71.6503150  13.9889360  74.8085640  71.8614790  15.1507520
  74.9048340  72.5532630  16.8227780  74.1099840  72.4877750  17.3520690
  75.1091620  73.4883270  16.8113130  71.8466760  86.5924180  20.8166170
  72.4425830  86.2708750  20.1400590  72.1044910  86.1196000  21.6079440
  59.7529330  83.0242090  30.9656800  59.7098960  82.6535000  31.8471260
  59.8840340  83.9619660  31.1058620  63.4535360  84.5801680  26.5666520
  63.2126720  84.8476240  25.6797040  64.3938000  84.7507410  26.6217380
  74.7139520  86.5996060  27.3677160  74.2197800  86.9964930  26.6504290
  74.1052810  85.9745270  27.7614440  59.5917360  85.9704340  28.0854580
  58.9977680  85.8389040  28.8244620  59.5841200  85.1342480  27.6196680
  69.0372380  69.2636570  26.2884610  68.1632220  69.5971680  26.0857540
  68.9283130  68.7909750  27.1136480  69.9444360  71.4707440  27.6726330
  69.6157720  70.6559200  27.2928060  70.8926660  71.4277250  27.5492020
  72.3978970  87.2419480  24.6463900  71.9381940  87.9935290  24.2721920
  71.7691430  86.5225950  24.5878700  59.2229590  83.3362720  27.0362620
  58.4963650  82.7168010  26.9688570  59.2838740  83.7303330  26.1660700
  62.8274690  85.5507720  23.8212030  63.3439710  84.9395080  23.2960290
  63.4772070  86.0536500  24.3123040  65.5670190  86.4416210  24.6481010
  65.8548000  86.1870510  23.7714020  66.0793410  85.8893570  25.2386580
  66.7847200  70.1806410  25.2277520  66.0018990  70.6551910  25.5074280
  66.4910130  69.2761240  25.1190700  71.3368270  70.8829510  23.2726610
  71.7776360  70.8274610  22.4248210  71.0675860  71.7987520  23.3436790
  73.2006840  70.5144750  21.2835430  73.1395240  69.5705970  21.1366450
  73.9798870  70.6224840  21.8288890  57.5059590  86.6537110  20.2459380
  57.3381630  86.0207790  20.9441270  56.6394100  86.8596510  19.8953570
  58.1287610  70.4853890  17.7491240  58.8866970  70.5982770  17.1755270
  57.6664780  71.3223090  17.7034670  64.6701420  72.5993160  20.7393550
  63.8575930  72.2250050  20.3989430  65.1743060  71.8438240  21.0414740
  69.1726400  69.2635610  21.9776620  69.7755770  69.8355820  22.4525140
  68.4319390  69.8275050  21.7550520  72.3161000  69.6657170  17.2516900
  72.5111630  70.5640620  17.5184330  71.5290870  69.4344250  17.7449850
  59.1122290  85.3470340  17.6909520  58.5869910  85.7278370  16.9871480
  59.0366870  85.9721110  18.4119230  60.5012760  71.0117940  16.2893210
  61.0305520  70.2247740  16.1601160  61.1341080  71.6909130  16.5228740
  62.6950600  70.7493080  19.3438600  62.0653340  70.0480390  19.5108730
  62.1555740  71.5097210  19.1271760  65.6342550  87.3632310  32.0149210
  66.5609860  87.1276580  32.0585170  65.6192980  88.1904310  31.5335240
  73.8687610  86.9057880  19.0123460  74.0439800  86.2195620  18.3684380
  73.1709180  87.4304930  18.6200130  61.7115260  87.2952720  16.5658770
  62.4434080  87.0112000  16.0182660  61.9708930  87.0566000  17.4558150
  60.8730050  83.4117450  16.5705100  60.2438930  83.8802550  17.1190930
  60.9877880  82.5666670  17.0051290  72.2020110  86.5902170  31.8390250
  72.9945430  86.0951400  31.6316210  72.4953260  87.2692310  32.4465860
  68.3279770  77.4623110   2.7206300  68.2473820  76.5477720   2.4498010
  67.9144190  77.9590180   2.0146010  66.4597810  79.2402130   4.6015570
  65.6839910  78.7602570   4.8914140  67.1110740  78.5607780   4.4271730
  60.4763640  79.5521940   5.4791330  59.6448520  79.2970650   5.8787840
  61.0844620  79.6232710   6.2149250  70.4805240  83.6462320   3.3814700
  70.0186770  82.8749560   3.7101870  71.2930790  83.6728390   3.8867150
  60.4564900  83.5862030   5.6749350  60.7592940  82.6959770   5.4959570
  61.2008490  84.1432250   5.4471600  56.8488600  77.1129480   5.1473420
  57.4204710  76.3451680   5.1477060  56.8490140  77.4118240   4.2380030
  66.7068550  85.9320330   3.0018690  66.0879990  86.3877830   2.4313130
  67.5620330  86.0871790   2.6008390  65.9006800  81.9159320   4.6085730
  65.8315080  80.9749260   4.4474860  66.6626660  82.0060730   5.1808300
  58.0913470  72.5213840   6.9342350  57.9116310  71.6239590   7.2145110
  57.6893550  73.0685710   7.6089300  66.9311970  74.7229700   4.8354660
  67.3076790  73.8501580   4.7228330  66.8331480  75.0588400   3.9445100
  70.7136090  72.2180140   1.7683000  71.5345710  71.7276710   1.8108480
  70.7470170  72.8077800   2.5214840  58.7100140  75.0174340   5.5424690
  59.3910250  75.2812710   6.1612090  58.3948190  74.1775210   5.8762700
  62.9024710  76.0641700   4.6297280  63.4102930  76.5622670   5.2702300
  63.4337950  75.2876900   4.4536640  75.0035640  74.2346890   8.3326630
  74.2987810  74.6228600   7.8141740  75.2693560  74.9297180   8.9347560
  61.1860810  70.7040260   8.8960700  61.1879250  71.2212650   8.0906600
  60.3565120  70.2270440   8.8730630  62.4363660  80.3435440   7.0734200
  62.1033040  80.9704360   7.7155270  62.6130340  80.8697320   6.2935870
  70.9497570  74.1580520   4.5410540  70.2453140  74.4465410   5.1213650
  71.3109730  74.9680630   4.1810100  60.8676140  72.4150220   6.9031150
  61.2092950  73.2592270   6.6085020  59.9291950  72.5633960   7.0196490
  61.6482760  82.3116240   8.8883380  62.2656760  82.9867320   8.6067830
  60.7875880  82.7204220   8.7970880  72.5660350  83.7755650   6.8038020
  71.8823870  84.4454760   6.7954690  73.1054640  83.9736300   6.0382880
  74.0184490  73.6035310   4.9319750  73.0709400  73.6374290   5.0635180
  74.3434480  74.4174260   5.3169110  64.5504030  69.9032490   3.2275740
  64.8579010  69.3479380   2.5111240  63.6204730  70.0376950   3.0448730
  70.1019090  85.6199780   5.5183200  70.1146250  85.2162070   4.6505460
  69.5494310  86.3947070   5.4144630  69.5004530  80.5229620   6.8465810
  69.9173320  80.3089730   6.0119270  70.2244350  80.7802410   7.4174430
  73.4466630  78.9216840   6.9382050  72.6185260  78.9909930   6.4632180
  74.0417110  79.5071150   6.4697880  70.4108640  75.7086160   7.8836920
  69.9979820  76.5339870   8.1376910  69.6784590  75.1231200   7.6913280
  62.5441430  78.4946060   2.7455590  62.1398430  77.7823310   2.2501490
  62.6304550  78.1499300   3.6343630  63.0123130  82.1813620   4.9094800
  62.7151420  81.5759090   4.2302580  63.9622950  82.2190930   4.7984160
  61.2570050  75.2689270   6.5254630  61.8084640  75.3784610   5.7507880
  61.7713560  75.6426870   7.2409860  71.1008740  85.7545490   8.5717900
  70.6239300  86.5617680   8.3790510  70.4170530  85.1023820   8.7244110
  62.1041560  81.9195310  11.5602600  61.2070090  82.1435280  11.8076000
  62.1294430  82.0430250  10.6114000  60.9312780  78.7908630  10.1359970
  60.7920550  79.6631430  10.5047370  60.0494140  78.4481440   9.9907910
  62.7293130  84.7330330  12.3445120  62.7008560  85.1373280  11.4773550
  62.5658100  83.8040690  12.1816720  74.6807950  85.5157430  13.6409290
  75.1567670  85.9940320  14.3198370  75.3015110  85.4474920  12.9154790
  56.8831430  80.5606180   6.0530880  56.9611850  80.6954950   5.1086600
  57.4973110  79.8522070   6.2459000  58.1279060  82.2606370   2.4637060
  57.7207140  82.4020960   1.6090660  59.0192070  81.9766530   2.2608270
  74.0841200  82.7070280  10.8009300  74.2104260  82.4682160   9.8826480
  74.1262580  81.8754820  11.2731380  67.9457940  86.4098280   9.3704110
  68.4602610  86.3206290  10.1726540  67.1027020  86.7557980   9.6632020
  73.9365210  74.7602740  11.7659040  73.3209480  75.2682410  11.2374500
  73.6161630  73.8601070  11.7084980  56.9390950  81.6020350   8.5925340
  57.1021990  81.1325710   7.7744710  57.4043400  81.0943910   9.2574180
  61.7109720  70.7326110   3.6285910  61.2677870  71.5135650   3.2970430
  62.2694710  71.0556000   4.3356850  65.9979530  73.5994630   9.2321230
  65.5358900  73.8077650  10.0441170  65.5957640  72.7853980   8.9291900
  70.9984040  74.8203580  10.3617890  70.1477630  74.5209330  10.6826960
  70.8385830  75.0645590   9.4501710  68.0933750  76.3205330  12.4616680
  68.4187160  75.4869080  12.1218910  68.8814080  76.8433850  12.6095010
  63.7485620  71.2773440   5.4875510  64.0457950  72.1836270   5.4067530
  64.2971180  70.7892220   4.8735080  63.9423150  76.7545260  12.0227430
  63.8466750  75.8139990  11.8727830  64.7855130  76.9760330  11.6275500
  59.0733690  73.1658930  10.1761210  58.6797080  74.0134140  10.3833990
  58.3852090  72.5285300  10.3669850  65.6478740  73.2493900  13.2457950
  64.9577060  73.0566100  13.8804040  66.3911040  73.5328540  13.7782250
  56.3750740  71.0887390   4.2091290  56.0863790  71.6590250   4.9216270
  57.1196500  70.6091840   4.5722520  67.9241710  77.0892340   6.0811870
  67.1922830  77.5979150   6.4301970  67.5266050  76.2722320   5.7800650
  64.3619100  73.7646540   4.4864360  64.3655160  73.3236490   3.6368900
  65.2570220  74.0863870   4.5936180  60.2121480  73.6473030   3.4458570
  59.8721530  74.1248260   4.2025620  59.4498800  73.1938150   3.0859670
  68.3867620  72.5426020   5.4934810  68.4040360  72.9934670   6.3376660
  68.1383200  71.6431660   5.7068250  71.8138370  69.9558200  11.3321190
  72.1384140  69.2247860  11.8579170  71.8494880  69.6371840  10.4302180
  58.5129930  80.9771780  10.7521150  58.1284720  80.3365450  11.3504110
  58.8242120  81.6807900  11.3215880  64.6627070  77.8248320   6.2329770
  65.0297200  77.3506890   6.9791110  64.4732130  78.6989890   6.5738110
  57.5267560  72.5692010   2.3623240  57.2414480  72.2047680   3.2001860
  57.4646420  71.8372470   1.7486380  62.4526440  76.8656960   8.5513980
  62.1483510  77.7448940   8.7764340  63.4072900  76.9256750   8.5871420
  71.7396210  80.0683310   4.9407220  72.4595330  80.5638600   4.5503330
  71.5378030  79.3901200   4.2961090  67.1215010  80.1392370  10.8276220
  67.0552320  79.2188040  10.5733810  66.4920150  80.2367810  11.5420860
  61.0245630  80.7398330   2.7859640  61.5424300  79.9366590   2.7316530
  60.5729650  80.6777470   3.6276470  58.5090170  77.7059700   9.6985340
  58.1505110  78.3713550  10.2858680  58.2144730  76.8743250  10.0697960
  61.7103290  78.1643940  12.5824890  61.4103430  78.3101120  11.6852710
  62.4814530  77.6049230  12.4898280  67.0531740  82.9612940  10.5780020
  67.0676280  82.0293900  10.3598930  66.3456840  83.0472700  11.2169790
  73.2642950  79.6020280   9.9248600  72.5391140  80.1949060   9.7277990
  73.7918410  79.5943820   9.1261970  68.7942540  81.3280450   3.4232450
  69.1466360  80.7308580   2.7633820  67.9104870  81.0024680   3.5940700
  66.4865640  84.6030510   7.6720520  67.1307860  84.8089890   8.3493940
  66.8495080  83.8418910   7.2191370  67.7597720  82.6062860   6.3897970
  68.4019950  81.9056020   6.5030140  68.2847070  83.3861300   6.2094860
  69.5335340  83.4057760   9.5934030  69.8691580  83.9924450  10.2711950
  68.6135680  83.2750470   9.8231820  57.0838740  71.1952940  10.3757440
  56.3697260  71.3949860  10.9810050  57.5033780  70.4192510  10.7472240
  57.3711330  85.1833200  11.3623970  57.4802450  84.2427940  11.2219360
  56.7191890  85.4487950  10.7137700  65.3623920  83.4549090  12.7622090
  65.0420790  82.7358330  13.3067780  64.6882280  84.1304160  12.8358150
  68.5777520  73.6875250   8.1258890  68.9458340  72.8670460   8.4538460
  67.7175720  73.7477140   8.5414540  65.5379510  76.3414840   8.3496860
  66.0364760  76.8160660   9.0148710  65.6802460  75.4178360   8.5566890
  72.7446370  72.5582800   9.1925250  72.2419970  73.2988200   9.5319060
  73.5603030  72.9466800   8.8762040  71.0368380  77.8015980   2.6386610
  70.0958520  77.8166210   2.8134300  71.3512450  77.0151940   3.0846910
  73.0393960  84.9724830   4.3140870  73.1641380  85.7956000   4.7864680
  73.9059520  84.7615560   3.9665020  60.5111490  87.0656040   3.9858000
  61.2473970  86.5171500   4.2566570  60.8952410  87.9312050   3.8463990
  59.5169770  86.2502110  13.1743580  60.3182500  86.5714160  13.5878980
  59.0021590  85.8897690  13.8963490  68.3534400  82.3581980  13.1218990
  67.7472560  82.3813580  12.3814740  68.0488510  81.6265020  13.6586240
  69.7834770  86.0862270  11.7328400  70.7356520  86.0020290  11.6828640
  69.6362990  86.7503980  12.4062190  57.2367580  78.7375570  12.1179630
  57.7406600  78.1582850  12.6895860  56.4975000  79.0215800  12.6556000
  64.2905520  80.1446560  11.6515150  63.5251190  80.7131560  11.5669820
  64.4721480  79.8522770  10.7583380  71.4328870  81.8751890  12.2090170
  72.1738340  82.2127650  11.7057630  70.6701550  82.0443950  11.6559940
  59.2690660  76.8805160  13.0129700  59.3096000  76.5819030  13.9214930
  60.1236160  77.2812770  12.8537220  61.2096470  75.4597260  10.9804190
  60.6792930  74.9688210  10.3527530  61.8784540  75.8881460  10.4462120
  70.1074530  79.9266720  10.7445380  70.5215550  80.0811800  11.5935800
  69.1725530  80.0521940  10.9071160  70.5796700  77.2662880  12.7484530
  71.1617470  76.5115200  12.6605010  70.7558470  77.7970320  11.9716010
  61.6968770  72.4259630  11.0601480  61.6025640  71.8080380  10.3352350
  61.1166160  73.1525920  10.8331390  64.4630210  70.9832870   8.0928870
  64.0147510  71.0057130   7.2474420  63.8295410  70.5851890   8.6899170
  64.8689760  79.8787200   8.7141310  65.2877870  80.7219930   8.5417550
  63.9498390  80.0159240   8.4848090  67.2053660  77.6103380  10.0979150
  67.3249870  77.0144520  10.8373990  68.0647660  77.6473070   9.6780450
  69.5441560  78.1640570   8.6741660  69.0176780  78.6883190   8.0706800
  69.8872900  78.7967960   9.3051390  62.7197180  86.1840210   9.8299040
  62.1818270  86.9086270   9.5107740  62.9731140  85.7070550   9.0396380
  63.9722430  74.1524730  11.3554970  64.5622120  73.8440580  12.0432790
  63.1542670  73.6804480  11.5114870  68.7915860  73.7690540  11.5887990
  68.1031380  73.1072080  11.5237980  69.5121880  73.3228810  12.0336450
  65.5759390  87.4191420  10.0885690  65.5018090  88.3226560  10.3958060
  64.6738230  87.1003320  10.0607760  56.9786680  84.7466010   3.3919310
  57.3089690  83.8787070   3.1597950  57.4077680  84.9524530   4.2224270
  57.4676890  85.6136600   6.1300940  57.0307880  85.7937400   6.9625090
  58.0354570  86.3711220   5.9882660  73.1039070  85.1153600  10.4178250
  72.5041060  85.1746160   9.6742170  73.2332970  84.1758580  10.5475100
  57.3001320  78.1256830   2.4889820  56.6450160  77.8568470   1.8449520
  58.1379270  78.0161310   2.0391800  74.8056950  80.4569000   3.1024090
  75.1765780  79.6736320   2.6960060  75.4458880  81.1458100   2.9241390
  71.7890710  81.8405580   8.5154410  70.9750550  82.2702740   8.7780200
  72.1964910  82.4523990   7.9023460  58.3377250  78.5109400   7.0293160
  58.7050290  78.4236800   7.9089180  57.7688070  77.7475950   6.9300020
  73.1381110  76.9793780  10.0423630  72.9067200  76.7506530   9.1421580
  73.3985660  77.8993330   9.9968520  57.8893250  75.4218490  10.9351580
  56.9949300  75.3885250  11.2745290  58.4290800  75.6205280  11.7002830
  71.5769180  72.2050210  12.8203330  72.4539360  72.2133610  13.2037330
  71.5890020  71.4681050  12.2095680  73.0232450  76.0579750   3.7091350
  73.5469930  75.5642400   3.0781520  73.6091870  76.1930110   4.4538920
  73.2022170  76.1419620   7.2310900  72.2524880  76.1083160   7.3455890
  73.3835180  77.0519730   6.9960670  58.3932960  69.6966820   5.2834800
  59.0409150  69.1464200   4.8429960  58.8134800  69.9509970   6.1050610
  73.9419580  73.9514050   2.1821440  73.8318860  73.7970090   3.1203710
  74.7027170  73.4234990   1.9396850  72.2885300  69.8908180   8.6404440
  72.9257520  70.5042320   9.0063630  72.4360190  69.9268840   7.6953670
  58.1464960  69.8522490   8.0260120  57.7979780  70.3086310   8.7918300
  57.8152660  68.9579620   8.1082550  59.7529330  83.0242090  12.1913310
  59.7098960  82.6535000  13.0727770  59.8840340  83.9619660  12.3315130
  63.4535360  84.5801680   7.7923030  63.2126720  84.8476240   6.9053550
  64.3938000  84.7507410   7.8473890  65.6589780  71.0434370  11.5479540
  65.5978670  71.6356200  12.2974950  66.5990160  70.9360330  11.4029800
  68.2964340  70.7004430  11.1871830  68.9104750  71.0183720  10.5252910
  68.8413900  70.2153020  11.8067690  74.7139520  86.5996060   8.5933670
  74.2197800  86.9964930   7.8760800  74.1052810  85.9745270   8.9870950
  58.8185600  69.3798690  11.3010890  59.3668590  69.1986740  10.5377000
  58.8840910  68.5892800  11.8367200  59.5917360  85.9704340   9.3111090
  58.9977680  85.8389040  10.0501130  59.5841200  85.1342480   8.8453190
  69.0372380  69.2636570   7.5141120  68.1632220  69.5971680   7.3114050
  68.9283130  68.7909750   8.3392990  69.9444360  71.4707440   8.8982840
  69.6157720  70.6559200   8.5184570  70.8926660  71.4277250   8.7748530
  72.3978970  87.2419480   5.8720410  71.9381940  87.9935290   5.4978430
  71.7691430  86.5225950   5.8135210  59.2229590  83.3362720   8.2619130
  58.4963650  82.7168010   8.1945080  59.2838740  83.7303330   7.3917210
  62.8274690  85.5507720   5.0468540  63.3439710  84.9395080   4.5216800
  63.4772070  86.0536500   5.5379550  65.5670190  86.4416210   5.8737520
  65.8548000  86.1870510   4.9970530  66.0793410  85.8893570   6.4643090
  66.7847200  70.1806410   6.4534030  66.0018990  70.6551910   6.7330790
  66.4910130  69.2761240   6.3447210  71.3368270  70.8829510   4.4983120
  71.7776360  70.8274610   3.6504720  71.0675860  71.7987520   4.5693300
  73.2006840  70.5144750   2.5091940  73.1395240  69.5705970   2.3622960
  73.9798870  70.6224840   3.0545400  64.6701420  72.5993160   1.9650060
  63.8575930  72.2250050   1.6245940  65.1743060  71.8438240   2.2671250
  69.1726400  69.2635610   3.2033130  69.7755770  69.8355820   3.6781650
  68.4319390  69.8275050   2.9807030  65.6342550  87.3632310  13.2405720
  66.5609860  87.1276580  13.2841680  65.6192980  88.1904310  12.7591750
  62.8206160  70.0277060  13.0047600  62.5390430  70.5310660  12.2408420
  63.2025860  69.2298810  12.6389730  69.4221620  69.4430640  13.5828070
  69.3087070  69.7625250  14.4779590  70.2391360  69.8443150  13.2865350
  72.2020110  86.5902170  13.0646760  72.9945430  86.0951400  12.8572720
  72.4953260  87.2692310  13.6722370  68.3279770  58.6879620  77.8180260
  68.2473820  57.7734230  77.5471970  67.9144190  59.1846690  77.1119970
  66.4597810  60.4658640  79.6989530  65.6839910  59.9859080  79.9888100
  67.1110740  59.7864290  79.5245690  60.4763640  60.7778450  80.5765290
  59.6448520  60.5227160  80.9761800  61.0844620  60.8489220  81.3123210
  70.4805240  64.8718830  78.4788660  70.0186770  64.1006070  78.8075830
  71.2930790  64.8984900  78.9841110  60.4564900  64.8118540  80.7723310
  60.7592940  63.9216280  80.5933530  61.2008490  65.3688760  80.5445560
  58.8855590  55.7380340  74.3607680  57.9972290  56.0796310  74.2587560
  59.1696780  55.5380660  73.4688510  56.8488600  58.3385990  80.2447380
  57.4204710  57.5708190  80.2451020  56.8490140  58.6374750  79.3353990
  66.7068550  67.1576840  78.0992650  66.0879990  67.6134340  77.5287090
  67.5620330  67.3128300  77.6982350  65.9006800  63.1415830  79.7059690
  65.8315080  62.2005770  79.5448820  66.6626660  63.2317240  80.2782260
  66.9311970  55.9486210  79.9328620  67.3076790  55.0758090  79.8202290
  66.8331480  56.2844910  79.0419060  61.0616980  54.3211840  75.3946060
  61.1683730  55.2215570  75.7014820  60.1509340  54.2729810  75.1040710
  70.7136090  53.4436650  76.8656960  71.5345710  52.9533220  76.9082440
  70.7470170  54.0334310  77.6188800  58.7100140  56.2430850  80.6398650
  59.3910250  56.5069220  81.2586050  58.3948190  55.4031720  80.9736660
  62.9024710  57.2898210  79.7271240  63.4102930  57.7879180  80.3676260
  63.4337950  56.5133410  79.5510600  67.5731900  62.0416080  75.4924560
  66.9549170  62.5065530  74.9287280  68.0855150  62.7343560  75.9094070
  70.9497570  55.3837030  79.6384500  70.2453140  55.6721920  80.2187610
  71.3109730  56.1937140  79.2784060  60.8676140  53.6406730  82.0005110
  61.2092950  54.4848780  81.7058980  59.9291950  53.7890470  82.1170450
  56.9415100  62.7272610  72.8664190  56.5643080  63.2159710  72.1349090
  57.1988170  63.3997890  73.4970720  72.5660350  65.0012160  81.9011980
  71.8823870  65.6711270  81.8928650  73.1054640  65.1992810  81.1356840
  74.0184490  54.8291820  80.0293710  73.0709400  54.8630800  80.1609140
  74.3434480  55.6430770  80.4143070  64.5504030  51.1289000  78.3249700
  64.8579010  50.5735890  77.6085200  63.6204730  51.2633460  78.1422690
  70.1019090  66.8456290  80.6157160  70.1146250  66.4418580  79.7479420
  69.5494310  67.6203580  80.5118590  71.3964510  63.5672510  75.7047330
  71.2860840  62.6246840  75.8296750  71.3932760  63.9288150  76.5910090
  66.9384790  59.1937830  75.0609820  66.0114070  59.1275210  75.2898290
  67.0909610  60.1317960  74.9465060  66.9253870  55.4654830  72.0576980
  65.9857540  55.6268790  72.1429440  67.2437130  56.1840510  71.5112970
  73.4466630  60.1473350  82.0356010  72.6185260  60.2166440  81.5606140
  74.0417110  60.7327660  81.5671840  70.9682080  60.7558130  75.5645070
  70.3494500  60.4177680  74.9171370  70.9506530  60.1117890  76.2724260
  62.5441430  59.7202570  77.8429550  62.1398430  59.0079820  77.3475450
  62.6304550  59.3755810  78.7317590  63.0123130  63.4070130  80.0068760
  62.7151420  62.8015600  79.3276540  63.9622950  63.4447440  79.8958120
  69.1446780  59.9944940  72.5717820  69.5840060  59.1567370  72.4255640
  69.8575200  60.6274340  72.6581960  67.2542160  64.9341010  76.5399060
  67.6938070  65.6765340  76.1254450  67.1929050  65.1767580  77.4638020
  72.7263920  51.2487750  70.8858860  72.4136580  51.3414580  71.7857930
  73.4876390  51.8268780  70.8356290  59.2446060  58.6147550  75.3436200
  59.1243660  59.3409640  74.7317470  58.9346950  57.8450460  74.8664110
  56.8831430  61.7862690  81.1504840  56.9611850  61.9211460  80.2060560
  57.4973110  61.0778580  81.3432960  58.1279060  63.4862880  77.5611020
  57.7207140  63.6277470  76.7064620  59.0192070  63.2023040  77.3582230
  69.9212340  67.9210130  73.8962070  69.7613480  67.6313070  74.7943900
  69.7559050  67.1450260  73.3607300  62.4000720  67.7008660  75.6733690
  62.2243200  66.7844200  75.4601490  61.5456460  68.0595950  75.9131490
  69.6238470  65.4297690  72.4560070  68.9303630  65.4274980  71.7962350
  70.3661330  65.0057010  72.0254240  69.1888400  67.0560400  76.5308560
  69.6445350  66.2749780  76.8447180  69.5280920  67.7667220  77.0749740
  61.7109720  51.9582620  78.7259870  61.2677870  52.7392160  78.3944390
  62.2694710  52.2812510  79.4330810  64.8268540  51.5793320  73.6065700
  64.2022720  51.5753190  74.3319010  64.7398660  50.7124280  73.2101670
  63.7485620  52.5029950  80.5849470  64.0457950  53.4092780  80.5041490
  64.2971180  52.0148730  79.9709040  61.5023940  57.0816190  76.4541120
  61.2764860  56.8653360  77.3587740  60.7216470  57.5144650  76.1087090
  68.7321700  57.0879560  75.0531770  68.1330590  57.8115360  74.8695390
  69.2801310  57.0256340  74.2708220  67.3386570  55.7243100  77.0835050
  67.7316140  56.0415300  76.2703740  67.7003420  54.8454980  77.1979570
  56.3750740  52.3143900  79.3065250  56.0863790  52.8846760  80.0190230
  57.1196500  51.8348350  79.6696480  56.5620970  56.2564020  70.5167970
  56.4795640  57.1994780  70.6582960  56.2104030  56.1138930  69.6380320
  67.9241710  58.3148850  81.1785830  67.1922830  58.8235660  81.5275930
  67.5266050  57.4978830  80.8774610  64.3619100  54.9903050  79.5838320
  64.3655160  54.5493000  78.7342860  65.2570220  55.3120380  79.6910140
  60.2121480  54.8729540  78.5432530  59.8721530  55.3504770  79.2999580
  59.4498800  54.4194660  78.1833630  64.4239250  55.9915130  72.5745080
  64.5452070  55.9501610  73.5230900  64.0387760  56.8539280  72.4191810
  68.3867620  53.7682530  80.5908770  68.4040360  54.2191180  81.4350620
  68.1383200  52.8688170  80.8042210  63.4360750  58.3016270  71.9728380
  62.8677650  57.8534520  71.3464290  64.1449750  58.6609050  71.4393530
  64.6627070  59.0504830  81.3303730  65.0297200  58.5763400  82.0765070
  64.4732130  59.9246400  81.6712070  57.5267560  53.7948520  77.4597200
  57.2414480  53.4304190  78.2975820  57.4646420  53.0628980  76.8460340
  60.9808230  62.2974460  74.2454790  60.2070490  61.7572080  74.0853510
  61.7102860  61.7781070  73.9072550  71.7396210  61.2939820  80.0381180
  72.4595330  61.7895110  79.6477290  71.5378030  60.6157710  79.3935050
  67.2006150  52.6877780  74.1810570  66.3870760  52.1890950  74.1055880
  67.0068100  53.5276030  73.7646920  69.9154540  57.0597430  72.4772730
  70.8034160  57.3714660  72.3024070  69.8859630  56.1869680  72.0853310
  61.0245630  61.9654840  77.8833600  61.5424300  61.1623100  77.8290490
  60.5729650  61.9033980  78.7250430  65.9115130  63.2321120  73.1560900
  66.2530830  63.9763350  72.6604220  65.0827840  63.5452240  73.5185730
  72.1868810  58.3709270  71.9452590  72.1032530  58.8023490  71.0949030
  72.9063000  58.8307620  72.3779410  73.2156060  65.2251530  74.6734720
  72.5732220  64.5707150  74.9478440  72.8286720  65.6306620  73.8975390
  68.7942540  62.5536960  78.5206410  69.1466360  61.9565090  77.8607780
  67.9104870  62.2281190  78.6914660  64.8805820  63.3134650  75.9276820
  65.5676950  63.8603860  76.3084410  64.0938240  63.8575380  75.9626430
  57.0198220  58.9307470  71.4193900  57.8893070  59.2132270  71.7029820
  56.5288540  59.7443340  71.3042710  64.1833030  60.3180680  75.5402180
  64.6395810  61.1285930  75.7662370  63.8321240  60.0003820  76.3720670
  60.0844810  50.6618330  76.0124700  59.9559440  50.6536230  76.9609620
  59.2606830  51.0001420  75.6615710  67.7597720  63.8319370  81.4871930
  68.4019950  63.1312530  81.6004100  68.2847070  64.6117810  81.3068820
  71.6053440  64.1167990  71.2111070  71.3791020  63.3998430  71.8035710
  71.2149640  63.8680430  70.3732820  57.3869470  68.1434850  71.9855530
  57.7467110  68.7424190  71.3312800  57.2461810  68.6894740  72.7590560
  71.1869690  62.0339930  72.8725230  70.8991390  62.4952620  73.6603110
  71.9821860  61.5737700  73.1409450  63.4038090  65.5266050  72.8029200
  63.3948190  66.2595740  72.1873710  62.4836450  65.2797630  72.8956160
  59.0044730  60.7480940  73.5475960  58.3972680  61.4879840  73.5571260
  59.4794080  60.8380300  72.7214160  71.9439550  53.8688700  74.0320410
  71.3152710  53.9734370  73.3178640  71.4491470  54.0885480  74.8214290
  66.3897690  65.5894290  71.4654390  66.4909670  65.3858280  70.5356370
  65.4899430  65.3352570  71.6702170  63.9123580  56.1474650  75.4478290
  63.2039730  56.6160990  75.8891900  64.1968060  55.4896660  76.0823480
  67.9439010  52.8725310  76.8874080  67.8206790  52.8911440  75.9383590
  68.8923570  52.9204250  77.0072480  65.0315800  68.1080610  76.1602060
  65.2857300  68.0702000  75.2381430  64.0828280  67.9813940  76.1530310
  62.1158600  54.4559730  72.8229000  62.9649130  54.8929880  72.7569190
  61.7489870  54.7679990  73.6501060  71.0368380  59.0272490  77.7360570
  70.0958520  59.0422720  77.9108260  71.3512450  58.2408450  78.1820870
  61.0150020  60.7092090  71.2964530  61.7813290  60.5973450  71.8589960
  61.0924710  60.0130060  70.6441300  59.7096780  58.1417160  71.9797420
  59.7900370  57.1944670  72.0914820  60.6016530  58.4724040  72.0858080
  73.0393960  66.1981340  79.4114830  73.1641380  67.0212510  79.8838640
  73.9059520  65.9872070  79.0638980  60.5111490  68.2912550  79.0831960
  61.2473970  67.7428010  79.3540530  60.8952410  69.1568560  78.9437950
  57.3956970  64.3586120  74.9573470  56.4696750  64.6007260  74.9478880
  57.8613400  65.1860380  74.8358220  63.6213800  67.4642860  70.9057530
  64.4142410  67.7531690  70.4539320  63.1018150  67.0335030  70.2270010
  72.6743970  66.6912990  72.3294270  72.3885480  66.2778130  71.5148450
  72.4763520  67.6200700  72.2094790  64.1391200  62.6846270  70.7699880
  64.0341840  62.0698620  71.4961260  63.9715420  62.1612160  69.9862890
  67.3793930  61.7466300  71.3741870  66.8304030  62.1935600  72.0184610
  68.0013190  61.2415550  71.8979540  63.0469050  60.7057220  73.2707170
  63.4685470  60.5397090  74.1138560  63.1719890  59.8957450  72.7762310
  65.5596690  59.7294830  70.5184270  66.0802350  59.0143850  70.1525420
  66.2065090  60.3680700  70.8184780  61.9427950  56.7790450  70.2165330
  61.7417010  55.9157810  70.5778670  61.7720000  56.6923810  69.2786930
  69.4216260  51.5898680  72.7452210  69.7018550  50.7466580  73.1011630
  68.6481990  51.8221790  73.2590960  60.7410750  53.8791070  70.2043210
  61.0436650  53.8858500  69.2962360  61.4805340  53.5288930  70.7010870
  63.9595680  52.8225690  71.1899410  63.6117680  52.1449680  70.6101860
  64.1608450  52.3615200  72.0042800  66.1244720  67.8106440  72.8086010
  67.0195510  68.1491410  72.8304770  66.1562350  67.0885850  72.1810290
  59.7640880  63.1833490  71.0373010  60.2015750  63.7263160  71.6930590
  60.2488610  62.3580440  71.0469350  56.9786680  65.9722520  78.4893270
  57.3089690  65.1043580  78.2571910  57.4077680  66.1781040  79.3198230
  61.5748600  64.3031530  76.1495240  61.2744140  64.1796500  77.0499150
  61.4686090  63.4440120  75.7410970  57.4676890  66.8393110  81.2274900
  57.0307880  67.0193910  82.0599050  58.0354570  67.5967730  81.0856620
  74.3440520  64.0827930  70.8521920  73.5133480  64.1504580  71.3229150
  74.5212350  64.9732050  70.5488780  73.7996980  60.8275410  73.3556120
  74.5615890  61.3972060  73.4615810  73.8151350  60.2602610  74.1264430
  57.3001320  59.3513340  77.5863780  56.6450160  59.0824980  76.9423480
  58.1379270  59.2417820  77.1365760  74.8056950  61.6825510  78.1998050
  75.1765780  60.8992830  77.7934020  75.4458880  62.3714610  78.0215350
  73.8516150  61.1209780  70.5128640  74.1264990  62.0288660  70.3847860
  73.6626890  61.0572310  71.4490630  70.2491760  54.1454630  71.8082270
  70.6676640  53.9585610  70.9678930  69.9427820  53.2933680  72.1185200
  73.7481490  59.0578770  75.5058070  73.3725090  58.2906700  75.0739360
  73.0184610  59.4401470  75.9933000  56.5139400  56.5612270  73.5289110
  55.6103480  56.8242470  73.3540770  56.9980020  56.8323440  72.7489070
  73.0232450  57.2836260  78.8065310  73.5469930  56.7898910  78.1755480
  73.6091870  57.4186620  79.5512880  59.0566610  55.6177810  71.4383490
  59.7658310  55.1961030  70.9530770  58.3406550  55.6853040  70.8066840
  58.7040770  51.6717140  70.4786140  59.4268900  52.2126080  70.7967360
  58.9765290  51.3980560  69.6027680  72.5132420  56.5409610  74.7457720
  73.0091540  56.3080480  75.5306600  72.3148490  55.7021450  74.3295360
  58.3932960  50.9223330  80.3808760  59.0409150  50.3720710  79.9403920
  58.8134800  51.1766480  81.2024570  73.9419580  55.1770560  77.2795400
  73.8318860  55.0226600  78.2177670  74.7027170  54.6491500  77.0370810
  74.8309850  53.0078480  70.5201540  75.7559160  52.8759660  70.3119830
  74.8085640  53.0871300  71.4737990  74.9048340  53.7789140  73.1458250
  74.1099840  53.7134260  73.6751160  75.1091620  54.7139780  73.1343600
  71.8466760  67.8180690  77.1396640  72.4425830  67.4965260  76.4631060
  72.1044910  67.3452510  77.9309910  72.3978970  68.4675990  80.9694370
  71.9381940  69.2191800  80.5952390  71.7691430  67.7482460  80.9109170
  62.8274690  66.7764230  80.1442500  63.3439710  66.1651590  79.6190760
  63.4772070  67.2793010  80.6353510  65.5670190  67.6672720  80.9711480
  65.8548000  67.4127020  80.0944490  66.0793410  67.1150080  81.5617050
  66.7847200  51.4062920  81.5507990  66.0018990  51.8808420  81.8304750
  66.4910130  50.5017750  81.4421170  71.3368270  52.1086020  79.5957080
  71.7776360  52.0531120  78.7478680  71.0675860  53.0244030  79.6667260
  73.2006840  51.7401260  77.6065900  73.1395240  50.7962480  77.4596920
  73.9798870  51.8481350  78.1519360  57.5059590  67.8793620  76.5689850
  57.3381630  67.2464300  77.2671740  56.6394100  68.0853020  76.2184040
  58.1287610  51.7110400  74.0721710  58.8866970  51.8239280  73.4985740
  57.6664780  52.5479600  74.0265140  64.6701420  53.8249670  77.0624020
  63.8575930  53.4506560  76.7219900  65.1743060  53.0694750  77.3645210
  69.1726400  50.4892120  78.3007090  69.7755770  51.0612330  78.7755610
  68.4319390  51.0531560  78.0780990  72.3161000  50.8913680  73.5747370
  72.5111630  51.7897130  73.8414800  71.5290870  50.6600760  74.0680320
  59.1122290  66.5726850  74.0139990  58.5869910  66.9534880  73.3101950
  59.0366870  67.1977620  74.7349700  60.5012760  52.2374450  72.6123680
  61.0305520  51.4504250  72.4831630  61.1341080  52.9165640  72.8459210
  62.6950600  51.9749590  75.6669070  62.0653340  51.2736900  75.8339200
  62.1555740  52.7353720  75.4502230  73.8687610  68.1314390  75.3353930
  74.0439800  67.4452130  74.6914850  73.1709180  68.6561440  74.9430600
  61.7115260  68.5209230  72.8889240  62.4434080  68.2368510  72.3413130
  61.9708930  68.2822510  73.7788620  60.8730050  64.6373960  72.8935570
  60.2438930  65.1059060  73.4421400  60.9877880  63.7923180  73.3281760
  68.3279770  58.6879620  59.0436770  68.2473820  57.7734230  58.7728480
  67.9144190  59.1846690  58.3376480  66.4597810  60.4658640  60.9246040
  65.6839910  59.9859080  61.2144610  67.1110740  59.7864290  60.7502200
  60.4763640  60.7778450  61.8021800  59.6448520  60.5227160  62.2018310
  61.0844620  60.8489220  62.5379720  70.4805240  64.8718830  59.7045170
  70.0186770  64.1006070  60.0332340  71.2930790  64.8984900  60.2097620
  60.4564900  64.8118540  61.9979820  60.7592940  63.9216280  61.8190040
  61.2008490  65.3688760  61.7702070  58.8855590  55.7380340  55.5864190
  57.9972290  56.0796310  55.4844070  59.1696780  55.5380660  54.6945020
  56.8488600  58.3385990  61.4703890  57.4204710  57.5708190  61.4707530
  56.8490140  58.6374750  60.5610500  58.0913470  53.7470350  63.2572820
  57.9116310  52.8496100  63.5375580  57.6893550  54.2942220  63.9319770
  66.9311970  55.9486210  61.1585130  67.3076790  55.0758090  61.0458800
  66.8331480  56.2844910  60.2675570  61.0616980  54.3211840  56.6202570
  61.1683730  55.2215570  56.9271330  60.1509340  54.2729810  56.3297220
  70.7136090  53.4436650  58.0913470  71.5345710  52.9533220  58.1338950
  70.7470170  54.0334310  58.8445310  58.7100140  56.2430850  61.8655160
  59.3910250  56.5069220  62.4842560  58.3948190  55.4031720  62.1993170
  62.9024710  57.2898210  60.9527750  63.4102930  57.7879180  61.5932770
  63.4337950  56.5133410  60.7767110  75.0035640  55.4603400  64.6557100
  74.2987810  55.8485110  64.1372210  75.2693560  56.1553690  65.2578030
  61.1860810  51.9296770  65.2191170  61.1879250  52.4469160  64.4137070
  60.3565120  51.4526950  65.1961100  62.4363660  61.5691950  63.3964670
  62.1033040  62.1960870  64.0385740  62.6130340  62.0953830  62.6166340
  70.9497570  55.3837030  60.8641010  70.2453140  55.6721920  61.4444120
  71.3109730  56.1937140  60.5040570  60.8676140  53.6406730  63.2261620
  61.2092950  54.4848780  62.9315490  59.9291950  53.7890470  63.3426960
  61.6482760  63.5372750  65.2113850  62.2656760  64.2123830  64.9298300
  60.7875880  63.9460730  65.1201350  72.5660350  65.0012160  63.1268490
  71.8823870  65.6711270  63.1185160  73.1054640  65.1992810  62.3613350
  74.0184490  54.8291820  61.2550220  73.0709400  54.8630800  61.3865650
  74.3434480  55.6430770  61.6399580  64.5504030  51.1289000  59.5506210
  64.8579010  50.5735890  58.8341710  63.6204730  51.2633460  59.3679200
  70.1019090  66.8456290  61.8413670  70.1146250  66.4418580  60.9735930
  69.5494310  67.6203580  61.7375100  71.3964510  63.5672510  56.9303840
  71.2860840  62.6246840  57.0553260  71.3932760  63.9288150  57.8166600
  69.5004530  61.7486130  63.1696280  69.9173320  61.5346240  62.3349740
  70.2244350  62.0058920  63.7404900  66.9384790  59.1937830  56.2866330
  66.0114070  59.1275210  56.5154800  67.0909610  60.1317960  56.1721570
  66.9253870  55.4654830  53.2833490  65.9857540  55.6268790  53.3685950
  67.2437130  56.1840510  52.7369480  73.4466630  60.1473350  63.2612520
  72.6185260  60.2166440  62.7862650  74.0417110  60.7327660  62.7928350
  70.9682080  60.7558130  56.7901580  70.3494500  60.4177680  56.1427880
  70.9506530  60.1117890  57.4980770  70.4108640  56.9342670  64.2067390
  69.9979820  57.7596380  64.4607380  69.6784590  56.3487710  64.0143750
  62.5441430  59.7202570  59.0686060  62.1398430  59.0079820  58.5731960
  62.6304550  59.3755810  59.9574100  63.0123130  63.4070130  61.2325270
  62.7151420  62.8015600  60.5533050  63.9622950  63.4447440  61.1214630
  61.2570050  56.4945780  62.8485100  61.8084640  56.6041120  62.0738350
  61.7713560  56.8683380  63.5640330  71.1008740  66.9802000  64.8948370
  70.6239300  67.7874190  64.7020980  70.4170530  66.3280330  65.0474580
  62.1041560  63.1451820  67.8833070  61.2070090  63.3691790  68.1306470
  62.1294430  63.2686760  66.9344470  69.1446780  59.9944940  53.7974330
  69.5840060  59.1567370  53.6512150  69.8575200  60.6274340  53.8838470
  60.9312780  60.0165140  66.4590440  60.7920550  60.8887940  66.8277840
  60.0494140  59.6737950  66.3138380  62.7293130  65.9586840  68.6675590
  62.7008560  66.3629790  67.8004020  62.5658100  65.0297200  68.5047190
  72.7263920  51.2487750  52.1115370  72.4136580  51.3414580  53.0114440
  73.4876390  51.8268780  52.0612800  74.6807950  66.7413940  69.9639760
  75.1567670  67.2196830  70.6428840  75.3015110  66.6731430  69.2385260
  56.8831430  61.7862690  62.3761350  56.9611850  61.9211460  61.4317070
  57.4973110  61.0778580  62.5689470  74.0841200  63.9326790  67.1239770
  74.2104260  63.6938670  66.2056950  74.1262580  63.1011330  67.5961850
  67.9457940  67.6354790  65.6934580  68.4602610  67.5462800  66.4957010
  67.1027020  67.9814490  65.9862490  73.9365210  55.9859250  68.0889510
  73.3209480  56.4938920  67.5604970  73.6161630  55.0857580  68.0315450
  56.9390950  62.8276860  64.9155810  57.1021990  62.3582220  64.0975180
  57.4043400  62.3200420  65.5804650  61.7109720  51.9582620  59.9516380
  61.2677870  52.7392160  59.6200900  62.2694710  52.2812510  60.6587320
  65.9979530  54.8251140  65.5551700  65.5358900  55.0334160  66.3671640
  65.5957640  54.0110490  65.2522370  70.9984040  56.0460090  66.6848360
  70.1477630  55.7465840  67.0057430  70.8385830  56.2902100  65.7732180
  68.0933750  57.5461840  68.7847150  68.4187160  56.7125590  68.4449380
  68.8814080  58.0690360  68.9325480  64.8268540  51.5793320  54.8322210
  64.2022720  51.5753190  55.5575520  64.7398660  50.7124280  54.4358180
  63.7485620  52.5029950  61.8105980  64.0457950  53.4092780  61.7298000
  64.2971180  52.0148730  61.1965550  61.5023940  57.0816190  57.6797630
  61.2764860  56.8653360  58.5844250  60.7216470  57.5144650  57.3343600
  68.7321700  57.0879560  56.2788280  68.1330590  57.8115360  56.0951900
  69.2801310  57.0256340  55.4964730  63.9423150  57.9801770  68.3457900
  63.8466750  57.0396500  68.1958300  64.7855130  58.2016840  67.9505970
  67.3386570  55.7243100  58.3091560  67.7316140  56.0415300  57.4960250
  67.7003420  54.8454980  58.4236080  59.0733690  54.3915440  66.4991680
  58.6797080  55.2390650  66.7064460  58.3852090  53.7541810  66.6900320
  65.6478740  54.4750410  69.5688420  64.9577060  54.2822610  70.2034510
  66.3911040  54.7585050  70.1012720  56.3750740  52.3143900  60.5321760
  56.0863790  52.8846760  61.2446740  57.1196500  51.8348350  60.8952990
  56.5620970  56.2564020  51.7424480  56.4795640  57.1994780  51.8839470
  56.2104030  56.1138930  50.8636830  67.9241710  58.3148850  62.4042340
  67.1922830  58.8235660  62.7532440  67.5266050  57.4978830  62.1031120
  64.3619100  54.9903050  60.8094830  64.3655160  54.5493000  59.9599370
  65.2570220  55.3120380  60.9166650  60.2121480  54.8729540  59.7689040
  59.8721530  55.3504770  60.5256090  59.4498800  54.4194660  59.4090140
  64.4239250  55.9915130  53.8001590  64.5452070  55.9501610  54.7487410
  64.0387760  56.8539280  53.6448320  68.3867620  53.7682530  61.8165280
  68.4040360  54.2191180  62.6607130  68.1383200  52.8688170  62.0298720
  63.4360750  58.3016270  53.1984890  62.8677650  57.8534520  52.5720800
  64.1449750  58.6609050  52.6650040  71.8138370  51.1814710  67.6551660
  72.1384140  50.4504370  68.1809640  71.8494880  50.8628350  66.7532650
  58.5129930  62.2028290  67.0751620  58.1284720  61.5621960  67.6734580
  58.8242120  62.9064410  67.6446350  64.6627070  59.0504830  62.5560240
  65.0297200  58.5763400  63.3021580  64.4732130  59.9246400  62.8968580
  57.5267560  53.7948520  58.6853710  57.2414480  53.4304190  59.5232330
  57.4646420  53.0628980  58.0716850  62.4526440  58.0913470  64.8744450
  62.1483510  58.9705450  65.0994810  63.4072900  58.1513260  64.9101890
  71.7396210  61.2939820  61.2637690  72.4595330  61.7895110  60.8733800
  71.5378030  60.6157710  60.6191560  67.2006150  52.6877780  55.4067080
  66.3870760  52.1890950  55.3312390  67.0068100  53.5276030  54.9903430
  67.1215010  61.3648880  67.1506690  67.0552320  60.4444550  66.8964280
  66.4920150  61.4624320  67.8651330  69.9154540  57.0597430  53.7029240
  70.8034160  57.3714660  53.5280580  69.8859630  56.1869680  53.3109820
  58.5090170  58.9316210  66.0215810  58.1505110  59.5970060  66.6089150
  58.2144730  58.0999760  66.3928430  61.7103290  59.3900450  68.9055360
  61.4103430  59.5357630  68.0083180  62.4814530  58.8305740  68.8128750
  67.0531740  64.1869450  66.9010490  67.0676280  63.2550410  66.6829400
  66.3456840  64.2729210  67.5400260  72.1868810  58.3709270  53.1709100
  72.1032530  58.8023490  52.3205540  72.9063000  58.8307620  53.6035920
  73.2642950  60.8276790  66.2479070  72.5391140  61.4205570  66.0508460
  73.7918410  60.8200330  65.4492440  64.1833030  60.3180680  56.7658690
  64.6395810  61.1285930  56.9918880  63.8321240  60.0003820  57.5977180
  66.4865640  65.8287020  63.9950990  67.1307860  66.0346400  64.6724410
  66.8495080  65.0675420  63.5421840  60.0844810  50.6618330  57.2381210
  59.9559440  50.6536230  58.1866130  59.2606830  51.0001420  56.8872220
  67.7597720  63.8319370  62.7128440  68.4019950  63.1312530  62.8260610
  68.2847070  64.6117810  62.5325330  69.5335340  64.6314270  65.9164500
  69.8691580  65.2180960  66.5942420  68.6135680  64.5006980  66.1462290
  57.0838740  52.4209450  66.6987910  56.3697260  52.6206370  67.3040520
  57.5033780  51.6449020  67.0702710  71.1869690  62.0339930  54.0981740
  70.8991390  62.4952620  54.8859620  71.9821860  61.5737700  54.3665960
  57.3711330  66.4089710  67.6854440  57.4802450  65.4684450  67.5449830
  56.7191890  66.6744460  67.0368170  65.3623920  64.6805600  69.0852560
  65.0420790  63.9614840  69.6298250  64.6882280  65.3560670  69.1588620
  68.5777520  54.9131760  64.4489360  68.9458340  54.0926970  64.7768930
  67.7175720  54.9733650  64.8645010  71.9439550  53.8688700  55.2576920
  71.3152710  53.9734370  54.5435150  71.4491470  54.0885480  56.0470800
  63.9123580  56.1474650  56.6734800  63.2039730  56.6160990  57.1148410
  64.1968060  55.4896660  57.3079990  65.5379510  57.5671350  64.6727330
  66.0364760  58.0417170  65.3379180  65.6802460  56.6434870  64.8797360
  67.9439010  52.8725310  58.1130590  67.8206790  52.8911440  57.1640100
  68.8923570  52.9204250  58.2328990  62.1158600  54.4559730  54.0485510
  62.9649130  54.8929880  53.9825700  61.7489870  54.7679990  54.8757570
  72.7446370  53.7839310  65.5155720  72.2419970  54.5244710  65.8549530
  73.5603030  54.1723310  65.1992510  71.0368380  59.0272490  58.9617080
  70.0958520  59.0422720  59.1364770  71.3512450  58.2408450  59.4077380
  59.7096780  58.1417160  53.2053930  59.7900370  57.1944670  53.3171330
  60.6016530  58.4724040  53.3114590  73.0393960  66.1981340  60.6371340
  73.1641380  67.0212510  61.1095150  73.9059520  65.9872070  60.2895490
  59.5169770  67.4758620  69.4974050  60.3182500  67.7970670  69.9109450
  59.0021590  67.1154200  70.2193960  68.3534400  63.5838490  69.4449460
  67.7472560  63.6070090  68.7045210  68.0488510  62.8521530  69.9816710
  69.7834770  67.3118780  68.0558870  70.7356520  67.2276800  68.0059110
  69.6362990  67.9760490  68.7292660  57.2367580  59.9632080  68.4410100
  57.7406600  59.3839360  69.0126330  56.4975000  60.2472310  68.9786470
  64.2905520  61.3703070  67.9745620  63.5251190  61.9388070  67.8900290
  64.4721480  61.0779280  67.0813850  71.4328870  63.1008400  68.5320640
  72.1738340  63.4384160  68.0288100  70.6701550  63.2700460  67.9790410
  59.2690660  58.1061670  69.3360170  59.3096000  57.8075540  70.2445400
  60.1236160  58.5069280  69.1767690  63.0469050  60.7057220  54.4963680
  63.4685470  60.5397090  55.3395070  63.1719890  59.8957450  54.0018820
  61.2096470  56.6853770  67.3034660  60.6792930  56.1944720  66.6758000
  61.8784540  57.1137970  66.7692590  65.5596690  59.7294830  51.7440780
  66.0802350  59.0143850  51.3781930  66.2065090  60.3680700  52.0441290
  70.1074530  61.1523230  67.0675850  70.5215550  61.3068310  67.9166270
  69.1725530  61.2778450  67.2301630  70.5796700  58.4919390  69.0715000
  71.1617470  57.7371710  68.9835480  70.7558470  59.0226830  68.2946480
  61.6968770  53.6516140  67.3831950  61.6025640  53.0336890  66.6582820
  61.1166160  54.3782430  67.1561860  64.4630210  52.2089380  64.4159340
  64.0147510  52.2313640  63.5704890  63.8295410  51.8108400  65.0129640
  64.8689760  61.1043710  65.0371780  65.2877870  61.9476440  64.8648020
  63.9498390  61.2415750  64.8078560  67.2053660  58.8359890  66.4209620
  67.3249870  58.2401030  67.1604460  68.0647660  58.8729580  66.0010920
  69.5441560  59.3897080  64.9972130  69.0176780  59.9139700  64.3937270
  69.8872900  60.0224470  65.6281860  61.9427950  56.7790450  51.4421840
  61.7417010  55.9157810  51.8035180  61.7720000  56.6923810  50.5043440
  62.7197180  67.4096720  66.1529510  62.1818270  68.1342780  65.8338210
  62.9731140  66.9327060  65.3626850  63.9722430  55.3781240  67.6785440
  64.5622120  55.0697090  68.3663260  63.1542670  54.9060990  67.8345340
  68.7915860  54.9947050  67.9118460  68.1031380  54.3328590  67.8468450
  69.5121880  54.5485320  68.3566920  69.4216260  51.5898680  53.9708720
  69.7018550  50.7466580  54.3268140  68.6481990  51.8221790  54.4847470
  60.7410750  53.8791070  51.4299720  61.0436650  53.8858500  50.5218870
  61.4805340  53.5288930  51.9267380  65.5759390  68.6447930  66.4116160
  65.5018090  69.5483070  66.7188530  64.6738230  68.3259830  66.3838230
  63.9595680  52.8225690  52.4155920  63.6117680  52.1449680  51.8358370
  64.1608450  52.3615200  53.2299310  57.4676890  66.8393110  62.4531410
  57.0307880  67.0193910  63.2855560  58.0354570  67.5967730  62.3113130
  73.1039070  66.3410110  66.7408720  72.5041060  66.4002670  65.9972640
  73.2332970  65.4015090  66.8705570  74.3440520  64.0827930  52.0778430
  73.5133480  64.1504580  52.5485660  74.5212350  64.9732050  51.7745290
  73.7996980  60.8275410  54.5812630  74.5615890  61.3972060  54.6872320
  73.8151350  60.2602610  55.3520940  74.8056950  61.6825510  59.4254560
  75.1765780  60.8992830  59.0190530  75.4458880  62.3714610  59.2471860
  71.7890710  63.0662090  64.8384880  70.9750550  63.4959250  65.1010670
  72.1964910  63.6780500  64.2253930  73.8516150  61.1209780  51.7385150
  74.1264990  62.0288660  51.6104370  73.6626890  61.0572310  52.6747140
  70.2491760  54.1454630  53.0338780  70.6676640  53.9585610  52.1935440
  69.9427820  53.2933680  53.3441710  73.7481490  59.0578770  56.7314580
  73.3725090  58.2906700  56.2995870  73.0184610  59.4401470  57.2189510
  58.3377250  59.7365910  63.3523630  58.7050290  59.6493310  64.2319650
  57.7688070  58.9732460  63.2530490  73.1381110  58.2050290  66.3654100
  72.9067200  57.9763040  65.4652050  73.3985660  59.1249840  66.3198990
  57.8893250  56.6475000  67.2582050  56.9949300  56.6141760  67.5975760
  58.4290800  56.8461790  68.0233300  71.5769180  53.4306720  69.1433800
  72.4539360  53.4390120  69.5267800  71.5890020  52.6937560  68.5326150
  56.5139400  56.5612270  54.7545620  55.6103480  56.8242470  54.5797280
  56.9980020  56.8323440  53.9745580  73.0232450  57.2836260  60.0321820
  73.5469930  56.7898910  59.4011990  73.6091870  57.4186620  60.7769390
  73.2022170  57.3676130  63.5541370  72.2524880  57.3339670  63.6686360
  73.3835180  58.2776240  63.3191140  59.0566610  55.6177810  52.6640000
  59.7658310  55.1961030  52.1787280  58.3406550  55.6853040  52.0323350
  58.7040770  51.6717140  51.7042650  59.4268900  52.2126080  52.0223870
  58.9765290  51.3980560  50.8284190  72.5132420  56.5409610  55.9714230
  73.0091540  56.3080480  56.7563110  72.3148490  55.7021450  55.5551870
  58.3932960  50.9223330  61.6065270  59.0409150  50.3720710  61.1660430
  58.8134800  51.1766480  62.4281080  73.9419580  55.1770560  58.5051910
  73.8318860  55.0226600  59.4434180  74.7027170  54.6491500  58.2627320
  72.2885300  51.1164690  64.9634910  72.9257520  51.7298830  65.3294100
  72.4360190  51.1525350  64.0184140  74.8309850  53.0078480  51.7458050
  75.7559160  52.8759660  51.5376340  74.8085640  53.0871300  52.6994500
  74.9048340  53.7789140  54.3714760  74.1099840  53.7134260  54.9007670
  75.1091620  54.7139780  54.3600110  58.1464960  51.0779000  64.3490590
  57.7979780  51.5342820  65.1148770  57.8152660  50.1836130  64.4313020
  59.7529330  64.2498600  68.5143780  59.7098960  63.8791510  69.3958240
  59.8840340  65.1876170  68.6545600  63.4535360  65.8058190  64.1153500
  63.2126720  66.0732750  63.2284020  64.3938000  65.9763920  64.1704360
  65.6589780  52.2690880  67.8710010  65.5978670  52.8612710  68.6205420
  66.5990160  52.1616840  67.7260270  68.2964340  51.9260940  67.5102300
  68.9104750  52.2440230  66.8483380  68.8413900  51.4409530  68.1298160
  74.7139520  67.8252570  64.9164140  74.2197800  68.2221440  64.1991270
  74.1052810  67.2001780  65.3101420  58.8185600  50.6055200  67.6241360
  59.3668590  50.4243250  66.8607470  58.8840910  49.8149310  68.1597670
  59.5917360  67.1960850  65.6341560  58.9977680  67.0645550  66.3731600
  59.5841200  66.3598990  65.1683660  69.0372380  50.4893080  63.8371590
  68.1632220  50.8228190  63.6344520  68.9283130  50.0166260  64.6623460
  69.9444360  52.6963950  65.2213310  69.6157720  51.8815710  64.8415040
  70.8926660  52.6533760  65.0979000  72.3978970  68.4675990  62.1950880
  71.9381940  69.2191800  61.8208900  71.7691430  67.7482460  62.1365680
  59.2229590  64.5619230  64.5849600  58.4963650  63.9424520  64.5175550
  59.2838740  64.9559840  63.7147680  62.8274690  66.7764230  61.3699010
  63.3439710  66.1651590  60.8447270  63.4772070  67.2793010  61.8610020
  65.5670190  67.6672720  62.1967990  65.8548000  67.4127020  61.3201000
  66.0793410  67.1150080  62.7873560  66.7847200  51.4062920  62.7764500
  66.0018990  51.8808420  63.0561260  66.4910130  50.5017750  62.6677680
  71.3368270  52.1086020  60.8213590  71.7776360  52.0531120  59.9735190
  71.0675860  53.0244030  60.8923770  73.2006840  51.7401260  58.8322410
  73.1395240  50.7962480  58.6853430  73.9798870  51.8481350  59.3775870
  58.1287610  51.7110400  55.2978220  58.8866970  51.8239280  54.7242250
  57.6664780  52.5479600  55.2521650  64.6701420  53.8249670  58.2880530
  63.8575930  53.4506560  57.9476410  65.1743060  53.0694750  58.5901720
  69.1726400  50.4892120  59.5263600  69.7755770  51.0612330  60.0012120
  68.4319390  51.0531560  59.3037500  72.3161000  50.8913680  54.8003880
  72.5111630  51.7897130  55.0671310  71.5290870  50.6600760  55.2936830
  60.5012760  52.2374450  53.8380190  61.0305520  51.4504250  53.7088140
  61.1341080  52.9165640  54.0715720  62.6950600  51.9749590  56.8925580
  62.0653340  51.2736900  57.0595710  62.1555740  52.7353720  56.6758740
  65.6342550  68.5888820  69.5636190  66.5609860  68.3533090  69.6072150
  65.6192980  69.4160820  69.0822220  62.8206160  51.2533570  69.3278070
  62.5390430  51.7567170  68.5638890  63.2025860  50.4555320  68.9620200
  69.4221620  50.6687150  69.9058540  69.3087070  50.9881760  70.8010060
  70.2391360  51.0699660  69.6095820  72.2020110  67.8158680  69.3877230
  72.9945430  67.3207910  69.1803190  72.4953260  68.4948820  69.9952840
  68.3279770  58.6879620  40.2693280  68.2473820  57.7734230  39.9984990
  67.9144190  59.1846690  39.5632990  58.8855590  55.7380340  36.8120700
  57.9972290  56.0796310  36.7100580  59.1696780  55.5380660  35.9201530
  58.0913470  53.7470350  44.4829330  57.9116310  52.8496100  44.7632090
  57.6893550  54.2942220  45.1576280  66.9311970  55.9486210  42.3841640
  67.3076790  55.0758090  42.2715310  66.8331480  56.2844910  41.4932080
  61.0616980  54.3211840  37.8459080  61.1683730  55.2215570  38.1527840
  60.1509340  54.2729810  37.5553730  70.7136090  53.4436650  39.3169980
  71.5345710  52.9533220  39.3595460  70.7470170  54.0334310  40.0701820
  58.7100140  56.2430850  43.0911670  59.3910250  56.5069220  43.7099070
  58.3948190  55.4031720  43.4249680  62.9024710  57.2898210  42.1784260
  63.4102930  57.7879180  42.8189280  63.4337950  56.5133410  42.0023620
  75.0035640  55.4603400  45.8813610  74.2987810  55.8485110  45.3628720
  75.2693560  56.1553690  46.4834540  61.1860810  51.9296770  46.4447680
  61.1879250  52.4469160  45.6393580  60.3565120  51.4526950  46.4217610
  62.4363660  61.5691950  44.6221180  62.1033040  62.1960870  45.2642250
  62.6130340  62.0953830  43.8422850  70.9497570  55.3837030  42.0897520
  70.2453140  55.6721920  42.6700630  71.3109730  56.1937140  41.7297080
  60.8676140  53.6406730  44.4518130  61.2092950  54.4848780  44.1572000
  59.9291950  53.7890470  44.5683470  74.0184490  54.8291820  42.4806730
  73.0709400  54.8630800  42.6122160  74.3434480  55.6430770  42.8656090
  64.5504030  51.1289000  40.7762720  64.8579010  50.5735890  40.0598220
  63.6204730  51.2633460  40.5935710  66.9384790  59.1937830  37.5122840
  66.0114070  59.1275210  37.7411310  67.0909610  60.1317960  37.3978080
  66.9253870  55.4654830  34.5090000  65.9857540  55.6268790  34.5942460
  67.2437130  56.1840510  33.9625990  73.4466630  60.1473350  44.4869030
  72.6185260  60.2166440  44.0119160  74.0417110  60.7327660  44.0184860
  70.9682080  60.7558130  38.0158090  70.3494500  60.4177680  37.3684390
  70.9506530  60.1117890  38.7237280  70.4108640  56.9342670  45.4323900
  69.9979820  57.7596380  45.6863890  69.6784590  56.3487710  45.2400260
  62.5441430  59.7202570  40.2942570  62.1398430  59.0079820  39.7988470
  62.6304550  59.3755810  41.1830610  61.2570050  56.4945780  44.0741610
  61.8084640  56.6041120  43.2994860  61.7713560  56.8683380  44.7896840
  69.1446780  59.9944940  35.0230840  69.5840060  59.1567370  34.8768660
  69.8575200  60.6274340  35.1094980  72.7263920  51.2487750  33.3371880
  72.4136580  51.3414580  34.2370950  73.4876390  51.8268780  33.2869310
  74.6807950  66.7413940  51.1896270  75.1567670  67.2196830  51.8685350
  75.3015110  66.6731430  50.4641770  74.0841200  63.9326790  48.3496280
  74.2104260  63.6938670  47.4313460  74.1262580  63.1011330  48.8218360
  73.9365210  55.9859250  49.3146020  73.3209480  56.4938920  48.7861480
  73.6161630  55.0857580  49.2571960  61.7109720  51.9582620  41.1772890
  61.2677870  52.7392160  40.8457410  62.2694710  52.2812510  41.8843830
  65.9979530  54.8251140  46.7808210  65.5358900  55.0334160  47.5928150
  65.5957640  54.0110490  46.4778880  70.9984040  56.0460090  47.9104870
  70.1477630  55.7465840  48.2313940  70.8385830  56.2902100  46.9988690
  68.0933750  57.5461840  50.0103660  68.4187160  56.7125590  49.6705890
  68.8814080  58.0690360  50.1581990  64.8268540  51.5793320  36.0578720
  64.2022720  51.5753190  36.7832030  64.7398660  50.7124280  35.6614690
  63.7485620  52.5029950  43.0362490  64.0457950  53.4092780  42.9554510
  64.2971180  52.0148730  42.4222060  61.5023940  57.0816190  38.9054140
  61.2764860  56.8653360  39.8100760  60.7216470  57.5144650  38.5600110
  68.7321700  57.0879560  37.5044790  68.1330590  57.8115360  37.3208410
  69.2801310  57.0256340  36.7221240  63.9423150  57.9801770  49.5714410
  63.8466750  57.0396500  49.4214810  64.7855130  58.2016840  49.1762480
  67.3386570  55.7243100  39.5348070  67.7316140  56.0415300  38.7216760
  67.7003420  54.8454980  39.6492590  59.0733690  54.3915440  47.7248190
  58.6797080  55.2390650  47.9320970  58.3852090  53.7541810  47.9156830
  65.6478740  54.4750410  50.7944930  64.9577060  54.2822610  51.4291020
  66.3911040  54.7585050  51.3269230  56.3750740  52.3143900  41.7578270
  56.0863790  52.8846760  42.4703250  57.1196500  51.8348350  42.1209500
  56.5620970  56.2564020  32.9680990  56.4795640  57.1994780  33.1095980
  56.2104030  56.1138930  32.0893340  67.9241710  58.3148850  43.6298850
  67.1922830  58.8235660  43.9788950  67.5266050  57.4978830  43.3287630
  64.3619100  54.9903050  42.0351340  64.3655160  54.5493000  41.1855880
  65.2570220  55.3120380  42.1423160  60.2121480  54.8729540  40.9945550
  59.8721530  55.3504770  41.7512600  59.4498800  54.4194660  40.6346650
  64.4239250  55.9915130  35.0258100  64.5452070  55.9501610  35.9743920
  64.0387760  56.8539280  34.8704830  68.3867620  53.7682530  43.0421790
  68.4040360  54.2191180  43.8863640  68.1383200  52.8688170  43.2555230
  63.4360750  58.3016270  34.4241400  62.8677650  57.8534520  33.7977310
  64.1449750  58.6609050  33.8906550  71.8138370  51.1814710  48.8808170
  72.1384140  50.4504370  49.4066150  71.8494880  50.8628350  47.9789160
  64.6627070  59.0504830  43.7816750  65.0297200  58.5763400  44.5278090
  64.4732130  59.9246400  44.1225090  57.5267560  53.7948520  39.9110220
  57.2414480  53.4304190  40.7488840  57.4646420  53.0628980  39.2973360
  62.4526440  58.0913470  46.1000960  62.1483510  58.9705450  46.3251320
  63.4072900  58.1513260  46.1358400  71.7396210  61.2939820  42.4894200
  72.4595330  61.7895110  42.0990310  71.5378030  60.6157710  41.8448070
  67.2006150  52.6877780  36.6323590  66.3870760  52.1890950  36.5568900
  67.0068100  53.5276030  36.2159940  69.9154540  57.0597430  34.9285750
  70.8034160  57.3714660  34.7537090  69.8859630  56.1869680  34.5366330
  61.7103290  59.3900450  50.1311870  61.4103430  59.5357630  49.2339690
  62.4814530  58.8305740  50.0385260  72.1868810  58.3709270  34.3965610
  72.1032530  58.8023490  33.5462050  72.9063000  58.8307620  34.8292430
  73.2642950  60.8276790  47.4735580  72.5391140  61.4205570  47.2764970
  73.7918410  60.8200330  46.6748950  60.0844810  50.6618330  38.4637720
  59.9559440  50.6536230  39.4122640  59.2606830  51.0001420  38.1128730
  57.0838740  52.4209450  47.9244420  56.3697260  52.6206370  48.5297030
  57.5033780  51.6449020  48.2959220  71.1869690  62.0339930  35.3238250
  70.8991390  62.4952620  36.1116130  71.9821860  61.5737700  35.5922470
  68.5777520  54.9131760  45.6745870  68.9458340  54.0926970  46.0025440
  67.7175720  54.9733650  46.0901520  71.9439550  53.8688700  36.4833430
  71.3152710  53.9734370  35.7691660  71.4491470  54.0885480  37.2727310
  63.9123580  56.1474650  37.8991310  63.2039730  56.6160990  38.3404920
  64.1968060  55.4896660  38.5336500  65.5379510  57.5671350  45.8983840
  66.0364760  58.0417170  46.5635690  65.6802460  56.6434870  46.1053870
  67.9439010  52.8725310  39.3387100  67.8206790  52.8911440  38.3896610
  68.8923570  52.9204250  39.4585500  62.1158600  54.4559730  35.2742020
  62.9649130  54.8929880  35.2082210  61.7489870  54.7679990  36.1014080
  72.7446370  53.7839310  46.7412230  72.2419970  54.5244710  47.0806040
  73.5603030  54.1723310  46.4249020  71.0368380  59.0272490  40.1873590
  70.0958520  59.0422720  40.3621280  71.3512450  58.2408450  40.6333890
  72.6743970  66.6912990  34.7807290  72.3885480  66.2778130  33.9661470
  72.4763520  67.6200700  34.6607810  71.4328870  63.1008400  49.7577150
  72.1738340  63.4384160  49.2544610  70.6701550  63.2700460  49.2046920
  59.2690660  58.1061670  50.5616680  59.3096000  57.8075540  51.4701910
  60.1236160  58.5069280  50.4024200  63.0469050  60.7057220  35.7220190
  63.4685470  60.5397090  36.5651580  63.1719890  59.8957450  35.2275330
  61.2096470  56.6853770  48.5291170  60.6792930  56.1944720  47.9014510
  61.8784540  57.1137970  47.9949100  70.1074530  61.1523230  48.2932360
  70.5215550  61.3068310  49.1422780  69.1725530  61.2778450  48.4558140
  70.5796700  58.4919390  50.2971510  71.1617470  57.7371710  50.2091990
  70.7558470  59.0226830  49.5202990  61.6968770  53.6516140  48.6088460
  61.6025640  53.0336890  47.8839330  61.1166160  54.3782430  48.3818370
  64.4630210  52.2089380  45.6415850  64.0147510  52.2313640  44.7961400
  63.8295410  51.8108400  46.2386150  67.2053660  58.8359890  47.6466130
  67.3249870  58.2401030  48.3860970  68.0647660  58.8729580  47.2267430
  69.5441560  59.3897080  46.2228640  69.0176780  59.9139700  45.6193780
  69.8872900  60.0224470  46.8538370  61.9427950  56.7790450  32.6678350
  61.7417010  55.9157810  33.0291690  61.7720000  56.6923810  31.7299950
  63.9722430  55.3781240  48.9041950  64.5622120  55.0697090  49.5919770
  63.1542670  54.9060990  49.0601850  68.7915860  54.9947050  49.1374970
  68.1031380  54.3328590  49.0724960  69.5121880  54.5485320  49.5823430
  69.4216260  51.5898680  35.1965230  69.7018550  50.7466580  35.5524650
  68.6481990  51.8221790  35.7103980  60.7410750  53.8791070  32.6556230
  61.0436650  53.8858500  31.7475380  61.4805340  53.5288930  33.1523890
  63.9595680  52.8225690  33.6412430  63.6117680  52.1449680  33.0614880
  64.1608450  52.3615200  34.4555820  73.1039070  66.3410110  47.9665230
  72.5041060  66.4002670  47.2229150  73.2332970  65.4015090  48.0962080
  74.3440520  64.0827930  33.3034940  73.5133480  64.1504580  33.7742170
  74.5212350  64.9732050  33.0001800  73.7996980  60.8275410  35.8069140
  74.5615890  61.3972060  35.9128830  73.8151350  60.2602610  36.5777450
  74.8056950  61.6825510  40.6511070  75.1765780  60.8992830  40.2447040
  75.4458880  62.3714610  40.4728370  71.7890710  63.0662090  46.0641390
  70.9750550  63.4959250  46.3267180  72.1964910  63.6780500  45.4510440
  73.8516150  61.1209780  32.9641660  74.1264990  62.0288660  32.8360880
  73.6626890  61.0572310  33.9003650  70.2491760  54.1454630  34.2595290
  70.6676640  53.9585610  33.4191950  69.9427820  53.2933680  34.5698220
  73.7481490  59.0578770  37.9571090  73.3725090  58.2906700  37.5252380
  73.0184610  59.4401470  38.4446020  73.1381110  58.2050290  47.5910610
  72.9067200  57.9763040  46.6908560  73.3985660  59.1249840  47.5455500
  57.8893250  56.6475000  48.4838560  56.9949300  56.6141760  48.8232270
  58.4290800  56.8461790  49.2489810  71.5769180  53.4306720  50.3690310
  72.4539360  53.4390120  50.7524310  71.5890020  52.6937560  49.7582660
  56.5139400  56.5612270  35.9802130  55.6103480  56.8242470  35.8053790
  56.9980020  56.8323440  35.2002090  73.0232450  57.2836260  41.2578330
  73.5469930  56.7898910  40.6268500  73.6091870  57.4186620  42.0025900
  73.2022170  57.3676130  44.7797880  72.2524880  57.3339670  44.8942870
  73.3835180  58.2776240  44.5447650  59.0566610  55.6177810  33.8896510
  59.7658310  55.1961030  33.4043790  58.3406550  55.6853040  33.2579860
  58.7040770  51.6717140  32.9299160  59.4268900  52.2126080  33.2480380
  58.9765290  51.3980560  32.0540700  72.5132420  56.5409610  37.1970740
  73.0091540  56.3080480  37.9819620  72.3148490  55.7021450  36.7808380
  58.3932960  50.9223330  42.8321780  59.0409150  50.3720710  42.3916940
  58.8134800  51.1766480  43.6537590  73.9419580  55.1770560  39.7308420
  73.8318860  55.0226600  40.6690690  74.7027170  54.6491500  39.4883830
  72.2885300  51.1164690  46.1891420  72.9257520  51.7298830  46.5550610
  72.4360190  51.1525350  45.2440650  74.8309850  53.0078480  32.9714560
  75.7559160  52.8759660  32.7632850  74.8085640  53.0871300  33.9251010
  74.9048340  53.7789140  35.5971270  74.1099840  53.7134260  36.1264180
  75.1091620  54.7139780  35.5856620  58.1464960  51.0779000  45.5747100
  57.7979780  51.5342820  46.3405280  57.8152660  50.1836130  45.6569530
  65.6589780  52.2690880  49.0966520  65.5978670  52.8612710  49.8461930
  66.5990160  52.1616840  48.9516780  68.2964340  51.9260940  48.7358810
  68.9104750  52.2440230  48.0739890  68.8413900  51.4409530  49.3554670
  74.7139520  67.8252570  46.1420650  74.2197800  68.2221440  45.4247780
  74.1052810  67.2001780  46.5357930  58.8185600  50.6055200  48.8497870
  59.3668590  50.4243250  48.0863980  58.8840910  49.8149310  49.3854180
  69.0372380  50.4893080  45.0628100  68.1632220  50.8228190  44.8601030
  68.9283130  50.0166260  45.8879970  69.9444360  52.6963950  46.4469820
  69.6157720  51.8815710  46.0671550  70.8926660  52.6533760  46.3235510
  66.7847200  51.4062920  44.0021010  66.0018990  51.8808420  44.2817770
  66.4910130  50.5017750  43.8934190  71.3368270  52.1086020  42.0470100
  71.7776360  52.0531120  41.1991700  71.0675860  53.0244030  42.1180280
  73.2006840  51.7401260  40.0578920  73.1395240  50.7962480  39.9109940
  73.9798870  51.8481350  40.6032380  58.1287610  51.7110400  36.5234730
  58.8866970  51.8239280  35.9498760  57.6664780  52.5479600  36.4778160
  64.6701420  53.8249670  39.5137040  63.8575930  53.4506560  39.1732920
  65.1743060  53.0694750  39.8158230  69.1726400  50.4892120  40.7520110
  69.7755770  51.0612330  41.2268630  68.4319390  51.0531560  40.5294010
  72.3161000  50.8913680  36.0260390  72.5111630  51.7897130  36.2927820
  71.5290870  50.6600760  36.5193340  60.5012760  52.2374450  35.0636700
  61.0305520  51.4504250  34.9344650  61.1341080  52.9165640  35.2972230
  62.6950600  51.9749590  38.1182090  62.0653340  51.2736900  38.2852220
  62.1555740  52.7353720  37.9015250  73.8687610  68.1314390  37.7866950
  74.0439800  67.4452130  37.1427870  73.1709180  68.6561440  37.3943620
  62.8206160  51.2533570  50.5534580  62.5390430  51.7567170  49.7895400
  63.2025860  50.4555320  50.1876710  69.4221620  50.6687150  51.1315050
  69.3087070  50.9881760  52.0266570  70.2391360  51.0699660  50.8352330
  68.3279770  58.6879620  21.4949790  68.2473820  57.7734230  21.2241500
  67.9144190  59.1846690  20.7889500  66.4597810  60.4658640  23.3759060
  65.6839910  59.9859080  23.6657630  67.1110740  59.7864290  23.2015220
  60.4763640  60.7778450  24.2534820  59.6448520  60.5227160  24.6531330
  61.0844620  60.8489220  24.9892740  70.4805240  64.8718830  22.1558190
  70.0186770  64.1006070  22.4845360  71.2930790  64.8984900  22.6610640
  60.4564900  64.8118540  24.4492840  60.7592940  63.9216280  24.2703060
  61.2008490  65.3688760  24.2215090  58.8855590  55.7380340  18.0377210
  57.9972290  56.0796310  17.9357090  59.1696780  55.5380660  17.1458040
  56.8488600  58.3385990  23.9216910  57.4204710  57.5708190  23.9220550
  56.8490140  58.6374750  23.0123520  66.7068550  67.1576840  21.7762180
  66.0879990  67.6134340  21.2056620  67.5620330  67.3128300  21.3751880
  65.9006800  63.1415830  23.3829220  65.8315080  62.2005770  23.2218350
  66.6626660  63.2317240  23.9551790  58.0913470  53.7470350  25.7085840
  57.9116310  52.8496100  25.9888600  57.6893550  54.2942220  26.3832790
  66.9311970  55.9486210  23.6098150  67.3076790  55.0758090  23.4971820
  66.8331480  56.2844910  22.7188590  61.0616980  54.3211840  19.0715590
  61.1683730  55.2215570  19.3784350  60.1509340  54.2729810  18.7810240
  70.7136090  53.4436650  20.5426490  71.5345710  52.9533220  20.5851970
  70.7470170  54.0334310  21.2958330  58.7100140  56.2430850  24.3168180
  59.3910250  56.5069220  24.9355580  58.3948190  55.4031720  24.6506190
  62.9024710  57.2898210  23.4040770  63.4102930  57.7879180  24.0445790
  63.4337950  56.5133410  23.2280130  75.0035640  55.4603400  27.1070120
  74.2987810  55.8485110  26.5885230  75.2693560  56.1553690  27.7091050
  61.1860810  51.9296770  27.6704190  61.1879250  52.4469160  26.8650090
  60.3565120  51.4526950  27.6474120  67.5731900  62.0416080  19.1694090
  66.9549170  62.5065530  18.6056810  68.0855150  62.7343560  19.5863600
  62.4363660  61.5691950  25.8477690  62.1033040  62.1960870  26.4898760
  62.6130340  62.0953830  25.0679360  70.9497570  55.3837030  23.3154030
  70.2453140  55.6721920  23.8957140  71.3109730  56.1937140  22.9553590
  60.8676140  53.6406730  25.6774640  61.2092950  54.4848780  25.3828510
  59.9291950  53.7890470  25.7939980  56.9415100  62.7272610  16.5433720
  56.5643080  63.2159710  15.8118620  57.1988170  63.3997890  17.1740250
  74.0184490  54.8291820  23.7063240  73.0709400  54.8630800  23.8378670
  74.3434480  55.6430770  24.0912600  64.5504030  51.1289000  22.0019230
  64.8579010  50.5735890  21.2854730  63.6204730  51.2633460  21.8192220
  71.3964510  63.5672510  19.3816860  71.2860840  62.6246840  19.5066280
  71.3932760  63.9288150  20.2679620  66.9384790  59.1937830  18.7379350
  66.0114070  59.1275210  18.9667820  67.0909610  60.1317960  18.6234590
  66.9253870  55.4654830  15.7346510  65.9857540  55.6268790  15.8198970
  67.2437130  56.1840510  15.1882500  73.4466630  60.1473350  25.7125540
  72.6185260  60.2166440  25.2375670  74.0417110  60.7327660  25.2441370
  70.9682080  60.7558130  19.2414600  70.3494500  60.4177680  18.5940900
  70.9506530  60.1117890  19.9493790  70.4108640  56.9342670  26.6580410
  69.9979820  57.7596380  26.9120400  69.6784590  56.3487710  26.4656770
  62.5441430  59.7202570  21.5199080  62.1398430  59.0079820  21.0244980
  62.6304550  59.3755810  22.4087120  63.0123130  63.4070130  23.6838290
  62.7151420  62.8015600  23.0046070  63.9622950  63.4447440  23.5727650
  61.2570050  56.4945780  25.2998120  61.8084640  56.6041120  24.5251370
  61.7713560  56.8683380  26.0153350  69.1446780  59.9944940  16.2487350
  69.5840060  59.1567370  16.1025170  69.8575200  60.6274340  16.3351490
  67.2542160  64.9341010  20.2168590  67.6938070  65.6765340  19.8023980
  67.1929050  65.1767580  21.1407550  72.7263920  51.2487750  14.5628390
  72.4136580  51.3414580  15.4627460  73.4876390  51.8268780  14.5125820
  59.2446060  58.6147550  19.0205730  59.1243660  59.3409640  18.4087000
  58.9346950  57.8450460  18.5433640  74.6807950  66.7413940  32.4152780
  75.1567670  67.2196830  33.0941860  75.3015110  66.6731430  31.6898280
  58.1279060  63.4862880  21.2380550  57.7207140  63.6277470  20.3834150
  59.0192070  63.2023040  21.0351760  74.0841200  63.9326790  29.5752790
  74.2104260  63.6938670  28.6569970  74.1262580  63.1011330  30.0474870
  69.9212340  67.9210130  17.5731600  69.7613480  67.6313070  18.4713430
  69.7559050  67.1450260  17.0376830  62.4000720  67.7008660  19.3503220
  62.2243200  66.7844200  19.1371020  61.5456460  68.0595950  19.5901020
  69.6238470  65.4297690  16.1329600  68.9303630  65.4274980  15.4731880
  70.3661330  65.0057010  15.7023770  69.1888400  67.0560400  20.2078090
  69.6445350  66.2749780  20.5216710  69.5280920  67.7667220  20.7519270
  73.9365210  55.9859250  30.5402530  73.3209480  56.4938920  30.0117990
  73.6161630  55.0857580  30.4828470  61.7109720  51.9582620  22.4029400
  61.2677870  52.7392160  22.0713920  62.2694710  52.2812510  23.1100340
  65.9979530  54.8251140  28.0064720  65.5358900  55.0334160  28.8184660
  65.5957640  54.0110490  27.7035390  70.9984040  56.0460090  29.1361380
  70.1477630  55.7465840  29.4570450  70.8385830  56.2902100  28.2245200
  68.0933750  57.5461840  31.2360170  68.4187160  56.7125590  30.8962400
  68.8814080  58.0690360  31.3838500  64.8268540  51.5793320  17.2835230
  64.2022720  51.5753190  18.0088540  64.7398660  50.7124280  16.8871200
  63.7485620  52.5029950  24.2619000  64.0457950  53.4092780  24.1811020
  64.2971180  52.0148730  23.6478570  61.5023940  57.0816190  20.1310650
  61.2764860  56.8653360  21.0357270  60.7216470  57.5144650  19.7856620
  68.7321700  57.0879560  18.7301300  68.1330590  57.8115360  18.5464920
  69.2801310  57.0256340  17.9477750  63.9423150  57.9801770  30.7970920
  63.8466750  57.0396500  30.6471320  64.7855130  58.2016840  30.4018990
  67.3386570  55.7243100  20.7604580  67.7316140  56.0415300  19.9473270
  67.7003420  54.8454980  20.8749100  59.0733690  54.3915440  28.9504700
  58.6797080  55.2390650  29.1577480  58.3852090  53.7541810  29.1413340
  65.6478740  54.4750410  32.0201440  64.9577060  54.2822610  32.6547530
  66.3911040  54.7585050  32.5525740  56.3750740  52.3143900  22.9834780
  56.0863790  52.8846760  23.6959760  57.1196500  51.8348350  23.3466010
  56.5620970  56.2564020  14.1937500  56.4795640  57.1994780  14.3352490
  56.2104030  56.1138930  13.3149850  67.9241710  58.3148850  24.8555360
  67.1922830  58.8235660  25.2045460  67.5266050  57.4978830  24.5544140
  64.3619100  54.9903050  23.2607850  64.3655160  54.5493000  22.4112390
  65.2570220  55.3120380  23.3679670  60.2121480  54.8729540  22.2202060
  59.8721530  55.3504770  22.9769110  59.4498800  54.4194660  21.8603160
  64.4239250  55.9915130  16.2514610  64.5452070  55.9501610  17.2000430
  64.0387760  56.8539280  16.0961340  68.3867620  53.7682530  24.2678300
  68.4040360  54.2191180  25.1120150  68.1383200  52.8688170  24.4811740
  63.4360750  58.3016270  15.6497910  62.8677650  57.8534520  15.0233820
  64.1449750  58.6609050  15.1163060  71.8138370  51.1814710  30.1064680
  72.1384140  50.4504370  30.6322660  71.8494880  50.8628350  29.2045670
  64.6627070  59.0504830  25.0073260  65.0297200  58.5763400  25.7534600
  64.4732130  59.9246400  25.3481600  57.5267560  53.7948520  21.1366730
  57.2414480  53.4304190  21.9745350  57.4646420  53.0628980  20.5229870
  62.4526440  58.0913470  27.3257470  62.1483510  58.9705450  27.5507830
  63.4072900  58.1513260  27.3614910  60.9808230  62.2974460  17.9224320
  60.2070490  61.7572080  17.7623040  61.7102860  61.7781070  17.5842080
  71.7396210  61.2939820  23.7150710  72.4595330  61.7895110  23.3246820
  71.5378030  60.6157710  23.0704580  67.2006150  52.6877780  17.8580100
  66.3870760  52.1890950  17.7825410  67.0068100  53.5276030  17.4416450
  69.9154540  57.0597430  16.1542260  70.8034160  57.3714660  15.9793600
  69.8859630  56.1869680  15.7622840  61.0245630  61.9654840  21.5603130
  61.5424300  61.1623100  21.5060020  60.5729650  61.9033980  22.4019960
  65.9115130  63.2321120  16.8330430  66.2530830  63.9763350  16.3373750
  65.0827840  63.5452240  17.1955260  61.7103290  59.3900450  31.3568380
  61.4103430  59.5357630  30.4596200  62.4814530  58.8305740  31.2641770
  72.1868810  58.3709270  15.6222120  72.1032530  58.8023490  14.7718560
  72.9063000  58.8307620  16.0548940  73.2642950  60.8276790  28.6992090
  72.5391140  61.4205570  28.5021480  73.7918410  60.8200330  27.9005460
  73.2156060  65.2251530  18.3504250  72.5732220  64.5707150  18.6247970
  72.8286720  65.6306620  17.5744920  68.7942540  62.5536960  22.1975940
  69.1466360  61.9565090  21.5377310  67.9104870  62.2281190  22.3684190
  64.8805820  63.3134650  19.6046350  65.5676950  63.8603860  19.9853940
  64.0938240  63.8575380  19.6395960  57.0198220  58.9307470  15.0963430
  57.8893070  59.2132270  15.3799350  56.5288540  59.7443340  14.9812240
  64.1833030  60.3180680  19.2171710  64.6395810  61.1285930  19.4431900
  63.8321240  60.0003820  20.0490200  60.0844810  50.6618330  19.6894230
  59.9559440  50.6536230  20.6379150  59.2606830  51.0001420  19.3385240
  71.6053440  64.1167990  14.8880600  71.3791020  63.3998430  15.4805240
  71.2149640  63.8680430  14.0502350  57.3869470  68.1434850  15.6625060
  57.7467110  68.7424190  15.0082330  57.2461810  68.6894740  16.4360090
  57.0838740  52.4209450  29.1500930  56.3697260  52.6206370  29.7553540
  57.5033780  51.6449020  29.5215730  71.1869690  62.0339930  16.5494760
  70.8991390  62.4952620  17.3372640  71.9821860  61.5737700  16.8178980
  63.4038090  65.5266050  16.4798730  63.3948190  66.2595740  15.8643240
  62.4836450  65.2797630  16.5725690  59.0044730  60.7480940  17.2245490
  58.3972680  61.4879840  17.2340790  59.4794080  60.8380300  16.3983690
  68.5777520  54.9131760  26.9002380  68.9458340  54.0926970  27.2281950
  67.7175720  54.9733650  27.3158030  71.9439550  53.8688700  17.7089940
  71.3152710  53.9734370  16.9948170  71.4491470  54.0885480  18.4983820
  66.3897690  65.5894290  15.1423920  66.4909670  65.3858280  14.2125900
  65.4899430  65.3352570  15.3471700  63.9123580  56.1474650  19.1247820
  63.2039730  56.6160990  19.5661430  64.1968060  55.4896660  19.7593010
  65.5379510  57.5671350  27.1240350  66.0364760  58.0417170  27.7892200
  65.6802460  56.6434870  27.3310380  67.9439010  52.8725310  20.5643610
  67.8206790  52.8911440  19.6153120  68.8923570  52.9204250  20.6842010
  65.0315800  68.1080610  19.8371590  65.2857300  68.0702000  18.9150960
  64.0828280  67.9813940  19.8299840  62.1158600  54.4559730  16.4998530
  62.9649130  54.8929880  16.4338720  61.7489870  54.7679990  17.3270590
  72.7446370  53.7839310  27.9668740  72.2419970  54.5244710  28.3062550
  73.5603030  54.1723310  27.6505530  71.0368380  59.0272490  21.4130100
  70.0958520  59.0422720  21.5877790  71.3512450  58.2408450  21.8590400
  61.0150020  60.7092090  14.9734060  61.7813290  60.5973450  15.5359490
  61.0924710  60.0130060  14.3210830  59.7096780  58.1417160  15.6566950
  59.7900370  57.1944670  15.7684350  60.6016530  58.4724040  15.7627610
  73.0393960  66.1981340  23.0884360  73.1641380  67.0212510  23.5608170
  73.9059520  65.9872070  22.7408510  60.5111490  68.2912550  22.7601490
  61.2473970  67.7428010  23.0310060  60.8952410  69.1568560  22.6207480
  57.3956970  64.3586120  18.6343000  56.4696750  64.6007260  18.6248410
  57.8613400  65.1860380  18.5127750  63.6213800  67.4642860  14.5827060
  64.4142410  67.7531690  14.1308850  63.1018150  67.0335030  13.9039540
  72.6743970  66.6912990  16.0063800  72.3885480  66.2778130  15.1917980
  72.4763520  67.6200700  15.8864320  64.1391200  62.6846270  14.4469410
  64.0341840  62.0698620  15.1730790  63.9715420  62.1612160  13.6632420
  67.3793930  61.7466300  15.0511400  66.8304030  62.1935600  15.6954140
  68.0013190  61.2415550  15.5749070  63.0469050  60.7057220  16.9476700
  63.4685470  60.5397090  17.7908090  63.1719890  59.8957450  16.4531840
  61.2096470  56.6853770  29.7547680  60.6792930  56.1944720  29.1271020
  61.8784540  57.1137970  29.2205610  65.5596690  59.7294830  14.1953800
  66.0802350  59.0143850  13.8294950  66.2065090  60.3680700  14.4954310
  70.5796700  58.4919390  31.5228020  71.1617470  57.7371710  31.4348500
  70.7558470  59.0226830  30.7459500  61.6968770  53.6516140  29.8344970
  61.6025640  53.0336890  29.1095840  61.1166160  54.3782430  29.6074880
  64.4630210  52.2089380  26.8672360  64.0147510  52.2313640  26.0217910
  63.8295410  51.8108400  27.4642660  69.5441560  59.3897080  27.4485150
  69.0176780  59.9139700  26.8450290  69.8872900  60.0224470  28.0794880
  61.9427950  56.7790450  13.8934860  61.7417010  55.9157810  14.2548200
  61.7720000  56.6923810  12.9556460  63.9722430  55.3781240  30.1298460
  64.5622120  55.0697090  30.8176280  63.1542670  54.9060990  30.2858360
  68.7915860  54.9947050  30.3631480  68.1031380  54.3328590  30.2981470
  69.5121880  54.5485320  30.8079940  69.4216260  51.5898680  16.4221740
  69.7018550  50.7466580  16.7781160  68.6481990  51.8221790  16.9360490
  60.7410750  53.8791070  13.8812740  61.0436650  53.8858500  12.9731890
  61.4805340  53.5288930  14.3780400  63.9595680  52.8225690  14.8668940
  63.6117680  52.1449680  14.2871390  64.1608450  52.3615200  15.6812330
  66.1244720  67.8106440  16.4855540  67.0195510  68.1491410  16.5074300
  66.1562350  67.0885850  15.8579820  59.7640880  63.1833490  14.7142540
  60.2015750  63.7263160  15.3700120  60.2488610  62.3580440  14.7238880
  56.9786680  65.9722520  22.1662800  57.3089690  65.1043580  21.9341440
  57.4077680  66.1781040  22.9967760  61.5748600  64.3031530  19.8264770
  61.2744140  64.1796500  20.7268680  61.4686090  63.4440120  19.4180500
  73.1039070  66.3410110  29.1921740  72.5041060  66.4002670  28.4485660
  73.2332970  65.4015090  29.3218590  74.3440520  64.0827930  14.5291450
  73.5133480  64.1504580  14.9998680  74.5212350  64.9732050  14.2258310
  73.7996980  60.8275410  17.0325650  74.5615890  61.3972060  17.1385340
  73.8151350  60.2602610  17.8033960  57.3001320  59.3513340  21.2633310
  56.6450160  59.0824980  20.6193010  58.1379270  59.2417820  20.8135290
  74.8056950  61.6825510  21.8767580  75.1765780  60.8992830  21.4703550
  75.4458880  62.3714610  21.6984880  73.8516150  61.1209780  14.1898170
  74.1264990  62.0288660  14.0617390  73.6626890  61.0572310  15.1260160
  70.2491760  54.1454630  15.4851800  70.6676640  53.9585610  14.6448460
  69.9427820  53.2933680  15.7954730  73.7481490  59.0578770  19.1827600
  73.3725090  58.2906700  18.7508890  73.0184610  59.4401470  19.6702530
  73.1381110  58.2050290  28.8167120  72.9067200  57.9763040  27.9165070
  73.3985660  59.1249840  28.7712010  57.8893250  56.6475000  29.7095070
  56.9949300  56.6141760  30.0488780  58.4290800  56.8461790  30.4746320
  71.5769180  53.4306720  31.5946820  72.4539360  53.4390120  31.9780820
  71.5890020  52.6937560  30.9839170  56.5139400  56.5612270  17.2058640
  55.6103480  56.8242470  17.0310300  56.9980020  56.8323440  16.4258600
  73.0232450  57.2836260  22.4834840  73.5469930  56.7898910  21.8525010
  73.6091870  57.4186620  23.2282410  73.2022170  57.3676130  26.0054390
  72.2524880  57.3339670  26.1199380  73.3835180  58.2776240  25.7704160
  59.0566610  55.6177810  15.1153020  59.7658310  55.1961030  14.6300300
  58.3406550  55.6853040  14.4836370  58.7040770  51.6717140  14.1555670
  59.4268900  52.2126080  14.4736890  58.9765290  51.3980560  13.2797210
  72.5132420  56.5409610  18.4227250  73.0091540  56.3080480  19.2076130
  72.3148490  55.7021450  18.0064890  58.3932960  50.9223330  24.0578290
  59.0409150  50.3720710  23.6173450  58.8134800  51.1766480  24.8794100
  73.9419580  55.1770560  20.9564930  73.8318860  55.0226600  21.8947200
  74.7027170  54.6491500  20.7140340  72.2885300  51.1164690  27.4147930
  72.9257520  51.7298830  27.7807120  72.4360190  51.1525350  26.4697160
  74.8309850  53.0078480  14.1971070  75.7559160  52.8759660  13.9889360
  74.8085640  53.0871300  15.1507520  74.9048340  53.7789140  16.8227780
  74.1099840  53.7134260  17.3520690  75.1091620  54.7139780  16.8113130
  71.8466760  67.8180690  20.8166170  72.4425830  67.4965260  20.1400590
  72.1044910  67.3452510  21.6079440  58.1464960  51.0779000  26.8003610
  57.7979780  51.5342820  27.5661790  57.8152660  50.1836130  26.8826040
  65.6589780  52.2690880  30.3223030  65.5978670  52.8612710  31.0718440
  66.5990160  52.1616840  30.1773290  68.2964340  51.9260940  29.9615320
  68.9104750  52.2440230  29.2996400  68.8413900  51.4409530  30.5811180
  74.7139520  67.8252570  27.3677160  74.2197800  68.2221440  26.6504290
  74.1052810  67.2001780  27.7614440  58.8185600  50.6055200  30.0754380
  59.3668590  50.4243250  29.3120490  58.8840910  49.8149310  30.6110690
  69.0372380  50.4893080  26.2884610  68.1632220  50.8228190  26.0857540
  68.9283130  50.0166260  27.1136480  69.9444360  52.6963950  27.6726330
  69.6157720  51.8815710  27.2928060  70.8926660  52.6533760  27.5492020
  72.3978970  68.4675990  24.6463900  71.9381940  69.2191800  24.2721920
  71.7691430  67.7482460  24.5878700  62.8274690  66.7764230  23.8212030
  63.3439710  66.1651590  23.2960290  63.4772070  67.2793010  24.3123040
  65.5670190  67.6672720  24.6481010  65.8548000  67.4127020  23.7714020
  66.0793410  67.1150080  25.2386580  66.7847200  51.4062920  25.2277520
  66.0018990  51.8808420  25.5074280  66.4910130  50.5017750  25.1190700
  71.3368270  52.1086020  23.2726610  71.7776360  52.0531120  22.4248210
  71.0675860  53.0244030  23.3436790  73.2006840  51.7401260  21.2835430
  73.1395240  50.7962480  21.1366450  73.9798870  51.8481350  21.8288890
  57.5059590  67.8793620  20.2459380  57.3381630  67.2464300  20.9441270
  56.6394100  68.0853020  19.8953570  58.1287610  51.7110400  17.7491240
  58.8866970  51.8239280  17.1755270  57.6664780  52.5479600  17.7034670
  64.6701420  53.8249670  20.7393550  63.8575930  53.4506560  20.3989430
  65.1743060  53.0694750  21.0414740  69.1726400  50.4892120  21.9776620
  69.7755770  51.0612330  22.4525140  68.4319390  51.0531560  21.7550520
  72.3161000  50.8913680  17.2516900  72.5111630  51.7897130  17.5184330
  71.5290870  50.6600760  17.7449850  59.1122290  66.5726850  17.6909520
  58.5869910  66.9534880  16.9871480  59.0366870  67.1977620  18.4119230
  60.5012760  52.2374450  16.2893210  61.0305520  51.4504250  16.1601160
  61.1341080  52.9165640  16.5228740  62.6950600  51.9749590  19.3438600
  62.0653340  51.2736900  19.5108730  62.1555740  52.7353720  19.1271760
  73.8687610  68.1314390  19.0123460  74.0439800  67.4452130  18.3684380
  73.1709180  68.6561440  18.6200130  62.8206160  51.2533570  31.7791090
  62.5390430  51.7567170  31.0151910  63.2025860  50.4555320  31.4133220
  61.7115260  68.5209230  16.5658770  62.4434080  68.2368510  16.0182660
  61.9708930  68.2822510  17.4558150  60.8730050  64.6373960  16.5705100
  60.2438930  65.1059060  17.1190930  60.9877880  63.7923180  17.0051290
  69.4221620  50.6687150  32.3571560  69.3087070  50.9881760  33.2523080
  70.2391360  51.0699660  32.0608840  72.2020110  67.8158680  31.8390250
  72.9945430  67.3207910  31.6316210  72.4953260  68.4948820  32.4465860
  68.3279770  58.6879620   2.7206300  68.2473820  57.7734230   2.4498010
  67.9144190  59.1846690   2.0146010  66.4597810  60.4658640   4.6015570
  65.6839910  59.9859080   4.8914140  67.1110740  59.7864290   4.4271730
  60.4763640  60.7778450   5.4791330  59.6448520  60.5227160   5.8787840
  61.0844620  60.8489220   6.2149250  70.4805240  64.8718830   3.3814700
  70.0186770  64.1006070   3.7101870  71.2930790  64.8984900   3.8867150
  60.4564900  64.8118540   5.6749350  60.7592940  63.9216280   5.4959570
  61.2008490  65.3688760   5.4471600  56.8488600  58.3385990   5.1473420
  57.4204710  57.5708190   5.1477060  56.8490140  58.6374750   4.2380030
  66.7068550  67.1576840   3.0018690  66.0879990  67.6134340   2.4313130
  67.5620330  67.3128300   2.6008390  65.9006800  63.1415830   4.6085730
  65.8315080  62.2005770   4.4474860  66.6626660  63.2317240   5.1808300
  58.0913470  53.7470350   6.9342350  57.9116310  52.8496100   7.2145110
  57.6893550  54.2942220   7.6089300  66.9311970  55.9486210   4.8354660
  67.3076790  55.0758090   4.7228330  66.8331480  56.2844910   3.9445100
  70.7136090  53.4436650   1.7683000  71.5345710  52.9533220   1.8108480
  70.7470170  54.0334310   2.5214840  58.7100140  56.2430850   5.5424690
  59.3910250  56.5069220   6.1612090  58.3948190  55.4031720   5.8762700
  62.9024710  57.2898210   4.6297280  63.4102930  57.7879180   5.2702300
  63.4337950  56.5133410   4.4536640  75.0035640  55.4603400   8.3326630
  74.2987810  55.8485110   7.8141740  75.2693560  56.1553690   8.9347560
  61.1860810  51.9296770   8.8960700  61.1879250  52.4469160   8.0906600
  60.3565120  51.4526950   8.8730630  62.4363660  61.5691950   7.0734200
  62.1033040  62.1960870   7.7155270  62.6130340  62.0953830   6.2935870
  70.9497570  55.3837030   4.5410540  70.2453140  55.6721920   5.1213650
  71.3109730  56.1937140   4.1810100  60.8676140  53.6406730   6.9031150
  61.2092950  54.4848780   6.6085020  59.9291950  53.7890470   7.0196490
  61.6482760  63.5372750   8.8883380  62.2656760  64.2123830   8.6067830
  60.7875880  63.9460730   8.7970880  72.5660350  65.0012160   6.8038020
  71.8823870  65.6711270   6.7954690  73.1054640  65.1992810   6.0382880
  74.0184490  54.8291820   4.9319750  73.0709400  54.8630800   5.0635180
  74.3434480  55.6430770   5.3169110  64.5504030  51.1289000   3.2275740
  64.8579010  50.5735890   2.5111240  63.6204730  51.2633460   3.0448730
  70.1019090  66.8456290   5.5183200  70.1146250  66.4418580   4.6505460
  69.5494310  67.6203580   5.4144630  69.5004530  61.7486130   6.8465810
  69.9173320  61.5346240   6.0119270  70.2244350  62.0058920   7.4174430
  73.4466630  60.1473350   6.9382050  72.6185260  60.2166440   6.4632180
  74.0417110  60.7327660   6.4697880  70.4108640  56.9342670   7.8836920
  69.9979820  57.7596380   8.1376910  69.6784590  56.3487710   7.6913280
  62.5441430  59.7202570   2.7455590  62.1398430  59.0079820   2.2501490
  62.6304550  59.3755810   3.6343630  63.0123130  63.4070130   4.9094800
  62.7151420  62.8015600   4.2302580  63.9622950  63.4447440   4.7984160
  61.2570050  56.4945780   6.5254630  61.8084640  56.6041120   5.7507880
  61.7713560  56.8683380   7.2409860  71.1008740  66.9802000   8.5717900
  70.6239300  67.7874190   8.3790510  70.4170530  66.3280330   8.7244110
  62.1041560  63.1451820  11.5602600  61.2070090  63.3691790  11.8076000
  62.1294430  63.2686760  10.6114000  60.9312780  60.0165140  10.1359970
  60.7920550  60.8887940  10.5047370  60.0494140  59.6737950   9.9907910
  62.7293130  65.9586840  12.3445120  62.7008560  66.3629790  11.4773550
  62.5658100  65.0297200  12.1816720  74.6807950  66.7413940  13.6409290
  75.1567670  67.2196830  14.3198370  75.3015110  66.6731430  12.9154790
  56.8831430  61.7862690   6.0530880  56.9611850  61.9211460   5.1086600
  57.4973110  61.0778580   6.2459000  58.1279060  63.4862880   2.4637060
  57.7207140  63.6277470   1.6090660  59.0192070  63.2023040   2.2608270
  74.0841200  63.9326790  10.8009300  74.2104260  63.6938670   9.8826480
  74.1262580  63.1011330  11.2731380  67.9457940  67.6354790   9.3704110
  68.4602610  67.5462800  10.1726540  67.1027020  67.9814490   9.6632020
  73.9365210  55.9859250  11.7659040  73.3209480  56.4938920  11.2374500
  73.6161630  55.0857580  11.7084980  56.9390950  62.8276860   8.5925340
  57.1021990  62.3582220   7.7744710  57.4043400  62.3200420   9.2574180
  61.7109720  51.9582620   3.6285910  61.2677870  52.7392160   3.2970430
  62.2694710  52.2812510   4.3356850  65.9979530  54.8251140   9.2321230
  65.5358900  55.0334160  10.0441170  65.5957640  54.0110490   8.9291900
  70.9984040  56.0460090  10.3617890  70.1477630  55.7465840  10.6826960
  70.8385830  56.2902100   9.4501710  68.0933750  57.5461840  12.4616680
  68.4187160  56.7125590  12.1218910  68.8814080  58.0690360  12.6095010
  63.7485620  52.5029950   5.4875510  64.0457950  53.4092780   5.4067530
  64.2971180  52.0148730   4.8735080  63.9423150  57.9801770  12.0227430
  63.8466750  57.0396500  11.8727830  64.7855130  58.2016840  11.6275500
  59.0733690  54.3915440  10.1761210  58.6797080  55.2390650  10.3833990
  58.3852090  53.7541810  10.3669850  65.6478740  54.4750410  13.2457950
  64.9577060  54.2822610  13.8804040  66.3911040  54.7585050  13.7782250
  56.3750740  52.3143900   4.2091290  56.0863790  52.8846760   4.9216270
  57.1196500  51.8348350   4.5722520  67.9241710  58.3148850   6.0811870
  67.1922830  58.8235660   6.4301970  67.5266050  57.4978830   5.7800650
  64.3619100  54.9903050   4.4864360  64.3655160  54.5493000   3.6368900
  65.2570220  55.3120380   4.5936180  60.2121480  54.8729540   3.4458570
  59.8721530  55.3504770   4.2025620  59.4498800  54.4194660   3.0859670
  68.3867620  53.7682530   5.4934810  68.4040360  54.2191180   6.3376660
  68.1383200  52.8688170   5.7068250  71.8138370  51.1814710  11.3321190
  72.1384140  50.4504370  11.8579170  71.8494880  50.8628350  10.4302180
  58.5129930  62.2028290  10.7521150  58.1284720  61.5621960  11.3504110
  58.8242120  62.9064410  11.3215880  64.6627070  59.0504830   6.2329770
  65.0297200  58.5763400   6.9791110  64.4732130  59.9246400   6.5738110
  57.5267560  53.7948520   2.3623240  57.2414480  53.4304190   3.2001860
  57.4646420  53.0628980   1.7486380  62.4526440  58.0913470   8.5513980
  62.1483510  58.9705450   8.7764340  63.4072900  58.1513260   8.5871420
  71.7396210  61.2939820   4.9407220  72.4595330  61.7895110   4.5503330
  71.5378030  60.6157710   4.2961090  67.1215010  61.3648880  10.8276220
  67.0552320  60.4444550  10.5733810  66.4920150  61.4624320  11.5420860
  61.0245630  61.9654840   2.7859640  61.5424300  61.1623100   2.7316530
  60.5729650  61.9033980   3.6276470  58.5090170  58.9316210   9.6985340
  58.1505110  59.5970060  10.2858680  58.2144730  58.0999760  10.0697960
  61.7103290  59.3900450  12.5824890  61.4103430  59.5357630  11.6852710
  62.4814530  58.8305740  12.4898280  67.0531740  64.1869450  10.5780020
  67.0676280  63.2550410  10.3598930  66.3456840  64.2729210  11.2169790
  73.2642950  60.8276790   9.9248600  72.5391140  61.4205570   9.7277990
  73.7918410  60.8200330   9.1261970  68.7942540  62.5536960   3.4232450
  69.1466360  61.9565090   2.7633820  67.9104870  62.2281190   3.5940700
  66.4865640  65.8287020   7.6720520  67.1307860  66.0346400   8.3493940
  66.8495080  65.0675420   7.2191370  67.7597720  63.8319370   6.3897970
  68.4019950  63.1312530   6.5030140  68.2847070  64.6117810   6.2094860
  69.5335340  64.6314270   9.5934030  69.8691580  65.2180960  10.2711950
  68.6135680  64.5006980   9.8231820  57.0838740  52.4209450  10.3757440
  56.3697260  52.6206370  10.9810050  57.5033780  51.6449020  10.7472240
  57.3711330  66.4089710  11.3623970  57.4802450  65.4684450  11.2219360
  56.7191890  66.6744460  10.7137700  65.3623920  64.6805600  12.7622090
  65.0420790  63.9614840  13.3067780  64.6882280  65.3560670  12.8358150
  68.5777520  54.9131760   8.1258890  68.9458340  54.0926970   8.4538460
  67.7175720  54.9733650   8.5414540  65.5379510  57.5671350   8.3496860
  66.0364760  58.0417170   9.0148710  65.6802460  56.6434870   8.5566890
  72.7446370  53.7839310   9.1925250  72.2419970  54.5244710   9.5319060
  73.5603030  54.1723310   8.8762040  71.0368380  59.0272490   2.6386610
  70.0958520  59.0422720   2.8134300  71.3512450  58.2408450   3.0846910
  73.0393960  66.1981340   4.3140870  73.1641380  67.0212510   4.7864680
  73.9059520  65.9872070   3.9665020  60.5111490  68.2912550   3.9858000
  61.2473970  67.7428010   4.2566570  60.8952410  69.1568560   3.8463990
  59.5169770  67.4758620  13.1743580  60.3182500  67.7970670  13.5878980
  59.0021590  67.1154200  13.8963490  68.3534400  63.5838490  13.1218990
  67.7472560  63.6070090  12.3814740  68.0488510  62.8521530  13.6586240
  69.7834770  67.3118780  11.7328400  70.7356520  67.2276800  11.6828640
  69.6362990  67.9760490  12.4062190  57.2367580  59.9632080  12.1179630
  57.7406600  59.3839360  12.6895860  56.4975000  60.2472310  12.6556000
  64.2905520  61.3703070  11.6515150  63.5251190  61.9388070  11.5669820
  64.4721480  61.0779280  10.7583380  71.4328870  63.1008400  12.2090170
  72.1738340  63.4384160  11.7057630  70.6701550  63.2700460  11.6559940
  59.2690660  58.1061670  13.0129700  59.3096000  57.8075540  13.9214930
  60.1236160  58.5069280  12.8537220  61.2096470  56.6853770  10.9804190
  60.6792930  56.1944720  10.3527530  61.8784540  57.1137970  10.4462120
  70.1074530  61.1523230  10.7445380  70.5215550  61.3068310  11.5935800
  69.1725530  61.2778450  10.9071160  70.5796700  58.4919390  12.7484530
  71.1617470  57.7371710  12.6605010  70.7558470  59.0226830  11.9716010
  61.6968770  53.6516140  11.0601480  61.6025640  53.0336890  10.3352350
  61.1166160  54.3782430  10.8331390  64.4630210  52.2089380   8.0928870
  64.0147510  52.2313640   7.2474420  63.8295410  51.8108400   8.6899170
  64.8689760  61.1043710   8.7141310  65.2877870  61.9476440   8.5417550
  63.9498390  61.2415750   8.4848090  67.2053660  58.8359890  10.0979150
  67.3249870  58.2401030  10.8373990  68.0647660  58.8729580   9.6780450
  69.5441560  59.3897080   8.6741660  69.0176780  59.9139700   8.0706800
  69.8872900  60.0224470   9.3051390  62.7197180  67.4096720   9.8299040
  62.1818270  68.1342780   9.5107740  62.9731140  66.9327060   9.0396380
  63.9722430  55.3781240  11.3554970  64.5622120  55.0697090  12.0432790
  63.1542670  54.9060990  11.5114870  68.7915860  54.9947050  11.5887990
  68.1031380  54.3328590  11.5237980  69.5121880  54.5485320  12.0336450
  65.5759390  68.6447930  10.0885690  65.5018090  69.5483070  10.3958060
  64.6738230  68.3259830  10.0607760  56.9786680  65.9722520   3.3919310
  57.3089690  65.1043580   3.1597950  57.4077680  66.1781040   4.2224270
  57.4676890  66.8393110   6.1300940  57.0307880  67.0193910   6.9625090
  58.0354570  67.5967730   5.9882660  73.1039070  66.3410110  10.4178250
  72.5041060  66.4002670   9.6742170  73.2332970  65.4015090  10.5475100
  57.3001320  59.3513340   2.4889820  56.6450160  59.0824980   1.8449520
  58.1379270  59.2417820   2.0391800  74.8056950  61.6825510   3.1024090
  75.1765780  60.8992830   2.6960060  75.4458880  62.3714610   2.9241390
  71.7890710  63.0662090   8.5154410  70.9750550  63.4959250   8.7780200
  72.1964910  63.6780500   7.9023460  58.3377250  59.7365910   7.0293160
  58.7050290  59.6493310   7.9089180  57.7688070  58.9732460   6.9300020
  73.1381110  58.2050290  10.0423630  72.9067200  57.9763040   9.1421580
  73.3985660  59.1249840   9.9968520  57.8893250  56.6475000  10.9351580
  56.9949300  56.6141760  11.2745290  58.4290800  56.8461790  11.7002830
  71.5769180  53.4306720  12.8203330  72.4539360  53.4390120  13.2037330
  71.5890020  52.6937560  12.2095680  73.0232450  57.2836260   3.7091350
  73.5469930  56.7898910   3.0781520  73.6091870  57.4186620   4.4538920
  73.2022170  57.3676130   7.2310900  72.2524880  57.3339670   7.3455890
  73.3835180  58.2776240   6.9960670  58.3932960  50.9223330   5.2834800
  59.0409150  50.3720710   4.8429960  58.8134800  51.1766480   6.1050610
  73.9419580  55.1770560   2.1821440  73.8318860  55.0226600   3.1203710
  74.7027170  54.6491500   1.9396850  72.2885300  51.1164690   8.6404440
  72.9257520  51.7298830   9.0063630  72.4360190  51.1525350   7.6953670
  58.1464960  51.0779000   8.0260120  57.7979780  51.5342820   8.7918300
  57.8152660  50.1836130   8.1082550  59.7529330  64.2498600  12.1913310
  59.7098960  63.8791510  13.0727770  59.8840340  65.1876170  12.3315130
  63.4535360  65.8058190   7.7923030  63.2126720  66.0732750   6.9053550
  64.3938000  65.9763920   7.8473890  65.6589780  52.2690880  11.5479540
  65.5978670  52.8612710  12.2974950  66.5990160  52.1616840  11.4029800
  68.2964340  51.9260940  11.1871830  68.9104750  52.2440230  10.5252910
  68.8413900  51.4409530  11.8067690  74.7139520  67.8252570   8.5933670
  74.2197800  68.2221440   7.8760800  74.1052810  67.2001780   8.9870950
  58.8185600  50.6055200  11.3010890  59.3668590  50.4243250  10.5377000
  58.8840910  49.8149310  11.8367200  59.5917360  67.1960850   9.3111090
  58.9977680  67.0645550  10.0501130  59.5841200  66.3598990   8.8453190
  69.0372380  50.4893080   7.5141120  68.1632220  50.8228190   7.3114050
  68.9283130  50.0166260   8.3392990  69.9444360  52.6963950   8.8982840
  69.6157720  51.8815710   8.5184570  70.8926660  52.6533760   8.7748530
  72.3978970  68.4675990   5.8720410  71.9381940  69.2191800   5.4978430
  71.7691430  67.7482460   5.8135210  59.2229590  64.5619230   8.2619130
  58.4963650  63.9424520   8.1945080  59.2838740  64.9559840   7.3917210
  62.8274690  66.7764230   5.0468540  63.3439710  66.1651590   4.5216800
  63.4772070  67.2793010   5.5379550  65.5670190  67.6672720   5.8737520
  65.8548000  67.4127020   4.9970530  66.0793410  67.1150080   6.4643090
  66.7847200  51.4062920   6.4534030  66.0018990  51.8808420   6.7330790
  66.4910130  50.5017750   6.3447210  71.3368270  52.1086020   4.4983120
  71.7776360  52.0531120   3.6504720  71.0675860  53.0244030   4.5693300
  73.2006840  51.7401260   2.5091940  73.1395240  50.7962480   2.3622960
  73.9798870  51.8481350   3.0545400  64.6701420  53.8249670   1.9650060
  63.8575930  53.4506560   1.6245940  65.1743060  53.0694750   2.2671250
  69.1726400  50.4892120   3.2033130  69.7755770  51.0612330   3.6781650
  68.4319390  51.0531560   2.9807030  65.6342550  68.5888820  13.2405720
  66.5609860  68.3533090  13.2841680  65.6192980  69.4160820  12.7591750
  62.8206160  51.2533570  13.0047600  62.5390430  51.7567170  12.2408420
  63.2025860  50.4555320  12.6389730  69.4221620  50.6687150  13.5828070
  69.3087070  50.9881760  14.4779590  70.2391360  51.0699660  13.2865350
  72.2020110  67.8158680  13.0646760  72.9945430  67.3207910  12.8572720
  72.4953260  68.4948820  13.6722370  68.3279770  39.9136130  77.8180260
  68.2473820  38.9990740  77.5471970  67.9144190  40.4103200  77.1119970
  66.4597810  41.6915150  79.6989530  65.6839910  41.2115590  79.9888100
  67.1110740  41.0120800  79.5245690  60.4763640  42.0034960  80.5765290
  59.6448520  41.7483670  80.9761800  61.0844620  42.0745730  81.3123210
  70.4805240  46.0975340  78.4788660  70.0186770  45.3262580  78.8075830
  71.2930790  46.1241410  78.9841110  60.4564900  46.0375050  80.7723310
  60.7592940  45.1472790  80.5933530  61.2008490  46.5945270  80.5445560
  58.8855590  36.9636850  74.3607680  57.9972290  37.3052820  74.2587560
  59.1696780  36.7637170  73.4688510  56.8488600  39.5642500  80.2447380
  57.4204710  38.7964700  80.2451020  56.8490140  39.8631260  79.3353990
  66.7068550  48.3833350  78.0992650  66.0879990  48.8390850  77.5287090
  67.5620330  48.5384810  77.6982350  65.9006800  44.3672340  79.7059690
  65.8315080  43.4262280  79.5448820  66.6626660  44.4573750  80.2782260
  66.9311970  37.1742720  79.9328620  67.3076790  36.3014600  79.8202290
  66.8331480  37.5101420  79.0419060  61.0616980  35.5468350  75.3946060
  61.1683730  36.4472080  75.7014820  60.1509340  35.4986320  75.1040710
  70.7136090  34.6693160  76.8656960  71.5345710  34.1789730  76.9082440
  70.7470170  35.2590820  77.6188800  58.7100140  37.4687360  80.6398650
  59.3910250  37.7325730  81.2586050  58.3948190  36.6288230  80.9736660
  62.9024710  38.5154720  79.7271240  63.4102930  39.0135690  80.3676260
  63.4337950  37.7389920  79.5510600  67.5731900  43.2672590  75.4924560
  66.9549170  43.7322040  74.9287280  68.0855150  43.9600070  75.9094070
  70.9497570  36.6093540  79.6384500  70.2453140  36.8978430  80.2187610
  71.3109730  37.4193650  79.2784060  60.8676140  34.8663240  82.0005110
  61.2092950  35.7105290  81.7058980  59.9291950  35.0146980  82.1170450
  56.9415100  43.9529120  72.8664190  56.5643080  44.4416220  72.1349090
  57.1988170  44.6254400  73.4970720  72.5660350  46.2268670  81.9011980
  71.8823870  46.8967780  81.8928650  73.1054640  46.4249320  81.1356840
  74.0184490  36.0548330  80.0293710  73.0709400  36.0887310  80.1609140
  74.3434480  36.8687280  80.4143070  64.5504030  32.3545510  78.3249700
  64.8579010  31.7992400  77.6085200  63.6204730  32.4889970  78.1422690
  70.1019090  48.0712800  80.6157160  70.1146250  47.6675090  79.7479420
  69.5494310  48.8460090  80.5118590  71.3964510  44.7929020  75.7047330
  71.2860840  43.8503350  75.8296750  71.3932760  45.1544660  76.5910090
  66.9384790  40.4194340  75.0609820  66.0114070  40.3531720  75.2898290
  67.0909610  41.3574470  74.9465060  66.9253870  36.6911340  72.0576980
  65.9857540  36.8525300  72.1429440  67.2437130  37.4097020  71.5112970
  73.4466630  41.3729860  82.0356010  72.6185260  41.4422950  81.5606140
  74.0417110  41.9584170  81.5671840  70.9682080  41.9814640  75.5645070
  70.3494500  41.6434190  74.9171370  70.9506530  41.3374400  76.2724260
  62.5441430  40.9459080  77.8429550  62.1398430  40.2336330  77.3475450
  62.6304550  40.6012320  78.7317590  63.0123130  44.6326640  80.0068760
  62.7151420  44.0272110  79.3276540  63.9622950  44.6703950  79.8958120
  69.1446780  41.2201450  72.5717820  69.5840060  40.3823880  72.4255640
  69.8575200  41.8530850  72.6581960  67.2542160  46.1597520  76.5399060
  67.6938070  46.9021850  76.1254450  67.1929050  46.4024090  77.4638020
  72.7263920  32.4744260  70.8858860  72.4136580  32.5671090  71.7857930
  73.4876390  33.0525290  70.8356290  59.2446060  39.8404060  75.3436200
  59.1243660  40.5666150  74.7317470  58.9346950  39.0706970  74.8664110
  56.8831430  43.0119200  81.1504840  56.9611850  43.1467970  80.2060560
  57.4973110  42.3035090  81.3432960  58.1279060  44.7119390  77.5611020
  57.7207140  44.8533980  76.7064620  59.0192070  44.4279550  77.3582230
  69.9212340  49.1466640  73.8962070  69.7613480  48.8569580  74.7943900
  69.7559050  48.3706770  73.3607300  62.4000720  48.9265170  75.6733690
  62.2243200  48.0100710  75.4601490  61.5456460  49.2852460  75.9131490
  69.6238470  46.6554200  72.4560070  68.9303630  46.6531490  71.7962350
  70.3661330  46.2313520  72.0254240  69.1888400  48.2816910  76.5308560
  69.6445350  47.5006290  76.8447180  69.5280920  48.9923730  77.0749740
  61.7109720  33.1839130  78.7259870  61.2677870  33.9648670  78.3944390
  62.2694710  33.5069020  79.4330810  64.8268540  32.8049830  73.6065700
  64.2022720  32.8009700  74.3319010  64.7398660  31.9380790  73.2101670
  63.7485620  33.7286460  80.5849470  64.0457950  34.6349290  80.5041490
  64.2971180  33.2405240  79.9709040  61.5023940  38.3072700  76.4541120
  61.2764860  38.0909870  77.3587740  60.7216470  38.7401160  76.1087090
  68.7321700  38.3136070  75.0531770  68.1330590  39.0371870  74.8695390
  69.2801310  38.2512850  74.2708220  67.3386570  36.9499610  77.0835050
  67.7316140  37.2671810  76.2703740  67.7003420  36.0711490  77.1979570
  56.3750740  33.5400410  79.3065250  56.0863790  34.1103270  80.0190230
  57.1196500  33.0604860  79.6696480  56.5620970  37.4820530  70.5167970
  56.4795640  38.4251290  70.6582960  56.2104030  37.3395440  69.6380320
  67.9241710  39.5405360  81.1785830  67.1922830  40.0492170  81.5275930
  67.5266050  38.7235340  80.8774610  64.3619100  36.2159560  79.5838320
  64.3655160  35.7749510  78.7342860  65.2570220  36.5376890  79.6910140
  60.2121480  36.0986050  78.5432530  59.8721530  36.5761280  79.2999580
  59.4498800  35.6451170  78.1833630  64.4239250  37.2171640  72.5745080
  64.5452070  37.1758120  73.5230900  64.0387760  38.0795790  72.4191810
  68.3867620  34.9939040  80.5908770  68.4040360  35.4447690  81.4350620
  68.1383200  34.0944680  80.8042210  63.4360750  39.5272780  71.9728380
  62.8677650  39.0791030  71.3464290  64.1449750  39.8865560  71.4393530
  64.6627070  40.2761340  81.3303730  65.0297200  39.8019910  82.0765070
  64.4732130  41.1502910  81.6712070  57.5267560  35.0205030  77.4597200
  57.2414480  34.6560700  78.2975820  57.4646420  34.2885490  76.8460340
  60.9808230  43.5230970  74.2454790  60.2070490  42.9828590  74.0853510
  61.7102860  43.0037580  73.9072550  71.7396210  42.5196330  80.0381180
  72.4595330  43.0151620  79.6477290  71.5378030  41.8414220  79.3935050
  67.2006150  33.9134290  74.1810570  66.3870760  33.4147460  74.1055880
  67.0068100  34.7532540  73.7646920  69.9154540  38.2853940  72.4772730
  70.8034160  38.5971170  72.3024070  69.8859630  37.4126190  72.0853310
  61.0245630  43.1911350  77.8833600  61.5424300  42.3879610  77.8290490
  60.5729650  43.1290490  78.7250430  65.9115130  44.4577630  73.1560900
  66.2530830  45.2019860  72.6604220  65.0827840  44.7708750  73.5185730
  72.1868810  39.5965780  71.9452590  72.1032530  40.0280000  71.0949030
  72.9063000  40.0564130  72.3779410  73.2156060  46.4508040  74.6734720
  72.5732220  45.7963660  74.9478440  72.8286720  46.8563130  73.8975390
  68.7942540  43.7793470  78.5206410  69.1466360  43.1821600  77.8607780
  67.9104870  43.4537700  78.6914660  64.8805820  44.5391160  75.9276820
  65.5676950  45.0860370  76.3084410  64.0938240  45.0831890  75.9626430
  57.0198220  40.1563980  71.4193900  57.8893070  40.4388780  71.7029820
  56.5288540  40.9699850  71.3042710  64.1833030  41.5437190  75.5402180
  64.6395810  42.3542440  75.7662370  63.8321240  41.2260330  76.3720670
  60.0844810  31.8874840  76.0124700  59.9559440  31.8792740  76.9609620
  59.2606830  32.2257930  75.6615710  67.7597720  45.0575880  81.4871930
  68.4019950  44.3569040  81.6004100  68.2847070  45.8374320  81.3068820
  71.6053440  45.3424500  71.2111070  71.3791020  44.6254940  71.8035710
  71.2149640  45.0936940  70.3732820  57.3869470  49.3691360  71.9855530
  57.7467110  49.9680700  71.3312800  57.2461810  49.9151250  72.7590560
  71.1869690  43.2596440  72.8725230  70.8991390  43.7209130  73.6603110
  71.9821860  42.7994210  73.1409450  63.4038090  46.7522560  72.8029200
  63.3948190  47.4852250  72.1873710  62.4836450  46.5054140  72.8956160
  59.0044730  41.9737450  73.5475960  58.3972680  42.7136350  73.5571260
  59.4794080  42.0636810  72.7214160  71.9439550  35.0945210  74.0320410
  71.3152710  35.1990880  73.3178640  71.4491470  35.3141990  74.8214290
  66.3897690  46.8150800  71.4654390  66.4909670  46.6114790  70.5356370
  65.4899430  46.5609080  71.6702170  63.9123580  37.3731160  75.4478290
  63.2039730  37.8417500  75.8891900  64.1968060  36.7153170  76.0823480
  67.9439010  34.0981820  76.8874080  67.8206790  34.1167950  75.9383590
  68.8923570  34.1460760  77.0072480  65.0315800  49.3337120  76.1602060
  65.2857300  49.2958510  75.2381430  64.0828280  49.2070450  76.1530310
  62.1158600  35.6816240  72.8229000  62.9649130  36.1186390  72.7569190
  61.7489870  35.9936500  73.6501060  71.0368380  40.2529000  77.7360570
  70.0958520  40.2679230  77.9108260  71.3512450  39.4664960  78.1820870
  61.0150020  41.9348600  71.2964530  61.7813290  41.8229960  71.8589960
  61.0924710  41.2386570  70.6441300  59.7096780  39.3673670  71.9797420
  59.7900370  38.4201180  72.0914820  60.6016530  39.6980550  72.0858080
  73.0393960  47.4237850  79.4114830  73.1641380  48.2469020  79.8838640
  73.9059520  47.2128580  79.0638980  60.5111490  49.5169060  79.0831960
  61.2473970  48.9684520  79.3540530  60.8952410  50.3825070  78.9437950
  57.3956970  45.5842630  74.9573470  56.4696750  45.8263770  74.9478880
  57.8613400  46.4116890  74.8358220  63.6213800  48.6899370  70.9057530
  64.4142410  48.9788200  70.4539320  63.1018150  48.2591540  70.2270010
  72.6743970  47.9169500  72.3294270  72.3885480  47.5034640  71.5148450
  72.4763520  48.8457210  72.2094790  64.1391200  43.9102780  70.7699880
  64.0341840  43.2955130  71.4961260  63.9715420  43.3868670  69.9862890
  67.3793930  42.9722810  71.3741870  66.8304030  43.4192110  72.0184610
  68.0013190  42.4672060  71.8979540  63.0469050  41.9313730  73.2707170
  63.4685470  41.7653600  74.1138560  63.1719890  41.1213960  72.7762310
  65.5596690  40.9551340  70.5184270  66.0802350  40.2400360  70.1525420
  66.2065090  41.5937210  70.8184780  61.9427950  38.0046960  70.2165330
  61.7417010  37.1414320  70.5778670  61.7720000  37.9180320  69.2786930
  69.4216260  32.8155190  72.7452210  69.7018550  31.9723090  73.1011630
  68.6481990  33.0478300  73.2590960  60.7410750  35.1047580  70.2043210
  61.0436650  35.1115010  69.2962360  61.4805340  34.7545440  70.7010870
  63.9595680  34.0482200  71.1899410  63.6117680  33.3706190  70.6101860
  64.1608450  33.5871710  72.0042800  66.1244720  49.0362950  72.8086010
  67.0195510  49.3747920  72.8304770  66.1562350  48.3142360  72.1810290
  59.7640880  44.4090000  71.0373010  60.2015750  44.9519670  71.6930590
  60.2488610  43.5836950  71.0469350  56.9786680  47.1979030  78.4893270
  57.3089690  46.3300090  78.2571910  57.4077680  47.4037550  79.3198230
  61.5748600  45.5288040  76.1495240  61.2744140  45.4053010  77.0499150
  61.4686090  44.6696630  75.7410970  57.4676890  48.0649620  81.2274900
  57.0307880  48.2450420  82.0599050  58.0354570  48.8224240  81.0856620
  74.3440520  45.3084440  70.8521920  73.5133480  45.3761090  71.3229150
  74.5212350  46.1988560  70.5488780  73.7996980  42.0531920  73.3556120
  74.5615890  42.6228570  73.4615810  73.8151350  41.4859120  74.1264430
  57.3001320  40.5769850  77.5863780  56.6450160  40.3081490  76.9423480
  58.1379270  40.4674330  77.1365760  74.8056950  42.9082020  78.1998050
  75.1765780  42.1249340  77.7934020  75.4458880  43.5971120  78.0215350
  73.8516150  42.3466290  70.5128640  74.1264990  43.2545170  70.3847860
  73.6626890  42.2828820  71.4490630  70.2491760  35.3711140  71.8082270
  70.6676640  35.1842120  70.9678930  69.9427820  34.5190190  72.1185200
  73.7481490  40.2835280  75.5058070  73.3725090  39.5163210  75.0739360
  73.0184610  40.6657980  75.9933000  56.5139400  37.7868780  73.5289110
  55.6103480  38.0498980  73.3540770  56.9980020  38.0579950  72.7489070
  73.0232450  38.5092770  78.8065310  73.5469930  38.0155420  78.1755480
  73.6091870  38.6443130  79.5512880  59.0566610  36.8434320  71.4383490
  59.7658310  36.4217540  70.9530770  58.3406550  36.9109550  70.8066840
  58.7040770  32.8973650  70.4786140  59.4268900  33.4382590  70.7967360
  58.9765290  32.6237070  69.6027680  72.5132420  37.7666120  74.7457720
  73.0091540  37.5336990  75.5306600  72.3148490  36.9277960  74.3295360
  58.3932960  32.1479840  80.3808760  59.0409150  31.5977220  79.9403920
  58.8134800  32.4022990  81.2024570  73.9419580  36.4027070  77.2795400
  73.8318860  36.2483110  78.2177670  74.7027170  35.8748010  77.0370810
  74.8309850  34.2334990  70.5201540  75.7559160  34.1016170  70.3119830
  74.8085640  34.3127810  71.4737990  74.9048340  35.0045650  73.1458250
  74.1099840  34.9390770  73.6751160  75.1091620  35.9396290  73.1343600
  71.8466760  49.0437200  77.1396640  72.4425830  48.7221770  76.4631060
  72.1044910  48.5709020  77.9309910  72.3978970  49.6932500  80.9694370
  71.9381940  50.4448310  80.5952390  71.7691430  48.9738970  80.9109170
  62.8274690  48.0020740  80.1442500  63.3439710  47.3908100  79.6190760
  63.4772070  48.5049520  80.6353510  65.5670190  48.8929230  80.9711480
  65.8548000  48.6383530  80.0944490  66.0793410  48.3406590  81.5617050
  66.7847200  32.6319430  81.5507990  66.0018990  33.1064930  81.8304750
  66.4910130  31.7274260  81.4421170  71.3368270  33.3342530  79.5957080
  71.7776360  33.2787630  78.7478680  71.0675860  34.2500540  79.6667260
  73.2006840  32.9657770  77.6065900  73.1395240  32.0218990  77.4596920
  73.9798870  33.0737860  78.1519360  57.5059590  49.1050130  76.5689850
  57.3381630  48.4720810  77.2671740  56.6394100  49.3109530  76.2184040
  58.1287610  32.9366910  74.0721710  58.8866970  33.0495790  73.4985740
  57.6664780  33.7736110  74.0265140  64.6701420  35.0506180  77.0624020
  63.8575930  34.6763070  76.7219900  65.1743060  34.2951260  77.3645210
  69.1726400  31.7148630  78.3007090  69.7755770  32.2868840  78.7755610
  68.4319390  32.2788070  78.0780990  72.3161000  32.1170190  73.5747370
  72.5111630  33.0153640  73.8414800  71.5290870  31.8857270  74.0680320
  59.1122290  47.7983360  74.0139990  58.5869910  48.1791390  73.3101950
  59.0366870  48.4234130  74.7349700  60.5012760  33.4630960  72.6123680
  61.0305520  32.6760760  72.4831630  61.1341080  34.1422150  72.8459210
  62.6950600  33.2006100  75.6669070  62.0653340  32.4993410  75.8339200
  62.1555740  33.9610230  75.4502230  73.8687610  49.3570900  75.3353930
  74.0439800  48.6708640  74.6914850  73.1709180  49.8817950  74.9430600
  61.7115260  49.7465740  72.8889240  62.4434080  49.4625020  72.3413130
  61.9708930  49.5079020  73.7788620  60.8730050  45.8630470  72.8935570
  60.2438930  46.3315570  73.4421400  60.9877880  45.0179690  73.3281760
  68.3279770  39.9136130  59.0436770  68.2473820  38.9990740  58.7728480
  67.9144190  40.4103200  58.3376480  66.4597810  41.6915150  60.9246040
  65.6839910  41.2115590  61.2144610  67.1110740  41.0120800  60.7502200
  60.4763640  42.0034960  61.8021800  59.6448520  41.7483670  62.2018310
  61.0844620  42.0745730  62.5379720  70.4805240  46.0975340  59.7045170
  70.0186770  45.3262580  60.0332340  71.2930790  46.1241410  60.2097620
  60.4564900  46.0375050  61.9979820  60.7592940  45.1472790  61.8190040
  61.2008490  46.5945270  61.7702070  58.8855590  36.9636850  55.5864190
  57.9972290  37.3052820  55.4844070  59.1696780  36.7637170  54.6945020
  56.8488600  39.5642500  61.4703890  57.4204710  38.7964700  61.4707530
  56.8490140  39.8631260  60.5610500  66.7068550  48.3833350  59.3249160
  66.0879990  48.8390850  58.7543600  67.5620330  48.5384810  58.9238860
  65.9006800  44.3672340  60.9316200  65.8315080  43.4262280  60.7705330
  66.6626660  44.4573750  61.5038770  58.0913470  34.9726860  63.2572820
  57.9116310  34.0752610  63.5375580  57.6893550  35.5198730  63.9319770
  66.9311970  37.1742720  61.1585130  67.3076790  36.3014600  61.0458800
  66.8331480  37.5101420  60.2675570  61.0616980  35.5468350  56.6202570
  61.1683730  36.4472080  56.9271330  60.1509340  35.4986320  56.3297220
  70.7136090  34.6693160  58.0913470  71.5345710  34.1789730  58.1338950
  70.7470170  35.2590820  58.8445310  58.7100140  37.4687360  61.8655160
  59.3910250  37.7325730  62.4842560  58.3948190  36.6288230  62.1993170
  62.9024710  38.5154720  60.9527750  63.4102930  39.0135690  61.5932770
  63.4337950  37.7389920  60.7767110  75.0035640  36.6859910  64.6557100
  74.2987810  37.0741620  64.1372210  75.2693560  37.3810200  65.2578030
  61.1860810  33.1553280  65.2191170  61.1879250  33.6725670  64.4137070
  60.3565120  32.6783460  65.1961100  67.5731900  43.2672590  56.7181070
  66.9549170  43.7322040  56.1543790  68.0855150  43.9600070  57.1350580
  62.4363660  42.7948460  63.3964670  62.1033040  43.4217380  64.0385740
  62.6130340  43.3210340  62.6166340  70.9497570  36.6093540  60.8641010
  70.2453140  36.8978430  61.4444120  71.3109730  37.4193650  60.5040570
  60.8676140  34.8663240  63.2261620  61.2092950  35.7105290  62.9315490
  59.9291950  35.0146980  63.3426960  61.6482760  44.7629260  65.2113850
  62.2656760  45.4380340  64.9298300  60.7875880  45.1717240  65.1201350
  56.9415100  43.9529120  54.0920700  56.5643080  44.4416220  53.3605600
  57.1988170  44.6254400  54.7227230  72.5660350  46.2268670  63.1268490
  71.8823870  46.8967780  63.1185160  73.1054640  46.4249320  62.3613350
  74.0184490  36.0548330  61.2550220  73.0709400  36.0887310  61.3865650
  74.3434480  36.8687280  61.6399580  64.5504030  32.3545510  59.5506210
  64.8579010  31.7992400  58.8341710  63.6204730  32.4889970  59.3679200
  70.1019090  48.0712800  61.8413670  70.1146250  47.6675090  60.9735930
  69.5494310  48.8460090  61.7375100  71.3964510  44.7929020  56.9303840
  71.2860840  43.8503350  57.0553260  71.3932760  45.1544660  57.8166600
  69.5004530  42.9742640  63.1696280  69.9173320  42.7602750  62.3349740
  70.2244350  43.2315430  63.7404900  66.9384790  40.4194340  56.2866330
  66.0114070  40.3531720  56.5154800  67.0909610  41.3574470  56.1721570
  66.9253870  36.6911340  53.2833490  65.9857540  36.8525300  53.3685950
  67.2437130  37.4097020  52.7369480  73.4466630  41.3729860  63.2612520
  72.6185260  41.4422950  62.7862650  74.0417110  41.9584170  62.7928350
  70.9682080  41.9814640  56.7901580  70.3494500  41.6434190  56.1427880
  70.9506530  41.3374400  57.4980770  70.4108640  38.1599180  64.2067390
  69.9979820  38.9852890  64.4607380  69.6784590  37.5744220  64.0143750
  62.5441430  40.9459080  59.0686060  62.1398430  40.2336330  58.5731960
  62.6304550  40.6012320  59.9574100  63.0123130  44.6326640  61.2325270
  62.7151420  44.0272110  60.5533050  63.9622950  44.6703950  61.1214630
  61.2570050  37.7202290  62.8485100  61.8084640  37.8297630  62.0738350
  61.7713560  38.0939890  63.5640330  71.1008740  48.2058510  64.8948370
  70.6239300  49.0130700  64.7020980  70.4170530  47.5536840  65.0474580
  62.1041560  44.3708330  67.8833070  61.2070090  44.5948300  68.1306470
  62.1294430  44.4943270  66.9344470  69.1446780  41.2201450  53.7974330
  69.5840060  40.3823880  53.6512150  69.8575200  41.8530850  53.8838470
  60.9312780  41.2421650  66.4590440  60.7920550  42.1144450  66.8277840
  60.0494140  40.8994460  66.3138380  67.2542160  46.1597520  57.7655570
  67.6938070  46.9021850  57.3510960  67.1929050  46.4024090  58.6894530
  62.7293130  47.1843350  68.6675590  62.7008560  47.5886300  67.8004020
  62.5658100  46.2553710  68.5047190  72.7263920  32.4744260  52.1115370
  72.4136580  32.5671090  53.0114440  73.4876390  33.0525290  52.0612800
  59.2446060  39.8404060  56.5692710  59.1243660  40.5666150  55.9573980
  58.9346950  39.0706970  56.0920620  74.6807950  47.9670450  69.9639760
  75.1567670  48.4453340  70.6428840  75.3015110  47.8987940  69.2385260
  56.8831430  43.0119200  62.3761350  56.9611850  43.1467970  61.4317070
  57.4973110  42.3035090  62.5689470  58.1279060  44.7119390  58.7867530
  57.7207140  44.8533980  57.9321130  59.0192070  44.4279550  58.5838740
  74.0841200  45.1583300  67.1239770  74.2104260  44.9195180  66.2056950
  74.1262580  44.3267840  67.5961850  67.9457940  48.8611300  65.6934580
  68.4602610  48.7719310  66.4957010  67.1027020  49.2071000  65.9862490
  69.9212340  49.1466640  55.1218580  69.7613480  48.8569580  56.0200410
  69.7559050  48.3706770  54.5863810  62.4000720  48.9265170  56.8990200
  62.2243200  48.0100710  56.6858000  61.5456460  49.2852460  57.1388000
  69.6238470  46.6554200  53.6816580  68.9303630  46.6531490  53.0218860
  70.3661330  46.2313520  53.2510750  69.1888400  48.2816910  57.7565070
  69.6445350  47.5006290  58.0703690  69.5280920  48.9923730  58.3006250
  73.9365210  37.2115760  68.0889510  73.3209480  37.7195430  67.5604970
  73.6161630  36.3114090  68.0315450  56.9390950  44.0533370  64.9155810
  57.1021990  43.5838730  64.0975180  57.4043400  43.5456930  65.5804650
  61.7109720  33.1839130  59.9516380  61.2677870  33.9648670  59.6200900
  62.2694710  33.5069020  60.6587320  65.9979530  36.0507650  65.5551700
  65.5358900  36.2590670  66.3671640  65.5957640  35.2367000  65.2522370
  70.9984040  37.2716600  66.6848360  70.1477630  36.9722350  67.0057430
  70.8385830  37.5158610  65.7732180  68.0933750  38.7718350  68.7847150
  68.4187160  37.9382100  68.4449380  68.8814080  39.2946870  68.9325480
  64.8268540  32.8049830  54.8322210  64.2022720  32.8009700  55.5575520
  64.7398660  31.9380790  54.4358180  63.7485620  33.7286460  61.8105980
  64.0457950  34.6349290  61.7298000  64.2971180  33.2405240  61.1965550
  61.5023940  38.3072700  57.6797630  61.2764860  38.0909870  58.5844250
  60.7216470  38.7401160  57.3343600  68.7321700  38.3136070  56.2788280
  68.1330590  39.0371870  56.0951900  69.2801310  38.2512850  55.4964730
  63.9423150  39.2058280  68.3457900  63.8466750  38.2653010  68.1958300
  64.7855130  39.4273350  67.9505970  67.3386570  36.9499610  58.3091560
  67.7316140  37.2671810  57.4960250  67.7003420  36.0711490  58.4236080
  59.0733690  35.6171950  66.4991680  58.6797080  36.4647160  66.7064460
  58.3852090  34.9798320  66.6900320  65.6478740  35.7006920  69.5688420
  64.9577060  35.5079120  70.2034510  66.3911040  35.9841560  70.1012720
  56.3750740  33.5400410  60.5321760  56.0863790  34.1103270  61.2446740
  57.1196500  33.0604860  60.8952990  56.5620970  37.4820530  51.7424480
  56.4795640  38.4251290  51.8839470  56.2104030  37.3395440  50.8636830
  67.9241710  39.5405360  62.4042340  67.1922830  40.0492170  62.7532440
  67.5266050  38.7235340  62.1031120  64.3619100  36.2159560  60.8094830
  64.3655160  35.7749510  59.9599370  65.2570220  36.5376890  60.9166650
  60.2121480  36.0986050  59.7689040  59.8721530  36.5761280  60.5256090
  59.4498800  35.6451170  59.4090140  64.4239250  37.2171640  53.8001590
  64.5452070  37.1758120  54.7487410  64.0387760  38.0795790  53.6448320
  68.3867620  34.9939040  61.8165280  68.4040360  35.4447690  62.6607130
  68.1383200  34.0944680  62.0298720  63.4360750  39.5272780  53.1984890
  62.8677650  39.0791030  52.5720800  64.1449750  39.8865560  52.6650040
  71.8138370  32.4071220  67.6551660  72.1384140  31.6760880  68.1809640
  71.8494880  32.0884860  66.7532650  58.5129930  43.4284800  67.0751620
  58.1284720  42.7878470  67.6734580  58.8242120  44.1320920  67.6446350
  64.6627070  40.2761340  62.5560240  65.0297200  39.8019910  63.3021580
  64.4732130  41.1502910  62.8968580  57.5267560  35.0205030  58.6853710
  57.2414480  34.6560700  59.5232330  57.4646420  34.2885490  58.0716850
  62.4526440  39.3169980  64.8744450  62.1483510  40.1961960  65.0994810
  63.4072900  39.3769770  64.9101890  60.9808230  43.5230970  55.4711300
  60.2070490  42.9828590  55.3110020  61.7102860  43.0037580  55.1329060
  71.7396210  42.5196330  61.2637690  72.4595330  43.0151620  60.8733800
  71.5378030  41.8414220  60.6191560  67.2006150  33.9134290  55.4067080
  66.3870760  33.4147460  55.3312390  67.0068100  34.7532540  54.9903430
  67.1215010  42.5905390  67.1506690  67.0552320  41.6701060  66.8964280
  66.4920150  42.6880830  67.8651330  69.9154540  38.2853940  53.7029240
  70.8034160  38.5971170  53.5280580  69.8859630  37.4126190  53.3109820
  61.0245630  43.1911350  59.1090110  61.5424300  42.3879610  59.0547000
  60.5729650  43.1290490  59.9506940  65.9115130  44.4577630  54.3817410
  66.2530830  45.2019860  53.8860730  65.0827840  44.7708750  54.7442240
  58.5090170  40.1572720  66.0215810  58.1505110  40.8226570  66.6089150
  58.2144730  39.3256270  66.3928430  61.7103290  40.6156960  68.9055360
  61.4103430  40.7614140  68.0083180  62.4814530  40.0562250  68.8128750
  67.0531740  45.4125960  66.9010490  67.0676280  44.4806920  66.6829400
  66.3456840  45.4985720  67.5400260  72.1868810  39.5965780  53.1709100
  72.1032530  40.0280000  52.3205540  72.9063000  40.0564130  53.6035920
  73.2642950  42.0533300  66.2479070  72.5391140  42.6462080  66.0508460
  73.7918410  42.0456840  65.4492440  73.2156060  46.4508040  55.8991230
  72.5732220  45.7963660  56.1734950  72.8286720  46.8563130  55.1231900
  68.7942540  43.7793470  59.7462920  69.1466360  43.1821600  59.0864290
  67.9104870  43.4537700  59.9171170  64.8805820  44.5391160  57.1533330
  65.5676950  45.0860370  57.5340920  64.0938240  45.0831890  57.1882940
  57.0198220  40.1563980  52.6450410  57.8893070  40.4388780  52.9286330
  56.5288540  40.9699850  52.5299220  64.1833030  41.5437190  56.7658690
  64.6395810  42.3542440  56.9918880  63.8321240  41.2260330  57.5977180
  66.4865640  47.0543530  63.9950990  67.1307860  47.2602910  64.6724410
  66.8495080  46.2931930  63.5421840  60.0844810  31.8874840  57.2381210
  59.9559440  31.8792740  58.1866130  59.2606830  32.2257930  56.8872220
  67.7597720  45.0575880  62.7128440  68.4019950  44.3569040  62.8260610
  68.2847070  45.8374320  62.5325330  71.6053440  45.3424500  52.4367580
  71.3791020  44.6254940  53.0292220  71.2149640  45.0936940  51.5989330
  69.5335340  45.8570780  65.9164500  69.8691580  46.4437470  66.5942420
  68.6135680  45.7263490  66.1462290  57.3869470  49.3691360  53.2112040
  57.7467110  49.9680700  52.5569310  57.2461810  49.9151250  53.9847070
  57.0838740  33.6465960  66.6987910  56.3697260  33.8462880  67.3040520
  57.5033780  32.8705530  67.0702710  71.1869690  43.2596440  54.0981740
  70.8991390  43.7209130  54.8859620  71.9821860  42.7994210  54.3665960
  57.3711330  47.6346220  67.6854440  57.4802450  46.6940960  67.5449830
  56.7191890  47.9000970  67.0368170  65.3623920  45.9062110  69.0852560
  65.0420790  45.1871350  69.6298250  64.6882280  46.5817180  69.1588620
  63.4038090  46.7522560  54.0285710  63.3948190  47.4852250  53.4130220
  62.4836450  46.5054140  54.1212670  59.0044730  41.9737450  54.7732470
  58.3972680  42.7136350  54.7827770  59.4794080  42.0636810  53.9470670
  68.5777520  36.1388270  64.4489360  68.9458340  35.3183480  64.7768930
  67.7175720  36.1990160  64.8645010  71.9439550  35.0945210  55.2576920
  71.3152710  35.1990880  54.5435150  71.4491470  35.3141990  56.0470800
  66.3897690  46.8150800  52.6910900  66.4909670  46.6114790  51.7612880
  65.4899430  46.5609080  52.8958680  63.9123580  37.3731160  56.6734800
  63.2039730  37.8417500  57.1148410  64.1968060  36.7153170  57.3079990
  65.5379510  38.7927860  64.6727330  66.0364760  39.2673680  65.3379180
  65.6802460  37.8691380  64.8797360  67.9439010  34.0981820  58.1130590
  67.8206790  34.1167950  57.1640100  68.8923570  34.1460760  58.2328990
  65.0315800  49.3337120  57.3858570  65.2857300  49.2958510  56.4637940
  64.0828280  49.2070450  57.3786820  62.1158600  35.6816240  54.0485510
  62.9649130  36.1186390  53.9825700  61.7489870  35.9936500  54.8757570
  72.7446370  35.0095820  65.5155720  72.2419970  35.7501220  65.8549530
  73.5603030  35.3979820  65.1992510  71.0368380  40.2529000  58.9617080
  70.0958520  40.2679230  59.1364770  71.3512450  39.4664960  59.4077380
  61.0150020  41.9348600  52.5221040  61.7813290  41.8229960  53.0846470
  61.0924710  41.2386570  51.8697810  59.7096780  39.3673670  53.2053930
  59.7900370  38.4201180  53.3171330  60.6016530  39.6980550  53.3114590
  73.0393960  47.4237850  60.6371340  73.1641380  48.2469020  61.1095150
  73.9059520  47.2128580  60.2895490  60.5111490  49.5169060  60.3088470
  61.2473970  48.9684520  60.5797040  60.8952410  50.3825070  60.1694460
  57.3956970  45.5842630  56.1829980  56.4696750  45.8263770  56.1735390
  57.8613400  46.4116890  56.0614730  59.5169770  48.7015130  69.4974050
  60.3182500  49.0227180  69.9109450  59.0021590  48.3410710  70.2193960
  63.6213800  48.6899370  52.1314040  64.4142410  48.9788200  51.6795830
  63.1018150  48.2591540  51.4526520  68.3534400  44.8095000  69.4449460
  67.7472560  44.8326600  68.7045210  68.0488510  44.0778040  69.9816710
  69.7834770  48.5375290  68.0558870  70.7356520  48.4533310  68.0059110
  69.6362990  49.2017000  68.7292660  72.6743970  47.9169500  53.5550780
  72.3885480  47.5034640  52.7404960  72.4763520  48.8457210  53.4351300
  57.2367580  41.1888590  68.4410100  57.7406600  40.6095870  69.0126330
  56.4975000  41.4728820  68.9786470  64.1391200  43.9102780  51.9956390
  64.0341840  43.2955130  52.7217770  63.9715420  43.3868670  51.2119400
  64.2905520  42.5959580  67.9745620  63.5251190  43.1644580  67.8900290
  64.4721480  42.3035790  67.0813850  67.3793930  42.9722810  52.5998380
  66.8304030  43.4192110  53.2441120  68.0013190  42.4672060  53.1236050
  71.4328870  44.3264910  68.5320640  72.1738340  44.6640670  68.0288100
  70.6701550  44.4956970  67.9790410  59.2690660  39.3318180  69.3360170
  59.3096000  39.0332050  70.2445400  60.1236160  39.7325790  69.1767690
  63.0469050  41.9313730  54.4963680  63.4685470  41.7653600  55.3395070
  63.1719890  41.1213960  54.0018820  61.2096470  37.9110280  67.3034660
  60.6792930  37.4201230  66.6758000  61.8784540  38.3394480  66.7692590
  65.5596690  40.9551340  51.7440780  66.0802350  40.2400360  51.3781930
  66.2065090  41.5937210  52.0441290  70.1074530  42.3779740  67.0675850
  70.5215550  42.5324820  67.9166270  69.1725530  42.5034960  67.2301630
  70.5796700  39.7175900  69.0715000  71.1617470  38.9628220  68.9835480
  70.7558470  40.2483340  68.2946480  61.6968770  34.8772650  67.3831950
  61.6025640  34.2593400  66.6582820  61.1166160  35.6038940  67.1561860
  64.4630210  33.4345890  64.4159340  64.0147510  33.4570150  63.5704890
  63.8295410  33.0364910  65.0129640  64.8689760  42.3300220  65.0371780
  65.2877870  43.1732950  64.8648020  63.9498390  42.4672260  64.8078560
  67.2053660  40.0616400  66.4209620  67.3249870  39.4657540  67.1604460
  68.0647660  40.0986090  66.0010920  69.5441560  40.6153590  64.9972130
  69.0176780  41.1396210  64.3937270  69.8872900  41.2480980  65.6281860
  61.9427950  38.0046960  51.4421840  61.7417010  37.1414320  51.8035180
  61.7720000  37.9180320  50.5043440  62.7197180  48.6353230  66.1529510
  62.1818270  49.3599290  65.8338210  62.9731140  48.1583570  65.3626850
  63.9722430  36.6037750  67.6785440  64.5622120  36.2953600  68.3663260
  63.1542670  36.1317500  67.8345340  68.7915860  36.2203560  67.9118460
  68.1031380  35.5585100  67.8468450  69.5121880  35.7741830  68.3566920
  69.4216260  32.8155190  53.9708720  69.7018550  31.9723090  54.3268140
  68.6481990  33.0478300  54.4847470  60.7410750  35.1047580  51.4299720
  61.0436650  35.1115010  50.5218870  61.4805340  34.7545440  51.9267380
  65.5759390  49.8704440  66.4116160  65.5018090  50.7739580  66.7188530
  64.6738230  49.5516340  66.3838230  63.9595680  34.0482200  52.4155920
  63.6117680  33.3706190  51.8358370  64.1608450  33.5871710  53.2299310
  66.1244720  49.0362950  54.0342520  67.0195510  49.3747920  54.0561280
  66.1562350  48.3142360  53.4066800  59.7640880  44.4090000  52.2629520
  60.2015750  44.9519670  52.9187100  60.2488610  43.5836950  52.2725860
  56.9786680  47.1979030  59.7149780  57.3089690  46.3300090  59.4828420
  57.4077680  47.4037550  60.5454740  61.5748600  45.5288040  57.3751750
  61.2744140  45.4053010  58.2755660  61.4686090  44.6696630  56.9667480
  57.4676890  48.0649620  62.4531410  57.0307880  48.2450420  63.2855560
  58.0354570  48.8224240  62.3113130  73.1039070  47.5666620  66.7408720
  72.5041060  47.6259180  65.9972640  73.2332970  46.6271600  66.8705570
  74.3440520  45.3084440  52.0778430  73.5133480  45.3761090  52.5485660
  74.5212350  46.1988560  51.7745290  73.7996980  42.0531920  54.5812630
  74.5615890  42.6228570  54.6872320  73.8151350  41.4859120  55.3520940
  57.3001320  40.5769850  58.8120290  56.6450160  40.3081490  58.1679990
  58.1379270  40.4674330  58.3622270  74.8056950  42.9082020  59.4254560
  75.1765780  42.1249340  59.0190530  75.4458880  43.5971120  59.2471860
  71.7890710  44.2918600  64.8384880  70.9750550  44.7215760  65.1010670
  72.1964910  44.9037010  64.2253930  73.8516150  42.3466290  51.7385150
  74.1264990  43.2545170  51.6104370  73.6626890  42.2828820  52.6747140
  70.2491760  35.3711140  53.0338780  70.6676640  35.1842120  52.1935440
  69.9427820  34.5190190  53.3441710  73.7481490  40.2835280  56.7314580
  73.3725090  39.5163210  56.2995870  73.0184610  40.6657980  57.2189510
  58.3377250  40.9622420  63.3523630  58.7050290  40.8749820  64.2319650
  57.7688070  40.1988970  63.2530490  73.1381110  39.4306800  66.3654100
  72.9067200  39.2019550  65.4652050  73.3985660  40.3506350  66.3198990
  57.8893250  37.8731510  67.2582050  56.9949300  37.8398270  67.5975760
  58.4290800  38.0718300  68.0233300  71.5769180  34.6563230  69.1433800
  72.4539360  34.6646630  69.5267800  71.5890020  33.9194070  68.5326150
  56.5139400  37.7868780  54.7545620  55.6103480  38.0498980  54.5797280
  56.9980020  38.0579950  53.9745580  73.0232450  38.5092770  60.0321820
  73.5469930  38.0155420  59.4011990  73.6091870  38.6443130  60.7769390
  73.2022170  38.5932640  63.5541370  72.2524880  38.5596180  63.6686360
  73.3835180  39.5032750  63.3191140  59.0566610  36.8434320  52.6640000
  59.7658310  36.4217540  52.1787280  58.3406550  36.9109550  52.0323350
  58.7040770  32.8973650  51.7042650  59.4268900  33.4382590  52.0223870
  58.9765290  32.6237070  50.8284190  72.5132420  37.7666120  55.9714230
  73.0091540  37.5336990  56.7563110  72.3148490  36.9277960  55.5551870
  58.3932960  32.1479840  61.6065270  59.0409150  31.5977220  61.1660430
  58.8134800  32.4022990  62.4281080  73.9419580  36.4027070  58.5051910
  73.8318860  36.2483110  59.4434180  74.7027170  35.8748010  58.2627320
  72.2885300  32.3421200  64.9634910  72.9257520  32.9555340  65.3294100
  72.4360190  32.3781860  64.0184140  74.8309850  34.2334990  51.7458050
  75.7559160  34.1016170  51.5376340  74.8085640  34.3127810  52.6994500
  74.9048340  35.0045650  54.3714760  74.1099840  34.9390770  54.9007670
  75.1091620  35.9396290  54.3600110  71.8466760  49.0437200  58.3653150
  72.4425830  48.7221770  57.6887570  72.1044910  48.5709020  59.1566420
  58.1464960  32.3035510  64.3490590  57.7979780  32.7599330  65.1148770
  57.8152660  31.4092640  64.4313020  59.7529330  45.4755110  68.5143780
  59.7098960  45.1048020  69.3958240  59.8840340  46.4132680  68.6545600
  63.4535360  47.0314700  64.1153500  63.2126720  47.2989260  63.2284020
  64.3938000  47.2020430  64.1704360  65.6589780  33.4947390  67.8710010
  65.5978670  34.0869220  68.6205420  66.5990160  33.3873350  67.7260270
  68.2964340  33.1517450  67.5102300  68.9104750  33.4696740  66.8483380
  68.8413900  32.6666040  68.1298160  74.7139520  49.0509080  64.9164140
  74.2197800  49.4477950  64.1991270  74.1052810  48.4258290  65.3101420
  58.8185600  31.8311710  67.6241360  59.3668590  31.6499760  66.8607470
  58.8840910  31.0405820  68.1597670  59.5917360  48.4217360  65.6341560
  58.9977680  48.2902060  66.3731600  59.5841200  47.5855500  65.1683660
  69.0372380  31.7149590  63.8371590  68.1632220  32.0484700  63.6344520
  68.9283130  31.2422770  64.6623460  69.9444360  33.9220460  65.2213310
  69.6157720  33.1072220  64.8415040  70.8926660  33.8790270  65.0979000
  72.3978970  49.6932500  62.1950880  71.9381940  50.4448310  61.8208900
  71.7691430  48.9738970  62.1365680  59.2229590  45.7875740  64.5849600
  58.4963650  45.1681030  64.5175550  59.2838740  46.1816350  63.7147680
  62.8274690  48.0020740  61.3699010  63.3439710  47.3908100  60.8447270
  63.4772070  48.5049520  61.8610020  65.5670190  48.8929230  62.1967990
  65.8548000  48.6383530  61.3201000  66.0793410  48.3406590  62.7873560
  66.7847200  32.6319430  62.7764500  66.0018990  33.1064930  63.0561260
  66.4910130  31.7274260  62.6677680  71.3368270  33.3342530  60.8213590
  71.7776360  33.2787630  59.9735190  71.0675860  34.2500540  60.8923770
  73.2006840  32.9657770  58.8322410  73.1395240  32.0218990  58.6853430
  73.9798870  33.0737860  59.3775870  57.5059590  49.1050130  57.7946360
  57.3381630  48.4720810  58.4928250  56.6394100  49.3109530  57.4440550
  58.1287610  32.9366910  55.2978220  58.8866970  33.0495790  54.7242250
  57.6664780  33.7736110  55.2521650  64.6701420  35.0506180  58.2880530
  63.8575930  34.6763070  57.9476410  65.1743060  34.2951260  58.5901720
  69.1726400  31.7148630  59.5263600  69.7755770  32.2868840  60.0012120
  68.4319390  32.2788070  59.3037500  72.3161000  32.1170190  54.8003880
  72.5111630  33.0153640  55.0671310  71.5290870  31.8857270  55.2936830
  59.1122290  47.7983360  55.2396500  58.5869910  48.1791390  54.5358460
  59.0366870  48.4234130  55.9606210  60.5012760  33.4630960  53.8380190
  61.0305520  32.6760760  53.7088140  61.1341080  34.1422150  54.0715720
  62.6950600  33.2006100  56.8925580  62.0653340  32.4993410  57.0595710
  62.1555740  33.9610230  56.6758740  65.6342550  49.8145330  69.5636190
  66.5609860  49.5789600  69.6072150  65.6192980  50.6417330  69.0822220
  73.8687610  49.3570900  56.5610440  74.0439800  48.6708640  55.9171360
  73.1709180  49.8817950  56.1687110  62.8206160  32.4790080  69.3278070
  62.5390430  32.9823680  68.5638890  63.2025860  31.6811830  68.9620200
  61.7115260  49.7465740  54.1145750  62.4434080  49.4625020  53.5669640
  61.9708930  49.5079020  55.0045130  60.8730050  45.8630470  54.1192080
  60.2438930  46.3315570  54.6677910  60.9877880  45.0179690  54.5538270
  69.4221620  31.8943660  69.9058540  69.3087070  32.2138270  70.8010060
  70.2391360  32.2956170  69.6095820  72.2020110  49.0415190  69.3877230
  72.9945430  48.5464420  69.1803190  72.4953260  49.7205330  69.9952840
  68.3279770  39.9136130  40.2693280  68.2473820  38.9990740  39.9984990
  67.9144190  40.4103200  39.5632990  66.4597810  41.6915150  42.1502550
  65.6839910  41.2115590  42.4401120  67.1110740  41.0120800  41.9758710
  60.4763640  42.0034960  43.0278310  59.6448520  41.7483670  43.4274820
  61.0844620  42.0745730  43.7636230  70.4805240  46.0975340  40.9301680
  70.0186770  45.3262580  41.2588850  71.2930790  46.1241410  41.4354130
  60.4564900  46.0375050  43.2236330  60.7592940  45.1472790  43.0446550
  61.2008490  46.5945270  42.9958580  58.8855590  36.9636850  36.8120700
  57.9972290  37.3052820  36.7100580  59.1696780  36.7637170  35.9201530
  56.8488600  39.5642500  42.6960400  57.4204710  38.7964700  42.6964040
  56.8490140  39.8631260  41.7867010  66.7068550  48.3833350  40.5505670
  66.0879990  48.8390850  39.9800110  67.5620330  48.5384810  40.1495370
  65.9006800  44.3672340  42.1572710  65.8315080  43.4262280  41.9961840
  66.6626660  44.4573750  42.7295280  58.0913470  34.9726860  44.4829330
  57.9116310  34.0752610  44.7632090  57.6893550  35.5198730  45.1576280
  66.9311970  37.1742720  42.3841640  67.3076790  36.3014600  42.2715310
  66.8331480  37.5101420  41.4932080  61.0616980  35.5468350  37.8459080
  61.1683730  36.4472080  38.1527840  60.1509340  35.4986320  37.5553730
  70.7136090  34.6693160  39.3169980  71.5345710  34.1789730  39.3595460
  70.7470170  35.2590820  40.0701820  58.7100140  37.4687360  43.0911670
  59.3910250  37.7325730  43.7099070  58.3948190  36.6288230  43.4249680
  62.9024710  38.5154720  42.1784260  63.4102930  39.0135690  42.8189280
  63.4337950  37.7389920  42.0023620  75.0035640  36.6859910  45.8813610
  74.2987810  37.0741620  45.3628720  75.2693560  37.3810200  46.4834540
  61.1860810  33.1553280  46.4447680  61.1879250  33.6725670  45.6393580
  60.3565120  32.6783460  46.4217610  67.5731900  43.2672590  37.9437580
  66.9549170  43.7322040  37.3800300  68.0855150  43.9600070  38.3607090
  62.4363660  42.7948460  44.6221180  62.1033040  43.4217380  45.2642250
  62.6130340  43.3210340  43.8422850  70.9497570  36.6093540  42.0897520
  70.2453140  36.8978430  42.6700630  71.3109730  37.4193650  41.7297080
  60.8676140  34.8663240  44.4518130  61.2092950  35.7105290  44.1572000
  59.9291950  35.0146980  44.5683470  61.6482760  44.7629260  46.4370360
  62.2656760  45.4380340  46.1554810  60.7875880  45.1717240  46.3457860
  56.9415100  43.9529120  35.3177210  56.5643080  44.4416220  34.5862110
  57.1988170  44.6254400  35.9483740  72.5660350  46.2268670  44.3525000
  71.8823870  46.8967780  44.3441670  73.1054640  46.4249320  43.5869860
  74.0184490  36.0548330  42.4806730  73.0709400  36.0887310  42.6122160
  74.3434480  36.8687280  42.8656090  64.5504030  32.3545510  40.7762720
  64.8579010  31.7992400  40.0598220  63.6204730  32.4889970  40.5935710
  70.1019090  48.0712800  43.0670180  70.1146250  47.6675090  42.1992440
  69.5494310  48.8460090  42.9631610  71.3964510  44.7929020  38.1560350
  71.2860840  43.8503350  38.2809770  71.3932760  45.1544660  39.0423110
  69.5004530  42.9742640  44.3952790  69.9173320  42.7602750  43.5606250
  70.2244350  43.2315430  44.9661410  66.9384790  40.4194340  37.5122840
  66.0114070  40.3531720  37.7411310  67.0909610  41.3574470  37.3978080
  66.9253870  36.6911340  34.5090000  65.9857540  36.8525300  34.5942460
  67.2437130  37.4097020  33.9625990  73.4466630  41.3729860  44.4869030
  72.6185260  41.4422950  44.0119160  74.0417110  41.9584170  44.0184860
  70.9682080  41.9814640  38.0158090  70.3494500  41.6434190  37.3684390
  70.9506530  41.3374400  38.7237280  70.4108640  38.1599180  45.4323900
  69.9979820  38.9852890  45.6863890  69.6784590  37.5744220  45.2400260
  62.5441430  40.9459080  40.2942570  62.1398430  40.2336330  39.7988470
  62.6304550  40.6012320  41.1830610  63.0123130  44.6326640  42.4581780
  62.7151420  44.0272110  41.7789560  63.9622950  44.6703950  42.3471140
  61.2570050  37.7202290  44.0741610  61.8084640  37.8297630  43.2994860
  61.7713560  38.0939890  44.7896840  71.1008740  48.2058510  46.1204880
  70.6239300  49.0130700  45.9277490  70.4170530  47.5536840  46.2731090
  62.1041560  44.3708330  49.1089580  61.2070090  44.5948300  49.3562980
  62.1294430  44.4943270  48.1600980  69.1446780  41.2201450  35.0230840
  69.5840060  40.3823880  34.8768660  69.8575200  41.8530850  35.1094980
  60.9312780  41.2421650  47.6846950  60.7920550  42.1144450  48.0534350
  60.0494140  40.8994460  47.5394890  67.2542160  46.1597520  38.9912080
  67.6938070  46.9021850  38.5767470  67.1929050  46.4024090  39.9151040
  62.7293130  47.1843350  49.8932100  62.7008560  47.5886300  49.0260530
  62.5658100  46.2553710  49.7303700  72.7263920  32.4744260  33.3371880
  72.4136580  32.5671090  34.2370950  73.4876390  33.0525290  33.2869310
  59.2446060  39.8404060  37.7949220  59.1243660  40.5666150  37.1830490
  58.9346950  39.0706970  37.3177130  74.6807950  47.9670450  51.1896270
  75.1567670  48.4453340  51.8685350  75.3015110  47.8987940  50.4641770
  56.8831430  43.0119200  43.6017860  56.9611850  43.1467970  42.6573580
  57.4973110  42.3035090  43.7945980  58.1279060  44.7119390  40.0124040
  57.7207140  44.8533980  39.1577640  59.0192070  44.4279550  39.8095250
  74.0841200  45.1583300  48.3496280  74.2104260  44.9195180  47.4313460
  74.1262580  44.3267840  48.8218360  67.9457940  48.8611300  46.9191090
  68.4602610  48.7719310  47.7213520  67.1027020  49.2071000  47.2119000
  69.9212340  49.1466640  36.3475090  69.7613480  48.8569580  37.2456920
  69.7559050  48.3706770  35.8120320  62.4000720  48.9265170  38.1246710
  62.2243200  48.0100710  37.9114510  61.5456460  49.2852460  38.3644510
  69.6238470  46.6554200  34.9073090  68.9303630  46.6531490  34.2475370
  70.3661330  46.2313520  34.4767260  69.1888400  48.2816910  38.9821580
  69.6445350  47.5006290  39.2960200  69.5280920  48.9923730  39.5262760
  73.9365210  37.2115760  49.3146020  73.3209480  37.7195430  48.7861480
  73.6161630  36.3114090  49.2571960  56.9390950  44.0533370  46.1412320
  57.1021990  43.5838730  45.3231690  57.4043400  43.5456930  46.8061160
  61.7109720  33.1839130  41.1772890  61.2677870  33.9648670  40.8457410
  62.2694710  33.5069020  41.8843830  65.9979530  36.0507650  46.7808210
  65.5358900  36.2590670  47.5928150  65.5957640  35.2367000  46.4778880
  70.9984040  37.2716600  47.9104870  70.1477630  36.9722350  48.2313940
  70.8385830  37.5158610  46.9988690  68.0933750  38.7718350  50.0103660
  68.4187160  37.9382100  49.6705890  68.8814080  39.2946870  50.1581990
  64.8268540  32.8049830  36.0578720  64.2022720  32.8009700  36.7832030
  64.7398660  31.9380790  35.6614690  63.7485620  33.7286460  43.0362490
  64.0457950  34.6349290  42.9554510  64.2971180  33.2405240  42.4222060
  61.5023940  38.3072700  38.9054140  61.2764860  38.0909870  39.8100760
  60.7216470  38.7401160  38.5600110  68.7321700  38.3136070  37.5044790
  68.1330590  39.0371870  37.3208410  69.2801310  38.2512850  36.7221240
  63.9423150  39.2058280  49.5714410  63.8466750  38.2653010  49.4214810
  64.7855130  39.4273350  49.1762480  67.3386570  36.9499610  39.5348070
  67.7316140  37.2671810  38.7216760  67.7003420  36.0711490  39.6492590
  59.0733690  35.6171950  47.7248190  58.6797080  36.4647160  47.9320970
  58.3852090  34.9798320  47.9156830  65.6478740  35.7006920  50.7944930
  64.9577060  35.5079120  51.4291020  66.3911040  35.9841560  51.3269230
  56.3750740  33.5400410  41.7578270  56.0863790  34.1103270  42.4703250
  57.1196500  33.0604860  42.1209500  56.5620970  37.4820530  32.9680990
  56.4795640  38.4251290  33.1095980  56.2104030  37.3395440  32.0893340
  67.9241710  39.5405360  43.6298850  67.1922830  40.0492170  43.9788950
  67.5266050  38.7235340  43.3287630  64.3619100  36.2159560  42.0351340
  64.3655160  35.7749510  41.1855880  65.2570220  36.5376890  42.1423160
  60.2121480  36.0986050  40.9945550  59.8721530  36.5761280  41.7512600
  59.4498800  35.6451170  40.6346650  64.4239250  37.2171640  35.0258100
  64.5452070  37.1758120  35.9743920  64.0387760  38.0795790  34.8704830
  68.3867620  34.9939040  43.0421790  68.4040360  35.4447690  43.8863640
  68.1383200  34.0944680  43.2555230  63.4360750  39.5272780  34.4241400
  62.8677650  39.0791030  33.7977310  64.1449750  39.8865560  33.8906550
  71.8138370  32.4071220  48.8808170  72.1384140  31.6760880  49.4066150
  71.8494880  32.0884860  47.9789160  58.5129930  43.4284800  48.3008130
  58.1284720  42.7878470  48.8991090  58.8242120  44.1320920  48.8702860
  64.6627070  40.2761340  43.7816750  65.0297200  39.8019910  44.5278090
  64.4732130  41.1502910  44.1225090  57.5267560  35.0205030  39.9110220
  57.2414480  34.6560700  40.7488840  57.4646420  34.2885490  39.2973360
  62.4526440  39.3169980  46.1000960  62.1483510  40.1961960  46.3251320
  63.4072900  39.3769770  46.1358400  60.9808230  43.5230970  36.6967810
  60.2070490  42.9828590  36.5366530  61.7102860  43.0037580  36.3585570
  71.7396210  42.5196330  42.4894200  72.4595330  43.0151620  42.0990310
  71.5378030  41.8414220  41.8448070  67.2006150  33.9134290  36.6323590
  66.3870760  33.4147460  36.5568900  67.0068100  34.7532540  36.2159940
  67.1215010  42.5905390  48.3763200  67.0552320  41.6701060  48.1220790
  66.4920150  42.6880830  49.0907840  69.9154540  38.2853940  34.9285750
  70.8034160  38.5971170  34.7537090  69.8859630  37.4126190  34.5366330
  61.0245630  43.1911350  40.3346620  61.5424300  42.3879610  40.2803510
  60.5729650  43.1290490  41.1763450  65.9115130  44.4577630  35.6073920
  66.2530830  45.2019860  35.1117240  65.0827840  44.7708750  35.9698750
  58.5090170  40.1572720  47.2472320  58.1505110  40.8226570  47.8345660
  58.2144730  39.3256270  47.6184940  61.7103290  40.6156960  50.1311870
  61.4103430  40.7614140  49.2339690  62.4814530  40.0562250  50.0385260
  67.0531740  45.4125960  48.1267000  67.0676280  44.4806920  47.9085910
  66.3456840  45.4985720  48.7656770  72.1868810  39.5965780  34.3965610
  72.1032530  40.0280000  33.5462050  72.9063000  40.0564130  34.8292430
  73.2642950  42.0533300  47.4735580  72.5391140  42.6462080  47.2764970
  73.7918410  42.0456840  46.6748950  73.2156060  46.4508040  37.1247740
  72.5732220  45.7963660  37.3991460  72.8286720  46.8563130  36.3488410
  68.7942540  43.7793470  40.9719430  69.1466360  43.1821600  40.3120800
  67.9104870  43.4537700  41.1427680  64.8805820  44.5391160  38.3789840
  65.5676950  45.0860370  38.7597430  64.0938240  45.0831890  38.4139450
  57.0198220  40.1563980  33.8706920  57.8893070  40.4388780  34.1542840
  56.5288540  40.9699850  33.7555730  64.1833030  41.5437190  37.9915200
  64.6395810  42.3542440  38.2175390  63.8321240  41.2260330  38.8233690
  66.4865640  47.0543530  45.2207500  67.1307860  47.2602910  45.8980920
  66.8495080  46.2931930  44.7678350  60.0844810  31.8874840  38.4637720
  59.9559440  31.8792740  39.4122640  59.2606830  32.2257930  38.1128730
  67.7597720  45.0575880  43.9384950  68.4019950  44.3569040  44.0517120
  68.2847070  45.8374320  43.7581840  71.6053440  45.3424500  33.6624090
  71.3791020  44.6254940  34.2548730  71.2149640  45.0936940  32.8245840
  69.5335340  45.8570780  47.1421010  69.8691580  46.4437470  47.8198930
  68.6135680  45.7263490  47.3718800  57.3869470  49.3691360  34.4368550
  57.7467110  49.9680700  33.7825820  57.2461810  49.9151250  35.2103580
  57.0838740  33.6465960  47.9244420  56.3697260  33.8462880  48.5297030
  57.5033780  32.8705530  48.2959220  71.1869690  43.2596440  35.3238250
  70.8991390  43.7209130  36.1116130  71.9821860  42.7994210  35.5922470
  57.3711330  47.6346220  48.9110950  57.4802450  46.6940960  48.7706340
  56.7191890  47.9000970  48.2624680  65.3623920  45.9062110  50.3109070
  65.0420790  45.1871350  50.8554760  64.6882280  46.5817180  50.3845130
  63.4038090  46.7522560  35.2542220  63.3948190  47.4852250  34.6386730
  62.4836450  46.5054140  35.3469180  59.0044730  41.9737450  35.9988980
  58.3972680  42.7136350  36.0084280  59.4794080  42.0636810  35.1727180
  68.5777520  36.1388270  45.6745870  68.9458340  35.3183480  46.0025440
  67.7175720  36.1990160  46.0901520  71.9439550  35.0945210  36.4833430
  71.3152710  35.1990880  35.7691660  71.4491470  35.3141990  37.2727310
  66.3897690  46.8150800  33.9167410  66.4909670  46.6114790  32.9869390
  65.4899430  46.5609080  34.1215190  63.9123580  37.3731160  37.8991310
  63.2039730  37.8417500  38.3404920  64.1968060  36.7153170  38.5336500
  65.5379510  38.7927860  45.8983840  66.0364760  39.2673680  46.5635690
  65.6802460  37.8691380  46.1053870  67.9439010  34.0981820  39.3387100
  67.8206790  34.1167950  38.3896610  68.8923570  34.1460760  39.4585500
  65.0315800  49.3337120  38.6115080  65.2857300  49.2958510  37.6894450
  64.0828280  49.2070450  38.6043330  62.1158600  35.6816240  35.2742020
  62.9649130  36.1186390  35.2082210  61.7489870  35.9936500  36.1014080
  72.7446370  35.0095820  46.7412230  72.2419970  35.7501220  47.0806040
  73.5603030  35.3979820  46.4249020  71.0368380  40.2529000  40.1873590
  70.0958520  40.2679230  40.3621280  71.3512450  39.4664960  40.6333890
  61.0150020  41.9348600  33.7477550  61.7813290  41.8229960  34.3102980
  61.0924710  41.2386570  33.0954320  59.7096780  39.3673670  34.4310440
  59.7900370  38.4201180  34.5427840  60.6016530  39.6980550  34.5371100
  73.0393960  47.4237850  41.8627850  73.1641380  48.2469020  42.3351660
  73.9059520  47.2128580  41.5152000  60.5111490  49.5169060  41.5344980
  61.2473970  48.9684520  41.8053550  60.8952410  50.3825070  41.3950970
  57.3956970  45.5842630  37.4086490  56.4696750  45.8263770  37.3991900
  57.8613400  46.4116890  37.2871240  59.5169770  48.7015130  50.7230560
  60.3182500  49.0227180  51.1365960  59.0021590  48.3410710  51.4450470
  63.6213800  48.6899370  33.3570550  64.4142410  48.9788200  32.9052340
  63.1018150  48.2591540  32.6783030  68.3534400  44.8095000  50.6705970
  67.7472560  44.8326600  49.9301720  68.0488510  44.0778040  51.2073220
  69.7834770  48.5375290  49.2815380  70.7356520  48.4533310  49.2315620
  69.6362990  49.2017000  49.9549170  72.6743970  47.9169500  34.7807290
  72.3885480  47.5034640  33.9661470  72.4763520  48.8457210  34.6607810
  57.2367580  41.1888590  49.6666610  57.7406600  40.6095870  50.2382840
  56.4975000  41.4728820  50.2042980  64.1391200  43.9102780  33.2212900
  64.0341840  43.2955130  33.9474280  63.9715420  43.3868670  32.4375910
  64.2905520  42.5959580  49.2002130  63.5251190  43.1644580  49.1156800
  64.4721480  42.3035790  48.3070360  67.3793930  42.9722810  33.8254890
  66.8304030  43.4192110  34.4697630  68.0013190  42.4672060  34.3492560
  71.4328870  44.3264910  49.7577150  72.1738340  44.6640670  49.2544610
  70.6701550  44.4956970  49.2046920  59.2690660  39.3318180  50.5616680
  59.3096000  39.0332050  51.4701910  60.1236160  39.7325790  50.4024200
  63.0469050  41.9313730  35.7220190  63.4685470  41.7653600  36.5651580
  63.1719890  41.1213960  35.2275330  61.2096470  37.9110280  48.5291170
  60.6792930  37.4201230  47.9014510  61.8784540  38.3394480  47.9949100
  65.5596690  40.9551340  32.9697290  66.0802350  40.2400360  32.6038440
  66.2065090  41.5937210  33.2697800  70.1074530  42.3779740  48.2932360
  70.5215550  42.5324820  49.1422780  69.1725530  42.5034960  48.4558140
  70.5796700  39.7175900  50.2971510  71.1617470  38.9628220  50.2091990
  70.7558470  40.2483340  49.5202990  61.6968770  34.8772650  48.6088460
  61.6025640  34.2593400  47.8839330  61.1166160  35.6038940  48.3818370
  64.4630210  33.4345890  45.6415850  64.0147510  33.4570150  44.7961400
  63.8295410  33.0364910  46.2386150  64.8689760  42.3300220  46.2628290
  65.2877870  43.1732950  46.0904530  63.9498390  42.4672260  46.0335070
  67.2053660  40.0616400  47.6466130  67.3249870  39.4657540  48.3860970
  68.0647660  40.0986090  47.2267430  69.5441560  40.6153590  46.2228640
  69.0176780  41.1396210  45.6193780  69.8872900  41.2480980  46.8538370
  61.9427950  38.0046960  32.6678350  61.7417010  37.1414320  33.0291690
  61.7720000  37.9180320  31.7299950  62.7197180  48.6353230  47.3786020
  62.1818270  49.3599290  47.0594720  62.9731140  48.1583570  46.5883360
  63.9722430  36.6037750  48.9041950  64.5622120  36.2953600  49.5919770
  63.1542670  36.1317500  49.0601850  68.7915860  36.2203560  49.1374970
  68.1031380  35.5585100  49.0724960  69.5121880  35.7741830  49.5823430
  69.4216260  32.8155190  35.1965230  69.7018550  31.9723090  35.5524650
  68.6481990  33.0478300  35.7103980  60.7410750  35.1047580  32.6556230
  61.0436650  35.1115010  31.7475380  61.4805340  34.7545440  33.1523890
  65.5759390  49.8704440  47.6372670  65.5018090  50.7739580  47.9445040
  64.6738230  49.5516340  47.6094740  63.9595680  34.0482200  33.6412430
  63.6117680  33.3706190  33.0614880  64.1608450  33.5871710  34.4555820
  66.1244720  49.0362950  35.2599030  67.0195510  49.3747920  35.2817790
  66.1562350  48.3142360  34.6323310  59.7640880  44.4090000  33.4886030
  60.2015750  44.9519670  34.1443610  60.2488610  43.5836950  33.4982370
  56.9786680  47.1979030  40.9406290  57.3089690  46.3300090  40.7084930
  57.4077680  47.4037550  41.7711250  61.5748600  45.5288040  38.6008260
  61.2744140  45.4053010  39.5012170  61.4686090  44.6696630  38.1923990
  57.4676890  48.0649620  43.6787920  57.0307880  48.2450420  44.5112070
  58.0354570  48.8224240  43.5369640  73.1039070  47.5666620  47.9665230
  72.5041060  47.6259180  47.2229150  73.2332970  46.6271600  48.0962080
  74.3440520  45.3084440  33.3034940  73.5133480  45.3761090  33.7742170
  74.5212350  46.1988560  33.0001800  73.7996980  42.0531920  35.8069140
  74.5615890  42.6228570  35.9128830  73.8151350  41.4859120  36.5777450
  57.3001320  40.5769850  40.0376800  56.6450160  40.3081490  39.3936500
  58.1379270  40.4674330  39.5878780  74.8056950  42.9082020  40.6511070
  75.1765780  42.1249340  40.2447040  75.4458880  43.5971120  40.4728370
  71.7890710  44.2918600  46.0641390  70.9750550  44.7215760  46.3267180
  72.1964910  44.9037010  45.4510440  73.8516150  42.3466290  32.9641660
  74.1264990  43.2545170  32.8360880  73.6626890  42.2828820  33.9003650
  70.2491760  35.3711140  34.2595290  70.6676640  35.1842120  33.4191950
  69.9427820  34.5190190  34.5698220  73.7481490  40.2835280  37.9571090
  73.3725090  39.5163210  37.5252380  73.0184610  40.6657980  38.4446020
  58.3377250  40.9622420  44.5780140  58.7050290  40.8749820  45.4576160
  57.7688070  40.1988970  44.4787000  73.1381110  39.4306800  47.5910610
  72.9067200  39.2019550  46.6908560  73.3985660  40.3506350  47.5455500
  57.8893250  37.8731510  48.4838560  56.9949300  37.8398270  48.8232270
  58.4290800  38.0718300  49.2489810  71.5769180  34.6563230  50.3690310
  72.4539360  34.6646630  50.7524310  71.5890020  33.9194070  49.7582660
  56.5139400  37.7868780  35.9802130  55.6103480  38.0498980  35.8053790
  56.9980020  38.0579950  35.2002090  73.0232450  38.5092770  41.2578330
  73.5469930  38.0155420  40.6268500  73.6091870  38.6443130  42.0025900
  73.2022170  38.5932640  44.7797880  72.2524880  38.5596180  44.8942870
  73.3835180  39.5032750  44.5447650  59.0566610  36.8434320  33.8896510
  59.7658310  36.4217540  33.4043790  58.3406550  36.9109550  33.2579860
  58.7040770  32.8973650  32.9299160  59.4268900  33.4382590  33.2480380
  58.9765290  32.6237070  32.0540700  72.5132420  37.7666120  37.1970740
  73.0091540  37.5336990  37.9819620  72.3148490  36.9277960  36.7808380
  58.3932960  32.1479840  42.8321780  59.0409150  31.5977220  42.3916940
  58.8134800  32.4022990  43.6537590  73.9419580  36.4027070  39.7308420
  73.8318860  36.2483110  40.6690690  74.7027170  35.8748010  39.4883830
  72.2885300  32.3421200  46.1891420  72.9257520  32.9555340  46.5550610
  72.4360190  32.3781860  45.2440650  74.8309850  34.2334990  32.9714560
  75.7559160  34.1016170  32.7632850  74.8085640  34.3127810  33.9251010
  74.9048340  35.0045650  35.5971270  74.1099840  34.9390770  36.1264180
  75.1091620  35.9396290  35.5856620  71.8466760  49.0437200  39.5909660
  72.4425830  48.7221770  38.9144080  72.1044910  48.5709020  40.3822930
  58.1464960  32.3035510  45.5747100  57.7979780  32.7599330  46.3405280
  57.8152660  31.4092640  45.6569530  59.7529330  45.4755110  49.7400290
  59.7098960  45.1048020  50.6214750  59.8840340  46.4132680  49.8802110
  63.4535360  47.0314700  45.3410010  63.2126720  47.2989260  44.4540530
  64.3938000  47.2020430  45.3960870  65.6589780  33.4947390  49.0966520
  65.5978670  34.0869220  49.8461930  66.5990160  33.3873350  48.9516780
  68.2964340  33.1517450  48.7358810  68.9104750  33.4696740  48.0739890
  68.8413900  32.6666040  49.3554670  74.7139520  49.0509080  46.1420650
  74.2197800  49.4477950  45.4247780  74.1052810  48.4258290  46.5357930
  58.8185600  31.8311710  48.8497870  59.3668590  31.6499760  48.0863980
  58.8840910  31.0405820  49.3854180  59.5917360  48.4217360  46.8598070
  58.9977680  48.2902060  47.5988110  59.5841200  47.5855500  46.3940170
  69.0372380  31.7149590  45.0628100  68.1632220  32.0484700  44.8601030
  68.9283130  31.2422770  45.8879970  69.9444360  33.9220460  46.4469820
  69.6157720  33.1072220  46.0671550  70.8926660  33.8790270  46.3235510
  72.3978970  49.6932500  43.4207390  71.9381940  50.4448310  43.0465410
  71.7691430  48.9738970  43.3622190  59.2229590  45.7875740  45.8106110
  58.4963650  45.1681030  45.7432060  59.2838740  46.1816350  44.9404190
  62.8274690  48.0020740  42.5955520  63.3439710  47.3908100  42.0703780
  63.4772070  48.5049520  43.0866530  65.5670190  48.8929230  43.4224500
  65.8548000  48.6383530  42.5457510  66.0793410  48.3406590  44.0130070
  66.7847200  32.6319430  44.0021010  66.0018990  33.1064930  44.2817770
  66.4910130  31.7274260  43.8934190  71.3368270  33.3342530  42.0470100
  71.7776360  33.2787630  41.1991700  71.0675860  34.2500540  42.1180280
  73.2006840  32.9657770  40.0578920  73.1395240  32.0218990  39.9109940
  73.9798870  33.0737860  40.6032380  57.5059590  49.1050130  39.0202870
  57.3381630  48.4720810  39.7184760  56.6394100  49.3109530  38.6697060
  58.1287610  32.9366910  36.5234730  58.8866970  33.0495790  35.9498760
  57.6664780  33.7736110  36.4778160  64.6701420  35.0506180  39.5137040
  63.8575930  34.6763070  39.1732920  65.1743060  34.2951260  39.8158230
  69.1726400  31.7148630  40.7520110  69.7755770  32.2868840  41.2268630
  68.4319390  32.2788070  40.5294010  72.3161000  32.1170190  36.0260390
  72.5111630  33.0153640  36.2927820  71.5290870  31.8857270  36.5193340
  59.1122290  47.7983360  36.4653010  58.5869910  48.1791390  35.7614970
  59.0366870  48.4234130  37.1862720  60.5012760  33.4630960  35.0636700
  61.0305520  32.6760760  34.9344650  61.1341080  34.1422150  35.2972230
  62.6950600  33.2006100  38.1182090  62.0653340  32.4993410  38.2852220
  62.1555740  33.9610230  37.9015250  65.6342550  49.8145330  50.7892700
  66.5609860  49.5789600  50.8328660  65.6192980  50.6417330  50.3078730
  73.8687610  49.3570900  37.7866950  74.0439800  48.6708640  37.1427870
  73.1709180  49.8817950  37.3943620  62.8206160  32.4790080  50.5534580
  62.5390430  32.9823680  49.7895400  63.2025860  31.6811830  50.1876710
  61.7115260  49.7465740  35.3402260  62.4434080  49.4625020  34.7926150
  61.9708930  49.5079020  36.2301640  60.8730050  45.8630470  35.3448590
  60.2438930  46.3315570  35.8934420  60.9877880  45.0179690  35.7794780
  69.4221620  31.8943660  51.1315050  69.3087070  32.2138270  52.0266570
  70.2391360  32.2956170  50.8352330  72.2020110  49.0415190  50.6133740
  72.9945430  48.5464420  50.4059700  72.4953260  49.7205330  51.2209350
  68.3279770  39.9136130  21.4949790  68.2473820  38.9990740  21.2241500
  67.9144190  40.4103200  20.7889500  66.4597810  41.6915150  23.3759060
  65.6839910  41.2115590  23.6657630  67.1110740  41.0120800  23.2015220
  60.4763640  42.0034960  24.2534820  59.6448520  41.7483670  24.6531330
  61.0844620  42.0745730  24.9892740  70.4805240  46.0975340  22.1558190
  70.0186770  45.3262580  22.4845360  71.2930790  46.1241410  22.6610640
  60.4564900  46.0375050  24.4492840  60.7592940  45.1472790  24.2703060
  61.2008490  46.5945270  24.2215090  58.8855590  36.9636850  18.0377210
  57.9972290  37.3052820  17.9357090  59.1696780  36.7637170  17.1458040
  56.8488600  39.5642500  23.9216910  57.4204710  38.7964700  23.9220550
  56.8490140  39.8631260  23.0123520  66.7068550  48.3833350  21.7762180
  66.0879990  48.8390850  21.2056620  67.5620330  48.5384810  21.3751880
  65.9006800  44.3672340  23.3829220  65.8315080  43.4262280  23.2218350
  66.6626660  44.4573750  23.9551790  58.0913470  34.9726860  25.7085840
  57.9116310  34.0752610  25.9888600  57.6893550  35.5198730  26.3832790
  66.9311970  37.1742720  23.6098150  67.3076790  36.3014600  23.4971820
  66.8331480  37.5101420  22.7188590  61.0616980  35.5468350  19.0715590
  61.1683730  36.4472080  19.3784350  60.1509340  35.4986320  18.7810240
  70.7136090  34.6693160  20.5426490  71.5345710  34.1789730  20.5851970
  70.7470170  35.2590820  21.2958330  58.7100140  37.4687360  24.3168180
  59.3910250  37.7325730  24.9355580  58.3948190  36.6288230  24.6506190
  62.9024710  38.5154720  23.4040770  63.4102930  39.0135690  24.0445790
  63.4337950  37.7389920  23.2280130  75.0035640  36.6859910  27.1070120
  74.2987810  37.0741620  26.5885230  75.2693560  37.3810200  27.7091050
  61.1860810  33.1553280  27.6704190  61.1879250  33.6725670  26.8650090
  60.3565120  32.6783460  27.6474120  67.5731900  43.2672590  19.1694090
  66.9549170  43.7322040  18.6056810  68.0855150  43.9600070  19.5863600
  62.4363660  42.7948460  25.8477690  62.1033040  43.4217380  26.4898760
  62.6130340  43.3210340  25.0679360  70.9497570  36.6093540  23.3154030
  70.2453140  36.8978430  23.8957140  71.3109730  37.4193650  22.9553590
  60.8676140  34.8663240  25.6774640  61.2092950  35.7105290  25.3828510
  59.9291950  35.0146980  25.7939980  61.6482760  44.7629260  27.6626870
  62.2656760  45.4380340  27.3811320  60.7875880  45.1717240  27.5714370
  56.9415100  43.9529120  16.5433720  56.5643080  44.4416220  15.8118620
  57.1988170  44.6254400  17.1740250  72.5660350  46.2268670  25.5781510
  71.8823870  46.8967780  25.5698180  73.1054640  46.4249320  24.8126370
  74.0184490  36.0548330  23.7063240  73.0709400  36.0887310  23.8378670
  74.3434480  36.8687280  24.0912600  64.5504030  32.3545510  22.0019230
  64.8579010  31.7992400  21.2854730  63.6204730  32.4889970  21.8192220
  70.1019090  48.0712800  24.2926690  70.1146250  47.6675090  23.4248950
  69.5494310  48.8460090  24.1888120  71.3964510  44.7929020  19.3816860
  71.2860840  43.8503350  19.5066280  71.3932760  45.1544660  20.2679620
  69.5004530  42.9742640  25.6209300  69.9173320  42.7602750  24.7862760
  70.2244350  43.2315430  26.1917920  66.9384790  40.4194340  18.7379350
  66.0114070  40.3531720  18.9667820  67.0909610  41.3574470  18.6234590
  66.9253870  36.6911340  15.7346510  65.9857540  36.8525300  15.8198970
  67.2437130  37.4097020  15.1882500  73.4466630  41.3729860  25.7125540
  72.6185260  41.4422950  25.2375670  74.0417110  41.9584170  25.2441370
  70.9682080  41.9814640  19.2414600  70.3494500  41.6434190  18.5940900
  70.9506530  41.3374400  19.9493790  70.4108640  38.1599180  26.6580410
  69.9979820  38.9852890  26.9120400  69.6784590  37.5744220  26.4656770
  62.5441430  40.9459080  21.5199080  62.1398430  40.2336330  21.0244980
  62.6304550  40.6012320  22.4087120  63.0123130  44.6326640  23.6838290
  62.7151420  44.0272110  23.0046070  63.9622950  44.6703950  23.5727650
  61.2570050  37.7202290  25.2998120  61.8084640  37.8297630  24.5251370
  61.7713560  38.0939890  26.0153350  71.1008740  48.2058510  27.3461390
  70.6239300  49.0130700  27.1534000  70.4170530  47.5536840  27.4987600
  62.1041560  44.3708330  30.3346090  61.2070090  44.5948300  30.5819490
  62.1294430  44.4943270  29.3857490  69.1446780  41.2201450  16.2487350
  69.5840060  40.3823880  16.1025170  69.8575200  41.8530850  16.3351490
  60.9312780  41.2421650  28.9103460  60.7920550  42.1144450  29.2790860
  60.0494140  40.8994460  28.7651400  67.2542160  46.1597520  20.2168590
  67.6938070  46.9021850  19.8023980  67.1929050  46.4024090  21.1407550
  62.7293130  47.1843350  31.1188610  62.7008560  47.5886300  30.2517040
  62.5658100  46.2553710  30.9560210  72.7263920  32.4744260  14.5628390
  72.4136580  32.5671090  15.4627460  73.4876390  33.0525290  14.5125820
  59.2446060  39.8404060  19.0205730  59.1243660  40.5666150  18.4087000
  58.9346950  39.0706970  18.5433640  74.6807950  47.9670450  32.4152780
  75.1567670  48.4453340  33.0941860  75.3015110  47.8987940  31.6898280
  56.8831430  43.0119200  24.8274370  56.9611850  43.1467970  23.8830090
  57.4973110  42.3035090  25.0202490  58.1279060  44.7119390  21.2380550
  57.7207140  44.8533980  20.3834150  59.0192070  44.4279550  21.0351760
  74.0841200  45.1583300  29.5752790  74.2104260  44.9195180  28.6569970
  74.1262580  44.3267840  30.0474870  67.9457940  48.8611300  28.1447600
  68.4602610  48.7719310  28.9470030  67.1027020  49.2071000  28.4375510
  69.9212340  49.1466640  17.5731600  69.7613480  48.8569580  18.4713430
  69.7559050  48.3706770  17.0376830  62.4000720  48.9265170  19.3503220
  62.2243200  48.0100710  19.1371020  61.5456460  49.2852460  19.5901020
  69.6238470  46.6554200  16.1329600  68.9303630  46.6531490  15.4731880
  70.3661330  46.2313520  15.7023770  69.1888400  48.2816910  20.2078090
  69.6445350  47.5006290  20.5216710  69.5280920  48.9923730  20.7519270
  73.9365210  37.2115760  30.5402530  73.3209480  37.7195430  30.0117990
  73.6161630  36.3114090  30.4828470  56.9390950  44.0533370  27.3668830
  57.1021990  43.5838730  26.5488200  57.4043400  43.5456930  28.0317670
  61.7109720  33.1839130  22.4029400  61.2677870  33.9648670  22.0713920
  62.2694710  33.5069020  23.1100340  65.9979530  36.0507650  28.0064720
  65.5358900  36.2590670  28.8184660  65.5957640  35.2367000  27.7035390
  70.9984040  37.2716600  29.1361380  70.1477630  36.9722350  29.4570450
  70.8385830  37.5158610  28.2245200  68.0933750  38.7718350  31.2360170
  68.4187160  37.9382100  30.8962400  68.8814080  39.2946870  31.3838500
  64.8268540  32.8049830  17.2835230  64.2022720  32.8009700  18.0088540
  64.7398660  31.9380790  16.8871200  63.7485620  33.7286460  24.2619000
  64.0457950  34.6349290  24.1811020  64.2971180  33.2405240  23.6478570
  61.5023940  38.3072700  20.1310650  61.2764860  38.0909870  21.0357270
  60.7216470  38.7401160  19.7856620  68.7321700  38.3136070  18.7301300
  68.1330590  39.0371870  18.5464920  69.2801310  38.2512850  17.9477750
  63.9423150  39.2058280  30.7970920  63.8466750  38.2653010  30.6471320
  64.7855130  39.4273350  30.4018990  67.3386570  36.9499610  20.7604580
  67.7316140  37.2671810  19.9473270  67.7003420  36.0711490  20.8749100
  59.0733690  35.6171950  28.9504700  58.6797080  36.4647160  29.1577480
  58.3852090  34.9798320  29.1413340  65.6478740  35.7006920  32.0201440
  64.9577060  35.5079120  32.6547530  66.3911040  35.9841560  32.5525740
  56.3750740  33.5400410  22.9834780  56.0863790  34.1103270  23.6959760
  57.1196500  33.0604860  23.3466010  56.5620970  37.4820530  14.1937500
  56.4795640  38.4251290  14.3352490  56.2104030  37.3395440  13.3149850
  67.9241710  39.5405360  24.8555360  67.1922830  40.0492170  25.2045460
  67.5266050  38.7235340  24.5544140  64.3619100  36.2159560  23.2607850
  64.3655160  35.7749510  22.4112390  65.2570220  36.5376890  23.3679670
  60.2121480  36.0986050  22.2202060  59.8721530  36.5761280  22.9769110
  59.4498800  35.6451170  21.8603160  64.4239250  37.2171640  16.2514610
  64.5452070  37.1758120  17.2000430  64.0387760  38.0795790  16.0961340
  68.3867620  34.9939040  24.2678300  68.4040360  35.4447690  25.1120150
  68.1383200  34.0944680  24.4811740  63.4360750  39.5272780  15.6497910
  62.8677650  39.0791030  15.0233820  64.1449750  39.8865560  15.1163060
  71.8138370  32.4071220  30.1064680  72.1384140  31.6760880  30.6322660
  71.8494880  32.0884860  29.2045670  58.5129930  43.4284800  29.5264640
  58.1284720  42.7878470  30.1247600  58.8242120  44.1320920  30.0959370
  64.6627070  40.2761340  25.0073260  65.0297200  39.8019910  25.7534600
  64.4732130  41.1502910  25.3481600  57.5267560  35.0205030  21.1366730
  57.2414480  34.6560700  21.9745350  57.4646420  34.2885490  20.5229870
  62.4526440  39.3169980  27.3257470  62.1483510  40.1961960  27.5507830
  63.4072900  39.3769770  27.3614910  60.9808230  43.5230970  17.9224320
  60.2070490  42.9828590  17.7623040  61.7102860  43.0037580  17.5842080
  71.7396210  42.5196330  23.7150710  72.4595330  43.0151620  23.3246820
  71.5378030  41.8414220  23.0704580  67.2006150  33.9134290  17.8580100
  66.3870760  33.4147460  17.7825410  67.0068100  34.7532540  17.4416450
  67.1215010  42.5905390  29.6019710  67.0552320  41.6701060  29.3477300
  66.4920150  42.6880830  30.3164350  69.9154540  38.2853940  16.1542260
  70.8034160  38.5971170  15.9793600  69.8859630  37.4126190  15.7622840
  61.0245630  43.1911350  21.5603130  61.5424300  42.3879610  21.5060020
  60.5729650  43.1290490  22.4019960  65.9115130  44.4577630  16.8330430
  66.2530830  45.2019860  16.3373750  65.0827840  44.7708750  17.1955260
  58.5090170  40.1572720  28.4728830  58.1505110  40.8226570  29.0602170
  58.2144730  39.3256270  28.8441450  61.7103290  40.6156960  31.3568380
  61.4103430  40.7614140  30.4596200  62.4814530  40.0562250  31.2641770
  67.0531740  45.4125960  29.3523510  67.0676280  44.4806920  29.1342420
  66.3456840  45.4985720  29.9913280  72.1868810  39.5965780  15.6222120
  72.1032530  40.0280000  14.7718560  72.9063000  40.0564130  16.0548940
  73.2642950  42.0533300  28.6992090  72.5391140  42.6462080  28.5021480
  73.7918410  42.0456840  27.9005460  73.2156060  46.4508040  18.3504250
  72.5732220  45.7963660  18.6247970  72.8286720  46.8563130  17.5744920
  68.7942540  43.7793470  22.1975940  69.1466360  43.1821600  21.5377310
  67.9104870  43.4537700  22.3684190  64.8805820  44.5391160  19.6046350
  65.5676950  45.0860370  19.9853940  64.0938240  45.0831890  19.6395960
  57.0198220  40.1563980  15.0963430  57.8893070  40.4388780  15.3799350
  56.5288540  40.9699850  14.9812240  64.1833030  41.5437190  19.2171710
  64.6395810  42.3542440  19.4431900  63.8321240  41.2260330  20.0490200
  66.4865640  47.0543530  26.4464010  67.1307860  47.2602910  27.1237430
  66.8495080  46.2931930  25.9934860  60.0844810  31.8874840  19.6894230
  59.9559440  31.8792740  20.6379150  59.2606830  32.2257930  19.3385240
  67.7597720  45.0575880  25.1641460  68.4019950  44.3569040  25.2773630
  68.2847070  45.8374320  24.9838350  71.6053440  45.3424500  14.8880600
  71.3791020  44.6254940  15.4805240  71.2149640  45.0936940  14.0502350
  69.5335340  45.8570780  28.3677520  69.8691580  46.4437470  29.0455440
  68.6135680  45.7263490  28.5975310  57.3869470  49.3691360  15.6625060
  57.7467110  49.9680700  15.0082330  57.2461810  49.9151250  16.4360090
  57.0838740  33.6465960  29.1500930  56.3697260  33.8462880  29.7553540
  57.5033780  32.8705530  29.5215730  71.1869690  43.2596440  16.5494760
  70.8991390  43.7209130  17.3372640  71.9821860  42.7994210  16.8178980
  57.3711330  47.6346220  30.1367460  57.4802450  46.6940960  29.9962850
  56.7191890  47.9000970  29.4881190  65.3623920  45.9062110  31.5365580
  65.0420790  45.1871350  32.0811270  64.6882280  46.5817180  31.6101640
  63.4038090  46.7522560  16.4798730  63.3948190  47.4852250  15.8643240
  62.4836450  46.5054140  16.5725690  59.0044730  41.9737450  17.2245490
  58.3972680  42.7136350  17.2340790  59.4794080  42.0636810  16.3983690
  68.5777520  36.1388270  26.9002380  68.9458340  35.3183480  27.2281950
  67.7175720  36.1990160  27.3158030  71.9439550  35.0945210  17.7089940
  71.3152710  35.1990880  16.9948170  71.4491470  35.3141990  18.4983820
  66.3897690  46.8150800  15.1423920  66.4909670  46.6114790  14.2125900
  65.4899430  46.5609080  15.3471700  63.9123580  37.3731160  19.1247820
  63.2039730  37.8417500  19.5661430  64.1968060  36.7153170  19.7593010
  65.5379510  38.7927860  27.1240350  66.0364760  39.2673680  27.7892200
  65.6802460  37.8691380  27.3310380  67.9439010  34.0981820  20.5643610
  67.8206790  34.1167950  19.6153120  68.8923570  34.1460760  20.6842010
  65.0315800  49.3337120  19.8371590  65.2857300  49.2958510  18.9150960
  64.0828280  49.2070450  19.8299840  62.1158600  35.6816240  16.4998530
  62.9649130  36.1186390  16.4338720  61.7489870  35.9936500  17.3270590
  72.7446370  35.0095820  27.9668740  72.2419970  35.7501220  28.3062550
  73.5603030  35.3979820  27.6505530  71.0368380  40.2529000  21.4130100
  70.0958520  40.2679230  21.5877790  71.3512450  39.4664960  21.8590400
  61.0150020  41.9348600  14.9734060  61.7813290  41.8229960  15.5359490
  61.0924710  41.2386570  14.3210830  59.7096780  39.3673670  15.6566950
  59.7900370  38.4201180  15.7684350  60.6016530  39.6980550  15.7627610
  73.0393960  47.4237850  23.0884360  73.1641380  48.2469020  23.5608170
  73.9059520  47.2128580  22.7408510  60.5111490  49.5169060  22.7601490
  61.2473970  48.9684520  23.0310060  60.8952410  50.3825070  22.6207480
  57.3956970  45.5842630  18.6343000  56.4696750  45.8263770  18.6248410
  57.8613400  46.4116890  18.5127750  59.5169770  48.7015130  31.9487070
  60.3182500  49.0227180  32.3622470  59.0021590  48.3410710  32.6706980
  63.6213800  48.6899370  14.5827060  64.4142410  48.9788200  14.1308850
  63.1018150  48.2591540  13.9039540  68.3534400  44.8095000  31.8962480
  67.7472560  44.8326600  31.1558230  68.0488510  44.0778040  32.4329730
  69.7834770  48.5375290  30.5071890  70.7356520  48.4533310  30.4572130
  69.6362990  49.2017000  31.1805680  72.6743970  47.9169500  16.0063800
  72.3885480  47.5034640  15.1917980  72.4763520  48.8457210  15.8864320
  57.2367580  41.1888590  30.8923120  57.7406600  40.6095870  31.4639350
  56.4975000  41.4728820  31.4299490  64.1391200  43.9102780  14.4469410
  64.0341840  43.2955130  15.1730790  63.9715420  43.3868670  13.6632420
  64.2905520  42.5959580  30.4258640  63.5251190  43.1644580  30.3413310
  64.4721480  42.3035790  29.5326870  67.3793930  42.9722810  15.0511400
  66.8304030  43.4192110  15.6954140  68.0013190  42.4672060  15.5749070
  71.4328870  44.3264910  30.9833660  72.1738340  44.6640670  30.4801120
  70.6701550  44.4956970  30.4303430  59.2690660  39.3318180  31.7873190
  59.3096000  39.0332050  32.6958420  60.1236160  39.7325790  31.6280710
  63.0469050  41.9313730  16.9476700  63.4685470  41.7653600  17.7908090
  63.1719890  41.1213960  16.4531840  61.2096470  37.9110280  29.7547680
  60.6792930  37.4201230  29.1271020  61.8784540  38.3394480  29.2205610
  65.5596690  40.9551340  14.1953800  66.0802350  40.2400360  13.8294950
  66.2065090  41.5937210  14.4954310  70.1074530  42.3779740  29.5188870
  70.5215550  42.5324820  30.3679290  69.1725530  42.5034960  29.6814650
  70.5796700  39.7175900  31.5228020  71.1617470  38.9628220  31.4348500
  70.7558470  40.2483340  30.7459500  61.6968770  34.8772650  29.8344970
  61.6025640  34.2593400  29.1095840  61.1166160  35.6038940  29.6074880
  64.4630210  33.4345890  26.8672360  64.0147510  33.4570150  26.0217910
  63.8295410  33.0364910  27.4642660  64.8689760  42.3300220  27.4884800
  65.2877870  43.1732950  27.3161040  63.9498390  42.4672260  27.2591580
  67.2053660  40.0616400  28.8722640  67.3249870  39.4657540  29.6117480
  68.0647660  40.0986090  28.4523940  69.5441560  40.6153590  27.4485150
  69.0176780  41.1396210  26.8450290  69.8872900  41.2480980  28.0794880
  61.9427950  38.0046960  13.8934860  61.7417010  37.1414320  14.2548200
  61.7720000  37.9180320  12.9556460  62.7197180  48.6353230  28.6042530
  62.1818270  49.3599290  28.2851230  62.9731140  48.1583570  27.8139870
  63.9722430  36.6037750  30.1298460  64.5622120  36.2953600  30.8176280
  63.1542670  36.1317500  30.2858360  68.7915860  36.2203560  30.3631480
  68.1031380  35.5585100  30.2981470  69.5121880  35.7741830  30.8079940
  69.4216260  32.8155190  16.4221740  69.7018550  31.9723090  16.7781160
  68.6481990  33.0478300  16.9360490  60.7410750  35.1047580  13.8812740
  61.0436650  35.1115010  12.9731890  61.4805340  34.7545440  14.3780400
  65.5759390  49.8704440  28.8629180  65.5018090  50.7739580  29.1701550
  64.6738230  49.5516340  28.8351250  63.9595680  34.0482200  14.8668940
  63.6117680  33.3706190  14.2871390  64.1608450  33.5871710  15.6812330
  66.1244720  49.0362950  16.4855540  67.0195510  49.3747920  16.5074300
  66.1562350  48.3142360  15.8579820  59.7640880  44.4090000  14.7142540
  60.2015750  44.9519670  15.3700120  60.2488610  43.5836950  14.7238880
  56.9786680  47.1979030  22.1662800  57.3089690  46.3300090  21.9341440
  57.4077680  47.4037550  22.9967760  61.5748600  45.5288040  19.8264770
  61.2744140  45.4053010  20.7268680  61.4686090  44.6696630  19.4180500
  57.4676890  48.0649620  24.9044430  57.0307880  48.2450420  25.7368580
  58.0354570  48.8224240  24.7626150  73.1039070  47.5666620  29.1921740
  72.5041060  47.6259180  28.4485660  73.2332970  46.6271600  29.3218590
  74.3440520  45.3084440  14.5291450  73.5133480  45.3761090  14.9998680
  74.5212350  46.1988560  14.2258310  73.7996980  42.0531920  17.0325650
  74.5615890  42.6228570  17.1385340  73.8151350  41.4859120  17.8033960
  57.3001320  40.5769850  21.2633310  56.6450160  40.3081490  20.6193010
  58.1379270  40.4674330  20.8135290  74.8056950  42.9082020  21.8767580
  75.1765780  42.1249340  21.4703550  75.4458880  43.5971120  21.6984880
  71.7890710  44.2918600  27.2897900  70.9750550  44.7215760  27.5523690
  72.1964910  44.9037010  26.6766950  73.8516150  42.3466290  14.1898170
  74.1264990  43.2545170  14.0617390  73.6626890  42.2828820  15.1260160
  70.2491760  35.3711140  15.4851800  70.6676640  35.1842120  14.6448460
  69.9427820  34.5190190  15.7954730  73.7481490  40.2835280  19.1827600
  73.3725090  39.5163210  18.7508890  73.0184610  40.6657980  19.6702530
  58.3377250  40.9622420  25.8036650  58.7050290  40.8749820  26.6832670
  57.7688070  40.1988970  25.7043510  73.1381110  39.4306800  28.8167120
  72.9067200  39.2019550  27.9165070  73.3985660  40.3506350  28.7712010
  57.8893250  37.8731510  29.7095070  56.9949300  37.8398270  30.0488780
  58.4290800  38.0718300  30.4746320  71.5769180  34.6563230  31.5946820
  72.4539360  34.6646630  31.9780820  71.5890020  33.9194070  30.9839170
  56.5139400  37.7868780  17.2058640  55.6103480  38.0498980  17.0310300
  56.9980020  38.0579950  16.4258600  73.0232450  38.5092770  22.4834840
  73.5469930  38.0155420  21.8525010  73.6091870  38.6443130  23.2282410
  73.2022170  38.5932640  26.0054390  72.2524880  38.5596180  26.1199380
  73.3835180  39.5032750  25.7704160  59.0566610  36.8434320  15.1153020
  59.7658310  36.4217540  14.6300300  58.3406550  36.9109550  14.4836370
  58.7040770  32.8973650  14.1555670  59.4268900  33.4382590  14.4736890
  58.9765290  32.6237070  13.2797210  72.5132420  37.7666120  18.4227250
  73.0091540  37.5336990  19.2076130  72.3148490  36.9277960  18.0064890
  58.3932960  32.1479840  24.0578290  59.0409150  31.5977220  23.6173450
  58.8134800  32.4022990  24.8794100  73.9419580  36.4027070  20.9564930
  73.8318860  36.2483110  21.8947200  74.7027170  35.8748010  20.7140340
  72.2885300  32.3421200  27.4147930  72.9257520  32.9555340  27.7807120
  72.4360190  32.3781860  26.4697160  74.8309850  34.2334990  14.1971070
  75.7559160  34.1016170  13.9889360  74.8085640  34.3127810  15.1507520
  74.9048340  35.0045650  16.8227780  74.1099840  34.9390770  17.3520690
  75.1091620  35.9396290  16.8113130  71.8466760  49.0437200  20.8166170
  72.4425830  48.7221770  20.1400590  72.1044910  48.5709020  21.6079440
  58.1464960  32.3035510  26.8003610  57.7979780  32.7599330  27.5661790
  57.8152660  31.4092640  26.8826040  59.7529330  45.4755110  30.9656800
  59.7098960  45.1048020  31.8471260  59.8840340  46.4132680  31.1058620
  63.4535360  47.0314700  26.5666520  63.2126720  47.2989260  25.6797040
  64.3938000  47.2020430  26.6217380  65.6589780  33.4947390  30.3223030
  65.5978670  34.0869220  31.0718440  66.5990160  33.3873350  30.1773290
  68.2964340  33.1517450  29.9615320  68.9104750  33.4696740  29.2996400
  68.8413900  32.6666040  30.5811180  74.7139520  49.0509080  27.3677160
  74.2197800  49.4477950  26.6504290  74.1052810  48.4258290  27.7614440
  58.8185600  31.8311710  30.0754380  59.3668590  31.6499760  29.3120490
  58.8840910  31.0405820  30.6110690  59.5917360  48.4217360  28.0854580
  58.9977680  48.2902060  28.8244620  59.5841200  47.5855500  27.6196680
  69.0372380  31.7149590  26.2884610  68.1632220  32.0484700  26.0857540
  68.9283130  31.2422770  27.1136480  69.9444360  33.9220460  27.6726330
  69.6157720  33.1072220  27.2928060  70.8926660  33.8790270  27.5492020
  72.3978970  49.6932500  24.6463900  71.9381940  50.4448310  24.2721920
  71.7691430  48.9738970  24.5878700  59.2229590  45.7875740  27.0362620
  58.4963650  45.1681030  26.9688570  59.2838740  46.1816350  26.1660700
  62.8274690  48.0020740  23.8212030  63.3439710  47.3908100  23.2960290
  63.4772070  48.5049520  24.3123040  65.5670190  48.8929230  24.6481010
  65.8548000  48.6383530  23.7714020  66.0793410  48.3406590  25.2386580
  66.7847200  32.6319430  25.2277520  66.0018990  33.1064930  25.5074280
  66.4910130  31.7274260  25.1190700  71.3368270  33.3342530  23.2726610
  71.7776360  33.2787630  22.4248210  71.0675860  34.2500540  23.3436790
  73.2006840  32.9657770  21.2835430  73.1395240  32.0218990  21.1366450
  73.9798870  33.0737860  21.8288890  57.5059590  49.1050130  20.2459380
  57.3381630  48.4720810  20.9441270  56.6394100  49.3109530  19.8953570
  58.1287610  32.9366910  17.7491240  58.8866970  33.0495790  17.1755270
  57.6664780  33.7736110  17.7034670  64.6701420  35.0506180  20.7393550
  63.8575930  34.6763070  20.3989430  65.1743060  34.2951260  21.0414740
  69.1726400  31.7148630  21.9776620  69.7755770  32.2868840  22.4525140
  68.4319390  32.2788070  21.7550520  72.3161000  32.1170190  17.2516900
  72.5111630  33.0153640  17.5184330  71.5290870  31.8857270  17.7449850
  59.1122290  47.7983360  17.6909520  58.5869910  48.1791390  16.9871480
  59.0366870  48.4234130  18.4119230  60.5012760  33.4630960  16.2893210
  61.0305520  32.6760760  16.1601160  61.1341080  34.1422150  16.5228740
  62.6950600  33.2006100  19.3438600  62.0653340  32.4993410  19.5108730
  62.1555740  33.9610230  19.1271760  65.6342550  49.8145330  32.0149210
  66.5609860  49.5789600  32.0585170  65.6192980  50.6417330  31.5335240
  73.8687610  49.3570900  19.0123460  74.0439800  48.6708640  18.3684380
  73.1709180  49.8817950  18.6200130  62.8206160  32.4790080  31.7791090
  62.5390430  32.9823680  31.0151910  63.2025860  31.6811830  31.4133220
  61.7115260  49.7465740  16.5658770  62.4434080  49.4625020  16.0182660
  61.9708930  49.5079020  17.4558150  60.8730050  45.8630470  16.5705100
  60.2438930  46.3315570  17.1190930  60.9877880  45.0179690  17.0051290
  69.4221620  31.8943660  32.3571560  69.3087070  32.2138270  33.2523080
  70.2391360  32.2956170  32.0608840  72.2020110  49.0415190  31.8390250
  72.9945430  48.5464420  31.6316210  72.4953260  49.7205330  32.4465860
  68.3279770  39.9136130   2.7206300  68.2473820  38.9990740   2.4498010
  67.9144190  40.4103200   2.0146010  66.4597810  41.6915150   4.6015570
  65.6839910  41.2115590   4.8914140  67.1110740  41.0120800   4.4271730
  60.4763640  42.0034960   5.4791330  59.6448520  41.7483670   5.8787840
  61.0844620  42.0745730   6.2149250  70.4805240  46.0975340   3.3814700
  70.0186770  45.3262580   3.7101870  71.2930790  46.1241410   3.8867150
  60.4564900  46.0375050   5.6749350  60.7592940  45.1472790   5.4959570
  61.2008490  46.5945270   5.4471600  56.8488600  39.5642500   5.1473420
  57.4204710  38.7964700   5.1477060  56.8490140  39.8631260   4.2380030
  66.7068550  48.3833350   3.0018690  66.0879990  48.8390850   2.4313130
  67.5620330  48.5384810   2.6008390  65.9006800  44.3672340   4.6085730
  65.8315080  43.4262280   4.4474860  66.6626660  44.4573750   5.1808300
  58.0913470  34.9726860   6.9342350  57.9116310  34.0752610   7.2145110
  57.6893550  35.5198730   7.6089300  66.9311970  37.1742720   4.8354660
  67.3076790  36.3014600   4.7228330  66.8331480  37.5101420   3.9445100
  70.7136090  34.6693160   1.7683000  71.5345710  34.1789730   1.8108480
  70.7470170  35.2590820   2.5214840  58.7100140  37.4687360   5.5424690
  59.3910250  37.7325730   6.1612090  58.3948190  36.6288230   5.8762700
  62.9024710  38.5154720   4.6297280  63.4102930  39.0135690   5.2702300
  63.4337950  37.7389920   4.4536640  75.0035640  36.6859910   8.3326630
  74.2987810  37.0741620   7.8141740  75.2693560  37.3810200   8.9347560
  61.1860810  33.1553280   8.8960700  61.1879250  33.6725670   8.0906600
  60.3565120  32.6783460   8.8730630  62.4363660  42.7948460   7.0734200
  62.1033040  43.4217380   7.7155270  62.6130340  43.3210340   6.2935870
  70.9497570  36.6093540   4.5410540  70.2453140  36.8978430   5.1213650
  71.3109730  37.4193650   4.1810100  60.8676140  34.8663240   6.9031150
  61.2092950  35.7105290   6.6085020  59.9291950  35.0146980   7.0196490
  61.6482760  44.7629260   8.8883380  62.2656760  45.4380340   8.6067830
  60.7875880  45.1717240   8.7970880  72.5660350  46.2268670   6.8038020
  71.8823870  46.8967780   6.7954690  73.1054640  46.4249320   6.0382880
  74.0184490  36.0548330   4.9319750  73.0709400  36.0887310   5.0635180
  74.3434480  36.8687280   5.3169110  64.5504030  32.3545510   3.2275740
  64.8579010  31.7992400   2.5111240  63.6204730  32.4889970   3.0448730
  70.1019090  48.0712800   5.5183200  70.1146250  47.6675090   4.6505460
  69.5494310  48.8460090   5.4144630  69.5004530  42.9742640   6.8465810
  69.9173320  42.7602750   6.0119270  70.2244350  43.2315430   7.4174430
  73.4466630  41.3729860   6.9382050  72.6185260  41.4422950   6.4632180
  74.0417110  41.9584170   6.4697880  70.4108640  38.1599180   7.8836920
  69.9979820  38.9852890   8.1376910  69.6784590  37.5744220   7.6913280
  62.5441430  40.9459080   2.7455590  62.1398430  40.2336330   2.2501490
  62.6304550  40.6012320   3.6343630  63.0123130  44.6326640   4.9094800
  62.7151420  44.0272110   4.2302580  63.9622950  44.6703950   4.7984160
  61.2570050  37.7202290   6.5254630  61.8084640  37.8297630   5.7507880
  61.7713560  38.0939890   7.2409860  71.1008740  48.2058510   8.5717900
  70.6239300  49.0130700   8.3790510  70.4170530  47.5536840   8.7244110
  62.1041560  44.3708330  11.5602600  61.2070090  44.5948300  11.8076000
  62.1294430  44.4943270  10.6114000  60.9312780  41.2421650  10.1359970
  60.7920550  42.1144450  10.5047370  60.0494140  40.8994460   9.9907910
  62.7293130  47.1843350  12.3445120  62.7008560  47.5886300  11.4773550
  62.5658100  46.2553710  12.1816720  74.6807950  47.9670450  13.6409290
  75.1567670  48.4453340  14.3198370  75.3015110  47.8987940  12.9154790
  56.8831430  43.0119200   6.0530880  56.9611850  43.1467970   5.1086600
  57.4973110  42.3035090   6.2459000  58.1279060  44.7119390   2.4637060
  57.7207140  44.8533980   1.6090660  59.0192070  44.4279550   2.2608270
  74.0841200  45.1583300  10.8009300  74.2104260  44.9195180   9.8826480
  74.1262580  44.3267840  11.2731380  67.9457940  48.8611300   9.3704110
  68.4602610  48.7719310  10.1726540  67.1027020  49.2071000   9.6632020
  73.9365210  37.2115760  11.7659040  73.3209480  37.7195430  11.2374500
  73.6161630  36.3114090  11.7084980  56.9390950  44.0533370   8.5925340
  57.1021990  43.5838730   7.7744710  57.4043400  43.5456930   9.2574180
  61.7109720  33.1839130   3.6285910  61.2677870  33.9648670   3.2970430
  62.2694710  33.5069020   4.3356850  65.9979530  36.0507650   9.2321230
  65.5358900  36.2590670  10.0441170  65.5957640  35.2367000   8.9291900
  70.9984040  37.2716600  10.3617890  70.1477630  36.9722350  10.6826960
  70.8385830  37.5158610   9.4501710  68.0933750  38.7718350  12.4616680
  68.4187160  37.9382100  12.1218910  68.8814080  39.2946870  12.6095010
  63.7485620  33.7286460   5.4875510  64.0457950  34.6349290   5.4067530
  64.2971180  33.2405240   4.8735080  63.9423150  39.2058280  12.0227430
  63.8466750  38.2653010  11.8727830  64.7855130  39.4273350  11.6275500
  59.0733690  35.6171950  10.1761210  58.6797080  36.4647160  10.3833990
  58.3852090  34.9798320  10.3669850  65.6478740  35.7006920  13.2457950
  64.9577060  35.5079120  13.8804040  66.3911040  35.9841560  13.7782250
  56.3750740  33.5400410   4.2091290  56.0863790  34.1103270   4.9216270
  57.1196500  33.0604860   4.5722520  67.9241710  39.5405360   6.0811870
  67.1922830  40.0492170   6.4301970  67.5266050  38.7235340   5.7800650
  64.3619100  36.2159560   4.4864360  64.3655160  35.7749510   3.6368900
  65.2570220  36.5376890   4.5936180  60.2121480  36.0986050   3.4458570
  59.8721530  36.5761280   4.2025620  59.4498800  35.6451170   3.0859670
  68.3867620  34.9939040   5.4934810  68.4040360  35.4447690   6.3376660
  68.1383200  34.0944680   5.7068250  71.8138370  32.4071220  11.3321190
  72.1384140  31.6760880  11.8579170  71.8494880  32.0884860  10.4302180
  58.5129930  43.4284800  10.7521150  58.1284720  42.7878470  11.3504110
  58.8242120  44.1320920  11.3215880  64.6627070  40.2761340   6.2329770
  65.0297200  39.8019910   6.9791110  64.4732130  41.1502910   6.5738110
  57.5267560  35.0205030   2.3623240  57.2414480  34.6560700   3.2001860
  57.4646420  34.2885490   1.7486380  62.4526440  39.3169980   8.5513980
  62.1483510  40.1961960   8.7764340  63.4072900  39.3769770   8.5871420
  71.7396210  42.5196330   4.9407220  72.4595330  43.0151620   4.5503330
  71.5378030  41.8414220   4.2961090  67.1215010  42.5905390  10.8276220
  67.0552320  41.6701060  10.5733810  66.4920150  42.6880830  11.5420860
  61.0245630  43.1911350   2.7859640  61.5424300  42.3879610   2.7316530
  60.5729650  43.1290490   3.6276470  58.5090170  40.1572720   9.6985340
  58.1505110  40.8226570  10.2858680  58.2144730  39.3256270  10.0697960
  61.7103290  40.6156960  12.5824890  61.4103430  40.7614140  11.6852710
  62.4814530  40.0562250  12.4898280  67.0531740  45.4125960  10.5780020
  67.0676280  44.4806920  10.3598930  66.3456840  45.4985720  11.2169790
  73.2642950  42.0533300   9.9248600  72.5391140  42.6462080   9.7277990
  73.7918410  42.0456840   9.1261970  68.7942540  43.7793470   3.4232450
  69.1466360  43.1821600   2.7633820  67.9104870  43.4537700   3.5940700
  66.4865640  47.0543530   7.6720520  67.1307860  47.2602910   8.3493940
  66.8495080  46.2931930   7.2191370  67.7597720  45.0575880   6.3897970
  68.4019950  44.3569040   6.5030140  68.2847070  45.8374320   6.2094860
  69.5335340  45.8570780   9.5934030  69.8691580  46.4437470  10.2711950
  68.6135680  45.7263490   9.8231820  57.0838740  33.6465960  10.3757440
  56.3697260  33.8462880  10.9810050  57.5033780  32.8705530  10.7472240
  57.3711330  47.6346220  11.3623970  57.4802450  46.6940960  11.2219360
  56.7191890  47.9000970  10.7137700  65.3623920  45.9062110  12.7622090
  65.0420790  45.1871350  13.3067780  64.6882280  46.5817180  12.8358150
  68.5777520  36.1388270   8.1258890  68.9458340  35.3183480   8.4538460
  67.7175720  36.1990160   8.5414540  65.5379510  38.7927860   8.3496860
  66.0364760  39.2673680   9.0148710  65.6802460  37.8691380   8.5566890
  72.7446370  35.0095820   9.1925250  72.2419970  35.7501220   9.5319060
  73.5603030  35.3979820   8.8762040  71.0368380  40.2529000   2.6386610
  70.0958520  40.2679230   2.8134300  71.3512450  39.4664960   3.0846910
  73.0393960  47.4237850   4.3140870  73.1641380  48.2469020   4.7864680
  73.9059520  47.2128580   3.9665020  60.5111490  49.5169060   3.9858000
  61.2473970  48.9684520   4.2566570  60.8952410  50.3825070   3.8463990
  59.5169770  48.7015130  13.1743580  60.3182500  49.0227180  13.5878980
  59.0021590  48.3410710  13.8963490  68.3534400  44.8095000  13.1218990
  67.7472560  44.8326600  12.3814740  68.0488510  44.0778040  13.6586240
  69.7834770  48.5375290  11.7328400  70.7356520  48.4533310  11.6828640
  69.6362990  49.2017000  12.4062190  57.2367580  41.1888590  12.1179630
  57.7406600  40.6095870  12.6895860  56.4975000  41.4728820  12.6556000
  64.2905520  42.5959580  11.6515150  63.5251190  43.1644580  11.5669820
  64.4721480  42.3035790  10.7583380  71.4328870  44.3264910  12.2090170
  72.1738340  44.6640670  11.7057630  70.6701550  44.4956970  11.6559940
  59.2690660  39.3318180  13.0129700  59.3096000  39.0332050  13.9214930
  60.1236160  39.7325790  12.8537220  61.2096470  37.9110280  10.9804190
  60.6792930  37.4201230  10.3527530  61.8784540  38.3394480  10.4462120
  70.1074530  42.3779740  10.7445380  70.5215550  42.5324820  11.5935800
  69.1725530  42.5034960  10.9071160  70.5796700  39.7175900  12.7484530
  71.1617470  38.9628220  12.6605010  70.7558470  40.2483340  11.9716010
  61.6968770  34.8772650  11.0601480  61.6025640  34.2593400  10.3352350
  61.1166160  35.6038940  10.8331390  64.4630210  33.4345890   8.0928870
  64.0147510  33.4570150   7.2474420  63.8295410  33.0364910   8.6899170
  64.8689760  42.3300220   8.7141310  65.2877870  43.1732950   8.5417550
  63.9498390  42.4672260   8.4848090  67.2053660  40.0616400  10.0979150
  67.3249870  39.4657540  10.8373990  68.0647660  40.0986090   9.6780450
  69.5441560  40.6153590   8.6741660  69.0176780  41.1396210   8.0706800
  69.8872900  41.2480980   9.3051390  62.7197180  48.6353230   9.8299040
  62.1818270  49.3599290   9.5107740  62.9731140  48.1583570   9.0396380
  63.9722430  36.6037750  11.3554970  64.5622120  36.2953600  12.0432790
  63.1542670  36.1317500  11.5114870  68.7915860  36.2203560  11.5887990
  68.1031380  35.5585100  11.5237980  69.5121880  35.7741830  12.0336450
  65.5759390  49.8704440  10.0885690  65.5018090  50.7739580  10.3958060
  64.6738230  49.5516340  10.0607760  56.9786680  47.1979030   3.3919310
  57.3089690  46.3300090   3.1597950  57.4077680  47.4037550   4.2224270
  57.4676890  48.0649620   6.1300940  57.0307880  48.2450420   6.9625090
  58.0354570  48.8224240   5.9882660  73.1039070  47.5666620  10.4178250
  72.5041060  47.6259180   9.6742170  73.2332970  46.6271600  10.5475100
  57.3001320  40.5769850   2.4889820  56.6450160  40.3081490   1.8449520
  58.1379270  40.4674330   2.0391800  74.8056950  42.9082020   3.1024090
  75.1765780  42.1249340   2.6960060  75.4458880  43.5971120   2.9241390
  71.7890710  44.2918600   8.5154410  70.9750550  44.7215760   8.7780200
  72.1964910  44.9037010   7.9023460  58.3377250  40.9622420   7.0293160
  58.7050290  40.8749820   7.9089180  57.7688070  40.1988970   6.9300020
  73.1381110  39.4306800  10.0423630  72.9067200  39.2019550   9.1421580
  73.3985660  40.3506350   9.9968520  57.8893250  37.8731510  10.9351580
  56.9949300  37.8398270  11.2745290  58.4290800  38.0718300  11.7002830
  71.5769180  34.6563230  12.8203330  72.4539360  34.6646630  13.2037330
  71.5890020  33.9194070  12.2095680  73.0232450  38.5092770   3.7091350
  73.5469930  38.0155420   3.0781520  73.6091870  38.6443130   4.4538920
  73.2022170  38.5932640   7.2310900  72.2524880  38.5596180   7.3455890
  73.3835180  39.5032750   6.9960670  58.3932960  32.1479840   5.2834800
  59.0409150  31.5977220   4.8429960  58.8134800  32.4022990   6.1050610
  73.9419580  36.4027070   2.1821440  73.8318860  36.2483110   3.1203710
  74.7027170  35.8748010   1.9396850  72.2885300  32.3421200   8.6404440
  72.9257520  32.9555340   9.0063630  72.4360190  32.3781860   7.6953670
  58.1464960  32.3035510   8.0260120  57.7979780  32.7599330   8.7918300
  57.8152660  31.4092640   8.1082550  59.7529330  45.4755110  12.1913310
  59.7098960  45.1048020  13.0727770  59.8840340  46.4132680  12.3315130
  63.4535360  47.0314700   7.7923030  63.2126720  47.2989260   6.9053550
  64.3938000  47.2020430   7.8473890  65.6589780  33.4947390  11.5479540
  65.5978670  34.0869220  12.2974950  66.5990160  33.3873350  11.4029800
  68.2964340  33.1517450  11.1871830  68.9104750  33.4696740  10.5252910
  68.8413900  32.6666040  11.8067690  74.7139520  49.0509080   8.5933670
  74.2197800  49.4477950   7.8760800  74.1052810  48.4258290   8.9870950
  58.8185600  31.8311710  11.3010890  59.3668590  31.6499760  10.5377000
  58.8840910  31.0405820  11.8367200  59.5917360  48.4217360   9.3111090
  58.9977680  48.2902060  10.0501130  59.5841200  47.5855500   8.8453190
  69.0372380  31.7149590   7.5141120  68.1632220  32.0484700   7.3114050
  68.9283130  31.2422770   8.3392990  69.9444360  33.9220460   8.8982840
  69.6157720  33.1072220   8.5184570  70.8926660  33.8790270   8.7748530
  72.3978970  49.6932500   5.8720410  71.9381940  50.4448310   5.4978430
  71.7691430  48.9738970   5.8135210  59.2229590  45.7875740   8.2619130
  58.4963650  45.1681030   8.1945080  59.2838740  46.1816350   7.3917210
  62.8274690  48.0020740   5.0468540  63.3439710  47.3908100   4.5216800
  63.4772070  48.5049520   5.5379550  65.5670190  48.8929230   5.8737520
  65.8548000  48.6383530   4.9970530  66.0793410  48.3406590   6.4643090
  66.7847200  32.6319430   6.4534030  66.0018990  33.1064930   6.7330790
  66.4910130  31.7274260   6.3447210  71.3368270  33.3342530   4.4983120
  71.7776360  33.2787630   3.6504720  71.0675860  34.2500540   4.5693300
  73.2006840  32.9657770   2.5091940  73.1395240  32.0218990   2.3622960
  73.9798870  33.0737860   3.0545400  64.6701420  35.0506180   1.9650060
  63.8575930  34.6763070   1.6245940  65.1743060  34.2951260   2.2671250
  69.1726400  31.7148630   3.2033130  69.7755770  32.2868840   3.6781650
  68.4319390  32.2788070   2.9807030  65.6342550  49.8145330  13.2405720
  66.5609860  49.5789600  13.2841680  65.6192980  50.6417330  12.7591750
  62.8206160  32.4790080  13.0047600  62.5390430  32.9823680  12.2408420
  63.2025860  31.6811830  12.6389730  69.4221620  31.8943660  13.5828070
  69.3087070  32.2138270  14.4779590  70.2391360  32.2956170  13.2865350
  72.2020110  49.0415190  13.0646760  72.9945430  48.5464420  12.8572720
  72.4953260  49.7205330  13.6722370  68.3279770  21.1392640  77.8180260
  68.2473820  20.2247250  77.5471970  67.9144190  21.6359710  77.1119970
  66.4597810  22.9171660  79.6989530  65.6839910  22.4372100  79.9888100
  67.1110740  22.2377310  79.5245690  60.4763640  23.2291470  80.5765290
  59.6448520  22.9740180  80.9761800  61.0844620  23.3002240  81.3123210
  70.4805240  27.3231850  78.4788660  70.0186770  26.5519090  78.8075830
  71.2930790  27.3497920  78.9841110  60.4564900  27.2631560  80.7723310
  60.7592940  26.3729300  80.5933530  61.2008490  27.8201780  80.5445560
  58.8855590  18.1893360  74.3607680  57.9972290  18.5309330  74.2587560
  59.1696780  17.9893680  73.4688510  56.8488600  20.7899010  80.2447380
  57.4204710  20.0221210  80.2451020  56.8490140  21.0887770  79.3353990
  66.7068550  29.6089860  78.0992650  66.0879990  30.0647360  77.5287090
  67.5620330  29.7641320  77.6982350  65.9006800  25.5928850  79.7059690
  65.8315080  24.6518790  79.5448820  66.6626660  25.6830260  80.2782260
  66.9311970  18.3999230  79.9328620  67.3076790  17.5271110  79.8202290
  66.8331480  18.7357930  79.0419060  61.0616980  16.7724860  75.3946060
  61.1683730  17.6728590  75.7014820  60.1509340  16.7242830  75.1040710
  70.7136090  15.8949670  76.8656960  71.5345710  15.4046240  76.9082440
  70.7470170  16.4847330  77.6188800  58.7100140  18.6943870  80.6398650
  59.3910250  18.9582240  81.2586050  58.3948190  17.8544740  80.9736660
  62.9024710  19.7411230  79.7271240  63.4102930  20.2392200  80.3676260
  63.4337950  18.9646430  79.5510600  67.5731900  24.4929100  75.4924560
  66.9549170  24.9578550  74.9287280  68.0855150  25.1856580  75.9094070
  70.9497570  17.8350050  79.6384500  70.2453140  18.1234940  80.2187610
  71.3109730  18.6450160  79.2784060  60.8676140  16.0919750  82.0005110
  61.2092950  16.9361800  81.7058980  59.9291950  16.2403490  82.1170450
  56.9415100  25.1785630  72.8664190  56.5643080  25.6672730  72.1349090
  57.1988170  25.8510910  73.4970720  72.5660350  27.4525180  81.9011980
  71.8823870  28.1224290  81.8928650  73.1054640  27.6505830  81.1356840
  74.0184490  17.2804840  80.0293710  73.0709400  17.3143820  80.1609140
  74.3434480  18.0943790  80.4143070  64.5504030  13.5802020  78.3249700
  64.8579010  13.0248910  77.6085200  63.6204730  13.7146480  78.1422690
  70.1019090  29.2969310  80.6157160  70.1146250  28.8931600  79.7479420
  69.5494310  30.0716600  80.5118590  71.3964510  26.0185530  75.7047330
  71.2860840  25.0759860  75.8296750  71.3932760  26.3801170  76.5910090
  66.9384790  21.6450850  75.0609820  66.0114070  21.5788230  75.2898290
  67.0909610  22.5830980  74.9465060  66.9253870  17.9167850  72.0576980
  65.9857540  18.0781810  72.1429440  67.2437130  18.6353530  71.5112970
  73.4466630  22.5986370  82.0356010  72.6185260  22.6679460  81.5606140
  74.0417110  23.1840680  81.5671840  70.9682080  23.2071150  75.5645070
  70.3494500  22.8690700  74.9171370  70.9506530  22.5630910  76.2724260
  62.5441430  22.1715590  77.8429550  62.1398430  21.4592840  77.3475450
  62.6304550  21.8268830  78.7317590  63.0123130  25.8583150  80.0068760
  62.7151420  25.2528620  79.3276540  63.9622950  25.8960460  79.8958120
  69.1446780  22.4457960  72.5717820  69.5840060  21.6080390  72.4255640
  69.8575200  23.0787360  72.6581960  67.2542160  27.3854030  76.5399060
  67.6938070  28.1278360  76.1254450  67.1929050  27.6280600  77.4638020
  72.7263920  13.7000770  70.8858860  72.4136580  13.7927600  71.7857930
  73.4876390  14.2781800  70.8356290  59.2446060  21.0660570  75.3436200
  59.1243660  21.7922660  74.7317470  58.9346950  20.2963480  74.8664110
  56.8831430  24.2375710  81.1504840  56.9611850  24.3724480  80.2060560
  57.4973110  23.5291600  81.3432960  58.1279060  25.9375900  77.5611020
  57.7207140  26.0790490  76.7064620  59.0192070  25.6536060  77.3582230
  69.9212340  30.3723150  73.8962070  69.7613480  30.0826090  74.7943900
  69.7559050  29.5963280  73.3607300  62.4000720  30.1521680  75.6733690
  62.2243200  29.2357220  75.4601490  61.5456460  30.5108970  75.9131490
  69.6238470  27.8810710  72.4560070  68.9303630  27.8788000  71.7962350
  70.3661330  27.4570030  72.0254240  69.1888400  29.5073420  76.5308560
  69.6445350  28.7262800  76.8447180  69.5280920  30.2180240  77.0749740
  61.7109720  14.4095640  78.7259870  61.2677870  15.1905180  78.3944390
  62.2694710  14.7325530  79.4330810  64.8268540  14.0306340  73.6065700
  64.2022720  14.0266210  74.3319010  64.7398660  13.1637300  73.2101670
  63.7485620  14.9542970  80.5849470  64.0457950  15.8605800  80.5041490
  64.2971180  14.4661750  79.9709040  61.5023940  19.5329210  76.4541120
  61.2764860  19.3166380  77.3587740  60.7216470  19.9657670  76.1087090
  68.7321700  19.5392580  75.0531770  68.1330590  20.2628380  74.8695390
  69.2801310  19.4769360  74.2708220  67.3386570  18.1756120  77.0835050
  67.7316140  18.4928320  76.2703740  67.7003420  17.2968000  77.1979570
  56.3750740  14.7656920  79.3065250  56.0863790  15.3359780  80.0190230
  57.1196500  14.2861370  79.6696480  56.5620970  18.7077040  70.5167970
  56.4795640  19.6507800  70.6582960  56.2104030  18.5651950  69.6380320
  67.9241710  20.7661870  81.1785830  67.1922830  21.2748680  81.5275930
  67.5266050  19.9491850  80.8774610  64.3619100  17.4416070  79.5838320
  64.3655160  17.0006020  78.7342860  65.2570220  17.7633400  79.6910140
  60.2121480  17.3242560  78.5432530  59.8721530  17.8017790  79.2999580
  59.4498800  16.8707680  78.1833630  64.4239250  18.4428150  72.5745080
  64.5452070  18.4014630  73.5230900  64.0387760  19.3052300  72.4191810
  68.3867620  16.2195550  80.5908770  68.4040360  16.6704200  81.4350620
  68.1383200  15.3201190  80.8042210  63.4360750  20.7529290  71.9728380
  62.8677650  20.3047540  71.3464290  64.1449750  21.1122070  71.4393530
  64.6627070  21.5017850  81.3303730  65.0297200  21.0276420  82.0765070
  64.4732130  22.3759420  81.6712070  57.5267560  16.2461540  77.4597200
  57.2414480  15.8817210  78.2975820  57.4646420  15.5142000  76.8460340
  60.9808230  24.7487480  74.2454790  60.2070490  24.2085100  74.0853510
  61.7102860  24.2294090  73.9072550  71.7396210  23.7452840  80.0381180
  72.4595330  24.2408130  79.6477290  71.5378030  23.0670730  79.3935050
  67.2006150  15.1390800  74.1810570  66.3870760  14.6403970  74.1055880
  67.0068100  15.9789050  73.7646920  69.9154540  19.5110450  72.4772730
  70.8034160  19.8227680  72.3024070  69.8859630  18.6382700  72.0853310
  61.0245630  24.4167860  77.8833600  61.5424300  23.6136120  77.8290490
  60.5729650  24.3547000  78.7250430  65.9115130  25.6834140  73.1560900
  66.2530830  26.4276370  72.6604220  65.0827840  25.9965260  73.5185730
  72.1868810  20.8222290  71.9452590  72.1032530  21.2536510  71.0949030
  72.9063000  21.2820640  72.3779410  73.2156060  27.6764550  74.6734720
  72.5732220  27.0220170  74.9478440  72.8286720  28.0819640  73.8975390
  68.7942540  25.0049980  78.5206410  69.1466360  24.4078110  77.8607780
  67.9104870  24.6794210  78.6914660  64.8805820  25.7647670  75.9276820
  65.5676950  26.3116880  76.3084410  64.0938240  26.3088400  75.9626430
  57.0198220  21.3820490  71.4193900  57.8893070  21.6645290  71.7029820
  56.5288540  22.1956360  71.3042710  64.1833030  22.7693700  75.5402180
  64.6395810  23.5798950  75.7662370  63.8321240  22.4516840  76.3720670
  60.0844810  13.1131350  76.0124700  59.9559440  13.1049250  76.9609620
  59.2606830  13.4514440  75.6615710  67.7597720  26.2832390  81.4871930
  68.4019950  25.5825550  81.6004100  68.2847070  27.0630830  81.3068820
  71.6053440  26.5681010  71.2111070  71.3791020  25.8511450  71.8035710
  71.2149640  26.3193450  70.3732820  57.3869470  30.5947870  71.9855530
  57.7467110  31.1937210  71.3312800  57.2461810  31.1407760  72.7590560
  71.1869690  24.4852950  72.8725230  70.8991390  24.9465640  73.6603110
  71.9821860  24.0250720  73.1409450  63.4038090  27.9779070  72.8029200
  63.3948190  28.7108760  72.1873710  62.4836450  27.7310650  72.8956160
  59.0044730  23.1993960  73.5475960  58.3972680  23.9392860  73.5571260
  59.4794080  23.2893320  72.7214160  71.9439550  16.3201720  74.0320410
  71.3152710  16.4247390  73.3178640  71.4491470  16.5398500  74.8214290
  66.3897690  28.0407310  71.4654390  66.4909670  27.8371300  70.5356370
  65.4899430  27.7865590  71.6702170  63.9123580  18.5987670  75.4478290
  63.2039730  19.0674010  75.8891900  64.1968060  17.9409680  76.0823480
  67.9439010  15.3238330  76.8874080  67.8206790  15.3424460  75.9383590
  68.8923570  15.3717270  77.0072480  65.0315800  30.5593630  76.1602060
  65.2857300  30.5215020  75.2381430  64.0828280  30.4326960  76.1530310
  62.1158600  16.9072750  72.8229000  62.9649130  17.3442900  72.7569190
  61.7489870  17.2193010  73.6501060  71.0368380  21.4785510  77.7360570
  70.0958520  21.4935740  77.9108260  71.3512450  20.6921470  78.1820870
  61.0150020  23.1605110  71.2964530  61.7813290  23.0486470  71.8589960
  61.0924710  22.4643080  70.6441300  59.7096780  20.5930180  71.9797420
  59.7900370  19.6457690  72.0914820  60.6016530  20.9237060  72.0858080
  73.0393960  28.6494360  79.4114830  73.1641380  29.4725530  79.8838640
  73.9059520  28.4385090  79.0638980  60.5111490  30.7425570  79.0831960
  61.2473970  30.1941030  79.3540530  60.8952410  31.6081580  78.9437950
  57.3956970  26.8099140  74.9573470  56.4696750  27.0520280  74.9478880
  57.8613400  27.6373400  74.8358220  63.6213800  29.9155880  70.9057530
  64.4142410  30.2044710  70.4539320  63.1018150  29.4848050  70.2270010
  72.6743970  29.1426010  72.3294270  72.3885480  28.7291150  71.5148450
  72.4763520  30.0713720  72.2094790  64.1391200  25.1359290  70.7699880
  64.0341840  24.5211640  71.4961260  63.9715420  24.6125180  69.9862890
  67.3793930  24.1979320  71.3741870  66.8304030  24.6448620  72.0184610
  68.0013190  23.6928570  71.8979540  63.0469050  23.1570240  73.2707170
  63.4685470  22.9910110  74.1138560  63.1719890  22.3470470  72.7762310
  65.5596690  22.1807850  70.5184270  66.0802350  21.4656870  70.1525420
  66.2065090  22.8193720  70.8184780  61.9427950  19.2303470  70.2165330
  61.7417010  18.3670830  70.5778670  61.7720000  19.1436830  69.2786930
  69.4216260  14.0411700  72.7452210  69.7018550  13.1979600  73.1011630
  68.6481990  14.2734810  73.2590960  60.7410750  16.3304090  70.2043210
  61.0436650  16.3371520  69.2962360  61.4805340  15.9801950  70.7010870
  63.9595680  15.2738710  71.1899410  63.6117680  14.5962700  70.6101860
  64.1608450  14.8128220  72.0042800  66.1244720  30.2619460  72.8086010
  67.0195510  30.6004430  72.8304770  66.1562350  29.5398870  72.1810290
  59.7640880  25.6346510  71.0373010  60.2015750  26.1776180  71.6930590
  60.2488610  24.8093460  71.0469350  56.9786680  28.4235540  78.4893270
  57.3089690  27.5556600  78.2571910  57.4077680  28.6294060  79.3198230
  61.5748600  26.7544550  76.1495240  61.2744140  26.6309520  77.0499150
  61.4686090  25.8953140  75.7410970  57.4676890  29.2906130  81.2274900
  57.0307880  29.4706930  82.0599050  58.0354570  30.0480750  81.0856620
  74.3440520  26.5340950  70.8521920  73.5133480  26.6017600  71.3229150
  74.5212350  27.4245070  70.5488780  73.7996980  23.2788430  73.3556120
  74.5615890  23.8485080  73.4615810  73.8151350  22.7115630  74.1264430
  57.3001320  21.8026360  77.5863780  56.6450160  21.5338000  76.9423480
  58.1379270  21.6930840  77.1365760  74.8056950  24.1338530  78.1998050
  75.1765780  23.3505850  77.7934020  75.4458880  24.8227630  78.0215350
  73.8516150  23.5722800  70.5128640  74.1264990  24.4801680  70.3847860
  73.6626890  23.5085330  71.4490630  70.2491760  16.5967650  71.8082270
  70.6676640  16.4098630  70.9678930  69.9427820  15.7446700  72.1185200
  73.7481490  21.5091790  75.5058070  73.3725090  20.7419720  75.0739360
  73.0184610  21.8914490  75.9933000  56.5139400  19.0125290  73.5289110
  55.6103480  19.2755490  73.3540770  56.9980020  19.2836460  72.7489070
  73.0232450  19.7349280  78.8065310  73.5469930  19.2411930  78.1755480
  73.6091870  19.8699640  79.5512880  59.0566610  18.0690830  71.4383490
  59.7658310  17.6474050  70.9530770  58.3406550  18.1366060  70.8066840
  58.7040770  14.1230160  70.4786140  59.4268900  14.6639100  70.7967360
  58.9765290  13.8493580  69.6027680  72.5132420  18.9922630  74.7457720
  73.0091540  18.7593500  75.5306600  72.3148490  18.1534470  74.3295360
  58.3932960  13.3736350  80.3808760  59.0409150  12.8233730  79.9403920
  58.8134800  13.6279500  81.2024570  73.9419580  17.6283580  77.2795400
  73.8318860  17.4739620  78.2177670  74.7027170  17.1004520  77.0370810
  74.8309850  15.4591500  70.5201540  75.7559160  15.3272680  70.3119830
  74.8085640  15.5384320  71.4737990  74.9048340  16.2302160  73.1458250
  74.1099840  16.1647280  73.6751160  75.1091620  17.1652800  73.1343600
  71.8466760  30.2693710  77.1396640  72.4425830  29.9478280  76.4631060
  72.1044910  29.7965530  77.9309910  72.3978970  30.9189010  80.9694370
  71.9381940  31.6704820  80.5952390  71.7691430  30.1995480  80.9109170
  62.8274690  29.2277250  80.1442500  63.3439710  28.6164610  79.6190760
  63.4772070  29.7306030  80.6353510  65.5670190  30.1185740  80.9711480
  65.8548000  29.8640040  80.0944490  66.0793410  29.5663100  81.5617050
  66.7847200  13.8575940  81.5507990  66.0018990  14.3321440  81.8304750
  66.4910130  12.9530770  81.4421170  71.3368270  14.5599040  79.5957080
  71.7776360  14.5044140  78.7478680  71.0675860  15.4757050  79.6667260
  73.2006840  14.1914280  77.6065900  73.1395240  13.2475500  77.4596920
  73.9798870  14.2994370  78.1519360  57.5059590  30.3306640  76.5689850
  57.3381630  29.6977320  77.2671740  56.6394100  30.5366040  76.2184040
  58.1287610  14.1623420  74.0721710  58.8866970  14.2752300  73.4985740
  57.6664780  14.9992620  74.0265140  64.6701420  16.2762690  77.0624020
  63.8575930  15.9019580  76.7219900  65.1743060  15.5207770  77.3645210
  69.1726400  12.9405140  78.3007090  69.7755770  13.5125350  78.7755610
  68.4319390  13.5044580  78.0780990  72.3161000  13.3426700  73.5747370
  72.5111630  14.2410150  73.8414800  71.5290870  13.1113780  74.0680320
  59.1122290  29.0239870  74.0139990  58.5869910  29.4047900  73.3101950
  59.0366870  29.6490640  74.7349700  60.5012760  14.6887470  72.6123680
  61.0305520  13.9017270  72.4831630  61.1341080  15.3678660  72.8459210
  62.6950600  14.4262610  75.6669070  62.0653340  13.7249920  75.8339200
  62.1555740  15.1866740  75.4502230  73.8687610  30.5827410  75.3353930
  74.0439800  29.8965150  74.6914850  73.1709180  31.1074460  74.9430600
  61.7115260  30.9722250  72.8889240  62.4434080  30.6881530  72.3413130
  61.9708930  30.7335530  73.7788620  60.8730050  27.0886980  72.8935570
  60.2438930  27.5572080  73.4421400  60.9877880  26.2436200  73.3281760
  68.3279770  21.1392640  59.0436770  68.2473820  20.2247250  58.7728480
  67.9144190  21.6359710  58.3376480  66.4597810  22.9171660  60.9246040
  65.6839910  22.4372100  61.2144610  67.1110740  22.2377310  60.7502200
  60.4763640  23.2291470  61.8021800  59.6448520  22.9740180  62.2018310
  61.0844620  23.3002240  62.5379720  70.4805240  27.3231850  59.7045170
  70.0186770  26.5519090  60.0332340  71.2930790  27.3497920  60.2097620
  60.4564900  27.2631560  61.9979820  60.7592940  26.3729300  61.8190040
  61.2008490  27.8201780  61.7702070  58.8855590  18.1893360  55.5864190
  57.9972290  18.5309330  55.4844070  59.1696780  17.9893680  54.6945020
  56.8488600  20.7899010  61.4703890  57.4204710  20.0221210  61.4707530
  56.8490140  21.0887770  60.5610500  66.7068550  29.6089860  59.3249160
  66.0879990  30.0647360  58.7543600  67.5620330  29.7641320  58.9238860
  65.9006800  25.5928850  60.9316200  65.8315080  24.6518790  60.7705330
  66.6626660  25.6830260  61.5038770  58.0913470  16.1983370  63.2572820
  57.9116310  15.3009120  63.5375580  57.6893550  16.7455240  63.9319770
  66.9311970  18.3999230  61.1585130  67.3076790  17.5271110  61.0458800
  66.8331480  18.7357930  60.2675570  61.0616980  16.7724860  56.6202570
  61.1683730  17.6728590  56.9271330  60.1509340  16.7242830  56.3297220
  70.7136090  15.8949670  58.0913470  71.5345710  15.4046240  58.1338950
  70.7470170  16.4847330  58.8445310  58.7100140  18.6943870  61.8655160
  59.3910250  18.9582240  62.4842560  58.3948190  17.8544740  62.1993170
  62.9024710  19.7411230  60.9527750  63.4102930  20.2392200  61.5932770
  63.4337950  18.9646430  60.7767110  75.0035640  17.9116420  64.6557100
  74.2987810  18.2998130  64.1372210  75.2693560  18.6066710  65.2578030
  61.1860810  14.3809790  65.2191170  61.1879250  14.8982180  64.4137070
  60.3565120  13.9039970  65.1961100  67.5731900  24.4929100  56.7181070
  66.9549170  24.9578550  56.1543790  68.0855150  25.1856580  57.1350580
  62.4363660  24.0204970  63.3964670  62.1033040  24.6473890  64.0385740
  62.6130340  24.5466850  62.6166340  70.9497570  17.8350050  60.8641010
  70.2453140  18.1234940  61.4444120  71.3109730  18.6450160  60.5040570
  60.8676140  16.0919750  63.2261620  61.2092950  16.9361800  62.9315490
  59.9291950  16.2403490  63.3426960  61.6482760  25.9885770  65.2113850
  62.2656760  26.6636850  64.9298300  60.7875880  26.3973750  65.1201350
  56.9415100  25.1785630  54.0920700  56.5643080  25.6672730  53.3605600
  57.1988170  25.8510910  54.7227230  72.5660350  27.4525180  63.1268490
  71.8823870  28.1224290  63.1185160  73.1054640  27.6505830  62.3613350
  74.0184490  17.2804840  61.2550220  73.0709400  17.3143820  61.3865650
  74.3434480  18.0943790  61.6399580  64.5504030  13.5802020  59.5506210
  64.8579010  13.0248910  58.8341710  63.6204730  13.7146480  59.3679200
  70.1019090  29.2969310  61.8413670  70.1146250  28.8931600  60.9735930
  69.5494310  30.0716600  61.7375100  71.3964510  26.0185530  56.9303840
  71.2860840  25.0759860  57.0553260  71.3932760  26.3801170  57.8166600
  69.5004530  24.1999150  63.1696280  69.9173320  23.9859260  62.3349740
  70.2244350  24.4571940  63.7404900  66.9384790  21.6450850  56.2866330
  66.0114070  21.5788230  56.5154800  67.0909610  22.5830980  56.1721570
  66.9253870  17.9167850  53.2833490  65.9857540  18.0781810  53.3685950
  67.2437130  18.6353530  52.7369480  73.4466630  22.5986370  63.2612520
  72.6185260  22.6679460  62.7862650  74.0417110  23.1840680  62.7928350
  70.9682080  23.2071150  56.7901580  70.3494500  22.8690700  56.1427880
  70.9506530  22.5630910  57.4980770  70.4108640  19.3855690  64.2067390
  69.9979820  20.2109400  64.4607380  69.6784590  18.8000730  64.0143750
  62.5441430  22.1715590  59.0686060  62.1398430  21.4592840  58.5731960
  62.6304550  21.8268830  59.9574100  63.0123130  25.8583150  61.2325270
  62.7151420  25.2528620  60.5533050  63.9622950  25.8960460  61.1214630
  61.2570050  18.9458800  62.8485100  61.8084640  19.0554140  62.0738350
  61.7713560  19.3196400  63.5640330  71.1008740  29.4315020  64.8948370
  70.6239300  30.2387210  64.7020980  70.4170530  28.7793350  65.0474580
  62.1041560  25.5964840  67.8833070  61.2070090  25.8204810  68.1306470
  62.1294430  25.7199780  66.9344470  69.1446780  22.4457960  53.7974330
  69.5840060  21.6080390  53.6512150  69.8575200  23.0787360  53.8838470
  60.9312780  22.4678160  66.4590440  60.7920550  23.3400960  66.8277840
  60.0494140  22.1250970  66.3138380  67.2542160  27.3854030  57.7655570
  67.6938070  28.1278360  57.3510960  67.1929050  27.6280600  58.6894530
  62.7293130  28.4099860  68.6675590  62.7008560  28.8142810  67.8004020
  62.5658100  27.4810220  68.5047190  72.7263920  13.7000770  52.1115370
  72.4136580  13.7927600  53.0114440  73.4876390  14.2781800  52.0612800
  59.2446060  21.0660570  56.5692710  59.1243660  21.7922660  55.9573980
  58.9346950  20.2963480  56.0920620  74.6807950  29.1926960  69.9639760
  75.1567670  29.6709850  70.6428840  75.3015110  29.1244450  69.2385260
  56.8831430  24.2375710  62.3761350  56.9611850  24.3724480  61.4317070
  57.4973110  23.5291600  62.5689470  58.1279060  25.9375900  58.7867530
  57.7207140  26.0790490  57.9321130  59.0192070  25.6536060  58.5838740
  74.0841200  26.3839810  67.1239770  74.2104260  26.1451690  66.2056950
  74.1262580  25.5524350  67.5961850  67.9457940  30.0867810  65.6934580
  68.4602610  29.9975820  66.4957010  67.1027020  30.4327510  65.9862490
  69.9212340  30.3723150  55.1218580  69.7613480  30.0826090  56.0200410
  69.7559050  29.5963280  54.5863810  62.4000720  30.1521680  56.8990200
  62.2243200  29.2357220  56.6858000  61.5456460  30.5108970  57.1388000
  69.6238470  27.8810710  53.6816580  68.9303630  27.8788000  53.0218860
  70.3661330  27.4570030  53.2510750  69.1888400  29.5073420  57.7565070
  69.6445350  28.7262800  58.0703690  69.5280920  30.2180240  58.3006250
  73.9365210  18.4372270  68.0889510  73.3209480  18.9451940  67.5604970
  73.6161630  17.5370600  68.0315450  56.9390950  25.2789880  64.9155810
  57.1021990  24.8095240  64.0975180  57.4043400  24.7713440  65.5804650
  61.7109720  14.4095640  59.9516380  61.2677870  15.1905180  59.6200900
  62.2694710  14.7325530  60.6587320  65.9979530  17.2764160  65.5551700
  65.5358900  17.4847180  66.3671640  65.5957640  16.4623510  65.2522370
  70.9984040  18.4973110  66.6848360  70.1477630  18.1978860  67.0057430
  70.8385830  18.7415120  65.7732180  68.0933750  19.9974860  68.7847150
  68.4187160  19.1638610  68.4449380  68.8814080  20.5203380  68.9325480
  64.8268540  14.0306340  54.8322210  64.2022720  14.0266210  55.5575520
  64.7398660  13.1637300  54.4358180  63.7485620  14.9542970  61.8105980
  64.0457950  15.8605800  61.7298000  64.2971180  14.4661750  61.1965550
  61.5023940  19.5329210  57.6797630  61.2764860  19.3166380  58.5844250
  60.7216470  19.9657670  57.3343600  68.7321700  19.5392580  56.2788280
  68.1330590  20.2628380  56.0951900  69.2801310  19.4769360  55.4964730
  63.9423150  20.4314790  68.3457900  63.8466750  19.4909520  68.1958300
  64.7855130  20.6529860  67.9505970  67.3386570  18.1756120  58.3091560
  67.7316140  18.4928320  57.4960250  67.7003420  17.2968000  58.4236080
  59.0733690  16.8428460  66.4991680  58.6797080  17.6903670  66.7064460
  58.3852090  16.2054830  66.6900320  65.6478740  16.9263430  69.5688420
  64.9577060  16.7335630  70.2034510  66.3911040  17.2098070  70.1012720
  56.3750740  14.7656920  60.5321760  56.0863790  15.3359780  61.2446740
  57.1196500  14.2861370  60.8952990  56.5620970  18.7077040  51.7424480
  56.4795640  19.6507800  51.8839470  56.2104030  18.5651950  50.8636830
  67.9241710  20.7661870  62.4042340  67.1922830  21.2748680  62.7532440
  67.5266050  19.9491850  62.1031120  64.3619100  17.4416070  60.8094830
  64.3655160  17.0006020  59.9599370  65.2570220  17.7633400  60.9166650
  60.2121480  17.3242560  59.7689040  59.8721530  17.8017790  60.5256090
  59.4498800  16.8707680  59.4090140  64.4239250  18.4428150  53.8001590
  64.5452070  18.4014630  54.7487410  64.0387760  19.3052300  53.6448320
  68.3867620  16.2195550  61.8165280  68.4040360  16.6704200  62.6607130
  68.1383200  15.3201190  62.0298720  63.4360750  20.7529290  53.1984890
  62.8677650  20.3047540  52.5720800  64.1449750  21.1122070  52.6650040
  71.8138370  13.6327730  67.6551660  72.1384140  12.9017390  68.1809640
  71.8494880  13.3141370  66.7532650  58.5129930  24.6541310  67.0751620
  58.1284720  24.0134980  67.6734580  58.8242120  25.3577430  67.6446350
  64.6627070  21.5017850  62.5560240  65.0297200  21.0276420  63.3021580
  64.4732130  22.3759420  62.8968580  57.5267560  16.2461540  58.6853710
  57.2414480  15.8817210  59.5232330  57.4646420  15.5142000  58.0716850
  62.4526440  20.5426490  64.8744450  62.1483510  21.4218470  65.0994810
  63.4072900  20.6026280  64.9101890  60.9808230  24.7487480  55.4711300
  60.2070490  24.2085100  55.3110020  61.7102860  24.2294090  55.1329060
  71.7396210  23.7452840  61.2637690  72.4595330  24.2408130  60.8733800
  71.5378030  23.0670730  60.6191560  67.2006150  15.1390800  55.4067080
  66.3870760  14.6403970  55.3312390  67.0068100  15.9789050  54.9903430
  67.1215010  23.8161900  67.1506690  67.0552320  22.8957570  66.8964280
  66.4920150  23.9137340  67.8651330  69.9154540  19.5110450  53.7029240
  70.8034160  19.8227680  53.5280580  69.8859630  18.6382700  53.3109820
  61.0245630  24.4167860  59.1090110  61.5424300  23.6136120  59.0547000
  60.5729650  24.3547000  59.9506940  65.9115130  25.6834140  54.3817410
  66.2530830  26.4276370  53.8860730  65.0827840  25.9965260  54.7442240
  58.5090170  21.3829230  66.0215810  58.1505110  22.0483080  66.6089150
  58.2144730  20.5512780  66.3928430  61.7103290  21.8413470  68.9055360
  61.4103430  21.9870650  68.0083180  62.4814530  21.2818760  68.8128750
  67.0531740  26.6382470  66.9010490  67.0676280  25.7063430  66.6829400
  66.3456840  26.7242230  67.5400260  72.1868810  20.8222290  53.1709100
  72.1032530  21.2536510  52.3205540  72.9063000  21.2820640  53.6035920
  73.2642950  23.2789810  66.2479070  72.5391140  23.8718590  66.0508460
  73.7918410  23.2713350  65.4492440  73.2156060  27.6764550  55.8991230
  72.5732220  27.0220170  56.1734950  72.8286720  28.0819640  55.1231900
  68.7942540  25.0049980  59.7462920  69.1466360  24.4078110  59.0864290
  67.9104870  24.6794210  59.9171170  64.8805820  25.7647670  57.1533330
  65.5676950  26.3116880  57.5340920  64.0938240  26.3088400  57.1882940
  57.0198220  21.3820490  52.6450410  57.8893070  21.6645290  52.9286330
  56.5288540  22.1956360  52.5299220  64.1833030  22.7693700  56.7658690
  64.6395810  23.5798950  56.9918880  63.8321240  22.4516840  57.5977180
  66.4865640  28.2800040  63.9950990  67.1307860  28.4859420  64.6724410
  66.8495080  27.5188440  63.5421840  60.0844810  13.1131350  57.2381210
  59.9559440  13.1049250  58.1866130  59.2606830  13.4514440  56.8872220
  67.7597720  26.2832390  62.7128440  68.4019950  25.5825550  62.8260610
  68.2847070  27.0630830  62.5325330  71.6053440  26.5681010  52.4367580
  71.3791020  25.8511450  53.0292220  71.2149640  26.3193450  51.5989330
  69.5335340  27.0827290  65.9164500  69.8691580  27.6693980  66.5942420
  68.6135680  26.9520000  66.1462290  57.3869470  30.5947870  53.2112040
  57.7467110  31.1937210  52.5569310  57.2461810  31.1407760  53.9847070
  57.0838740  14.8722470  66.6987910  56.3697260  15.0719390  67.3040520
  57.5033780  14.0962040  67.0702710  71.1869690  24.4852950  54.0981740
  70.8991390  24.9465640  54.8859620  71.9821860  24.0250720  54.3665960
  57.3711330  28.8602730  67.6854440  57.4802450  27.9197470  67.5449830
  56.7191890  29.1257480  67.0368170  65.3623920  27.1318620  69.0852560
  65.0420790  26.4127860  69.6298250  64.6882280  27.8073690  69.1588620
  63.4038090  27.9779070  54.0285710  63.3948190  28.7108760  53.4130220
  62.4836450  27.7310650  54.1212670  59.0044730  23.1993960  54.7732470
  58.3972680  23.9392860  54.7827770  59.4794080  23.2893320  53.9470670
  68.5777520  17.3644780  64.4489360  68.9458340  16.5439990  64.7768930
  67.7175720  17.4246670  64.8645010  71.9439550  16.3201720  55.2576920
  71.3152710  16.4247390  54.5435150  71.4491470  16.5398500  56.0470800
  66.3897690  28.0407310  52.6910900  66.4909670  27.8371300  51.7612880
  65.4899430  27.7865590  52.8958680  63.9123580  18.5987670  56.6734800
  63.2039730  19.0674010  57.1148410  64.1968060  17.9409680  57.3079990
  65.5379510  20.0184370  64.6727330  66.0364760  20.4930190  65.3379180
  65.6802460  19.0947890  64.8797360  67.9439010  15.3238330  58.1130590
  67.8206790  15.3424460  57.1640100  68.8923570  15.3717270  58.2328990
  65.0315800  30.5593630  57.3858570  65.2857300  30.5215020  56.4637940
  64.0828280  30.4326960  57.3786820  62.1158600  16.9072750  54.0485510
  62.9649130  17.3442900  53.9825700  61.7489870  17.2193010  54.8757570
  72.7446370  16.2352330  65.5155720  72.2419970  16.9757730  65.8549530
  73.5603030  16.6236330  65.1992510  71.0368380  21.4785510  58.9617080
  70.0958520  21.4935740  59.1364770  71.3512450  20.6921470  59.4077380
  61.0150020  23.1605110  52.5221040  61.7813290  23.0486470  53.0846470
  61.0924710  22.4643080  51.8697810  59.7096780  20.5930180  53.2053930
  59.7900370  19.6457690  53.3171330  60.6016530  20.9237060  53.3114590
  73.0393960  28.6494360  60.6371340  73.1641380  29.4725530  61.1095150
  73.9059520  28.4385090  60.2895490  60.5111490  30.7425570  60.3088470
  61.2473970  30.1941030  60.5797040  60.8952410  31.6081580  60.1694460
  57.3956970  26.8099140  56.1829980  56.4696750  27.0520280  56.1735390
  57.8613400  27.6373400  56.0614730  59.5169770  29.9271640  69.4974050
  60.3182500  30.2483690  69.9109450  59.0021590  29.5667220  70.2193960
  63.6213800  29.9155880  52.1314040  64.4142410  30.2044710  51.6795830
  63.1018150  29.4848050  51.4526520  68.3534400  26.0351510  69.4449460
  67.7472560  26.0583110  68.7045210  68.0488510  25.3034550  69.9816710
  69.7834770  29.7631800  68.0558870  70.7356520  29.6789820  68.0059110
  69.6362990  30.4273510  68.7292660  72.6743970  29.1426010  53.5550780
  72.3885480  28.7291150  52.7404960  72.4763520  30.0713720  53.4351300
  57.2367580  22.4145100  68.4410100  57.7406600  21.8352380  69.0126330
  56.4975000  22.6985330  68.9786470  64.1391200  25.1359290  51.9956390
  64.0341840  24.5211640  52.7217770  63.9715420  24.6125180  51.2119400
  64.2905520  23.8216090  67.9745620  63.5251190  24.3901090  67.8900290
  64.4721480  23.5292300  67.0813850  67.3793930  24.1979320  52.5998380
  66.8304030  24.6448620  53.2441120  68.0013190  23.6928570  53.1236050
  71.4328870  25.5521420  68.5320640  72.1738340  25.8897180  68.0288100
  70.6701550  25.7213480  67.9790410  59.2690660  20.5574690  69.3360170
  59.3096000  20.2588560  70.2445400  60.1236160  20.9582300  69.1767690
  63.0469050  23.1570240  54.4963680  63.4685470  22.9910110  55.3395070
  63.1719890  22.3470470  54.0018820  61.2096470  19.1366790  67.3034660
  60.6792930  18.6457740  66.6758000  61.8784540  19.5650990  66.7692590
  65.5596690  22.1807850  51.7440780  66.0802350  21.4656870  51.3781930
  66.2065090  22.8193720  52.0441290  70.1074530  23.6036250  67.0675850
  70.5215550  23.7581330  67.9166270  69.1725530  23.7291470  67.2301630
  70.5796700  20.9432410  69.0715000  71.1617470  20.1884730  68.9835480
  70.7558470  21.4739850  68.2946480  61.6968770  16.1029160  67.3831950
  61.6025640  15.4849910  66.6582820  61.1166160  16.8295450  67.1561860
  64.4630210  14.6602400  64.4159340  64.0147510  14.6826660  63.5704890
  63.8295410  14.2621420  65.0129640  64.8689760  23.5556730  65.0371780
  65.2877870  24.3989460  64.8648020  63.9498390  23.6928770  64.8078560
  67.2053660  21.2872910  66.4209620  67.3249870  20.6914050  67.1604460
  68.0647660  21.3242600  66.0010920  69.5441560  21.8410100  64.9972130
  69.0176780  22.3652720  64.3937270  69.8872900  22.4737490  65.6281860
  61.9427950  19.2303470  51.4421840  61.7417010  18.3670830  51.8035180
  61.7720000  19.1436830  50.5043440  62.7197180  29.8609740  66.1529510
  62.1818270  30.5855800  65.8338210  62.9731140  29.3840080  65.3626850
  63.9722430  17.8294260  67.6785440  64.5622120  17.5210110  68.3663260
  63.1542670  17.3574010  67.8345340  68.7915860  17.4460070  67.9118460
  68.1031380  16.7841610  67.8468450  69.5121880  16.9998340  68.3566920
  69.4216260  14.0411700  53.9708720  69.7018550  13.1979600  54.3268140
  68.6481990  14.2734810  54.4847470  60.7410750  16.3304090  51.4299720
  61.0436650  16.3371520  50.5218870  61.4805340  15.9801950  51.9267380
  65.5759390  31.0960950  66.4116160  65.5018090  31.9996090  66.7188530
  64.6738230  30.7772850  66.3838230  63.9595680  15.2738710  52.4155920
  63.6117680  14.5962700  51.8358370  64.1608450  14.8128220  53.2299310
  66.1244720  30.2619460  54.0342520  67.0195510  30.6004430  54.0561280
  66.1562350  29.5398870  53.4066800  59.7640880  25.6346510  52.2629520
  60.2015750  26.1776180  52.9187100  60.2488610  24.8093460  52.2725860
  56.9786680  28.4235540  59.7149780  57.3089690  27.5556600  59.4828420
  57.4077680  28.6294060  60.5454740  61.5748600  26.7544550  57.3751750
  61.2744140  26.6309520  58.2755660  61.4686090  25.8953140  56.9667480
  57.4676890  29.2906130  62.4531410  57.0307880  29.4706930  63.2855560
  58.0354570  30.0480750  62.3113130  73.1039070  28.7923130  66.7408720
  72.5041060  28.8515690  65.9972640  73.2332970  27.8528110  66.8705570
  74.3440520  26.5340950  52.0778430  73.5133480  26.6017600  52.5485660
  74.5212350  27.4245070  51.7745290  73.7996980  23.2788430  54.5812630
  74.5615890  23.8485080  54.6872320  73.8151350  22.7115630  55.3520940
  57.3001320  21.8026360  58.8120290  56.6450160  21.5338000  58.1679990
  58.1379270  21.6930840  58.3622270  74.8056950  24.1338530  59.4254560
  75.1765780  23.3505850  59.0190530  75.4458880  24.8227630  59.2471860
  71.7890710  25.5175110  64.8384880  70.9750550  25.9472270  65.1010670
  72.1964910  26.1293520  64.2253930  73.8516150  23.5722800  51.7385150
  74.1264990  24.4801680  51.6104370  73.6626890  23.5085330  52.6747140
  70.2491760  16.5967650  53.0338780  70.6676640  16.4098630  52.1935440
  69.9427820  15.7446700  53.3441710  73.7481490  21.5091790  56.7314580
  73.3725090  20.7419720  56.2995870  73.0184610  21.8914490  57.2189510
  58.3377250  22.1878930  63.3523630  58.7050290  22.1006330  64.2319650
  57.7688070  21.4245480  63.2530490  73.1381110  20.6563310  66.3654100
  72.9067200  20.4276060  65.4652050  73.3985660  21.5762860  66.3198990
  57.8893250  19.0988020  67.2582050  56.9949300  19.0654780  67.5975760
  58.4290800  19.2974810  68.0233300  71.5769180  15.8819740  69.1433800
  72.4539360  15.8903140  69.5267800  71.5890020  15.1450580  68.5326150
  56.5139400  19.0125290  54.7545620  55.6103480  19.2755490  54.5797280
  56.9980020  19.2836460  53.9745580  73.0232450  19.7349280  60.0321820
  73.5469930  19.2411930  59.4011990  73.6091870  19.8699640  60.7769390
  73.2022170  19.8189150  63.5541370  72.2524880  19.7852690  63.6686360
  73.3835180  20.7289260  63.3191140  59.0566610  18.0690830  52.6640000
  59.7658310  17.6474050  52.1787280  58.3406550  18.1366060  52.0323350
  58.7040770  14.1230160  51.7042650  59.4268900  14.6639100  52.0223870
  58.9765290  13.8493580  50.8284190  72.5132420  18.9922630  55.9714230
  73.0091540  18.7593500  56.7563110  72.3148490  18.1534470  55.5551870
  58.3932960  13.3736350  61.6065270  59.0409150  12.8233730  61.1660430
  58.8134800  13.6279500  62.4281080  73.9419580  17.6283580  58.5051910
  73.8318860  17.4739620  59.4434180  74.7027170  17.1004520  58.2627320
  72.2885300  13.5677710  64.9634910  72.9257520  14.1811850  65.3294100
  72.4360190  13.6038370  64.0184140  74.8309850  15.4591500  51.7458050
  75.7559160  15.3272680  51.5376340  74.8085640  15.5384320  52.6994500
  74.9048340  16.2302160  54.3714760  74.1099840  16.1647280  54.9007670
  75.1091620  17.1652800  54.3600110  71.8466760  30.2693710  58.3653150
  72.4425830  29.9478280  57.6887570  72.1044910  29.7965530  59.1566420
  58.1464960  13.5292020  64.3490590  57.7979780  13.9855840  65.1148770
  57.8152660  12.6349150  64.4313020  59.7529330  26.7011620  68.5143780
  59.7098960  26.3304530  69.3958240  59.8840340  27.6389190  68.6545600
  63.4535360  28.2571210  64.1153500  63.2126720  28.5245770  63.2284020
  64.3938000  28.4276940  64.1704360  65.6589780  14.7203900  67.8710010
  65.5978670  15.3125730  68.6205420  66.5990160  14.6129860  67.7260270
  68.2964340  14.3773960  67.5102300  68.9104750  14.6953250  66.8483380
  68.8413900  13.8922550  68.1298160  74.7139520  30.2765590  64.9164140
  74.2197800  30.6734460  64.1991270  74.1052810  29.6514800  65.3101420
  58.8185600  13.0568220  67.6241360  59.3668590  12.8756270  66.8607470
  58.8840910  12.2662330  68.1597670  59.5917360  29.6473870  65.6341560
  58.9977680  29.5158570  66.3731600  59.5841200  28.8112010  65.1683660
  69.0372380  12.9406100  63.8371590  68.1632220  13.2741210  63.6344520
  68.9283130  12.4679280  64.6623460  69.9444360  15.1476970  65.2213310
  69.6157720  14.3328730  64.8415040  70.8926660  15.1046780  65.0979000
  72.3978970  30.9189010  62.1950880  71.9381940  31.6704820  61.8208900
  71.7691430  30.1995480  62.1365680  59.2229590  27.0132250  64.5849600
  58.4963650  26.3937540  64.5175550  59.2838740  27.4072860  63.7147680
  62.8274690  29.2277250  61.3699010  63.3439710  28.6164610  60.8447270
  63.4772070  29.7306030  61.8610020  65.5670190  30.1185740  62.1967990
  65.8548000  29.8640040  61.3201000  66.0793410  29.5663100  62.7873560
  66.7847200  13.8575940  62.7764500  66.0018990  14.3321440  63.0561260
  66.4910130  12.9530770  62.6677680  71.3368270  14.5599040  60.8213590
  71.7776360  14.5044140  59.9735190  71.0675860  15.4757050  60.8923770
  73.2006840  14.1914280  58.8322410  73.1395240  13.2475500  58.6853430
  73.9798870  14.2994370  59.3775870  57.5059590  30.3306640  57.7946360
  57.3381630  29.6977320  58.4928250  56.6394100  30.5366040  57.4440550
  58.1287610  14.1623420  55.2978220  58.8866970  14.2752300  54.7242250
  57.6664780  14.9992620  55.2521650  64.6701420  16.2762690  58.2880530
  63.8575930  15.9019580  57.9476410  65.1743060  15.5207770  58.5901720
  69.1726400  12.9405140  59.5263600  69.7755770  13.5125350  60.0012120
  68.4319390  13.5044580  59.3037500  72.3161000  13.3426700  54.8003880
  72.5111630  14.2410150  55.0671310  71.5290870  13.1113780  55.2936830
  59.1122290  29.0239870  55.2396500  58.5869910  29.4047900  54.5358460
  59.0366870  29.6490640  55.9606210  60.5012760  14.6887470  53.8380190
  61.0305520  13.9017270  53.7088140  61.1341080  15.3678660  54.0715720
  62.6950600  14.4262610  56.8925580  62.0653340  13.7249920  57.0595710
  62.1555740  15.1866740  56.6758740  65.6342550  31.0401840  69.5636190
  66.5609860  30.8046110  69.6072150  65.6192980  31.8673840  69.0822220
  73.8687610  30.5827410  56.5610440  74.0439800  29.8965150  55.9171360
  73.1709180  31.1074460  56.1687110  62.8206160  13.7046590  69.3278070
  62.5390430  14.2080190  68.5638890  63.2025860  12.9068340  68.9620200
  61.7115260  30.9722250  54.1145750  62.4434080  30.6881530  53.5669640
  61.9708930  30.7335530  55.0045130  60.8730050  27.0886980  54.1192080
  60.2438930  27.5572080  54.6677910  60.9877880  26.2436200  54.5538270
  69.4221620  13.1200170  69.9058540  69.3087070  13.4394780  70.8010060
  70.2391360  13.5212680  69.6095820  72.2020110  30.2671700  69.3877230
  72.9945430  29.7720930  69.1803190  72.4953260  30.9461840  69.9952840
  68.3279770  21.1392640  40.2693280  68.2473820  20.2247250  39.9984990
  67.9144190  21.6359710  39.5632990  66.4597810  22.9171660  42.1502550
  65.6839910  22.4372100  42.4401120  67.1110740  22.2377310  41.9758710
  60.4763640  23.2291470  43.0278310  59.6448520  22.9740180  43.4274820
  61.0844620  23.3002240  43.7636230  70.4805240  27.3231850  40.9301680
  70.0186770  26.5519090  41.2588850  71.2930790  27.3497920  41.4354130
  60.4564900  27.2631560  43.2236330  60.7592940  26.3729300  43.0446550
  61.2008490  27.8201780  42.9958580  58.8855590  18.1893360  36.8120700
  57.9972290  18.5309330  36.7100580  59.1696780  17.9893680  35.9201530
  56.8488600  20.7899010  42.6960400  57.4204710  20.0221210  42.6964040
  56.8490140  21.0887770  41.7867010  66.7068550  29.6089860  40.5505670
  66.0879990  30.0647360  39.9800110  67.5620330  29.7641320  40.1495370
  65.9006800  25.5928850  42.1572710  65.8315080  24.6518790  41.9961840
  66.6626660  25.6830260  42.7295280  58.0913470  16.1983370  44.4829330
  57.9116310  15.3009120  44.7632090  57.6893550  16.7455240  45.1576280
  66.9311970  18.3999230  42.3841640  67.3076790  17.5271110  42.2715310
  66.8331480  18.7357930  41.4932080  61.0616980  16.7724860  37.8459080
  61.1683730  17.6728590  38.1527840  60.1509340  16.7242830  37.5553730
  70.7136090  15.8949670  39.3169980  71.5345710  15.4046240  39.3595460
  70.7470170  16.4847330  40.0701820  58.7100140  18.6943870  43.0911670
  59.3910250  18.9582240  43.7099070  58.3948190  17.8544740  43.4249680
  62.9024710  19.7411230  42.1784260  63.4102930  20.2392200  42.8189280
  63.4337950  18.9646430  42.0023620  75.0035640  17.9116420  45.8813610
  74.2987810  18.2998130  45.3628720  75.2693560  18.6066710  46.4834540
  61.1860810  14.3809790  46.4447680  61.1879250  14.8982180  45.6393580
  60.3565120  13.9039970  46.4217610  67.5731900  24.4929100  37.9437580
  66.9549170  24.9578550  37.3800300  68.0855150  25.1856580  38.3607090
  62.4363660  24.0204970  44.6221180  62.1033040  24.6473890  45.2642250
  62.6130340  24.5466850  43.8422850  70.9497570  17.8350050  42.0897520
  70.2453140  18.1234940  42.6700630  71.3109730  18.6450160  41.7297080
  60.8676140  16.0919750  44.4518130  61.2092950  16.9361800  44.1572000
  59.9291950  16.2403490  44.5683470  61.6482760  25.9885770  46.4370360
  62.2656760  26.6636850  46.1554810  60.7875880  26.3973750  46.3457860
  56.9415100  25.1785630  35.3177210  56.5643080  25.6672730  34.5862110
  57.1988170  25.8510910  35.9483740  72.5660350  27.4525180  44.3525000
  71.8823870  28.1224290  44.3441670  73.1054640  27.6505830  43.5869860
  74.0184490  17.2804840  42.4806730  73.0709400  17.3143820  42.6122160
  74.3434480  18.0943790  42.8656090  64.5504030  13.5802020  40.7762720
  64.8579010  13.0248910  40.0598220  63.6204730  13.7146480  40.5935710
  70.1019090  29.2969310  43.0670180  70.1146250  28.8931600  42.1992440
  69.5494310  30.0716600  42.9631610  71.3964510  26.0185530  38.1560350
  71.2860840  25.0759860  38.2809770  71.3932760  26.3801170  39.0423110
  69.5004530  24.1999150  44.3952790  69.9173320  23.9859260  43.5606250
  70.2244350  24.4571940  44.9661410  66.9384790  21.6450850  37.5122840
  66.0114070  21.5788230  37.7411310  67.0909610  22.5830980  37.3978080
  66.9253870  17.9167850  34.5090000  65.9857540  18.0781810  34.5942460
  67.2437130  18.6353530  33.9625990  73.4466630  22.5986370  44.4869030
  72.6185260  22.6679460  44.0119160  74.0417110  23.1840680  44.0184860
  70.9682080  23.2071150  38.0158090  70.3494500  22.8690700  37.3684390
  70.9506530  22.5630910  38.7237280  70.4108640  19.3855690  45.4323900
  69.9979820  20.2109400  45.6863890  69.6784590  18.8000730  45.2400260
  62.5441430  22.1715590  40.2942570  62.1398430  21.4592840  39.7988470
  62.6304550  21.8268830  41.1830610  63.0123130  25.8583150  42.4581780
  62.7151420  25.2528620  41.7789560  63.9622950  25.8960460  42.3471140
  61.2570050  18.9458800  44.0741610  61.8084640  19.0554140  43.2994860
  61.7713560  19.3196400  44.7896840  71.1008740  29.4315020  46.1204880
  70.6239300  30.2387210  45.9277490  70.4170530  28.7793350  46.2731090
  62.1041560  25.5964840  49.1089580  61.2070090  25.8204810  49.3562980
  62.1294430  25.7199780  48.1600980  69.1446780  22.4457960  35.0230840
  69.5840060  21.6080390  34.8768660  69.8575200  23.0787360  35.1094980
  60.9312780  22.4678160  47.6846950  60.7920550  23.3400960  48.0534350
  60.0494140  22.1250970  47.5394890  67.2542160  27.3854030  38.9912080
  67.6938070  28.1278360  38.5767470  67.1929050  27.6280600  39.9151040
  62.7293130  28.4099860  49.8932100  62.7008560  28.8142810  49.0260530
  62.5658100  27.4810220  49.7303700  72.7263920  13.7000770  33.3371880
  72.4136580  13.7927600  34.2370950  73.4876390  14.2781800  33.2869310
  59.2446060  21.0660570  37.7949220  59.1243660  21.7922660  37.1830490
  58.9346950  20.2963480  37.3177130  74.6807950  29.1926960  51.1896270
  75.1567670  29.6709850  51.8685350  75.3015110  29.1244450  50.4641770
  56.8831430  24.2375710  43.6017860  56.9611850  24.3724480  42.6573580
  57.4973110  23.5291600  43.7945980  58.1279060  25.9375900  40.0124040
  57.7207140  26.0790490  39.1577640  59.0192070  25.6536060  39.8095250
  74.0841200  26.3839810  48.3496280  74.2104260  26.1451690  47.4313460
  74.1262580  25.5524350  48.8218360  67.9457940  30.0867810  46.9191090
  68.4602610  29.9975820  47.7213520  67.1027020  30.4327510  47.2119000
  69.9212340  30.3723150  36.3475090  69.7613480  30.0826090  37.2456920
  69.7559050  29.5963280  35.8120320  62.4000720  30.1521680  38.1246710
  62.2243200  29.2357220  37.9114510  61.5456460  30.5108970  38.3644510
  69.6238470  27.8810710  34.9073090  68.9303630  27.8788000  34.2475370
  70.3661330  27.4570030  34.4767260  69.1888400  29.5073420  38.9821580
  69.6445350  28.7262800  39.2960200  69.5280920  30.2180240  39.5262760
  73.9365210  18.4372270  49.3146020  73.3209480  18.9451940  48.7861480
  73.6161630  17.5370600  49.2571960  56.9390950  25.2789880  46.1412320
  57.1021990  24.8095240  45.3231690  57.4043400  24.7713440  46.8061160
  61.7109720  14.4095640  41.1772890  61.2677870  15.1905180  40.8457410
  62.2694710  14.7325530  41.8843830  65.9979530  17.2764160  46.7808210
  65.5358900  17.4847180  47.5928150  65.5957640  16.4623510  46.4778880
  70.9984040  18.4973110  47.9104870  70.1477630  18.1978860  48.2313940
  70.8385830  18.7415120  46.9988690  68.0933750  19.9974860  50.0103660
  68.4187160  19.1638610  49.6705890  68.8814080  20.5203380  50.1581990
  64.8268540  14.0306340  36.0578720  64.2022720  14.0266210  36.7832030
  64.7398660  13.1637300  35.6614690  63.7485620  14.9542970  43.0362490
  64.0457950  15.8605800  42.9554510  64.2971180  14.4661750  42.4222060
  61.5023940  19.5329210  38.9054140  61.2764860  19.3166380  39.8100760
  60.7216470  19.9657670  38.5600110  68.7321700  19.5392580  37.5044790
  68.1330590  20.2628380  37.3208410  69.2801310  19.4769360  36.7221240
  63.9423150  20.4314790  49.5714410  63.8466750  19.4909520  49.4214810
  64.7855130  20.6529860  49.1762480  67.3386570  18.1756120  39.5348070
  67.7316140  18.4928320  38.7216760  67.7003420  17.2968000  39.6492590
  59.0733690  16.8428460  47.7248190  58.6797080  17.6903670  47.9320970
  58.3852090  16.2054830  47.9156830  65.6478740  16.9263430  50.7944930
  64.9577060  16.7335630  51.4291020  66.3911040  17.2098070  51.3269230
  56.3750740  14.7656920  41.7578270  56.0863790  15.3359780  42.4703250
  57.1196500  14.2861370  42.1209500  56.5620970  18.7077040  32.9680990
  56.4795640  19.6507800  33.1095980  56.2104030  18.5651950  32.0893340
  67.9241710  20.7661870  43.6298850  67.1922830  21.2748680  43.9788950
  67.5266050  19.9491850  43.3287630  64.3619100  17.4416070  42.0351340
  64.3655160  17.0006020  41.1855880  65.2570220  17.7633400  42.1423160
  60.2121480  17.3242560  40.9945550  59.8721530  17.8017790  41.7512600
  59.4498800  16.8707680  40.6346650  64.4239250  18.4428150  35.0258100
  64.5452070  18.4014630  35.9743920  64.0387760  19.3052300  34.8704830
  68.3867620  16.2195550  43.0421790  68.4040360  16.6704200  43.8863640
  68.1383200  15.3201190  43.2555230  63.4360750  20.7529290  34.4241400
  62.8677650  20.3047540  33.7977310  64.1449750  21.1122070  33.8906550
  71.8138370  13.6327730  48.8808170  72.1384140  12.9017390  49.4066150
  71.8494880  13.3141370  47.9789160  58.5129930  24.6541310  48.3008130
  58.1284720  24.0134980  48.8991090  58.8242120  25.3577430  48.8702860
  64.6627070  21.5017850  43.7816750  65.0297200  21.0276420  44.5278090
  64.4732130  22.3759420  44.1225090  57.5267560  16.2461540  39.9110220
  57.2414480  15.8817210  40.7488840  57.4646420  15.5142000  39.2973360
  62.4526440  20.5426490  46.1000960  62.1483510  21.4218470  46.3251320
  63.4072900  20.6026280  46.1358400  60.9808230  24.7487480  36.6967810
  60.2070490  24.2085100  36.5366530  61.7102860  24.2294090  36.3585570
  71.7396210  23.7452840  42.4894200  72.4595330  24.2408130  42.0990310
  71.5378030  23.0670730  41.8448070  67.2006150  15.1390800  36.6323590
  66.3870760  14.6403970  36.5568900  67.0068100  15.9789050  36.2159940
  67.1215010  23.8161900  48.3763200  67.0552320  22.8957570  48.1220790
  66.4920150  23.9137340  49.0907840  69.9154540  19.5110450  34.9285750
  70.8034160  19.8227680  34.7537090  69.8859630  18.6382700  34.5366330
  61.0245630  24.4167860  40.3346620  61.5424300  23.6136120  40.2803510
  60.5729650  24.3547000  41.1763450  65.9115130  25.6834140  35.6073920
  66.2530830  26.4276370  35.1117240  65.0827840  25.9965260  35.9698750
  58.5090170  21.3829230  47.2472320  58.1505110  22.0483080  47.8345660
  58.2144730  20.5512780  47.6184940  61.7103290  21.8413470  50.1311870
  61.4103430  21.9870650  49.2339690  62.4814530  21.2818760  50.0385260
  67.0531740  26.6382470  48.1267000  67.0676280  25.7063430  47.9085910
  66.3456840  26.7242230  48.7656770  72.1868810  20.8222290  34.3965610
  72.1032530  21.2536510  33.5462050  72.9063000  21.2820640  34.8292430
  73.2642950  23.2789810  47.4735580  72.5391140  23.8718590  47.2764970
  73.7918410  23.2713350  46.6748950  73.2156060  27.6764550  37.1247740
  72.5732220  27.0220170  37.3991460  72.8286720  28.0819640  36.3488410
  68.7942540  25.0049980  40.9719430  69.1466360  24.4078110  40.3120800
  67.9104870  24.6794210  41.1427680  64.8805820  25.7647670  38.3789840
  65.5676950  26.3116880  38.7597430  64.0938240  26.3088400  38.4139450
  57.0198220  21.3820490  33.8706920  57.8893070  21.6645290  34.1542840
  56.5288540  22.1956360  33.7555730  64.1833030  22.7693700  37.9915200
  64.6395810  23.5798950  38.2175390  63.8321240  22.4516840  38.8233690
  66.4865640  28.2800040  45.2207500  67.1307860  28.4859420  45.8980920
  66.8495080  27.5188440  44.7678350  60.0844810  13.1131350  38.4637720
  59.9559440  13.1049250  39.4122640  59.2606830  13.4514440  38.1128730
  67.7597720  26.2832390  43.9384950  68.4019950  25.5825550  44.0517120
  68.2847070  27.0630830  43.7581840  71.6053440  26.5681010  33.6624090
  71.3791020  25.8511450  34.2548730  71.2149640  26.3193450  32.8245840
  69.5335340  27.0827290  47.1421010  69.8691580  27.6693980  47.8198930
  68.6135680  26.9520000  47.3718800  57.3869470  30.5947870  34.4368550
  57.7467110  31.1937210  33.7825820  57.2461810  31.1407760  35.2103580
  57.0838740  14.8722470  47.9244420  56.3697260  15.0719390  48.5297030
  57.5033780  14.0962040  48.2959220  71.1869690  24.4852950  35.3238250
  70.8991390  24.9465640  36.1116130  71.9821860  24.0250720  35.5922470
  57.3711330  28.8602730  48.9110950  57.4802450  27.9197470  48.7706340
  56.7191890  29.1257480  48.2624680  65.3623920  27.1318620  50.3109070
  65.0420790  26.4127860  50.8554760  64.6882280  27.8073690  50.3845130
  63.4038090  27.9779070  35.2542220  63.3948190  28.7108760  34.6386730
  62.4836450  27.7310650  35.3469180  59.0044730  23.1993960  35.9988980
  58.3972680  23.9392860  36.0084280  59.4794080  23.2893320  35.1727180
  68.5777520  17.3644780  45.6745870  68.9458340  16.5439990  46.0025440
  67.7175720  17.4246670  46.0901520  71.9439550  16.3201720  36.4833430
  71.3152710  16.4247390  35.7691660  71.4491470  16.5398500  37.2727310
  66.3897690  28.0407310  33.9167410  66.4909670  27.8371300  32.9869390
  65.4899430  27.7865590  34.1215190  63.9123580  18.5987670  37.8991310
  63.2039730  19.0674010  38.3404920  64.1968060  17.9409680  38.5336500
  65.5379510  20.0184370  45.8983840  66.0364760  20.4930190  46.5635690
  65.6802460  19.0947890  46.1053870  67.9439010  15.3238330  39.3387100
  67.8206790  15.3424460  38.3896610  68.8923570  15.3717270  39.4585500
  65.0315800  30.5593630  38.6115080  65.2857300  30.5215020  37.6894450
  64.0828280  30.4326960  38.6043330  62.1158600  16.9072750  35.2742020
  62.9649130  17.3442900  35.2082210  61.7489870  17.2193010  36.1014080
  72.7446370  16.2352330  46.7412230  72.2419970  16.9757730  47.0806040
  73.5603030  16.6236330  46.4249020  71.0368380  21.4785510  40.1873590
  70.0958520  21.4935740  40.3621280  71.3512450  20.6921470  40.6333890
  61.0150020  23.1605110  33.7477550  61.7813290  23.0486470  34.3102980
  61.0924710  22.4643080  33.0954320  59.7096780  20.5930180  34.4310440
  59.7900370  19.6457690  34.5427840  60.6016530  20.9237060  34.5371100
  73.0393960  28.6494360  41.8627850  73.1641380  29.4725530  42.3351660
  73.9059520  28.4385090  41.5152000  60.5111490  30.7425570  41.5344980
  61.2473970  30.1941030  41.8053550  60.8952410  31.6081580  41.3950970
  57.3956970  26.8099140  37.4086490  56.4696750  27.0520280  37.3991900
  57.8613400  27.6373400  37.2871240  59.5169770  29.9271640  50.7230560
  60.3182500  30.2483690  51.1365960  59.0021590  29.5667220  51.4450470
  63.6213800  29.9155880  33.3570550  64.4142410  30.2044710  32.9052340
  63.1018150  29.4848050  32.6783030  68.3534400  26.0351510  50.6705970
  67.7472560  26.0583110  49.9301720  68.0488510  25.3034550  51.2073220
  69.7834770  29.7631800  49.2815380  70.7356520  29.6789820  49.2315620
  69.6362990  30.4273510  49.9549170  72.6743970  29.1426010  34.7807290
  72.3885480  28.7291150  33.9661470  72.4763520  30.0713720  34.6607810
  57.2367580  22.4145100  49.6666610  57.7406600  21.8352380  50.2382840
  56.4975000  22.6985330  50.2042980  64.1391200  25.1359290  33.2212900
  64.0341840  24.5211640  33.9474280  63.9715420  24.6125180  32.4375910
  64.2905520  23.8216090  49.2002130  63.5251190  24.3901090  49.1156800
  64.4721480  23.5292300  48.3070360  67.3793930  24.1979320  33.8254890
  66.8304030  24.6448620  34.4697630  68.0013190  23.6928570  34.3492560
  71.4328870  25.5521420  49.7577150  72.1738340  25.8897180  49.2544610
  70.6701550  25.7213480  49.2046920  59.2690660  20.5574690  50.5616680
  59.3096000  20.2588560  51.4701910  60.1236160  20.9582300  50.4024200
  63.0469050  23.1570240  35.7220190  63.4685470  22.9910110  36.5651580
  63.1719890  22.3470470  35.2275330  61.2096470  19.1366790  48.5291170
  60.6792930  18.6457740  47.9014510  61.8784540  19.5650990  47.9949100
  65.5596690  22.1807850  32.9697290  66.0802350  21.4656870  32.6038440
  66.2065090  22.8193720  33.2697800  70.1074530  23.6036250  48.2932360
  70.5215550  23.7581330  49.1422780  69.1725530  23.7291470  48.4558140
  70.5796700  20.9432410  50.2971510  71.1617470  20.1884730  50.2091990
  70.7558470  21.4739850  49.5202990  61.6968770  16.1029160  48.6088460
  61.6025640  15.4849910  47.8839330  61.1166160  16.8295450  48.3818370
  64.4630210  14.6602400  45.6415850  64.0147510  14.6826660  44.7961400
  63.8295410  14.2621420  46.2386150  64.8689760  23.5556730  46.2628290
  65.2877870  24.3989460  46.0904530  63.9498390  23.6928770  46.0335070
  67.2053660  21.2872910  47.6466130  67.3249870  20.6914050  48.3860970
  68.0647660  21.3242600  47.2267430  69.5441560  21.8410100  46.2228640
  69.0176780  22.3652720  45.6193780  69.8872900  22.4737490  46.8538370
  61.9427950  19.2303470  32.6678350  61.7417010  18.3670830  33.0291690
  61.7720000  19.1436830  31.7299950  62.7197180  29.8609740  47.3786020
  62.1818270  30.5855800  47.0594720  62.9731140  29.3840080  46.5883360
  63.9722430  17.8294260  48.9041950  64.5622120  17.5210110  49.5919770
  63.1542670  17.3574010  49.0601850  68.7915860  17.4460070  49.1374970
  68.1031380  16.7841610  49.0724960  69.5121880  16.9998340  49.5823430
  69.4216260  14.0411700  35.1965230  69.7018550  13.1979600  35.5524650
  68.6481990  14.2734810  35.7103980  60.7410750  16.3304090  32.6556230
  61.0436650  16.3371520  31.7475380  61.4805340  15.9801950  33.1523890
  65.5759390  31.0960950  47.6372670  65.5018090  31.9996090  47.9445040
  64.6738230  30.7772850  47.6094740  63.9595680  15.2738710  33.6412430
  63.6117680  14.5962700  33.0614880  64.1608450  14.8128220  34.4555820
  66.1244720  30.2619460  35.2599030  67.0195510  30.6004430  35.2817790
  66.1562350  29.5398870  34.6323310  59.7640880  25.6346510  33.4886030
  60.2015750  26.1776180  34.1443610  60.2488610  24.8093460  33.4982370
  56.9786680  28.4235540  40.9406290  57.3089690  27.5556600  40.7084930
  57.4077680  28.6294060  41.7711250  61.5748600  26.7544550  38.6008260
  61.2744140  26.6309520  39.5012170  61.4686090  25.8953140  38.1923990
  57.4676890  29.2906130  43.6787920  57.0307880  29.4706930  44.5112070
  58.0354570  30.0480750  43.5369640  73.1039070  28.7923130  47.9665230
  72.5041060  28.8515690  47.2229150  73.2332970  27.8528110  48.0962080
  74.3440520  26.5340950  33.3034940  73.5133480  26.6017600  33.7742170
  74.5212350  27.4245070  33.0001800  73.7996980  23.2788430  35.8069140
  74.5615890  23.8485080  35.9128830  73.8151350  22.7115630  36.5777450
  57.3001320  21.8026360  40.0376800  56.6450160  21.5338000  39.3936500
  58.1379270  21.6930840  39.5878780  74.8056950  24.1338530  40.6511070
  75.1765780  23.3505850  40.2447040  75.4458880  24.8227630  40.4728370
  71.7890710  25.5175110  46.0641390  70.9750550  25.9472270  46.3267180
  72.1964910  26.1293520  45.4510440  73.8516150  23.5722800  32.9641660
  74.1264990  24.4801680  32.8360880  73.6626890  23.5085330  33.9003650
  70.2491760  16.5967650  34.2595290  70.6676640  16.4098630  33.4191950
  69.9427820  15.7446700  34.5698220  73.7481490  21.5091790  37.9571090
  73.3725090  20.7419720  37.5252380  73.0184610  21.8914490  38.4446020
  58.3377250  22.1878930  44.5780140  58.7050290  22.1006330  45.4576160
  57.7688070  21.4245480  44.4787000  73.1381110  20.6563310  47.5910610
  72.9067200  20.4276060  46.6908560  73.3985660  21.5762860  47.5455500
  57.8893250  19.0988020  48.4838560  56.9949300  19.0654780  48.8232270
  58.4290800  19.2974810  49.2489810  71.5769180  15.8819740  50.3690310
  72.4539360  15.8903140  50.7524310  71.5890020  15.1450580  49.7582660
  56.5139400  19.0125290  35.9802130  55.6103480  19.2755490  35.8053790
  56.9980020  19.2836460  35.2002090  73.0232450  19.7349280  41.2578330
  73.5469930  19.2411930  40.6268500  73.6091870  19.8699640  42.0025900
  73.2022170  19.8189150  44.7797880  72.2524880  19.7852690  44.8942870
  73.3835180  20.7289260  44.5447650  59.0566610  18.0690830  33.8896510
  59.7658310  17.6474050  33.4043790  58.3406550  18.1366060  33.2579860
  58.7040770  14.1230160  32.9299160  59.4268900  14.6639100  33.2480380
  58.9765290  13.8493580  32.0540700  72.5132420  18.9922630  37.1970740
  73.0091540  18.7593500  37.9819620  72.3148490  18.1534470  36.7808380
  58.3932960  13.3736350  42.8321780  59.0409150  12.8233730  42.3916940
  58.8134800  13.6279500  43.6537590  73.9419580  17.6283580  39.7308420
  73.8318860  17.4739620  40.6690690  74.7027170  17.1004520  39.4883830
  72.2885300  13.5677710  46.1891420  72.9257520  14.1811850  46.5550610
  72.4360190  13.6038370  45.2440650  74.8309850  15.4591500  32.9714560
  75.7559160  15.3272680  32.7632850  74.8085640  15.5384320  33.9251010
  74.9048340  16.2302160  35.5971270  74.1099840  16.1647280  36.1264180
  75.1091620  17.1652800  35.5856620  71.8466760  30.2693710  39.5909660
  72.4425830  29.9478280  38.9144080  72.1044910  29.7965530  40.3822930
  58.1464960  13.5292020  45.5747100  57.7979780  13.9855840  46.3405280
  57.8152660  12.6349150  45.6569530  59.7529330  26.7011620  49.7400290
  59.7098960  26.3304530  50.6214750  59.8840340  27.6389190  49.8802110
  63.4535360  28.2571210  45.3410010  63.2126720  28.5245770  44.4540530
  64.3938000  28.4276940  45.3960870  65.6589780  14.7203900  49.0966520
  65.5978670  15.3125730  49.8461930  66.5990160  14.6129860  48.9516780
  68.2964340  14.3773960  48.7358810  68.9104750  14.6953250  48.0739890
  68.8413900  13.8922550  49.3554670  74.7139520  30.2765590  46.1420650
  74.2197800  30.6734460  45.4247780  74.1052810  29.6514800  46.5357930
  58.8185600  13.0568220  48.8497870  59.3668590  12.8756270  48.0863980
  58.8840910  12.2662330  49.3854180  59.5917360  29.6473870  46.8598070
  58.9977680  29.5158570  47.5988110  59.5841200  28.8112010  46.3940170
  69.0372380  12.9406100  45.0628100  68.1632220  13.2741210  44.8601030
  68.9283130  12.4679280  45.8879970  69.9444360  15.1476970  46.4469820
  69.6157720  14.3328730  46.0671550  70.8926660  15.1046780  46.3235510
  72.3978970  30.9189010  43.4207390  71.9381940  31.6704820  43.0465410
  71.7691430  30.1995480  43.3622190  59.2229590  27.0132250  45.8106110
  58.4963650  26.3937540  45.7432060  59.2838740  27.4072860  44.9404190
  62.8274690  29.2277250  42.5955520  63.3439710  28.6164610  42.0703780
  63.4772070  29.7306030  43.0866530  65.5670190  30.1185740  43.4224500
  65.8548000  29.8640040  42.5457510  66.0793410  29.5663100  44.0130070
  66.7847200  13.8575940  44.0021010  66.0018990  14.3321440  44.2817770
  66.4910130  12.9530770  43.8934190  71.3368270  14.5599040  42.0470100
  71.7776360  14.5044140  41.1991700  71.0675860  15.4757050  42.1180280
  73.2006840  14.1914280  40.0578920  73.1395240  13.2475500  39.9109940
  73.9798870  14.2994370  40.6032380  57.5059590  30.3306640  39.0202870
  57.3381630  29.6977320  39.7184760  56.6394100  30.5366040  38.6697060
  58.1287610  14.1623420  36.5234730  58.8866970  14.2752300  35.9498760
  57.6664780  14.9992620  36.4778160  64.6701420  16.2762690  39.5137040
  63.8575930  15.9019580  39.1732920  65.1743060  15.5207770  39.8158230
  69.1726400  12.9405140  40.7520110  69.7755770  13.5125350  41.2268630
  68.4319390  13.5044580  40.5294010  72.3161000  13.3426700  36.0260390
  72.5111630  14.2410150  36.2927820  71.5290870  13.1113780  36.5193340
  59.1122290  29.0239870  36.4653010  58.5869910  29.4047900  35.7614970
  59.0366870  29.6490640  37.1862720  60.5012760  14.6887470  35.0636700
  61.0305520  13.9017270  34.9344650  61.1341080  15.3678660  35.2972230
  62.6950600  14.4262610  38.1182090  62.0653340  13.7249920  38.2852220
  62.1555740  15.1866740  37.9015250  65.6342550  31.0401840  50.7892700
  66.5609860  30.8046110  50.8328660  65.6192980  31.8673840  50.3078730
  73.8687610  30.5827410  37.7866950  74.0439800  29.8965150  37.1427870
  73.1709180  31.1074460  37.3943620  62.8206160  13.7046590  50.5534580
  62.5390430  14.2080190  49.7895400  63.2025860  12.9068340  50.1876710
  61.7115260  30.9722250  35.3402260  62.4434080  30.6881530  34.7926150
  61.9708930  30.7335530  36.2301640  60.8730050  27.0886980  35.3448590
  60.2438930  27.5572080  35.8934420  60.9877880  26.2436200  35.7794780
  69.4221620  13.1200170  51.1315050  69.3087070  13.4394780  52.0266570
  70.2391360  13.5212680  50.8352330  72.2020110  30.2671700  50.6133740
  72.9945430  29.7720930  50.4059700  72.4953260  30.9461840  51.2209350
  68.3279770  21.1392640  21.4949790  68.2473820  20.2247250  21.2241500
  67.9144190  21.6359710  20.7889500  66.4597810  22.9171660  23.3759060
  65.6839910  22.4372100  23.6657630  67.1110740  22.2377310  23.2015220
  60.4763640  23.2291470  24.2534820  59.6448520  22.9740180  24.6531330
  61.0844620  23.3002240  24.9892740  70.4805240  27.3231850  22.1558190
  70.0186770  26.5519090  22.4845360  71.2930790  27.3497920  22.6610640
  60.4564900  27.2631560  24.4492840  60.7592940  26.3729300  24.2703060
  61.2008490  27.8201780  24.2215090  58.8855590  18.1893360  18.0377210
  57.9972290  18.5309330  17.9357090  59.1696780  17.9893680  17.1458040
  56.8488600  20.7899010  23.9216910  57.4204710  20.0221210  23.9220550
  56.8490140  21.0887770  23.0123520  66.7068550  29.6089860  21.7762180
  66.0879990  30.0647360  21.2056620  67.5620330  29.7641320  21.3751880
  65.9006800  25.5928850  23.3829220  65.8315080  24.6518790  23.2218350
  66.6626660  25.6830260  23.9551790  58.0913470  16.1983370  25.7085840
  57.9116310  15.3009120  25.9888600  57.6893550  16.7455240  26.3832790
  66.9311970  18.3999230  23.6098150  67.3076790  17.5271110  23.4971820
  66.8331480  18.7357930  22.7188590  61.0616980  16.7724860  19.0715590
  61.1683730  17.6728590  19.3784350  60.1509340  16.7242830  18.7810240
  70.7136090  15.8949670  20.5426490  71.5345710  15.4046240  20.5851970
  70.7470170  16.4847330  21.2958330  58.7100140  18.6943870  24.3168180
  59.3910250  18.9582240  24.9355580  58.3948190  17.8544740  24.6506190
  62.9024710  19.7411230  23.4040770  63.4102930  20.2392200  24.0445790
  63.4337950  18.9646430  23.2280130  75.0035640  17.9116420  27.1070120
  74.2987810  18.2998130  26.5885230  75.2693560  18.6066710  27.7091050
  61.1860810  14.3809790  27.6704190  61.1879250  14.8982180  26.8650090
  60.3565120  13.9039970  27.6474120  67.5731900  24.4929100  19.1694090
  66.9549170  24.9578550  18.6056810  68.0855150  25.1856580  19.5863600
  62.4363660  24.0204970  25.8477690  62.1033040  24.6473890  26.4898760
  62.6130340  24.5466850  25.0679360  70.9497570  17.8350050  23.3154030
  70.2453140  18.1234940  23.8957140  71.3109730  18.6450160  22.9553590
  60.8676140  16.0919750  25.6774640  61.2092950  16.9361800  25.3828510
  59.9291950  16.2403490  25.7939980  61.6482760  25.9885770  27.6626870
  62.2656760  26.6636850  27.3811320  60.7875880  26.3973750  27.5714370
  56.9415100  25.1785630  16.5433720  56.5643080  25.6672730  15.8118620
  57.1988170  25.8510910  17.1740250  72.5660350  27.4525180  25.5781510
  71.8823870  28.1224290  25.5698180  73.1054640  27.6505830  24.8126370
  74.0184490  17.2804840  23.7063240  73.0709400  17.3143820  23.8378670
  74.3434480  18.0943790  24.0912600  64.5504030  13.5802020  22.0019230
  64.8579010  13.0248910  21.2854730  63.6204730  13.7146480  21.8192220
  70.1019090  29.2969310  24.2926690  70.1146250  28.8931600  23.4248950
  69.5494310  30.0716600  24.1888120  71.3964510  26.0185530  19.3816860
  71.2860840  25.0759860  19.5066280  71.3932760  26.3801170  20.2679620
  69.5004530  24.1999150  25.6209300  69.9173320  23.9859260  24.7862760
  70.2244350  24.4571940  26.1917920  66.9384790  21.6450850  18.7379350
  66.0114070  21.5788230  18.9667820  67.0909610  22.5830980  18.6234590
  66.9253870  17.9167850  15.7346510  65.9857540  18.0781810  15.8198970
  67.2437130  18.6353530  15.1882500  73.4466630  22.5986370  25.7125540
  72.6185260  22.6679460  25.2375670  74.0417110  23.1840680  25.2441370
  70.9682080  23.2071150  19.2414600  70.3494500  22.8690700  18.5940900
  70.9506530  22.5630910  19.9493790  70.4108640  19.3855690  26.6580410
  69.9979820  20.2109400  26.9120400  69.6784590  18.8000730  26.4656770
  62.5441430  22.1715590  21.5199080  62.1398430  21.4592840  21.0244980
  62.6304550  21.8268830  22.4087120  63.0123130  25.8583150  23.6838290
  62.7151420  25.2528620  23.0046070  63.9622950  25.8960460  23.5727650
  61.2570050  18.9458800  25.2998120  61.8084640  19.0554140  24.5251370
  61.7713560  19.3196400  26.0153350  71.1008740  29.4315020  27.3461390
  70.6239300  30.2387210  27.1534000  70.4170530  28.7793350  27.4987600
  62.1041560  25.5964840  30.3346090  61.2070090  25.8204810  30.5819490
  62.1294430  25.7199780  29.3857490  69.1446780  22.4457960  16.2487350
  69.5840060  21.6080390  16.1025170  69.8575200  23.0787360  16.3351490
  60.9312780  22.4678160  28.9103460  60.7920550  23.3400960  29.2790860
  60.0494140  22.1250970  28.7651400  67.2542160  27.3854030  20.2168590
  67.6938070  28.1278360  19.8023980  67.1929050  27.6280600  21.1407550
  62.7293130  28.4099860  31.1188610  62.7008560  28.8142810  30.2517040
  62.5658100  27.4810220  30.9560210  72.7263920  13.7000770  14.5628390
  72.4136580  13.7927600  15.4627460  73.4876390  14.2781800  14.5125820
  59.2446060  21.0660570  19.0205730  59.1243660  21.7922660  18.4087000
  58.9346950  20.2963480  18.5433640  74.6807950  29.1926960  32.4152780
  75.1567670  29.6709850  33.0941860  75.3015110  29.1244450  31.6898280
  56.8831430  24.2375710  24.8274370  56.9611850  24.3724480  23.8830090
  57.4973110  23.5291600  25.0202490  58.1279060  25.9375900  21.2380550
  57.7207140  26.0790490  20.3834150  59.0192070  25.6536060  21.0351760
  74.0841200  26.3839810  29.5752790  74.2104260  26.1451690  28.6569970
  74.1262580  25.5524350  30.0474870  67.9457940  30.0867810  28.1447600
  68.4602610  29.9975820  28.9470030  67.1027020  30.4327510  28.4375510
  69.9212340  30.3723150  17.5731600  69.7613480  30.0826090  18.4713430
  69.7559050  29.5963280  17.0376830  62.4000720  30.1521680  19.3503220
  62.2243200  29.2357220  19.1371020  61.5456460  30.5108970  19.5901020
  69.6238470  27.8810710  16.1329600  68.9303630  27.8788000  15.4731880
  70.3661330  27.4570030  15.7023770  69.1888400  29.5073420  20.2078090
  69.6445350  28.7262800  20.5216710  69.5280920  30.2180240  20.7519270
  73.9365210  18.4372270  30.5402530  73.3209480  18.9451940  30.0117990
  73.6161630  17.5370600  30.4828470  56.9390950  25.2789880  27.3668830
  57.1021990  24.8095240  26.5488200  57.4043400  24.7713440  28.0317670
  61.7109720  14.4095640  22.4029400  61.2677870  15.1905180  22.0713920
  62.2694710  14.7325530  23.1100340  65.9979530  17.2764160  28.0064720
  65.5358900  17.4847180  28.8184660  65.5957640  16.4623510  27.7035390
  70.9984040  18.4973110  29.1361380  70.1477630  18.1978860  29.4570450
  70.8385830  18.7415120  28.2245200  68.0933750  19.9974860  31.2360170
  68.4187160  19.1638610  30.8962400  68.8814080  20.5203380  31.3838500
  64.8268540  14.0306340  17.2835230  64.2022720  14.0266210  18.0088540
  64.7398660  13.1637300  16.8871200  63.7485620  14.9542970  24.2619000
  64.0457950  15.8605800  24.1811020  64.2971180  14.4661750  23.6478570
  61.5023940  19.5329210  20.1310650  61.2764860  19.3166380  21.0357270
  60.7216470  19.9657670  19.7856620  68.7321700  19.5392580  18.7301300
  68.1330590  20.2628380  18.5464920  69.2801310  19.4769360  17.9477750
  63.9423150  20.4314790  30.7970920  63.8466750  19.4909520  30.6471320
  64.7855130  20.6529860  30.4018990  67.3386570  18.1756120  20.7604580
  67.7316140  18.4928320  19.9473270  67.7003420  17.2968000  20.8749100
  59.0733690  16.8428460  28.9504700  58.6797080  17.6903670  29.1577480
  58.3852090  16.2054830  29.1413340  65.6478740  16.9263430  32.0201440
  64.9577060  16.7335630  32.6547530  66.3911040  17.2098070  32.5525740
  56.3750740  14.7656920  22.9834780  56.0863790  15.3359780  23.6959760
  57.1196500  14.2861370  23.3466010  56.5620970  18.7077040  14.1937500
  56.4795640  19.6507800  14.3352490  56.2104030  18.5651950  13.3149850
  67.9241710  20.7661870  24.8555360  67.1922830  21.2748680  25.2045460
  67.5266050  19.9491850  24.5544140  64.3619100  17.4416070  23.2607850
  64.3655160  17.0006020  22.4112390  65.2570220  17.7633400  23.3679670
  60.2121480  17.3242560  22.2202060  59.8721530  17.8017790  22.9769110
  59.4498800  16.8707680  21.8603160  64.4239250  18.4428150  16.2514610
  64.5452070  18.4014630  17.2000430  64.0387760  19.3052300  16.0961340
  68.3867620  16.2195550  24.2678300  68.4040360  16.6704200  25.1120150
  68.1383200  15.3201190  24.4811740  63.4360750  20.7529290  15.6497910
  62.8677650  20.3047540  15.0233820  64.1449750  21.1122070  15.1163060
  71.8138370  13.6327730  30.1064680  72.1384140  12.9017390  30.6322660
  71.8494880  13.3141370  29.2045670  58.5129930  24.6541310  29.5264640
  58.1284720  24.0134980  30.1247600  58.8242120  25.3577430  30.0959370
  64.6627070  21.5017850  25.0073260  65.0297200  21.0276420  25.7534600
  64.4732130  22.3759420  25.3481600  57.5267560  16.2461540  21.1366730
  57.2414480  15.8817210  21.9745350  57.4646420  15.5142000  20.5229870
  62.4526440  20.5426490  27.3257470  62.1483510  21.4218470  27.5507830
  63.4072900  20.6026280  27.3614910  60.9808230  24.7487480  17.9224320
  60.2070490  24.2085100  17.7623040  61.7102860  24.2294090  17.5842080
  71.7396210  23.7452840  23.7150710  72.4595330  24.2408130  23.3246820
  71.5378030  23.0670730  23.0704580  67.2006150  15.1390800  17.8580100
  66.3870760  14.6403970  17.7825410  67.0068100  15.9789050  17.4416450
  67.1215010  23.8161900  29.6019710  67.0552320  22.8957570  29.3477300
  66.4920150  23.9137340  30.3164350  69.9154540  19.5110450  16.1542260
  70.8034160  19.8227680  15.9793600  69.8859630  18.6382700  15.7622840
  61.0245630  24.4167860  21.5603130  61.5424300  23.6136120  21.5060020
  60.5729650  24.3547000  22.4019960  65.9115130  25.6834140  16.8330430
  66.2530830  26.4276370  16.3373750  65.0827840  25.9965260  17.1955260
  58.5090170  21.3829230  28.4728830  58.1505110  22.0483080  29.0602170
  58.2144730  20.5512780  28.8441450  61.7103290  21.8413470  31.3568380
  61.4103430  21.9870650  30.4596200  62.4814530  21.2818760  31.2641770
  67.0531740  26.6382470  29.3523510  67.0676280  25.7063430  29.1342420
  66.3456840  26.7242230  29.9913280  72.1868810  20.8222290  15.6222120
  72.1032530  21.2536510  14.7718560  72.9063000  21.2820640  16.0548940
  73.2642950  23.2789810  28.6992090  72.5391140  23.8718590  28.5021480
  73.7918410  23.2713350  27.9005460  73.2156060  27.6764550  18.3504250
  72.5732220  27.0220170  18.6247970  72.8286720  28.0819640  17.5744920
  68.7942540  25.0049980  22.1975940  69.1466360  24.4078110  21.5377310
  67.9104870  24.6794210  22.3684190  64.8805820  25.7647670  19.6046350
  65.5676950  26.3116880  19.9853940  64.0938240  26.3088400  19.6395960
  57.0198220  21.3820490  15.0963430  57.8893070  21.6645290  15.3799350
  56.5288540  22.1956360  14.9812240  64.1833030  22.7693700  19.2171710
  64.6395810  23.5798950  19.4431900  63.8321240  22.4516840  20.0490200
  66.4865640  28.2800040  26.4464010  67.1307860  28.4859420  27.1237430
  66.8495080  27.5188440  25.9934860  60.0844810  13.1131350  19.6894230
  59.9559440  13.1049250  20.6379150  59.2606830  13.4514440  19.3385240
  67.7597720  26.2832390  25.1641460  68.4019950  25.5825550  25.2773630
  68.2847070  27.0630830  24.9838350  71.6053440  26.5681010  14.8880600
  71.3791020  25.8511450  15.4805240  71.2149640  26.3193450  14.0502350
  69.5335340  27.0827290  28.3677520  69.8691580  27.6693980  29.0455440
  68.6135680  26.9520000  28.5975310  57.3869470  30.5947870  15.6625060
  57.7467110  31.1937210  15.0082330  57.2461810  31.1407760  16.4360090
  57.0838740  14.8722470  29.1500930  56.3697260  15.0719390  29.7553540
  57.5033780  14.0962040  29.5215730  71.1869690  24.4852950  16.5494760
  70.8991390  24.9465640  17.3372640  71.9821860  24.0250720  16.8178980
  57.3711330  28.8602730  30.1367460  57.4802450  27.9197470  29.9962850
  56.7191890  29.1257480  29.4881190  65.3623920  27.1318620  31.5365580
  65.0420790  26.4127860  32.0811270  64.6882280  27.8073690  31.6101640
  63.4038090  27.9779070  16.4798730  63.3948190  28.7108760  15.8643240
  62.4836450  27.7310650  16.5725690  59.0044730  23.1993960  17.2245490
  58.3972680  23.9392860  17.2340790  59.4794080  23.2893320  16.3983690
  68.5777520  17.3644780  26.9002380  68.9458340  16.5439990  27.2281950
  67.7175720  17.4246670  27.3158030  71.9439550  16.3201720  17.7089940
  71.3152710  16.4247390  16.9948170  71.4491470  16.5398500  18.4983820
  66.3897690  28.0407310  15.1423920  66.4909670  27.8371300  14.2125900
  65.4899430  27.7865590  15.3471700  63.9123580  18.5987670  19.1247820
  63.2039730  19.0674010  19.5661430  64.1968060  17.9409680  19.7593010
  65.5379510  20.0184370  27.1240350  66.0364760  20.4930190  27.7892200
  65.6802460  19.0947890  27.3310380  67.9439010  15.3238330  20.5643610
  67.8206790  15.3424460  19.6153120  68.8923570  15.3717270  20.6842010
  65.0315800  30.5593630  19.8371590  65.2857300  30.5215020  18.9150960
  64.0828280  30.4326960  19.8299840  62.1158600  16.9072750  16.4998530
  62.9649130  17.3442900  16.4338720  61.7489870  17.2193010  17.3270590
  72.7446370  16.2352330  27.9668740  72.2419970  16.9757730  28.3062550
  73.5603030  16.6236330  27.6505530  71.0368380  21.4785510  21.4130100
  70.0958520  21.4935740  21.5877790  71.3512450  20.6921470  21.8590400
  61.0150020  23.1605110  14.9734060  61.7813290  23.0486470  15.5359490
  61.0924710  22.4643080  14.3210830  59.7096780  20.5930180  15.6566950
  59.7900370  19.6457690  15.7684350  60.6016530  20.9237060  15.7627610
  73.0393960  28.6494360  23.0884360  73.1641380  29.4725530  23.5608170
  73.9059520  28.4385090  22.7408510  60.5111490  30.7425570  22.7601490
  61.2473970  30.1941030  23.0310060  60.8952410  31.6081580  22.6207480
  57.3956970  26.8099140  18.6343000  56.4696750  27.0520280  18.6248410
  57.8613400  27.6373400  18.5127750  59.5169770  29.9271640  31.9487070
  60.3182500  30.2483690  32.3622470  59.0021590  29.5667220  32.6706980
  63.6213800  29.9155880  14.5827060  64.4142410  30.2044710  14.1308850
  63.1018150  29.4848050  13.9039540  68.3534400  26.0351510  31.8962480
  67.7472560  26.0583110  31.1558230  68.0488510  25.3034550  32.4329730
  69.7834770  29.7631800  30.5071890  70.7356520  29.6789820  30.4572130
  69.6362990  30.4273510  31.1805680  72.6743970  29.1426010  16.0063800
  72.3885480  28.7291150  15.1917980  72.4763520  30.0713720  15.8864320
  57.2367580  22.4145100  30.8923120  57.7406600  21.8352380  31.4639350
  56.4975000  22.6985330  31.4299490  64.1391200  25.1359290  14.4469410
  64.0341840  24.5211640  15.1730790  63.9715420  24.6125180  13.6632420
  64.2905520  23.8216090  30.4258640  63.5251190  24.3901090  30.3413310
  64.4721480  23.5292300  29.5326870  67.3793930  24.1979320  15.0511400
  66.8304030  24.6448620  15.6954140  68.0013190  23.6928570  15.5749070
  71.4328870  25.5521420  30.9833660  72.1738340  25.8897180  30.4801120
  70.6701550  25.7213480  30.4303430  59.2690660  20.5574690  31.7873190
  59.3096000  20.2588560  32.6958420  60.1236160  20.9582300  31.6280710
  63.0469050  23.1570240  16.9476700  63.4685470  22.9910110  17.7908090
  63.1719890  22.3470470  16.4531840  61.2096470  19.1366790  29.7547680
  60.6792930  18.6457740  29.1271020  61.8784540  19.5650990  29.2205610
  65.5596690  22.1807850  14.1953800  66.0802350  21.4656870  13.8294950
  66.2065090  22.8193720  14.4954310  70.1074530  23.6036250  29.5188870
  70.5215550  23.7581330  30.3679290  69.1725530  23.7291470  29.6814650
  70.5796700  20.9432410  31.5228020  71.1617470  20.1884730  31.4348500
  70.7558470  21.4739850  30.7459500  61.6968770  16.1029160  29.8344970
  61.6025640  15.4849910  29.1095840  61.1166160  16.8295450  29.6074880
  64.4630210  14.6602400  26.8672360  64.0147510  14.6826660  26.0217910
  63.8295410  14.2621420  27.4642660  64.8689760  23.5556730  27.4884800
  65.2877870  24.3989460  27.3161040  63.9498390  23.6928770  27.2591580
  67.2053660  21.2872910  28.8722640  67.3249870  20.6914050  29.6117480
  68.0647660  21.3242600  28.4523940  69.5441560  21.8410100  27.4485150
  69.0176780  22.3652720  26.8450290  69.8872900  22.4737490  28.0794880
  61.9427950  19.2303470  13.8934860  61.7417010  18.3670830  14.2548200
  61.7720000  19.1436830  12.9556460  62.7197180  29.8609740  28.6042530
  62.1818270  30.5855800  28.2851230  62.9731140  29.3840080  27.8139870
  63.9722430  17.8294260  30.1298460  64.5622120  17.5210110  30.8176280
  63.1542670  17.3574010  30.2858360  68.7915860  17.4460070  30.3631480
  68.1031380  16.7841610  30.2981470  69.5121880  16.9998340  30.8079940
  69.4216260  14.0411700  16.4221740  69.7018550  13.1979600  16.7781160
  68.6481990  14.2734810  16.9360490  60.7410750  16.3304090  13.8812740
  61.0436650  16.3371520  12.9731890  61.4805340  15.9801950  14.3780400
  65.5759390  31.0960950  28.8629180  65.5018090  31.9996090  29.1701550
  64.6738230  30.7772850  28.8351250  63.9595680  15.2738710  14.8668940
  63.6117680  14.5962700  14.2871390  64.1608450  14.8128220  15.6812330
  66.1244720  30.2619460  16.4855540  67.0195510  30.6004430  16.5074300
  66.1562350  29.5398870  15.8579820  59.7640880  25.6346510  14.7142540
  60.2015750  26.1776180  15.3700120  60.2488610  24.8093460  14.7238880
  56.9786680  28.4235540  22.1662800  57.3089690  27.5556600  21.9341440
  57.4077680  28.6294060  22.9967760  61.5748600  26.7544550  19.8264770
  61.2744140  26.6309520  20.7268680  61.4686090  25.8953140  19.4180500
  57.4676890  29.2906130  24.9044430  57.0307880  29.4706930  25.7368580
  58.0354570  30.0480750  24.7626150  73.1039070  28.7923130  29.1921740
  72.5041060  28.8515690  28.4485660  73.2332970  27.8528110  29.3218590
  74.3440520  26.5340950  14.5291450  73.5133480  26.6017600  14.9998680
  74.5212350  27.4245070  14.2258310  73.7996980  23.2788430  17.0325650
  74.5615890  23.8485080  17.1385340  73.8151350  22.7115630  17.8033960
  57.3001320  21.8026360  21.2633310  56.6450160  21.5338000  20.6193010
  58.1379270  21.6930840  20.8135290  74.8056950  24.1338530  21.8767580
  75.1765780  23.3505850  21.4703550  75.4458880  24.8227630  21.6984880
  71.7890710  25.5175110  27.2897900  70.9750550  25.9472270  27.5523690
  72.1964910  26.1293520  26.6766950  73.8516150  23.5722800  14.1898170
  74.1264990  24.4801680  14.0617390  73.6626890  23.5085330  15.1260160
  70.2491760  16.5967650  15.4851800  70.6676640  16.4098630  14.6448460
  69.9427820  15.7446700  15.7954730  73.7481490  21.5091790  19.1827600
  73.3725090  20.7419720  18.7508890  73.0184610  21.8914490  19.6702530
  58.3377250  22.1878930  25.8036650  58.7050290  22.1006330  26.6832670
  57.7688070  21.4245480  25.7043510  73.1381110  20.6563310  28.8167120
  72.9067200  20.4276060  27.9165070  73.3985660  21.5762860  28.7712010
  57.8893250  19.0988020  29.7095070  56.9949300  19.0654780  30.0488780
  58.4290800  19.2974810  30.4746320  71.5769180  15.8819740  31.5946820
  72.4539360  15.8903140  31.9780820  71.5890020  15.1450580  30.9839170
  56.5139400  19.0125290  17.2058640  55.6103480  19.2755490  17.0310300
  56.9980020  19.2836460  16.4258600  73.0232450  19.7349280  22.4834840
  73.5469930  19.2411930  21.8525010  73.6091870  19.8699640  23.2282410
  73.2022170  19.8189150  26.0054390  72.2524880  19.7852690  26.1199380
  73.3835180  20.7289260  25.7704160  59.0566610  18.0690830  15.1153020
  59.7658310  17.6474050  14.6300300  58.3406550  18.1366060  14.4836370
  58.7040770  14.1230160  14.1555670  59.4268900  14.6639100  14.4736890
  58.9765290  13.8493580  13.2797210  72.5132420  18.9922630  18.4227250
  73.0091540  18.7593500  19.2076130  72.3148490  18.1534470  18.0064890
  58.3932960  13.3736350  24.0578290  59.0409150  12.8233730  23.6173450
  58.8134800  13.6279500  24.8794100  73.9419580  17.6283580  20.9564930
  73.8318860  17.4739620  21.8947200  74.7027170  17.1004520  20.7140340
  72.2885300  13.5677710  27.4147930  72.9257520  14.1811850  27.7807120
  72.4360190  13.6038370  26.4697160  74.8309850  15.4591500  14.1971070
  75.7559160  15.3272680  13.9889360  74.8085640  15.5384320  15.1507520
  74.9048340  16.2302160  16.8227780  74.1099840  16.1647280  17.3520690
  75.1091620  17.1652800  16.8113130  71.8466760  30.2693710  20.8166170
  72.4425830  29.9478280  20.1400590  72.1044910  29.7965530  21.6079440
  58.1464960  13.5292020  26.8003610  57.7979780  13.9855840  27.5661790
  57.8152660  12.6349150  26.8826040  59.7529330  26.7011620  30.9656800
  59.7098960  26.3304530  31.8471260  59.8840340  27.6389190  31.1058620
  63.4535360  28.2571210  26.5666520  63.2126720  28.5245770  25.6797040
  64.3938000  28.4276940  26.6217380  65.6589780  14.7203900  30.3223030
  65.5978670  15.3125730  31.0718440  66.5990160  14.6129860  30.1773290
  68.2964340  14.3773960  29.9615320  68.9104750  14.6953250  29.2996400
  68.8413900  13.8922550  30.5811180  74.7139520  30.2765590  27.3677160
  74.2197800  30.6734460  26.6504290  74.1052810  29.6514800  27.7614440
  58.8185600  13.0568220  30.0754380  59.3668590  12.8756270  29.3120490
  58.8840910  12.2662330  30.6110690  59.5917360  29.6473870  28.0854580
  58.9977680  29.5158570  28.8244620  59.5841200  28.8112010  27.6196680
  69.0372380  12.9406100  26.2884610  68.1632220  13.2741210  26.0857540
  68.9283130  12.4679280  27.1136480  69.9444360  15.1476970  27.6726330
  69.6157720  14.3328730  27.2928060  70.8926660  15.1046780  27.5492020
  72.3978970  30.9189010  24.6463900  71.9381940  31.6704820  24.2721920
  71.7691430  30.1995480  24.5878700  59.2229590  27.0132250  27.0362620
  58.4963650  26.3937540  26.9688570  59.2838740  27.4072860  26.1660700
  62.8274690  29.2277250  23.8212030  63.3439710  28.6164610  23.2960290
  63.4772070  29.7306030  24.3123040  65.5670190  30.1185740  24.6481010
  65.8548000  29.8640040  23.7714020  66.0793410  29.5663100  25.2386580
  66.7847200  13.8575940  25.2277520  66.0018990  14.3321440  25.5074280
  66.4910130  12.9530770  25.1190700  71.3368270  14.5599040  23.2726610
  71.7776360  14.5044140  22.4248210  71.0675860  15.4757050  23.3436790
  73.2006840  14.1914280  21.2835430  73.1395240  13.2475500  21.1366450
  73.9798870  14.2994370  21.8288890  57.5059590  30.3306640  20.2459380
  57.3381630  29.6977320  20.9441270  56.6394100  30.5366040  19.8953570
  58.1287610  14.1623420  17.7491240  58.8866970  14.2752300  17.1755270
  57.6664780  14.9992620  17.7034670  64.6701420  16.2762690  20.7393550
  63.8575930  15.9019580  20.3989430  65.1743060  15.5207770  21.0414740
  69.1726400  12.9405140  21.9776620  69.7755770  13.5125350  22.4525140
  68.4319390  13.5044580  21.7550520  72.3161000  13.3426700  17.2516900
  72.5111630  14.2410150  17.5184330  71.5290870  13.1113780  17.7449850
  59.1122290  29.0239870  17.6909520  58.5869910  29.4047900  16.9871480
  59.0366870  29.6490640  18.4119230  60.5012760  14.6887470  16.2893210
  61.0305520  13.9017270  16.1601160  61.1341080  15.3678660  16.5228740
  62.6950600  14.4262610  19.3438600  62.0653340  13.7249920  19.5108730
  62.1555740  15.1866740  19.1271760  65.6342550  31.0401840  32.0149210
  66.5609860  30.8046110  32.0585170  65.6192980  31.8673840  31.5335240
  73.8687610  30.5827410  19.0123460  74.0439800  29.8965150  18.3684380
  73.1709180  31.1074460  18.6200130  62.8206160  13.7046590  31.7791090
  62.5390430  14.2080190  31.0151910  63.2025860  12.9068340  31.4133220
  61.7115260  30.9722250  16.5658770  62.4434080  30.6881530  16.0182660
  61.9708930  30.7335530  17.4558150  60.8730050  27.0886980  16.5705100
  60.2438930  27.5572080  17.1190930  60.9877880  26.2436200  17.0051290
  69.4221620  13.1200170  32.3571560  69.3087070  13.4394780  33.2523080
  70.2391360  13.5212680  32.0608840  72.2020110  30.2671700  31.8390250
  72.9945430  29.7720930  31.6316210  72.4953260  30.9461840  32.4465860
  68.3279770  21.1392640   2.7206300  68.2473820  20.2247250   2.4498010
  67.9144190  21.6359710   2.0146010  66.4597810  22.9171660   4.6015570
  65.6839910  22.4372100   4.8914140  67.1110740  22.2377310   4.4271730
  60.4763640  23.2291470   5.4791330  59.6448520  22.9740180   5.8787840
  61.0844620  23.3002240   6.2149250  70.4805240  27.3231850   3.3814700
  70.0186770  26.5519090   3.7101870  71.2930790  27.3497920   3.8867150
  60.4564900  27.2631560   5.6749350  60.7592940  26.3729300   5.4959570
  61.2008490  27.8201780   5.4471600  56.8488600  20.7899010   5.1473420
  57.4204710  20.0221210   5.1477060  56.8490140  21.0887770   4.2380030
  66.7068550  29.6089860   3.0018690  66.0879990  30.0647360   2.4313130
  67.5620330  29.7641320   2.6008390  65.9006800  25.5928850   4.6085730
  65.8315080  24.6518790   4.4474860  66.6626660  25.6830260   5.1808300
  58.0913470  16.1983370   6.9342350  57.9116310  15.3009120   7.2145110
  57.6893550  16.7455240   7.6089300  66.9311970  18.3999230   4.8354660
  67.3076790  17.5271110   4.7228330  66.8331480  18.7357930   3.9445100
  70.7136090  15.8949670   1.7683000  71.5345710  15.4046240   1.8108480
  70.7470170  16.4847330   2.5214840  58.7100140  18.6943870   5.5424690
  59.3910250  18.9582240   6.1612090  58.3948190  17.8544740   5.8762700
  62.9024710  19.7411230   4.6297280  63.4102930  20.2392200   5.2702300
  63.4337950  18.9646430   4.4536640  75.0035640  17.9116420   8.3326630
  74.2987810  18.2998130   7.8141740  75.2693560  18.6066710   8.9347560
  61.1860810  14.3809790   8.8960700  61.1879250  14.8982180   8.0906600
  60.3565120  13.9039970   8.8730630  62.4363660  24.0204970   7.0734200
  62.1033040  24.6473890   7.7155270  62.6130340  24.5466850   6.2935870
  70.9497570  17.8350050   4.5410540  70.2453140  18.1234940   5.1213650
  71.3109730  18.6450160   4.1810100  60.8676140  16.0919750   6.9031150
  61.2092950  16.9361800   6.6085020  59.9291950  16.2403490   7.0196490
  61.6482760  25.9885770   8.8883380  62.2656760  26.6636850   8.6067830
  60.7875880  26.3973750   8.7970880  72.5660350  27.4525180   6.8038020
  71.8823870  28.1224290   6.7954690  73.1054640  27.6505830   6.0382880
  74.0184490  17.2804840   4.9319750  73.0709400  17.3143820   5.0635180
  74.3434480  18.0943790   5.3169110  64.5504030  13.5802020   3.2275740
  64.8579010  13.0248910   2.5111240  63.6204730  13.7146480   3.0448730
  70.1019090  29.2969310   5.5183200  70.1146250  28.8931600   4.6505460
  69.5494310  30.0716600   5.4144630  69.5004530  24.1999150   6.8465810
  69.9173320  23.9859260   6.0119270  70.2244350  24.4571940   7.4174430
  73.4466630  22.5986370   6.9382050  72.6185260  22.6679460   6.4632180
  74.0417110  23.1840680   6.4697880  70.4108640  19.3855690   7.8836920
  69.9979820  20.2109400   8.1376910  69.6784590  18.8000730   7.6913280
  62.5441430  22.1715590   2.7455590  62.1398430  21.4592840   2.2501490
  62.6304550  21.8268830   3.6343630  63.0123130  25.8583150   4.9094800
  62.7151420  25.2528620   4.2302580  63.9622950  25.8960460   4.7984160
  61.2570050  18.9458800   6.5254630  61.8084640  19.0554140   5.7507880
  61.7713560  19.3196400   7.2409860  71.1008740  29.4315020   8.5717900
  70.6239300  30.2387210   8.3790510  70.4170530  28.7793350   8.7244110
  62.1041560  25.5964840  11.5602600  61.2070090  25.8204810  11.8076000
  62.1294430  25.7199780  10.6114000  60.9312780  22.4678160  10.1359970
  60.7920550  23.3400960  10.5047370  60.0494140  22.1250970   9.9907910
  62.7293130  28.4099860  12.3445120  62.7008560  28.8142810  11.4773550
  62.5658100  27.4810220  12.1816720  74.6807950  29.1926960  13.6409290
  75.1567670  29.6709850  14.3198370  75.3015110  29.1244450  12.9154790
  56.8831430  24.2375710   6.0530880  56.9611850  24.3724480   5.1086600
  57.4973110  23.5291600   6.2459000  58.1279060  25.9375900   2.4637060
  57.7207140  26.0790490   1.6090660  59.0192070  25.6536060   2.2608270
  74.0841200  26.3839810  10.8009300  74.2104260  26.1451690   9.8826480
  74.1262580  25.5524350  11.2731380  67.9457940  30.0867810   9.3704110
  68.4602610  29.9975820  10.1726540  67.1027020  30.4327510   9.6632020
  73.9365210  18.4372270  11.7659040  73.3209480  18.9451940  11.2374500
  73.6161630  17.5370600  11.7084980  56.9390950  25.2789880   8.5925340
  57.1021990  24.8095240   7.7744710  57.4043400  24.7713440   9.2574180
  61.7109720  14.4095640   3.6285910  61.2677870  15.1905180   3.2970430
  62.2694710  14.7325530   4.3356850  65.9979530  17.2764160   9.2321230
  65.5358900  17.4847180  10.0441170  65.5957640  16.4623510   8.9291900
  70.9984040  18.4973110  10.3617890  70.1477630  18.1978860  10.6826960
  70.8385830  18.7415120   9.4501710  68.0933750  19.9974860  12.4616680
  68.4187160  19.1638610  12.1218910  68.8814080  20.5203380  12.6095010
  63.7485620  14.9542970   5.4875510  64.0457950  15.8605800   5.4067530
  64.2971180  14.4661750   4.8735080  63.9423150  20.4314790  12.0227430
  63.8466750  19.4909520  11.8727830  64.7855130  20.6529860  11.6275500
  59.0733690  16.8428460  10.1761210  58.6797080  17.6903670  10.3833990
  58.3852090  16.2054830  10.3669850  65.6478740  16.9263430  13.2457950
  64.9577060  16.7335630  13.8804040  66.3911040  17.2098070  13.7782250
  56.3750740  14.7656920   4.2091290  56.0863790  15.3359780   4.9216270
  57.1196500  14.2861370   4.5722520  67.9241710  20.7661870   6.0811870
  67.1922830  21.2748680   6.4301970  67.5266050  19.9491850   5.7800650
  64.3619100  17.4416070   4.4864360  64.3655160  17.0006020   3.6368900
  65.2570220  17.7633400   4.5936180  60.2121480  17.3242560   3.4458570
  59.8721530  17.8017790   4.2025620  59.4498800  16.8707680   3.0859670
  68.3867620  16.2195550   5.4934810  68.4040360  16.6704200   6.3376660
  68.1383200  15.3201190   5.7068250  71.8138370  13.6327730  11.3321190
  72.1384140  12.9017390  11.8579170  71.8494880  13.3141370  10.4302180
  58.5129930  24.6541310  10.7521150  58.1284720  24.0134980  11.3504110
  58.8242120  25.3577430  11.3215880  64.6627070  21.5017850   6.2329770
  65.0297200  21.0276420   6.9791110  64.4732130  22.3759420   6.5738110
  57.5267560  16.2461540   2.3623240  57.2414480  15.8817210   3.2001860
  57.4646420  15.5142000   1.7486380  62.4526440  20.5426490   8.5513980
  62.1483510  21.4218470   8.7764340  63.4072900  20.6026280   8.5871420
  71.7396210  23.7452840   4.9407220  72.4595330  24.2408130   4.5503330
  71.5378030  23.0670730   4.2961090  67.1215010  23.8161900  10.8276220
  67.0552320  22.8957570  10.5733810  66.4920150  23.9137340  11.5420860
  61.0245630  24.4167860   2.7859640  61.5424300  23.6136120   2.7316530
  60.5729650  24.3547000   3.6276470  58.5090170  21.3829230   9.6985340
  58.1505110  22.0483080  10.2858680  58.2144730  20.5512780  10.0697960
  61.7103290  21.8413470  12.5824890  61.4103430  21.9870650  11.6852710
  62.4814530  21.2818760  12.4898280  67.0531740  26.6382470  10.5780020
  67.0676280  25.7063430  10.3598930  66.3456840  26.7242230  11.2169790
  73.2642950  23.2789810   9.9248600  72.5391140  23.8718590   9.7277990
  73.7918410  23.2713350   9.1261970  68.7942540  25.0049980   3.4232450
  69.1466360  24.4078110   2.7633820  67.9104870  24.6794210   3.5940700
  66.4865640  28.2800040   7.6720520  67.1307860  28.4859420   8.3493940
  66.8495080  27.5188440   7.2191370  67.7597720  26.2832390   6.3897970
  68.4019950  25.5825550   6.5030140  68.2847070  27.0630830   6.2094860
  69.5335340  27.0827290   9.5934030  69.8691580  27.6693980  10.2711950
  68.6135680  26.9520000   9.8231820  57.0838740  14.8722470  10.3757440
  56.3697260  15.0719390  10.9810050  57.5033780  14.0962040  10.7472240
  57.3711330  28.8602730  11.3623970  57.4802450  27.9197470  11.2219360
  56.7191890  29.1257480  10.7137700  65.3623920  27.1318620  12.7622090
  65.0420790  26.4127860  13.3067780  64.6882280  27.8073690  12.8358150
  68.5777520  17.3644780   8.1258890  68.9458340  16.5439990   8.4538460
  67.7175720  17.4246670   8.5414540  65.5379510  20.0184370   8.3496860
  66.0364760  20.4930190   9.0148710  65.6802460  19.0947890   8.5566890
  72.7446370  16.2352330   9.1925250  72.2419970  16.9757730   9.5319060
  73.5603030  16.6236330   8.8762040  71.0368380  21.4785510   2.6386610
  70.0958520  21.4935740   2.8134300  71.3512450  20.6921470   3.0846910
  73.0393960  28.6494360   4.3140870  73.1641380  29.4725530   4.7864680
  73.9059520  28.4385090   3.9665020  60.5111490  30.7425570   3.9858000
  61.2473970  30.1941030   4.2566570  60.8952410  31.6081580   3.8463990
  59.5169770  29.9271640  13.1743580  60.3182500  30.2483690  13.5878980
  59.0021590  29.5667220  13.8963490  68.3534400  26.0351510  13.1218990
  67.7472560  26.0583110  12.3814740  68.0488510  25.3034550  13.6586240
  69.7834770  29.7631800  11.7328400  70.7356520  29.6789820  11.6828640
  69.6362990  30.4273510  12.4062190  57.2367580  22.4145100  12.1179630
  57.7406600  21.8352380  12.6895860  56.4975000  22.6985330  12.6556000
  64.2905520  23.8216090  11.6515150  63.5251190  24.3901090  11.5669820
  64.4721480  23.5292300  10.7583380  71.4328870  25.5521420  12.2090170
  72.1738340  25.8897180  11.7057630  70.6701550  25.7213480  11.6559940
  59.2690660  20.5574690  13.0129700  59.3096000  20.2588560  13.9214930
  60.1236160  20.9582300  12.8537220  61.2096470  19.1366790  10.9804190
  60.6792930  18.6457740  10.3527530  61.8784540  19.5650990  10.4462120
  70.1074530  23.6036250  10.7445380  70.5215550  23.7581330  11.5935800
  69.1725530  23.7291470  10.9071160  70.5796700  20.9432410  12.7484530
  71.1617470  20.1884730  12.6605010  70.7558470  21.4739850  11.9716010
  61.6968770  16.1029160  11.0601480  61.6025640  15.4849910  10.3352350
  61.1166160  16.8295450  10.8331390  64.4630210  14.6602400   8.0928870
  64.0147510  14.6826660   7.2474420  63.8295410  14.2621420   8.6899170
  64.8689760  23.5556730   8.7141310  65.2877870  24.3989460   8.5417550
  63.9498390  23.6928770   8.4848090  67.2053660  21.2872910  10.0979150
  67.3249870  20.6914050  10.8373990  68.0647660  21.3242600   9.6780450
  69.5441560  21.8410100   8.6741660  69.0176780  22.3652720   8.0706800
  69.8872900  22.4737490   9.3051390  62.7197180  29.8609740   9.8299040
  62.1818270  30.5855800   9.5107740  62.9731140  29.3840080   9.0396380
  63.9722430  17.8294260  11.3554970  64.5622120  17.5210110  12.0432790
  63.1542670  17.3574010  11.5114870  68.7915860  17.4460070  11.5887990
  68.1031380  16.7841610  11.5237980  69.5121880  16.9998340  12.0336450
  65.5759390  31.0960950  10.0885690  65.5018090  31.9996090  10.3958060
  64.6738230  30.7772850  10.0607760  56.9786680  28.4235540   3.3919310
  57.3089690  27.5556600   3.1597950  57.4077680  28.6294060   4.2224270
  57.4676890  29.2906130   6.1300940  57.0307880  29.4706930   6.9625090
  58.0354570  30.0480750   5.9882660  73.1039070  28.7923130  10.4178250
  72.5041060  28.8515690   9.6742170  73.2332970  27.8528110  10.5475100
  57.3001320  21.8026360   2.4889820  56.6450160  21.5338000   1.8449520
  58.1379270  21.6930840   2.0391800  74.8056950  24.1338530   3.1024090
  75.1765780  23.3505850   2.6960060  75.4458880  24.8227630   2.9241390
  71.7890710  25.5175110   8.5154410  70.9750550  25.9472270   8.7780200
  72.1964910  26.1293520   7.9023460  58.3377250  22.1878930   7.0293160
  58.7050290  22.1006330   7.9089180  57.7688070  21.4245480   6.9300020
  73.1381110  20.6563310  10.0423630  72.9067200  20.4276060   9.1421580
  73.3985660  21.5762860   9.9968520  57.8893250  19.0988020  10.9351580
  56.9949300  19.0654780  11.2745290  58.4290800  19.2974810  11.7002830
  71.5769180  15.8819740  12.8203330  72.4539360  15.8903140  13.2037330
  71.5890020  15.1450580  12.2095680  73.0232450  19.7349280   3.7091350
  73.5469930  19.2411930   3.0781520  73.6091870  19.8699640   4.4538920
  73.2022170  19.8189150   7.2310900  72.2524880  19.7852690   7.3455890
  73.3835180  20.7289260   6.9960670  58.3932960  13.3736350   5.2834800
  59.0409150  12.8233730   4.8429960  58.8134800  13.6279500   6.1050610
  73.9419580  17.6283580   2.1821440  73.8318860  17.4739620   3.1203710
  74.7027170  17.1004520   1.9396850  72.2885300  13.5677710   8.6404440
  72.9257520  14.1811850   9.0063630  72.4360190  13.6038370   7.6953670
  58.1464960  13.5292020   8.0260120  57.7979780  13.9855840   8.7918300
  57.8152660  12.6349150   8.1082550  59.7529330  26.7011620  12.1913310
  59.7098960  26.3304530  13.0727770  59.8840340  27.6389190  12.3315130
  63.4535360  28.2571210   7.7923030  63.2126720  28.5245770   6.9053550
  64.3938000  28.4276940   7.8473890  65.6589780  14.7203900  11.5479540
  65.5978670  15.3125730  12.2974950  66.5990160  14.6129860  11.4029800
  68.2964340  14.3773960  11.1871830  68.9104750  14.6953250  10.5252910
  68.8413900  13.8922550  11.8067690  74.7139520  30.2765590   8.5933670
  74.2197800  30.6734460   7.8760800  74.1052810  29.6514800   8.9870950
  58.8185600  13.0568220  11.3010890  59.3668590  12.8756270  10.5377000
  58.8840910  12.2662330  11.8367200  59.5917360  29.6473870   9.3111090
  58.9977680  29.5158570  10.0501130  59.5841200  28.8112010   8.8453190
  69.0372380  12.9406100   7.5141120  68.1632220  13.2741210   7.3114050
  68.9283130  12.4679280   8.3392990  69.9444360  15.1476970   8.8982840
  69.6157720  14.3328730   8.5184570  70.8926660  15.1046780   8.7748530
  72.3978970  30.9189010   5.8720410  71.9381940  31.6704820   5.4978430
  71.7691430  30.1995480   5.8135210  59.2229590  27.0132250   8.2619130
  58.4963650  26.3937540   8.1945080  59.2838740  27.4072860   7.3917210
  62.8274690  29.2277250   5.0468540  63.3439710  28.6164610   4.5216800
  63.4772070  29.7306030   5.5379550  65.5670190  30.1185740   5.8737520
  65.8548000  29.8640040   4.9970530  66.0793410  29.5663100   6.4643090
  66.7847200  13.8575940   6.4534030  66.0018990  14.3321440   6.7330790
  66.4910130  12.9530770   6.3447210  71.3368270  14.5599040   4.4983120
  71.7776360  14.5044140   3.6504720  71.0675860  15.4757050   4.5693300
  73.2006840  14.1914280   2.5091940  73.1395240  13.2475500   2.3622960
  73.9798870  14.2994370   3.0545400  64.6701420  16.2762690   1.9650060
  63.8575930  15.9019580   1.6245940  65.1743060  15.5207770   2.2671250
  69.1726400  12.9405140   3.2033130  69.7755770  13.5125350   3.6781650
  68.4319390  13.5044580   2.9807030  65.6342550  31.0401840  13.2405720
  66.5609860  30.8046110  13.2841680  65.6192980  31.8673840  12.7591750
  62.8206160  13.7046590  13.0047600  62.5390430  14.2080190  12.2408420
  63.2025860  12.9068340  12.6389730  69.4221620  13.1200170  13.5828070
  69.3087070  13.4394780  14.4779590  70.2391360  13.5212680  13.2865350
  72.2020110  30.2671700  13.0646760  72.9945430  29.7720930  12.8572720
  72.4953260  30.9461840  13.6722370  66.4597810   4.1428170  79.6989530
  65.6839910   3.6628610  79.9888100  67.1110740   3.4633820  79.5245690
  60.4763640   4.4547980  80.5765290  59.6448520   4.1996690  80.9761800
  61.0844620   4.5258750  81.3123210  70.4805240   8.5488360  78.4788660
  70.0186770   7.7775600  78.8075830  71.2930790   8.5754430  78.9841110
  60.4564900   8.4888070  80.7723310  60.7592940   7.5985810  80.5933530
  61.2008490   9.0458290  80.5445560  66.7068550  10.8346370  78.0992650
  66.0879990  11.2903870  77.5287090  67.5620330  10.9897830  77.6982350
  65.9006800   6.8185360  79.7059690  65.8315080   5.8775300  79.5448820
  66.6626660   6.9086770  80.2782260  67.5731900   5.7185610  75.4924560
  66.9549170   6.1835060  74.9287280  68.0855150   6.4113090  75.9094070
  56.9415100   6.4042140  72.8664190  56.5643080   6.8929240  72.1349090
  57.1988170   7.0767420  73.4970720  72.5660350   8.6781690  81.9011980
  71.8823870   9.3480800  81.8928650  73.1054640   8.8762340  81.1356840
  70.1019090  10.5225820  80.6157160  70.1146250  10.1188110  79.7479420
  69.5494310  11.2973110  80.5118590  71.3964510   7.2442040  75.7047330
  71.2860840   6.3016370  75.8296750  71.3932760   7.6057680  76.5910090
  66.9384790   2.8707360  75.0609820  66.0114070   2.8044740  75.2898290
  67.0909610   3.8087490  74.9465060  73.4466630   3.8242880  82.0356010
  72.6185260   3.8935970  81.5606140  74.0417110   4.4097190  81.5671840
  70.9682080   4.4327660  75.5645070  70.3494500   4.0947210  74.9171370
  70.9506530   3.7887420  76.2724260  62.5441430   3.3972100  77.8429550
  62.1398430   2.6849350  77.3475450  62.6304550   3.0525340  78.7317590
  63.0123130   7.0839660  80.0068760  62.7151420   6.4785130  79.3276540
  63.9622950   7.1216970  79.8958120  69.1446780   3.6714470  72.5717820
  69.5840060   2.8336900  72.4255640  69.8575200   4.3043870  72.6581960
  67.2542160   8.6110540  76.5399060  67.6938070   9.3534870  76.1254450
  67.1929050   8.8537110  77.4638020  56.8831430   5.4632220  81.1504840
  56.9611850   5.5980990  80.2060560  57.4973110   4.7548110  81.3432960
  58.1279060   7.1632410  77.5611020  57.7207140   7.3047000  76.7064620
  59.0192070   6.8792570  77.3582230  69.9212340  11.5979660  73.8962070
  69.7613480  11.3082600  74.7943900  69.7559050  10.8219790  73.3607300
  62.4000720  11.3778190  75.6733690  62.2243200  10.4613730  75.4601490
  61.5456460  11.7365480  75.9131490  69.6238470   9.1067220  72.4560070
  68.9303630   9.1044510  71.7962350  70.3661330   8.6826540  72.0254240
  69.1888400  10.7329930  76.5308560  69.6445350   9.9519310  76.8447180
  69.5280920  11.4436750  77.0749740  64.6627070   2.7274360  81.3303730
  65.0297200   2.2532930  82.0765070  64.4732130   3.6015930  81.6712070
  60.9808230   5.9743990  74.2454790  60.2070490   5.4341610  74.0853510
  61.7102860   5.4550600  73.9072550  71.7396210   4.9709350  80.0381180
  72.4595330   5.4664640  79.6477290  71.5378030   4.2927240  79.3935050
  61.0245630   5.6424370  77.8833600  61.5424300   4.8392630  77.8290490
  60.5729650   5.5803510  78.7250430  65.9115130   6.9090650  73.1560900
  66.2530830   7.6532880  72.6604220  65.0827840   7.2221770  73.5185730
  72.1868810   2.0478800  71.9452590  72.1032530   2.4793020  71.0949030
  72.9063000   2.5077150  72.3779410  73.2156060   8.9021060  74.6734720
  72.5732220   8.2476680  74.9478440  72.8286720   9.3076150  73.8975390
  68.7942540   6.2306490  78.5206410  69.1466360   5.6334620  77.8607780
  67.9104870   5.9050720  78.6914660  64.8805820   6.9904180  75.9276820
  65.5676950   7.5373390  76.3084410  64.0938240   7.5344910  75.9626430
  57.0198220   2.6077000  71.4193900  57.8893070   2.8901800  71.7029820
  56.5288540   3.4212870  71.3042710  64.1833030   3.9950210  75.5402180
  64.6395810   4.8055460  75.7662370  63.8321240   3.6773350  76.3720670
  67.7597720   7.5088900  81.4871930  68.4019950   6.8082060  81.6004100
  68.2847070   8.2887340  81.3068820  71.6053440   7.7937520  71.2111070
  71.3791020   7.0767960  71.8035710  71.2149640   7.5449960  70.3732820
  57.3869470  11.8204380  71.9855530  57.7467110  12.4193720  71.3312800
  57.2461810  12.3664270  72.7590560  71.1869690   5.7109460  72.8725230
  70.8991390   6.1722150  73.6603110  71.9821860   5.2507230  73.1409450
  63.4038090   9.2035580  72.8029200  63.3948190   9.9365270  72.1873710
  62.4836450   8.9567160  72.8956160  59.0044730   4.4250470  73.5475960
  58.3972680   5.1649370  73.5571260  59.4794080   4.5149830  72.7214160
  66.3897690   9.2663820  71.4654390  66.4909670   9.0627810  70.5356370
  65.4899430   9.0122100  71.6702170  65.0315800  11.7850140  76.1602060
  65.2857300  11.7471530  75.2381430  64.0828280  11.6583470  76.1530310
  71.0368380   2.7042020  77.7360570  70.0958520   2.7192250  77.9108260
  71.3512450   1.9177980  78.1820870  61.0150020   4.3861620  71.2964530
  61.7813290   4.2742980  71.8589960  61.0924710   3.6899590  70.6441300
  73.0393960   9.8750870  79.4114830  73.1641380  10.6982040  79.8838640
  73.9059520   9.6641600  79.0638980  60.5111490  11.9682080  79.0831960
  61.2473970  11.4197540  79.3540530  60.8952410  12.8338090  78.9437950
  57.3956970   8.0355650  74.9573470  56.4696750   8.2776790  74.9478880
  57.8613400   8.8629910  74.8358220  63.6213800  11.1412390  70.9057530
  64.4142410  11.4301220  70.4539320  63.1018150  10.7104560  70.2270010
  72.6743970  10.3682520  72.3294270  72.3885480   9.9547660  71.5148450
  72.4763520  11.2970230  72.2094790  64.1391200   6.3615800  70.7699880
  64.0341840   5.7468150  71.4961260  63.9715420   5.8381690  69.9862890
  67.3793930   5.4235830  71.3741870  66.8304030   5.8705130  72.0184610
  68.0013190   4.9185080  71.8979540  63.0469050   4.3826750  73.2707170
  63.4685470   4.2166620  74.1138560  63.1719890   3.5726980  72.7762310
  65.5596690   3.4064360  70.5184270  66.0802350   2.6913380  70.1525420
  66.2065090   4.0450230  70.8184780  66.1244720  11.4875970  72.8086010
  67.0195510  11.8260940  72.8304770  66.1562350  10.7655380  72.1810290
  59.7640880   6.8603020  71.0373010  60.2015750   7.4032690  71.6930590
  60.2488610   6.0349970  71.0469350  56.9786680   9.6492050  78.4893270
  57.3089690   8.7813110  78.2571910  57.4077680   9.8550570  79.3198230
  61.5748600   7.9801060  76.1495240  61.2744140   7.8566030  77.0499150
  61.4686090   7.1209650  75.7410970  57.4676890  10.5162640  81.2274900
  57.0307880  10.6963440  82.0599050  58.0354570  11.2737260  81.0856620
  74.3440520   7.7597460  70.8521920  73.5133480   7.8274110  71.3229150
  74.5212350   8.6501580  70.5488780  73.7996980   4.5044940  73.3556120
  74.5615890   5.0741590  73.4615810  73.8151350   3.9372140  74.1264430
  57.3001320   3.0282870  77.5863780  56.6450160   2.7594510  76.9423480
  58.1379270   2.9187350  77.1365760  74.8056950   5.3595040  78.1998050
  75.1765780   4.5762360  77.7934020  75.4458880   6.0484140  78.0215350
  73.8516150   4.7979310  70.5128640  74.1264990   5.7058190  70.3847860
  73.6626890   4.7341840  71.4490630  73.7481490   2.7348300  75.5058070
  73.3725090   1.9676230  75.0739360  73.0184610   3.1171000  75.9933000
  71.8466760  11.4950220  77.1396640  72.4425830  11.1734790  76.4631060
  72.1044910  11.0222040  77.9309910  72.3978970  12.1445520  80.9694370
  71.9381940  12.8961330  80.5952390  71.7691430  11.4251990  80.9109170
  62.8274690  10.4533760  80.1442500  63.3439710   9.8421120  79.6190760
  63.4772070  10.9562540  80.6353510  65.5670190  11.3442250  80.9711480
  65.8548000  11.0896550  80.0944490  66.0793410  10.7919610  81.5617050
  57.5059590  11.5563150  76.5689850  57.3381630  10.9233830  77.2671740
  56.6394100  11.7622550  76.2184040  59.1122290  10.2496380  74.0139990
  58.5869910  10.6304410  73.3101950  59.0366870  10.8747150  74.7349700
  73.8687610  11.8083920  75.3353930  74.0439800  11.1221660  74.6914850
  73.1709180  12.3330970  74.9430600  61.7115260  12.1978760  72.8889240
  62.4434080  11.9138040  72.3413130  61.9708930  11.9592040  73.7788620
  60.8730050   8.3143490  72.8935570  60.2438930   8.7828590  73.4421400
  60.9877880   7.4692710  73.3281760  66.4597810   4.1428170  60.9246040
  65.6839910   3.6628610  61.2144610  67.1110740   3.4633820  60.7502200
  60.4763640   4.4547980  61.8021800  59.6448520   4.1996690  62.2018310
  61.0844620   4.5258750  62.5379720  70.4805240   8.5488360  59.7045170
  70.0186770   7.7775600  60.0332340  71.2930790   8.5754430  60.2097620
  60.4564900   8.4888070  61.9979820  60.7592940   7.5985810  61.8190040
  61.2008490   9.0458290  61.7702070  66.7068550  10.8346370  59.3249160
  66.0879990  11.2903870  58.7543600  67.5620330  10.9897830  58.9238860
  65.9006800   6.8185360  60.9316200  65.8315080   5.8775300  60.7705330
  66.6626660   6.9086770  61.5038770  67.5731900   5.7185610  56.7181070
  66.9549170   6.1835060  56.1543790  68.0855150   6.4113090  57.1350580
  62.4363660   5.2461480  63.3964670  62.1033040   5.8730400  64.0385740
  62.6130340   5.7723360  62.6166340  61.6482760   7.2142280  65.2113850
  62.2656760   7.8893360  64.9298300  60.7875880   7.6230260  65.1201350
  56.9415100   6.4042140  54.0920700  56.5643080   6.8929240  53.3605600
  57.1988170   7.0767420  54.7227230  72.5660350   8.6781690  63.1268490
  71.8823870   9.3480800  63.1185160  73.1054640   8.8762340  62.3613350
  70.1019090  10.5225820  61.8413670  70.1146250  10.1188110  60.9735930
  69.5494310  11.2973110  61.7375100  71.3964510   7.2442040  56.9303840
  71.2860840   6.3016370  57.0553260  71.3932760   7.6057680  57.8166600
  69.5004530   5.4255660  63.1696280  69.9173320   5.2115770  62.3349740
  70.2244350   5.6828450  63.7404900  66.9384790   2.8707360  56.2866330
  66.0114070   2.8044740  56.5154800  67.0909610   3.8087490  56.1721570
  73.4466630   3.8242880  63.2612520  72.6185260   3.8935970  62.7862650
  74.0417110   4.4097190  62.7928350  70.9682080   4.4327660  56.7901580
  70.3494500   4.0947210  56.1427880  70.9506530   3.7887420  57.4980770
  62.5441430   3.3972100  59.0686060  62.1398430   2.6849350  58.5731960
  62.6304550   3.0525340  59.9574100  63.0123130   7.0839660  61.2325270
  62.7151420   6.4785130  60.5533050  63.9622950   7.1216970  61.1214630
  71.1008740  10.6571530  64.8948370  70.6239300  11.4643720  64.7020980
  70.4170530  10.0049860  65.0474580  62.1041560   6.8221350  67.8833070
  61.2070090   7.0461320  68.1306470  62.1294430   6.9456290  66.9344470
  69.1446780   3.6714470  53.7974330  69.5840060   2.8336900  53.6512150
  69.8575200   4.3043870  53.8838470  60.9312780   3.6934670  66.4590440
  60.7920550   4.5657470  66.8277840  60.0494140   3.3507480  66.3138380
  67.2542160   8.6110540  57.7655570  67.6938070   9.3534870  57.3510960
  67.1929050   8.8537110  58.6894530  62.7293130   9.6356370  68.6675590
  62.7008560  10.0399320  67.8004020  62.5658100   8.7066730  68.5047190
  74.6807950  10.4183470  69.9639760  75.1567670  10.8966360  70.6428840
  75.3015110  10.3500960  69.2385260  56.8831430   5.4632220  62.3761350
  56.9611850   5.5980990  61.4317070  57.4973110   4.7548110  62.5689470
  58.1279060   7.1632410  58.7867530  57.7207140   7.3047000  57.9321130
  59.0192070   6.8792570  58.5838740  74.0841200   7.6096320  67.1239770
  74.2104260   7.3708200  66.2056950  74.1262580   6.7780860  67.5961850
  67.9457940  11.3124320  65.6934580  68.4602610  11.2232330  66.4957010
  67.1027020  11.6584020  65.9862490  69.9212340  11.5979660  55.1218580
  69.7613480  11.3082600  56.0200410  69.7559050  10.8219790  54.5863810
  62.4000720  11.3778190  56.8990200  62.2243200  10.4613730  56.6858000
  61.5456460  11.7365480  57.1388000  69.6238470   9.1067220  53.6816580
  68.9303630   9.1044510  53.0218860  70.3661330   8.6826540  53.2510750
  69.1888400  10.7329930  57.7565070  69.6445350   9.9519310  58.0703690
  69.5280920  11.4436750  58.3006250  56.9390950   6.5046390  64.9155810
  57.1021990   6.0351750  64.0975180  57.4043400   5.9969950  65.5804650
  58.5129930   5.8797820  67.0751620  58.1284720   5.2391490  67.6734580
  58.8242120   6.5833940  67.6446350  64.6627070   2.7274360  62.5560240
  65.0297200   2.2532930  63.3021580  64.4732130   3.6015930  62.8968580
  62.4526440   1.7683000  64.8744450  62.1483510   2.6474980  65.0994810
  63.4072900   1.8282790  64.9101890  60.9808230   5.9743990  55.4711300
  60.2070490   5.4341610  55.3110020  61.7102860   5.4550600  55.1329060
  71.7396210   4.9709350  61.2637690  72.4595330   5.4664640  60.8733800
  71.5378030   4.2927240  60.6191560  67.1215010   5.0418410  67.1506690
  67.0552320   4.1214080  66.8964280  66.4920150   5.1393850  67.8651330
  61.0245630   5.6424370  59.1090110  61.5424300   4.8392630  59.0547000
  60.5729650   5.5803510  59.9506940  65.9115130   6.9090650  54.3817410
  66.2530830   7.6532880  53.8860730  65.0827840   7.2221770  54.7442240
  58.5090170   2.6085740  66.0215810  58.1505110   3.2739590  66.6089150
  58.2144730   1.7769290  66.3928430  61.7103290   3.0669980  68.9055360
  61.4103430   3.2127160  68.0083180  62.4814530   2.5075270  68.8128750
  67.0531740   7.8638980  66.9010490  67.0676280   6.9319940  66.6829400
  66.3456840   7.9498740  67.5400260  72.1868810   2.0478800  53.1709100
  72.1032530   2.4793020  52.3205540  72.9063000   2.5077150  53.6035920
  73.2642950   4.5046320  66.2479070  72.5391140   5.0975100  66.0508460
  73.7918410   4.4969860  65.4492440  73.2156060   8.9021060  55.8991230
  72.5732220   8.2476680  56.1734950  72.8286720   9.3076150  55.1231900
  68.7942540   6.2306490  59.7462920  69.1466360   5.6334620  59.0864290
  67.9104870   5.9050720  59.9171170  64.8805820   6.9904180  57.1533330
  65.5676950   7.5373390  57.5340920  64.0938240   7.5344910  57.1882940
  57.0198220   2.6077000  52.6450410  57.8893070   2.8901800  52.9286330
  56.5288540   3.4212870  52.5299220  64.1833030   3.9950210  56.7658690
  64.6395810   4.8055460  56.9918880  63.8321240   3.6773350  57.5977180
  66.4865640   9.5056550  63.9950990  67.1307860   9.7115930  64.6724410
  66.8495080   8.7444950  63.5421840  67.7597720   7.5088900  62.7128440
  68.4019950   6.8082060  62.8260610  68.2847070   8.2887340  62.5325330
  71.6053440   7.7937520  52.4367580  71.3791020   7.0767960  53.0292220
  71.2149640   7.5449960  51.5989330  69.5335340   8.3083800  65.9164500
  69.8691580   8.8950490  66.5942420  68.6135680   8.1776510  66.1462290
  57.3869470  11.8204380  53.2112040  57.7467110  12.4193720  52.5569310
  57.2461810  12.3664270  53.9847070  71.1869690   5.7109460  54.0981740
  70.8991390   6.1722150  54.8859620  71.9821860   5.2507230  54.3665960
  57.3711330  10.0859240  67.6854440  57.4802450   9.1453980  67.5449830
  56.7191890  10.3513990  67.0368170  65.3623920   8.3575130  69.0852560
  65.0420790   7.6384370  69.6298250  64.6882280   9.0330200  69.1588620
  63.4038090   9.2035580  54.0285710  63.3948190   9.9365270  53.4130220
  62.4836450   8.9567160  54.1212670  59.0044730   4.4250470  54.7732470
  58.3972680   5.1649370  54.7827770  59.4794080   4.5149830  53.9470670
  66.3897690   9.2663820  52.6910900  66.4909670   9.0627810  51.7612880
  65.4899430   9.0122100  52.8958680  65.0315800  11.7850140  57.3858570
  65.2857300  11.7471530  56.4637940  64.0828280  11.6583470  57.3786820
  71.0368380   2.7042020  58.9617080  70.0958520   2.7192250  59.1364770
  71.3512450   1.9177980  59.4077380  61.0150020   4.3861620  52.5221040
  61.7813290   4.2742980  53.0846470  61.0924710   3.6899590  51.8697810
  73.0393960   9.8750870  60.6371340  73.1641380  10.6982040  61.1095150
  73.9059520   9.6641600  60.2895490  60.5111490  11.9682080  60.3088470
  61.2473970  11.4197540  60.5797040  60.8952410  12.8338090  60.1694460
  57.3956970   8.0355650  56.1829980  56.4696750   8.2776790  56.1735390
  57.8613400   8.8629910  56.0614730  59.5169770  11.1528150  69.4974050
  60.3182500  11.4740200  69.9109450  59.0021590  10.7923730  70.2193960
  63.6213800  11.1412390  52.1314040  64.4142410  11.4301220  51.6795830
  63.1018150  10.7104560  51.4526520  68.3534400   7.2608020  69.4449460
  67.7472560   7.2839620  68.7045210  68.0488510   6.5291060  69.9816710
  69.7834770  10.9888310  68.0558870  70.7356520  10.9046330  68.0059110
  69.6362990  11.6530020  68.7292660  72.6743970  10.3682520  53.5550780
  72.3885480   9.9547660  52.7404960  72.4763520  11.2970230  53.4351300
  57.2367580   3.6401610  68.4410100  57.7406600   3.0608890  69.0126330
  56.4975000   3.9241840  68.9786470  64.1391200   6.3615800  51.9956390
  64.0341840   5.7468150  52.7217770  63.9715420   5.8381690  51.2119400
  64.2905520   5.0472600  67.9745620  63.5251190   5.6157600  67.8900290
  64.4721480   4.7548810  67.0813850  67.3793930   5.4235830  52.5998380
  66.8304030   5.8705130  53.2441120  68.0013190   4.9185080  53.1236050
  71.4328870   6.7777930  68.5320640  72.1738340   7.1153690  68.0288100
  70.6701550   6.9469990  67.9790410  63.0469050   4.3826750  54.4963680
  63.4685470   4.2166620  55.3395070  63.1719890   3.5726980  54.0018820
  65.5596690   3.4064360  51.7440780  66.0802350   2.6913380  51.3781930
  66.2065090   4.0450230  52.0441290  70.1074530   4.8292760  67.0675850
  70.5215550   4.9837840  67.9166270  69.1725530   4.9547980  67.2301630
  64.8689760   4.7813240  65.0371780  65.2877870   5.6245970  64.8648020
  63.9498390   4.9185280  64.8078560  67.2053660   2.5129420  66.4209620
  67.3249870   1.9170560  67.1604460  68.0647660   2.5499110  66.0010920
  69.5441560   3.0666610  64.9972130  69.0176780   3.5909230  64.3937270
  69.8872900   3.6994000  65.6281860  62.7197180  11.0866250  66.1529510
  62.1818270  11.8112310  65.8338210  62.9731140  10.6096590  65.3626850
  65.5759390  12.3217460  66.4116160  65.5018090  13.2252600  66.7188530
  64.6738230  12.0029360  66.3838230  66.1244720  11.4875970  54.0342520
  67.0195510  11.8260940  54.0561280  66.1562350  10.7655380  53.4066800
  59.7640880   6.8603020  52.2629520  60.2015750   7.4032690  52.9187100
  60.2488610   6.0349970  52.2725860  56.9786680   9.6492050  59.7149780
  57.3089690   8.7813110  59.4828420  57.4077680   9.8550570  60.5454740
  61.5748600   7.9801060  57.3751750  61.2744140   7.8566030  58.2755660
  61.4686090   7.1209650  56.9667480  57.4676890  10.5162640  62.4531410
  57.0307880  10.6963440  63.2855560  58.0354570  11.2737260  62.3113130
  73.1039070  10.0179640  66.7408720  72.5041060  10.0772200  65.9972640
  73.2332970   9.0784620  66.8705570  74.3440520   7.7597460  52.0778430
  73.5133480   7.8274110  52.5485660  74.5212350   8.6501580  51.7745290
  73.7996980   4.5044940  54.5812630  74.5615890   5.0741590  54.6872320
  73.8151350   3.9372140  55.3520940  57.3001320   3.0282870  58.8120290
  56.6450160   2.7594510  58.1679990  58.1379270   2.9187350  58.3622270
  74.8056950   5.3595040  59.4254560  75.1765780   4.5762360  59.0190530
  75.4458880   6.0484140  59.2471860  71.7890710   6.7431620  64.8384880
  70.9750550   7.1728780  65.1010670  72.1964910   7.3550030  64.2253930
  73.8516150   4.7979310  51.7385150  74.1264990   5.7058190  51.6104370
  73.6626890   4.7341840  52.6747140  73.7481490   2.7348300  56.7314580
  73.3725090   1.9676230  56.2995870  73.0184610   3.1171000  57.2189510
  58.3377250   3.4135440  63.3523630  58.7050290   3.3262840  64.2319650
  57.7688070   2.6501990  63.2530490  71.8466760  11.4950220  58.3653150
  72.4425830  11.1734790  57.6887570  72.1044910  11.0222040  59.1566420
  59.7529330   7.9268130  68.5143780  59.7098960   7.5561040  69.3958240
  59.8840340   8.8645700  68.6545600  63.4535360   9.4827720  64.1153500
  63.2126720   9.7502280  63.2284020  64.3938000   9.6533450  64.1704360
  74.7139520  11.5022100  64.9164140  74.2197800  11.8990970  64.1991270
  74.1052810  10.8771310  65.3101420  59.5917360  10.8730380  65.6341560
  58.9977680  10.7415080  66.3731600  59.5841200  10.0368520  65.1683660
  72.3978970  12.1445520  62.1950880  71.9381940  12.8961330  61.8208900
  71.7691430  11.4251990  62.1365680  59.2229590   8.2388760  64.5849600
  58.4963650   7.6194050  64.5175550  59.2838740   8.6329370  63.7147680
  62.8274690  10.4533760  61.3699010  63.3439710   9.8421120  60.8447270
  63.4772070  10.9562540  61.8610020  65.5670190  11.3442250  62.1967990
  65.8548000  11.0896550  61.3201000  66.0793410  10.7919610  62.7873560
  57.5059590  11.5563150  57.7946360  57.3381630  10.9233830  58.4928250
  56.6394100  11.7622550  57.4440550  59.1122290  10.2496380  55.2396500
  58.5869910  10.6304410  54.5358460  59.0366870  10.8747150  55.9606210
  65.6342550  12.2658350  69.5636190  66.5609860  12.0302620  69.6072150
  65.6192980  13.0930350  69.0822220  73.8687610  11.8083920  56.5610440
  74.0439800  11.1221660  55.9171360  73.1709180  12.3330970  56.1687110
  61.7115260  12.1978760  54.1145750  62.4434080  11.9138040  53.5669640
  61.9708930  11.9592040  55.0045130  60.8730050   8.3143490  54.1192080
  60.2438930   8.7828590  54.6677910  60.9877880   7.4692710  54.5538270
  72.2020110  11.4928210  69.3877230  72.9945430  10.9977440  69.1803190
  72.4953260  12.1718350  69.9952840  66.4597810   4.1428170  42.1502550
  65.6839910   3.6628610  42.4401120  67.1110740   3.4633820  41.9758710
  60.4763640   4.4547980  43.0278310  59.6448520   4.1996690  43.4274820
  61.0844620   4.5258750  43.7636230  70.4805240   8.5488360  40.9301680
  70.0186770   7.7775600  41.2588850  71.2930790   8.5754430  41.4354130
  60.4564900   8.4888070  43.2236330  60.7592940   7.5985810  43.0446550
  61.2008490   9.0458290  42.9958580  66.7068550  10.8346370  40.5505670
  66.0879990  11.2903870  39.9800110  67.5620330  10.9897830  40.1495370
  65.9006800   6.8185360  42.1572710  65.8315080   5.8775300  41.9961840
  66.6626660   6.9086770  42.7295280  67.5731900   5.7185610  37.9437580
  66.9549170   6.1835060  37.3800300  68.0855150   6.4113090  38.3607090
  62.4363660   5.2461480  44.6221180  62.1033040   5.8730400  45.2642250
  62.6130340   5.7723360  43.8422850  61.6482760   7.2142280  46.4370360
  62.2656760   7.8893360  46.1554810  60.7875880   7.6230260  46.3457860
  56.9415100   6.4042140  35.3177210  56.5643080   6.8929240  34.5862110
  57.1988170   7.0767420  35.9483740  72.5660350   8.6781690  44.3525000
  71.8823870   9.3480800  44.3441670  73.1054640   8.8762340  43.5869860
  70.1019090  10.5225820  43.0670180  70.1146250  10.1188110  42.1992440
  69.5494310  11.2973110  42.9631610  71.3964510   7.2442040  38.1560350
  71.2860840   6.3016370  38.2809770  71.3932760   7.6057680  39.0423110
  69.5004530   5.4255660  44.3952790  69.9173320   5.2115770  43.5606250
  70.2244350   5.6828450  44.9661410  66.9384790   2.8707360  37.5122840
  66.0114070   2.8044740  37.7411310  67.0909610   3.8087490  37.3978080
  73.4466630   3.8242880  44.4869030  72.6185260   3.8935970  44.0119160
  74.0417110   4.4097190  44.0184860  70.9682080   4.4327660  38.0158090
  70.3494500   4.0947210  37.3684390  70.9506530   3.7887420  38.7237280
  62.5441430   3.3972100  40.2942570  62.1398430   2.6849350  39.7988470
  62.6304550   3.0525340  41.1830610  63.0123130   7.0839660  42.4581780
  62.7151420   6.4785130  41.7789560  63.9622950   7.1216970  42.3471140
  71.1008740  10.6571530  46.1204880  70.6239300  11.4643720  45.9277490
  70.4170530  10.0049860  46.2731090  62.1041560   6.8221350  49.1089580
  61.2070090   7.0461320  49.3562980  62.1294430   6.9456290  48.1600980
  69.1446780   3.6714470  35.0230840  69.5840060   2.8336900  34.8768660
  69.8575200   4.3043870  35.1094980  60.9312780   3.6934670  47.6846950
  60.7920550   4.5657470  48.0534350  60.0494140   3.3507480  47.5394890
  67.2542160   8.6110540  38.9912080  67.6938070   9.3534870  38.5767470
  67.1929050   8.8537110  39.9151040  62.7293130   9.6356370  49.8932100
  62.7008560  10.0399320  49.0260530  62.5658100   8.7066730  49.7303700
  74.6807950  10.4183470  51.1896270  75.1567670  10.8966360  51.8685350
  75.3015110  10.3500960  50.4641770  56.8831430   5.4632220  43.6017860
  56.9611850   5.5980990  42.6573580  57.4973110   4.7548110  43.7945980
  58.1279060   7.1632410  40.0124040  57.7207140   7.3047000  39.1577640
  59.0192070   6.8792570  39.8095250  74.0841200   7.6096320  48.3496280
  74.2104260   7.3708200  47.4313460  74.1262580   6.7780860  48.8218360
  67.9457940  11.3124320  46.9191090  68.4602610  11.2232330  47.7213520
  67.1027020  11.6584020  47.2119000  69.9212340  11.5979660  36.3475090
  69.7613480  11.3082600  37.2456920  69.7559050  10.8219790  35.8120320
  62.4000720  11.3778190  38.1246710  62.2243200  10.4613730  37.9114510
  61.5456460  11.7365480  38.3644510  69.6238470   9.1067220  34.9073090
  68.9303630   9.1044510  34.2475370  70.3661330   8.6826540  34.4767260
  69.1888400  10.7329930  38.9821580  69.6445350   9.9519310  39.2960200
  69.5280920  11.4436750  39.5262760  56.9390950   6.5046390  46.1412320
  57.1021990   6.0351750  45.3231690  57.4043400   5.9969950  46.8061160
  58.5129930   5.8797820  48.3008130  58.1284720   5.2391490  48.8991090
  58.8242120   6.5833940  48.8702860  64.6627070   2.7274360  43.7816750
  65.0297200   2.2532930  44.5278090  64.4732130   3.6015930  44.1225090
  62.4526440   1.7683000  46.1000960  62.1483510   2.6474980  46.3251320
  63.4072900   1.8282790  46.1358400  60.9808230   5.9743990  36.6967810
  60.2070490   5.4341610  36.5366530  61.7102860   5.4550600  36.3585570
  71.7396210   4.9709350  42.4894200  72.4595330   5.4664640  42.0990310
  71.5378030   4.2927240  41.8448070  67.1215010   5.0418410  48.3763200
  67.0552320   4.1214080  48.1220790  66.4920150   5.1393850  49.0907840
  61.0245630   5.6424370  40.3346620  61.5424300   4.8392630  40.2803510
  60.5729650   5.5803510  41.1763450  65.9115130   6.9090650  35.6073920
  66.2530830   7.6532880  35.1117240  65.0827840   7.2221770  35.9698750
  58.5090170   2.6085740  47.2472320  58.1505110   3.2739590  47.8345660
  58.2144730   1.7769290  47.6184940  61.7103290   3.0669980  50.1311870
  61.4103430   3.2127160  49.2339690  62.4814530   2.5075270  50.0385260
  67.0531740   7.8638980  48.1267000  67.0676280   6.9319940  47.9085910
  66.3456840   7.9498740  48.7656770  72.1868810   2.0478800  34.3965610
  72.1032530   2.4793020  33.5462050  72.9063000   2.5077150  34.8292430
  73.2642950   4.5046320  47.4735580  72.5391140   5.0975100  47.2764970
  73.7918410   4.4969860  46.6748950  73.2156060   8.9021060  37.1247740
  72.5732220   8.2476680  37.3991460  72.8286720   9.3076150  36.3488410
  68.7942540   6.2306490  40.9719430  69.1466360   5.6334620  40.3120800
  67.9104870   5.9050720  41.1427680  64.8805820   6.9904180  38.3789840
  65.5676950   7.5373390  38.7597430  64.0938240   7.5344910  38.4139450
  57.0198220   2.6077000  33.8706920  57.8893070   2.8901800  34.1542840
  56.5288540   3.4212870  33.7555730  64.1833030   3.9950210  37.9915200
  64.6395810   4.8055460  38.2175390  63.8321240   3.6773350  38.8233690
  66.4865640   9.5056550  45.2207500  67.1307860   9.7115930  45.8980920
  66.8495080   8.7444950  44.7678350  67.7597720   7.5088900  43.9384950
  68.4019950   6.8082060  44.0517120  68.2847070   8.2887340  43.7581840
  71.6053440   7.7937520  33.6624090  71.3791020   7.0767960  34.2548730
  71.2149640   7.5449960  32.8245840  69.5335340   8.3083800  47.1421010
  69.8691580   8.8950490  47.8198930  68.6135680   8.1776510  47.3718800
  57.3869470  11.8204380  34.4368550  57.7467110  12.4193720  33.7825820
  57.2461810  12.3664270  35.2103580  71.1869690   5.7109460  35.3238250
  70.8991390   6.1722150  36.1116130  71.9821860   5.2507230  35.5922470
  57.3711330  10.0859240  48.9110950  57.4802450   9.1453980  48.7706340
  56.7191890  10.3513990  48.2624680  65.3623920   8.3575130  50.3109070
  65.0420790   7.6384370  50.8554760  64.6882280   9.0330200  50.3845130
  63.4038090   9.2035580  35.2542220  63.3948190   9.9365270  34.6386730
  62.4836450   8.9567160  35.3469180  59.0044730   4.4250470  35.9988980
  58.3972680   5.1649370  36.0084280  59.4794080   4.5149830  35.1727180
  66.3897690   9.2663820  33.9167410  66.4909670   9.0627810  32.9869390
  65.4899430   9.0122100  34.1215190  65.0315800  11.7850140  38.6115080
  65.2857300  11.7471530  37.6894450  64.0828280  11.6583470  38.6043330
  71.0368380   2.7042020  40.1873590  70.0958520   2.7192250  40.3621280
  71.3512450   1.9177980  40.6333890  61.0150020   4.3861620  33.7477550
  61.7813290   4.2742980  34.3102980  61.0924710   3.6899590  33.0954320
  73.0393960   9.8750870  41.8627850  73.1641380  10.6982040  42.3351660
  73.9059520   9.6641600  41.5152000  60.5111490  11.9682080  41.5344980
  61.2473970  11.4197540  41.8053550  60.8952410  12.8338090  41.3950970
  57.3956970   8.0355650  37.4086490  56.4696750   8.2776790  37.3991900
  57.8613400   8.8629910  37.2871240  59.5169770  11.1528150  50.7230560
  60.3182500  11.4740200  51.1365960  59.0021590  10.7923730  51.4450470
  63.6213800  11.1412390  33.3570550  64.4142410  11.4301220  32.9052340
  63.1018150  10.7104560  32.6783030  68.3534400   7.2608020  50.6705970
  67.7472560   7.2839620  49.9301720  68.0488510   6.5291060  51.2073220
  69.7834770  10.9888310  49.2815380  70.7356520  10.9046330  49.2315620
  69.6362990  11.6530020  49.9549170  72.6743970  10.3682520  34.7807290
  72.3885480   9.9547660  33.9661470  72.4763520  11.2970230  34.6607810
  57.2367580   3.6401610  49.6666610  57.7406600   3.0608890  50.2382840
  56.4975000   3.9241840  50.2042980  64.1391200   6.3615800  33.2212900
  64.0341840   5.7468150  33.9474280  63.9715420   5.8381690  32.4375910
  64.2905520   5.0472600  49.2002130  63.5251190   5.6157600  49.1156800
  64.4721480   4.7548810  48.3070360  67.3793930   5.4235830  33.8254890
  66.8304030   5.8705130  34.4697630  68.0013190   4.9185080  34.3492560
  71.4328870   6.7777930  49.7577150  72.1738340   7.1153690  49.2544610
  70.6701550   6.9469990  49.2046920  63.0469050   4.3826750  35.7220190
  63.4685470   4.2166620  36.5651580  63.1719890   3.5726980  35.2275330
  65.5596690   3.4064360  32.9697290  66.0802350   2.6913380  32.6038440
  66.2065090   4.0450230  33.2697800  70.1074530   4.8292760  48.2932360
  70.5215550   4.9837840  49.1422780  69.1725530   4.9547980  48.4558140
  64.8689760   4.7813240  46.2628290  65.2877870   5.6245970  46.0904530
  63.9498390   4.9185280  46.0335070  67.2053660   2.5129420  47.6466130
  67.3249870   1.9170560  48.3860970  68.0647660   2.5499110  47.2267430
  69.5441560   3.0666610  46.2228640  69.0176780   3.5909230  45.6193780
  69.8872900   3.6994000  46.8538370  62.7197180  11.0866250  47.3786020
  62.1818270  11.8112310  47.0594720  62.9731140  10.6096590  46.5883360
  65.5759390  12.3217460  47.6372670  65.5018090  13.2252600  47.9445040
  64.6738230  12.0029360  47.6094740  66.1244720  11.4875970  35.2599030
  67.0195510  11.8260940  35.2817790  66.1562350  10.7655380  34.6323310
  59.7640880   6.8603020  33.4886030  60.2015750   7.4032690  34.1443610
  60.2488610   6.0349970  33.4982370  56.9786680   9.6492050  40.9406290
  57.3089690   8.7813110  40.7084930  57.4077680   9.8550570  41.7711250
  61.5748600   7.9801060  38.6008260  61.2744140   7.8566030  39.5012170
  61.4686090   7.1209650  38.1923990  57.4676890  10.5162640  43.6787920
  57.0307880  10.6963440  44.5112070  58.0354570  11.2737260  43.5369640
  73.1039070  10.0179640  47.9665230  72.5041060  10.0772200  47.2229150
  73.2332970   9.0784620  48.0962080  74.3440520   7.7597460  33.3034940
  73.5133480   7.8274110  33.7742170  74.5212350   8.6501580  33.0001800
  73.7996980   4.5044940  35.8069140  74.5615890   5.0741590  35.9128830
  73.8151350   3.9372140  36.5777450  57.3001320   3.0282870  40.0376800
  56.6450160   2.7594510  39.3936500  58.1379270   2.9187350  39.5878780
  74.8056950   5.3595040  40.6511070  75.1765780   4.5762360  40.2447040
  75.4458880   6.0484140  40.4728370  71.7890710   6.7431620  46.0641390
  70.9750550   7.1728780  46.3267180  72.1964910   7.3550030  45.4510440
  73.8516150   4.7979310  32.9641660  74.1264990   5.7058190  32.8360880
  73.6626890   4.7341840  33.9003650  73.7481490   2.7348300  37.9571090
  73.3725090   1.9676230  37.5252380  73.0184610   3.1171000  38.4446020
  58.3377250   3.4135440  44.5780140  58.7050290   3.3262840  45.4576160
  57.7688070   2.6501990  44.4787000  71.8466760  11.4950220  39.5909660
  72.4425830  11.1734790  38.9144080  72.1044910  11.0222040  40.3822930
  59.7529330   7.9268130  49.7400290  59.7098960   7.5561040  50.6214750
  59.8840340   8.8645700  49.8802110  63.4535360   9.4827720  45.3410010
  63.2126720   9.7502280  44.4540530  64.3938000   9.6533450  45.3960870
  74.7139520  11.5022100  46.1420650  74.2197800  11.8990970  45.4247780
  74.1052810  10.8771310  46.5357930  59.5917360  10.8730380  46.8598070
  58.9977680  10.7415080  47.5988110  59.5841200  10.0368520  46.3940170
  72.3978970  12.1445520  43.4207390  71.9381940  12.8961330  43.0465410
  71.7691430  11.4251990  43.3622190  59.2229590   8.2388760  45.8106110
  58.4963650   7.6194050  45.7432060  59.2838740   8.6329370  44.9404190
  62.8274690  10.4533760  42.5955520  63.3439710   9.8421120  42.0703780
  63.4772070  10.9562540  43.0866530  65.5670190  11.3442250  43.4224500
  65.8548000  11.0896550  42.5457510  66.0793410  10.7919610  44.0130070
  57.5059590  11.5563150  39.0202870  57.3381630  10.9233830  39.7184760
  56.6394100  11.7622550  38.6697060  59.1122290  10.2496380  36.4653010
  58.5869910  10.6304410  35.7614970  59.0366870  10.8747150  37.1862720
  65.6342550  12.2658350  50.7892700  66.5609860  12.0302620  50.8328660
  65.6192980  13.0930350  50.3078730  73.8687610  11.8083920  37.7866950
  74.0439800  11.1221660  37.1427870  73.1709180  12.3330970  37.3943620
  61.7115260  12.1978760  35.3402260  62.4434080  11.9138040  34.7926150
  61.9708930  11.9592040  36.2301640  60.8730050   8.3143490  35.3448590
  60.2438930   8.7828590  35.8934420  60.9877880   7.4692710  35.7794780
  72.2020110  11.4928210  50.6133740  72.9945430  10.9977440  50.4059700
  72.4953260  12.1718350  51.2209350  66.4597810   4.1428170  23.3759060
  65.6839910   3.6628610  23.6657630  67.1110740   3.4633820  23.2015220
  60.4763640   4.4547980  24.2534820  59.6448520   4.1996690  24.6531330
  61.0844620   4.5258750  24.9892740  70.4805240   8.5488360  22.1558190
  70.0186770   7.7775600  22.4845360  71.2930790   8.5754430  22.6610640
  60.4564900   8.4888070  24.4492840  60.7592940   7.5985810  24.2703060
  61.2008490   9.0458290  24.2215090  66.7068550  10.8346370  21.7762180
  66.0879990  11.2903870  21.2056620  67.5620330  10.9897830  21.3751880
  65.9006800   6.8185360  23.3829220  65.8315080   5.8775300  23.2218350
  66.6626660   6.9086770  23.9551790  67.5731900   5.7185610  19.1694090
  66.9549170   6.1835060  18.6056810  68.0855150   6.4113090  19.5863600
  62.4363660   5.2461480  25.8477690  62.1033040   5.8730400  26.4898760
  62.6130340   5.7723360  25.0679360  61.6482760   7.2142280  27.6626870
  62.2656760   7.8893360  27.3811320  60.7875880   7.6230260  27.5714370
  56.9415100   6.4042140  16.5433720  56.5643080   6.8929240  15.8118620
  57.1988170   7.0767420  17.1740250  72.5660350   8.6781690  25.5781510
  71.8823870   9.3480800  25.5698180  73.1054640   8.8762340  24.8126370
  70.1019090  10.5225820  24.2926690  70.1146250  10.1188110  23.4248950
  69.5494310  11.2973110  24.1888120  71.3964510   7.2442040  19.3816860
  71.2860840   6.3016370  19.5066280  71.3932760   7.6057680  20.2679620
  69.5004530   5.4255660  25.6209300  69.9173320   5.2115770  24.7862760
  70.2244350   5.6828450  26.1917920  66.9384790   2.8707360  18.7379350
  66.0114070   2.8044740  18.9667820  67.0909610   3.8087490  18.6234590
  73.4466630   3.8242880  25.7125540  72.6185260   3.8935970  25.2375670
  74.0417110   4.4097190  25.2441370  70.9682080   4.4327660  19.2414600
  70.3494500   4.0947210  18.5940900  70.9506530   3.7887420  19.9493790
  62.5441430   3.3972100  21.5199080  62.1398430   2.6849350  21.0244980
  62.6304550   3.0525340  22.4087120  63.0123130   7.0839660  23.6838290
  62.7151420   6.4785130  23.0046070  63.9622950   7.1216970  23.5727650
  71.1008740  10.6571530  27.3461390  70.6239300  11.4643720  27.1534000
  70.4170530  10.0049860  27.4987600  62.1041560   6.8221350  30.3346090
  61.2070090   7.0461320  30.5819490  62.1294430   6.9456290  29.3857490
  69.1446780   3.6714470  16.2487350  69.5840060   2.8336900  16.1025170
  69.8575200   4.3043870  16.3351490  60.9312780   3.6934670  28.9103460
  60.7920550   4.5657470  29.2790860  60.0494140   3.3507480  28.7651400
  67.2542160   8.6110540  20.2168590  67.6938070   9.3534870  19.8023980
  67.1929050   8.8537110  21.1407550  62.7293130   9.6356370  31.1188610
  62.7008560  10.0399320  30.2517040  62.5658100   8.7066730  30.9560210
  74.6807950  10.4183470  32.4152780  75.1567670  10.8966360  33.0941860
  75.3015110  10.3500960  31.6898280  56.8831430   5.4632220  24.8274370
  56.9611850   5.5980990  23.8830090  57.4973110   4.7548110  25.0202490
  58.1279060   7.1632410  21.2380550  57.7207140   7.3047000  20.3834150
  59.0192070   6.8792570  21.0351760  74.0841200   7.6096320  29.5752790
  74.2104260   7.3708200  28.6569970  74.1262580   6.7780860  30.0474870
  67.9457940  11.3124320  28.1447600  68.4602610  11.2232330  28.9470030
  67.1027020  11.6584020  28.4375510  69.9212340  11.5979660  17.5731600
  69.7613480  11.3082600  18.4713430  69.7559050  10.8219790  17.0376830
  62.4000720  11.3778190  19.3503220  62.2243200  10.4613730  19.1371020
  61.5456460  11.7365480  19.5901020  69.6238470   9.1067220  16.1329600
  68.9303630   9.1044510  15.4731880  70.3661330   8.6826540  15.7023770
  69.1888400  10.7329930  20.2078090  69.6445350   9.9519310  20.5216710
  69.5280920  11.4436750  20.7519270  56.9390950   6.5046390  27.3668830
  57.1021990   6.0351750  26.5488200  57.4043400   5.9969950  28.0317670
  58.5129930   5.8797820  29.5264640  58.1284720   5.2391490  30.1247600
  58.8242120   6.5833940  30.0959370  64.6627070   2.7274360  25.0073260
  65.0297200   2.2532930  25.7534600  64.4732130   3.6015930  25.3481600
  62.4526440   1.7683000  27.3257470  62.1483510   2.6474980  27.5507830
  63.4072900   1.8282790  27.3614910  60.9808230   5.9743990  17.9224320
  60.2070490   5.4341610  17.7623040  61.7102860   5.4550600  17.5842080
  71.7396210   4.9709350  23.7150710  72.4595330   5.4664640  23.3246820
  71.5378030   4.2927240  23.0704580  67.1215010   5.0418410  29.6019710
  67.0552320   4.1214080  29.3477300  66.4920150   5.1393850  30.3164350
  61.0245630   5.6424370  21.5603130  61.5424300   4.8392630  21.5060020
  60.5729650   5.5803510  22.4019960  65.9115130   6.9090650  16.8330430
  66.2530830   7.6532880  16.3373750  65.0827840   7.2221770  17.1955260
  58.5090170   2.6085740  28.4728830  58.1505110   3.2739590  29.0602170
  58.2144730   1.7769290  28.8441450  61.7103290   3.0669980  31.3568380
  61.4103430   3.2127160  30.4596200  62.4814530   2.5075270  31.2641770
  67.0531740   7.8638980  29.3523510  67.0676280   6.9319940  29.1342420
  66.3456840   7.9498740  29.9913280  72.1868810   2.0478800  15.6222120
  72.1032530   2.4793020  14.7718560  72.9063000   2.5077150  16.0548940
  73.2642950   4.5046320  28.6992090  72.5391140   5.0975100  28.5021480
  73.7918410   4.4969860  27.9005460  73.2156060   8.9021060  18.3504250
  72.5732220   8.2476680  18.6247970  72.8286720   9.3076150  17.5744920
  68.7942540   6.2306490  22.1975940  69.1466360   5.6334620  21.5377310
  67.9104870   5.9050720  22.3684190  64.8805820   6.9904180  19.6046350
  65.5676950   7.5373390  19.9853940  64.0938240   7.5344910  19.6395960
  57.0198220   2.6077000  15.0963430  57.8893070   2.8901800  15.3799350
  56.5288540   3.4212870  14.9812240  64.1833030   3.9950210  19.2171710
  64.6395810   4.8055460  19.4431900  63.8321240   3.6773350  20.0490200
  66.4865640   9.5056550  26.4464010  67.1307860   9.7115930  27.1237430
  66.8495080   8.7444950  25.9934860  67.7597720   7.5088900  25.1641460
  68.4019950   6.8082060  25.2773630  68.2847070   8.2887340  24.9838350
  71.6053440   7.7937520  14.8880600  71.3791020   7.0767960  15.4805240
  71.2149640   7.5449960  14.0502350  69.5335340   8.3083800  28.3677520
  69.8691580   8.8950490  29.0455440  68.6135680   8.1776510  28.5975310
  57.3869470  11.8204380  15.6625060  57.7467110  12.4193720  15.0082330
  57.2461810  12.3664270  16.4360090  71.1869690   5.7109460  16.5494760
  70.8991390   6.1722150  17.3372640  71.9821860   5.2507230  16.8178980
  57.3711330  10.0859240  30.1367460  57.4802450   9.1453980  29.9962850
  56.7191890  10.3513990  29.4881190  65.3623920   8.3575130  31.5365580
  65.0420790   7.6384370  32.0811270  64.6882280   9.0330200  31.6101640
  63.4038090   9.2035580  16.4798730  63.3948190   9.9365270  15.8643240
  62.4836450   8.9567160  16.5725690  59.0044730   4.4250470  17.2245490
  58.3972680   5.1649370  17.2340790  59.4794080   4.5149830  16.3983690
  66.3897690   9.2663820  15.1423920  66.4909670   9.0627810  14.2125900
  65.4899430   9.0122100  15.3471700  65.0315800  11.7850140  19.8371590
  65.2857300  11.7471530  18.9150960  64.0828280  11.6583470  19.8299840
  71.0368380   2.7042020  21.4130100  70.0958520   2.7192250  21.5877790
  71.3512450   1.9177980  21.8590400  61.0150020   4.3861620  14.9734060
  61.7813290   4.2742980  15.5359490  61.0924710   3.6899590  14.3210830
  73.0393960   9.8750870  23.0884360  73.1641380  10.6982040  23.5608170
  73.9059520   9.6641600  22.7408510  60.5111490  11.9682080  22.7601490
  61.2473970  11.4197540  23.0310060  60.8952410  12.8338090  22.6207480
  57.3956970   8.0355650  18.6343000  56.4696750   8.2776790  18.6248410
  57.8613400   8.8629910  18.5127750  59.5169770  11.1528150  31.9487070
  60.3182500  11.4740200  32.3622470  59.0021590  10.7923730  32.6706980
  63.6213800  11.1412390  14.5827060  64.4142410  11.4301220  14.1308850
  63.1018150  10.7104560  13.9039540  68.3534400   7.2608020  31.8962480
  67.7472560   7.2839620  31.1558230  68.0488510   6.5291060  32.4329730
  69.7834770  10.9888310  30.5071890  70.7356520  10.9046330  30.4572130
  69.6362990  11.6530020  31.1805680  72.6743970  10.3682520  16.0063800
  72.3885480   9.9547660  15.1917980  72.4763520  11.2970230  15.8864320
  57.2367580   3.6401610  30.8923120  57.7406600   3.0608890  31.4639350
  56.4975000   3.9241840  31.4299490  64.1391200   6.3615800  14.4469410
  64.0341840   5.7468150  15.1730790  63.9715420   5.8381690  13.6632420
  64.2905520   5.0472600  30.4258640  63.5251190   5.6157600  30.3413310
  64.4721480   4.7548810  29.5326870  67.3793930   5.4235830  15.0511400
  66.8304030   5.8705130  15.6954140  68.0013190   4.9185080  15.5749070
  71.4328870   6.7777930  30.9833660  72.1738340   7.1153690  30.4801120
  70.6701550   6.9469990  30.4303430  63.0469050   4.3826750  16.9476700
  63.4685470   4.2166620  17.7908090  63.1719890   3.5726980  16.4531840
  65.5596690   3.4064360  14.1953800  66.0802350   2.6913380  13.8294950
  66.2065090   4.0450230  14.4954310  70.1074530   4.8292760  29.5188870
  70.5215550   4.9837840  30.3679290  69.1725530   4.9547980  29.6814650
  64.8689760   4.7813240  27.4884800  65.2877870   5.6245970  27.3161040
  63.9498390   4.9185280  27.2591580  67.2053660   2.5129420  28.8722640
  67.3249870   1.9170560  29.6117480  68.0647660   2.5499110  28.4523940
  69.5441560   3.0666610  27.4485150  69.0176780   3.5909230  26.8450290
  69.8872900   3.6994000  28.0794880  62.7197180  11.0866250  28.6042530
  62.1818270  11.8112310  28.2851230  62.9731140  10.6096590  27.8139870
  65.5759390  12.3217460  28.8629180  65.5018090  13.2252600  29.1701550
  64.6738230  12.0029360  28.8351250  66.1244720  11.4875970  16.4855540
  67.0195510  11.8260940  16.5074300  66.1562350  10.7655380  15.8579820
  59.7640880   6.8603020  14.7142540  60.2015750   7.4032690  15.3700120
  60.2488610   6.0349970  14.7238880  56.9786680   9.6492050  22.1662800
  57.3089690   8.7813110  21.9341440  57.4077680   9.8550570  22.9967760
  61.5748600   7.9801060  19.8264770  61.2744140   7.8566030  20.7268680
  61.4686090   7.1209650  19.4180500  57.4676890  10.5162640  24.9044430
  57.0307880  10.6963440  25.7368580  58.0354570  11.2737260  24.7626150
  73.1039070  10.0179640  29.1921740  72.5041060  10.0772200  28.4485660
  73.2332970   9.0784620  29.3218590  74.3440520   7.7597460  14.5291450
  73.5133480   7.8274110  14.9998680  74.5212350   8.6501580  14.2258310
  73.7996980   4.5044940  17.0325650  74.5615890   5.0741590  17.1385340
  73.8151350   3.9372140  17.8033960  57.3001320   3.0282870  21.2633310
  56.6450160   2.7594510  20.6193010  58.1379270   2.9187350  20.8135290
  74.8056950   5.3595040  21.8767580  75.1765780   4.5762360  21.4703550
  75.4458880   6.0484140  21.6984880  71.7890710   6.7431620  27.2897900
  70.9750550   7.1728780  27.5523690  72.1964910   7.3550030  26.6766950
  73.8516150   4.7979310  14.1898170  74.1264990   5.7058190  14.0617390
  73.6626890   4.7341840  15.1260160  73.7481490   2.7348300  19.1827600
  73.3725090   1.9676230  18.7508890  73.0184610   3.1171000  19.6702530
  58.3377250   3.4135440  25.8036650  58.7050290   3.3262840  26.6832670
  57.7688070   2.6501990  25.7043510  71.8466760  11.4950220  20.8166170
  72.4425830  11.1734790  20.1400590  72.1044910  11.0222040  21.6079440
  59.7529330   7.9268130  30.9656800  59.7098960   7.5561040  31.8471260
  59.8840340   8.8645700  31.1058620  63.4535360   9.4827720  26.5666520
  63.2126720   9.7502280  25.6797040  64.3938000   9.6533450  26.6217380
  74.7139520  11.5022100  27.3677160  74.2197800  11.8990970  26.6504290
  74.1052810  10.8771310  27.7614440  59.5917360  10.8730380  28.0854580
  58.9977680  10.7415080  28.8244620  59.5841200  10.0368520  27.6196680
  72.3978970  12.1445520  24.6463900  71.9381940  12.8961330  24.2721920
  71.7691430  11.4251990  24.5878700  59.2229590   8.2388760  27.0362620
  58.4963650   7.6194050  26.9688570  59.2838740   8.6329370  26.1660700
  62.8274690  10.4533760  23.8212030  63.3439710   9.8421120  23.2960290
  63.4772070  10.9562540  24.3123040  65.5670190  11.3442250  24.6481010
  65.8548000  11.0896550  23.7714020  66.0793410  10.7919610  25.2386580
  57.5059590  11.5563150  20.2459380  57.3381630  10.9233830  20.9441270
  56.6394100  11.7622550  19.8953570  59.1122290  10.2496380  17.6909520
  58.5869910  10.6304410  16.9871480  59.0366870  10.8747150  18.4119230
  65.6342550  12.2658350  32.0149210  66.5609860  12.0302620  32.0585170
  65.6192980  13.0930350  31.5335240  73.8687610  11.8083920  19.0123460
  74.0439800  11.1221660  18.3684380  73.1709180  12.3330970  18.6200130
  61.7115260  12.1978760  16.5658770  62.4434080  11.9138040  16.0182660
  61.9708930  11.9592040  17.4558150  60.8730050   8.3143490  16.5705100
  60.2438930   8.7828590  17.1190930  60.9877880   7.4692710  17.0051290
  72.2020110  11.4928210  31.8390250  72.9945430  10.9977440  31.6316210
  72.4953260  12.1718350  32.4465860  66.4597810   4.1428170   4.6015570
  65.6839910   3.6628610   4.8914140  67.1110740   3.4633820   4.4271730
  60.4763640   4.4547980   5.4791330  59.6448520   4.1996690   5.8787840
  61.0844620   4.5258750   6.2149250  70.4805240   8.5488360   3.3814700
  70.0186770   7.7775600   3.7101870  71.2930790   8.5754430   3.8867150
  60.4564900   8.4888070   5.6749350  60.7592940   7.5985810   5.4959570
  61.2008490   9.0458290   5.4471600  66.7068550  10.8346370   3.0018690
  66.0879990  11.2903870   2.4313130  67.5620330  10.9897830   2.6008390
  65.9006800   6.8185360   4.6085730  65.8315080   5.8775300   4.4474860
  66.6626660   6.9086770   5.1808300  62.4363660   5.2461480   7.0734200
  62.1033040   5.8730400   7.7155270  62.6130340   5.7723360   6.2935870
  61.6482760   7.2142280   8.8883380  62.2656760   7.8893360   8.6067830
  60.7875880   7.6230260   8.7970880  72.5660350   8.6781690   6.8038020
  71.8823870   9.3480800   6.7954690  73.1054640   8.8762340   6.0382880
  70.1019090  10.5225820   5.5183200  70.1146250  10.1188110   4.6505460
  69.5494310  11.2973110   5.4144630  69.5004530   5.4255660   6.8465810
  69.9173320   5.2115770   6.0119270  70.2244350   5.6828450   7.4174430
  73.4466630   3.8242880   6.9382050  72.6185260   3.8935970   6.4632180
  74.0417110   4.4097190   6.4697880  62.5441430   3.3972100   2.7455590
  62.1398430   2.6849350   2.2501490  62.6304550   3.0525340   3.6343630
  63.0123130   7.0839660   4.9094800  62.7151420   6.4785130   4.2302580
  63.9622950   7.1216970   4.7984160  71.1008740  10.6571530   8.5717900
  70.6239300  11.4643720   8.3790510  70.4170530  10.0049860   8.7244110
  62.1041560   6.8221350  11.5602600  61.2070090   7.0461320  11.8076000
  62.1294430   6.9456290  10.6114000  60.9312780   3.6934670  10.1359970
  60.7920550   4.5657470  10.5047370  60.0494140   3.3507480   9.9907910
  62.7293130   9.6356370  12.3445120  62.7008560  10.0399320  11.4773550
  62.5658100   8.7066730  12.1816720  74.6807950  10.4183470  13.6409290
  75.1567670  10.8966360  14.3198370  75.3015110  10.3500960  12.9154790
  56.8831430   5.4632220   6.0530880  56.9611850   5.5980990   5.1086600
  57.4973110   4.7548110   6.2459000  58.1279060   7.1632410   2.4637060
  57.7207140   7.3047000   1.6090660  59.0192070   6.8792570   2.2608270
  74.0841200   7.6096320  10.8009300  74.2104260   7.3708200   9.8826480
  74.1262580   6.7780860  11.2731380  67.9457940  11.3124320   9.3704110
  68.4602610  11.2232330  10.1726540  67.1027020  11.6584020   9.6632020
  56.9390950   6.5046390   8.5925340  57.1021990   6.0351750   7.7744710
  57.4043400   5.9969950   9.2574180  58.5129930   5.8797820  10.7521150
  58.1284720   5.2391490  11.3504110  58.8242120   6.5833940  11.3215880
  64.6627070   2.7274360   6.2329770  65.0297200   2.2532930   6.9791110
  64.4732130   3.6015930   6.5738110  62.4526440   1.7683000   8.5513980
  62.1483510   2.6474980   8.7764340  63.4072900   1.8282790   8.5871420
  71.7396210   4.9709350   4.9407220  72.4595330   5.4664640   4.5503330
  71.5378030   4.2927240   4.2961090  67.1215010   5.0418410  10.8276220
  67.0552320   4.1214080  10.5733810  66.4920150   5.1393850  11.5420860
  61.0245630   5.6424370   2.7859640  61.5424300   4.8392630   2.7316530
  60.5729650   5.5803510   3.6276470  58.5090170   2.6085740   9.6985340
  58.1505110   3.2739590  10.2858680  58.2144730   1.7769290  10.0697960
  61.7103290   3.0669980  12.5824890  61.4103430   3.2127160  11.6852710
  62.4814530   2.5075270  12.4898280  67.0531740   7.8638980  10.5780020
  67.0676280   6.9319940  10.3598930  66.3456840   7.9498740  11.2169790
  73.2642950   4.5046320   9.9248600  72.5391140   5.0975100   9.7277990
  73.7918410   4.4969860   9.1261970  68.7942540   6.2306490   3.4232450
  69.1466360   5.6334620   2.7633820  67.9104870   5.9050720   3.5940700
  66.4865640   9.5056550   7.6720520  67.1307860   9.7115930   8.3493940
  66.8495080   8.7444950   7.2191370  67.7597720   7.5088900   6.3897970
  68.4019950   6.8082060   6.5030140  68.2847070   8.2887340   6.2094860
  69.5335340   8.3083800   9.5934030  69.8691580   8.8950490  10.2711950
  68.6135680   8.1776510   9.8231820  57.3711330  10.0859240  11.3623970
  57.4802450   9.1453980  11.2219360  56.7191890  10.3513990  10.7137700
  65.3623920   8.3575130  12.7622090  65.0420790   7.6384370  13.3067780
  64.6882280   9.0330200  12.8358150  71.0368380   2.7042020   2.6386610
  70.0958520   2.7192250   2.8134300  71.3512450   1.9177980   3.0846910
  73.0393960   9.8750870   4.3140870  73.1641380  10.6982040   4.7864680
  73.9059520   9.6641600   3.9665020  60.5111490  11.9682080   3.9858000
  61.2473970  11.4197540   4.2566570  60.8952410  12.8338090   3.8463990
  59.5169770  11.1528150  13.1743580  60.3182500  11.4740200  13.5878980
  59.0021590  10.7923730  13.8963490  68.3534400   7.2608020  13.1218990
  67.7472560   7.2839620  12.3814740  68.0488510   6.5291060  13.6586240
  69.7834770  10.9888310  11.7328400  70.7356520  10.9046330  11.6828640
  69.6362990  11.6530020  12.4062190  57.2367580   3.6401610  12.1179630
  57.7406600   3.0608890  12.6895860  56.4975000   3.9241840  12.6556000
  64.2905520   5.0472600  11.6515150  63.5251190   5.6157600  11.5669820
  64.4721480   4.7548810  10.7583380  71.4328870   6.7777930  12.2090170
  72.1738340   7.1153690  11.7057630  70.6701550   6.9469990  11.6559940
  70.1074530   4.8292760  10.7445380  70.5215550   4.9837840  11.5935800
  69.1725530   4.9547980  10.9071160  64.8689760   4.7813240   8.7141310
  65.2877870   5.6245970   8.5417550  63.9498390   4.9185280   8.4848090
  67.2053660   2.5129420  10.0979150  67.3249870   1.9170560  10.8373990
  68.0647660   2.5499110   9.6780450  69.5441560   3.0666610   8.6741660
  69.0176780   3.5909230   8.0706800  69.8872900   3.6994000   9.3051390
  62.7197180  11.0866250   9.8299040  62.1818270  11.8112310   9.5107740
  62.9731140  10.6096590   9.0396380  65.5759390  12.3217460  10.0885690
  65.5018090  13.2252600  10.3958060  64.6738230  12.0029360  10.0607760
  56.9786680   9.6492050   3.3919310  57.3089690   8.7813110   3.1597950
  57.4077680   9.8550570   4.2224270  57.4676890  10.5162640   6.1300940
  57.0307880  10.6963440   6.9625090  58.0354570  11.2737260   5.9882660
  73.1039070  10.0179640  10.4178250  72.5041060  10.0772200   9.6742170
  73.2332970   9.0784620  10.5475100  57.3001320   3.0282870   2.4889820
  56.6450160   2.7594510   1.8449520  58.1379270   2.9187350   2.0391800
  74.8056950   5.3595040   3.1024090  75.1765780   4.5762360   2.6960060
  75.4458880   6.0484140   2.9241390  71.7890710   6.7431620   8.5154410
  70.9750550   7.1728780   8.7780200  72.1964910   7.3550030   7.9023460
  58.3377250   3.4135440   7.0293160  58.7050290   3.3262840   7.9089180
  57.7688070   2.6501990   6.9300020  59.7529330   7.9268130  12.1913310
  59.7098960   7.5561040  13.0727770  59.8840340   8.8645700  12.3315130
  63.4535360   9.4827720   7.7923030  63.2126720   9.7502280   6.9053550
  64.3938000   9.6533450   7.8473890  74.7139520  11.5022100   8.5933670
  74.2197800  11.8990970   7.8760800  74.1052810  10.8771310   8.9870950
  59.5917360  10.8730380   9.3111090  58.9977680  10.7415080  10.0501130
  59.5841200  10.0368520   8.8453190  72.3978970  12.1445520   5.8720410
  71.9381940  12.8961330   5.4978430  71.7691430  11.4251990   5.8135210
  59.2229590   8.2388760   8.2619130  58.4963650   7.6194050   8.1945080
  59.2838740   8.6329370   7.3917210  62.8274690  10.4533760   5.0468540
  63.3439710   9.8421120   4.5216800  63.4772070  10.9562540   5.5379550
  65.5670190  11.3442250   5.8737520  65.8548000  11.0896550   4.9970530
  66.0793410  10.7919610   6.4643090  65.6342550  12.2658350  13.2405720
  66.5609860  12.0302620  13.2841680  65.6192980  13.0930350  12.7591750
  72.2020110  11.4928210  13.0646760  72.9945430  10.9977440  12.8572720
  72.4953260  12.1718350  13.6722370  49.5536280  96.2366600  77.8180260
  49.4730330  95.3221210  77.5471970  49.1400700  96.7333670  77.1119970
  47.6854320  98.0145620  79.6989530  46.9096420  97.5346060  79.9888100
  48.3367250  97.3351270  79.5245690  41.7020150  98.3265430  80.5765290
  40.8705030  98.0714140  80.9761800  42.3101130  98.3976200  81.3123210
  40.1112100  93.2867320  74.3607680  39.2228800  93.6283290  74.2587560
  40.3953290  93.0867640  73.4688510  38.0745110  95.8872970  80.2447380
  38.6461220  95.1195170  80.2451020  38.0746650  96.1861730  79.3353990
  48.1568480  93.4973190  79.9328620  48.5333300  92.6245070  79.8202290
  48.0587990  93.8331890  79.0419060  42.2873490  91.8698820  75.3946060
  42.3940240  92.7702550  75.7014820  41.3765850  91.8216790  75.1040710
  51.9392600  90.9923630  76.8656960  52.7602220  90.5020200  76.9082440
  51.9726680  91.5821290  77.6188800  39.9356650  93.7917830  80.6398650
  40.6166760  94.0556200  81.2586050  39.6204700  92.9518700  80.9736660
  44.1281220  94.8385190  79.7271240  44.6359440  95.3366160  80.3676260
  44.6594460  94.0620390  79.5510600  52.1754080  92.9324010  79.6384500
  51.4709650  93.2208900  80.2187610  52.5366240  93.7424120  79.2784060
  42.0932650  91.1893710  82.0005110  42.4349460  92.0335760  81.7058980
  41.1548460  91.3377450  82.1170450  55.2441000  92.3778800  80.0293710
  54.2965910  92.4117780  80.1609140  55.5690990  93.1917750  80.4143070
  45.7760540  88.6775980  78.3249700  46.0835520  88.1222870  77.6085200
  44.8461240  88.8120440  78.1422690  48.1641300  96.7424810  75.0609820
  47.2370580  96.6762190  75.2898290  48.3166120  97.6804940  74.9465060
  48.1510380  93.0141810  72.0576980  47.2114050  93.1755770  72.1429440
  48.4693640  93.7327490  71.5112970  54.6723140  97.6960330  82.0356010
  53.8441770  97.7653420  81.5606140  55.2673620  98.2814640  81.5671840
  52.1938590  98.3045110  75.5645070  51.5751010  97.9664660  74.9171370
  52.1763040  97.6604870  76.2724260  43.7697940  97.2689550  77.8429550
  43.3654940  96.5566800  77.3475450  43.8561060  96.9242790  78.7317590
  50.3703290  97.5431920  72.5717820  50.8096570  96.7054350  72.4255640
  51.0831710  98.1761320  72.6581960  53.9520430  88.7974730  70.8858860
  53.6393090  88.8901560  71.7857930  54.7132900  89.3755760  70.8356290
  40.4702570  96.1634530  75.3436200  40.3500170  96.8896620  74.7317470
  40.1603460  95.3937440  74.8664110  42.9366230  89.5069600  78.7259870
  42.4934380  90.2879140  78.3944390  43.4951220  89.8299490  79.4330810
  46.0525050  89.1280300  73.6065700  45.4279230  89.1240170  74.3319010
  45.9655170  88.2611260  73.2101670  44.9742130  90.0516930  80.5849470
  45.2714460  90.9579760  80.5041490  45.5227690  89.5635710  79.9709040
  42.7280450  94.6303170  76.4541120  42.5021370  94.4140340  77.3587740
  41.9472980  95.0631630  76.1087090  49.9578210  94.6366540  75.0531770
  49.3587100  95.3602340  74.8695390  50.5057820  94.5743320  74.2708220
  48.5643080  93.2730080  77.0835050  48.9572650  93.5902280  76.2703740
  48.9259930  92.3941960  77.1979570  37.6007250  89.8630880  79.3065250
  37.3120300  90.4333740  80.0190230  38.3453010  89.3835330  79.6696480
  37.7877480  93.8051000  70.5167970  37.7052150  94.7481760  70.6582960
  37.4360540  93.6625910  69.6380320  49.1498220  95.8635830  81.1785830
  48.4179340  96.3722640  81.5275930  48.7522560  95.0465810  80.8774610
  45.5875610  92.5390030  79.5838320  45.5911670  92.0979980  78.7342860
  46.4826730  92.8607360  79.6910140  41.4377990  92.4216520  78.5432530
  41.0978040  92.8991750  79.2999580  40.6755310  91.9681640  78.1833630
  45.6495760  93.5402110  72.5745080  45.7708580  93.4988590  73.5230900
  45.2644270  94.4026260  72.4191810  49.6124130  91.3169510  80.5908770
  49.6296870  91.7678160  81.4350620  49.3639710  90.4175150  80.8042210
  44.6617260  95.8503250  71.9728380  44.0934160  95.4021500  71.3464290
  45.3706260  96.2096030  71.4393530  45.8883580  96.5991810  81.3303730
  46.2553710  96.1250380  82.0765070  45.6988640  97.4733380  81.6712070
  38.7524070  91.3435500  77.4597200  38.4670990  90.9791170  78.2975820
  38.6902930  90.6115960  76.8460340  48.4262660  90.2364760  74.1810570
  47.6127270  89.7377930  74.1055880  48.2324610  91.0763010  73.7646920
  51.1411050  94.6084410  72.4772730  52.0290670  94.9201640  72.3024070
  51.1116140  93.7356660  72.0853310  53.4125320  95.9196250  71.9452590
  53.3289040  96.3510470  71.0949030  54.1319510  96.3794600  72.3779410
  38.2454730  96.4794450  71.4193900  39.1149580  96.7619250  71.7029820
  37.7545050  97.2930320  71.3042710  41.3101320  88.2105310  76.0124700
  41.1815950  88.2023210  76.9609620  40.4863340  88.5488400  75.6615710
  53.1696060  91.4175680  74.0320410  52.5409220  91.5221350  73.3178640
  52.6747980  91.6372460  74.8214290  45.1380090  93.6961630  75.4478290
  44.4296240  94.1647970  75.8891900  45.4224570  93.0383640  76.0823480
  49.1695520  90.4212290  76.8874080  49.0463300  90.4398420  75.9383590
  50.1180080  90.4691230  77.0072480  43.3415110  92.0046710  72.8229000
  44.1905640  92.4416860  72.7569190  42.9746380  92.3166970  73.6501060
  52.2624890  96.5759470  77.7360570  51.3215030  96.5909700  77.9108260
  52.5768960  95.7895430  78.1820870  42.2406530  98.2579070  71.2964530
  43.0069800  98.1460430  71.8589960  42.3181220  97.5617040  70.6441300
  40.9353290  95.6904140  71.9797420  41.0156880  94.7431650  72.0914820
  41.8273040  96.0211020  72.0858080  44.2725560  98.2544200  73.2707170
  44.6941980  98.0884070  74.1138560  44.3976400  97.4444430  72.7762310
  46.7853200  97.2781810  70.5184270  47.3058860  96.5630830  70.1525420
  47.4321600  97.9167680  70.8184780  43.1684460  94.3277430  70.2165330
  42.9673520  93.4644790  70.5778670  42.9976510  94.2410790  69.2786930
  50.6472770  89.1385660  72.7452210  50.9275060  88.2953560  73.1011630
  49.8738500  89.3708770  73.2590960  41.9667260  91.4278050  70.2043210
  42.2693160  91.4345480  69.2962360  42.7061850  91.0775910  70.7010870
  45.1852190  90.3712670  71.1899410  44.8374190  89.6936660  70.6101860
  45.3864960  89.9102180  72.0042800  38.5257830  96.9000320  77.5863780
  37.8706670  96.6311960  76.9423480  39.3635780  96.7904800  77.1365760
  51.4748270  91.6941610  71.8082270  51.8933150  91.5072590  70.9678930
  51.1684330  90.8420660  72.1185200  54.9738000  96.6065750  75.5058070
  54.5981600  95.8393680  75.0739360  54.2441120  96.9888450  75.9933000
  37.7395910  94.1099250  73.5289110  36.8359990  94.3729450  73.3540770
  38.2236530  94.3810420  72.7489070  54.2488960  94.8323240  78.8065310
  54.7726440  94.3385890  78.1755480  54.8348380  94.9673600  79.5512880
  40.2823120  93.1664790  71.4383490  40.9914820  92.7448010  70.9530770
  39.5663060  93.2340020  70.8066840  39.9297280  89.2204120  70.4786140
  40.6525410  89.7613060  70.7967360  40.2021800  88.9467540  69.6027680
  53.7388930  94.0896590  74.7457720  54.2348050  93.8567460  75.5306600
  53.5405000  93.2508430  74.3295360  39.6189470  88.4710310  80.3808760
  40.2665660  87.9207690  79.9403920  40.0391310  88.7253460  81.2024570
  55.1676090  92.7257540  77.2795400  55.0575370  92.5713580  78.2177670
  55.9283680  92.1978480  77.0370810  56.0566360  90.5565460  70.5201540
  56.9815670  90.4246640  70.3119830  56.0342150  90.6358280  71.4737990
  56.1304850  91.3276120  73.1458250  55.3356350  91.2621240  73.6751160
  56.3348130  92.2626760  73.1343600  48.0103710  88.9549900  81.5507990
  47.2275500  89.4295400  81.8304750  47.7166640  88.0504730  81.4421170
  52.5624780  89.6573000  79.5957080  53.0032870  89.6018100  78.7478680
  52.2932370  90.5731010  79.6667260  54.4263350  89.2888240  77.6065900
  54.3651750  88.3449460  77.4596920  55.2055380  89.3968330  78.1519360
  39.3544120  89.2597380  74.0721710  40.1123480  89.3726260  73.4985740
  38.8921290  90.0966580  74.0265140  45.8957930  91.3736650  77.0624020
  45.0832440  90.9993540  76.7219900  46.3999570  90.6181730  77.3645210
  50.3982910  88.0379100  78.3007090  51.0012280  88.6099310  78.7755610
  49.6575900  88.6018540  78.0780990  53.5417510  88.4400660  73.5747370
  53.7368140  89.3384110  73.8414800  52.7547380  88.2087740  74.0680320
  41.7269270  89.7861430  72.6123680  42.2562030  88.9991230  72.4831630
  42.3597590  90.4652620  72.8459210  43.9207110  89.5236570  75.6669070
  43.2909850  88.8223880  75.8339200  43.3812250  90.2840700  75.4502230
  49.5536280  96.2366600  59.0436770  49.4730330  95.3221210  58.7728480
  49.1400700  96.7333670  58.3376480  47.6854320  98.0145620  60.9246040
  46.9096420  97.5346060  61.2144610  48.3367250  97.3351270  60.7502200
  41.7020150  98.3265430  61.8021800  40.8705030  98.0714140  62.2018310
  42.3101130  98.3976200  62.5379720  40.1112100  93.2867320  55.5864190
  39.2228800  93.6283290  55.4844070  40.3953290  93.0867640  54.6945020
  38.0745110  95.8872970  61.4703890  38.6461220  95.1195170  61.4707530
  38.0746650  96.1861730  60.5610500  39.3169980  91.2957330  63.2572820
  39.1372820  90.3983080  63.5375580  38.9150060  91.8429200  63.9319770
  48.1568480  93.4973190  61.1585130  48.5333300  92.6245070  61.0458800
  48.0587990  93.8331890  60.2675570  42.2873490  91.8698820  56.6202570
  42.3940240  92.7702550  56.9271330  41.3765850  91.8216790  56.3297220
  51.9392600  90.9923630  58.0913470  52.7602220  90.5020200  58.1338950
  51.9726680  91.5821290  58.8445310  39.9356650  93.7917830  61.8655160
  40.6166760  94.0556200  62.4842560  39.6204700  92.9518700  62.1993170
  44.1281220  94.8385190  60.9527750  44.6359440  95.3366160  61.5932770
  44.6594460  94.0620390  60.7767110  56.2292150  93.0090380  64.6557100
  55.5244320  93.3972090  64.1372210  56.4950070  93.7040670  65.2578030
  42.4117320  89.4783750  65.2191170  42.4135760  89.9956140  64.4137070
  41.5821630  89.0013930  65.1961100  52.1754080  92.9324010  60.8641010
  51.4709650  93.2208900  61.4444120  52.5366240  93.7424120  60.5040570
  42.0932650  91.1893710  63.2261620  42.4349460  92.0335760  62.9315490
  41.1548460  91.3377450  63.3426960  55.2441000  92.3778800  61.2550220
  54.2965910  92.4117780  61.3865650  55.5690990  93.1917750  61.6399580
  45.7760540  88.6775980  59.5506210  46.0835520  88.1222870  58.8341710
  44.8461240  88.8120440  59.3679200  48.1641300  96.7424810  56.2866330
  47.2370580  96.6762190  56.5154800  48.3166120  97.6804940  56.1721570
  48.1510380  93.0141810  53.2833490  47.2114050  93.1755770  53.3685950
  48.4693640  93.7327490  52.7369480  54.6723140  97.6960330  63.2612520
  53.8441770  97.7653420  62.7862650  55.2673620  98.2814640  62.7928350
  52.1938590  98.3045110  56.7901580  51.5751010  97.9664660  56.1427880
  52.1763040  97.6604870  57.4980770  51.6365150  94.4829650  64.2067390
  51.2236330  95.3083360  64.4607380  50.9041100  93.8974690  64.0143750
  43.7697940  97.2689550  59.0686060  43.3654940  96.5566800  58.5731960
  43.8561060  96.9242790  59.9574100  42.4826560  94.0432760  62.8485100
  43.0341150  94.1528100  62.0738350  42.9970070  94.4170360  63.5640330
  50.3703290  97.5431920  53.7974330  50.8096570  96.7054350  53.6512150
  51.0831710  98.1761320  53.8838470  42.1569290  97.5652120  66.4590440
  42.0177060  98.4374920  66.8277840  41.2750650  97.2224930  66.3138380
  53.9520430  88.7974730  52.1115370  53.6393090  88.8901560  53.0114440
  54.7132900  89.3755760  52.0612800  40.4702570  96.1634530  56.5692710
  40.3500170  96.8896620  55.9573980  40.1603460  95.3937440  56.0920620
  55.1621720  93.5346230  68.0889510  54.5465990  94.0425900  67.5604970
  54.8418140  92.6344560  68.0315450  42.9366230  89.5069600  59.9516380
  42.4934380  90.2879140  59.6200900  43.4951220  89.8299490  60.6587320
  47.2236040  92.3738120  65.5551700  46.7615410  92.5821140  66.3671640
  46.8214150  91.5597470  65.2522370  52.2240550  93.5947070  66.6848360
  51.3734140  93.2952820  67.0057430  52.0642340  93.8389080  65.7732180
  49.3190260  95.0948820  68.7847150  49.6443670  94.2612570  68.4449380
  50.1070590  95.6177340  68.9325480  46.0525050  89.1280300  54.8322210
  45.4279230  89.1240170  55.5575520  45.9655170  88.2611260  54.4358180
  44.9742130  90.0516930  61.8105980  45.2714460  90.9579760  61.7298000
  45.5227690  89.5635710  61.1965550  42.7280450  94.6303170  57.6797630
  42.5021370  94.4140340  58.5844250  41.9472980  95.0631630  57.3343600
  49.9578210  94.6366540  56.2788280  49.3587100  95.3602340  56.0951900
  50.5057820  94.5743320  55.4964730  45.1679660  95.5288750  68.3457900
  45.0723260  94.5883480  68.1958300  46.0111640  95.7503820  67.9505970
  48.5643080  93.2730080  58.3091560  48.9572650  93.5902280  57.4960250
  48.9259930  92.3941960  58.4236080  40.2990200  91.9402420  66.4991680
  39.9053590  92.7877630  66.7064460  39.6108600  91.3028790  66.6900320
  46.8735250  92.0237390  69.5688420  46.1833570  91.8309590  70.2034510
  47.6167550  92.3072030  70.1012720  37.6007250  89.8630880  60.5321760
  37.3120300  90.4333740  61.2446740  38.3453010  89.3835330  60.8952990
  37.7877480  93.8051000  51.7424480  37.7052150  94.7481760  51.8839470
  37.4360540  93.6625910  50.8636830  49.1498220  95.8635830  62.4042340
  48.4179340  96.3722640  62.7532440  48.7522560  95.0465810  62.1031120
  45.5875610  92.5390030  60.8094830  45.5911670  92.0979980  59.9599370
  46.4826730  92.8607360  60.9166650  41.4377990  92.4216520  59.7689040
  41.0978040  92.8991750  60.5256090  40.6755310  91.9681640  59.4090140
  45.6495760  93.5402110  53.8001590  45.7708580  93.4988590  54.7487410
  45.2644270  94.4026260  53.6448320  49.6124130  91.3169510  61.8165280
  49.6296870  91.7678160  62.6607130  49.3639710  90.4175150  62.0298720
  44.6617260  95.8503250  53.1984890  44.0934160  95.4021500  52.5720800
  45.3706260  96.2096030  52.6650040  53.0394880  88.7301690  67.6551660
  53.3640650  87.9991350  68.1809640  53.0751390  88.4115330  66.7532650
  45.8883580  96.5991810  62.5560240  46.2553710  96.1250380  63.3021580
  45.6988640  97.4733380  62.8968580  38.7524070  91.3435500  58.6853710
  38.4670990  90.9791170  59.5232330  38.6902930  90.6115960  58.0716850
  43.6782950  95.6400450  64.8744450  43.3740020  96.5192430  65.0994810
  44.6329410  95.7000240  64.9101890  48.4262660  90.2364760  55.4067080
  47.6127270  89.7377930  55.3312390  48.2324610  91.0763010  54.9903430
  51.1411050  94.6084410  53.7029240  52.0290670  94.9201640  53.5280580
  51.1116140  93.7356660  53.3109820  39.7346680  96.4803190  66.0215810
  39.3761620  97.1457040  66.6089150  39.4401240  95.6486740  66.3928430
  42.9359800  96.9387430  68.9055360  42.6359940  97.0844610  68.0083180
  43.7071040  96.3792720  68.8128750  53.4125320  95.9196250  53.1709100
  53.3289040  96.3510470  52.3205540  54.1319510  96.3794600  53.6035920
  38.2454730  96.4794450  52.6450410  39.1149580  96.7619250  52.9286330
  37.7545050  97.2930320  52.5299220  41.3101320  88.2105310  57.2381210
  41.1815950  88.2023210  58.1866130  40.4863340  88.5488400  56.8872220
  38.3095250  89.9696430  66.6987910  37.5953770  90.1693350  67.3040520
  38.7290290  89.1936000  67.0702710  49.8034030  92.4618740  64.4489360
  50.1714850  91.6413950  64.7768930  48.9432230  92.5220630  64.8645010
  53.1696060  91.4175680  55.2576920  52.5409220  91.5221350  54.5435150
  52.6747980  91.6372460  56.0470800  45.1380090  93.6961630  56.6734800
  44.4296240  94.1647970  57.1148410  45.4224570  93.0383640  57.3079990
  46.7636020  95.1158330  64.6727330  47.2621270  95.5904150  65.3379180
  46.9058970  94.1921850  64.8797360  49.1695520  90.4212290  58.1130590
  49.0463300  90.4398420  57.1640100  50.1180080  90.4691230  58.2328990
  43.3415110  92.0046710  54.0485510  44.1905640  92.4416860  53.9825700
  42.9746380  92.3166970  54.8757570  53.9702880  91.3326290  65.5155720
  53.4676480  92.0731690  65.8549530  54.7859540  91.7210290  65.1992510
  52.2624890  96.5759470  58.9617080  51.3215030  96.5909700  59.1364770
  52.5768960  95.7895430  59.4077380  42.2406530  98.2579070  52.5221040
  43.0069800  98.1460430  53.0846470  42.3181220  97.5617040  51.8697810
  40.9353290  95.6904140  53.2053930  41.0156880  94.7431650  53.3171330
  41.8273040  96.0211020  53.3114590  38.4624090  97.5119060  68.4410100
  38.9663110  96.9326340  69.0126330  37.7231510  97.7959290  68.9786470
  40.4947170  95.6548650  69.3360170  40.5352510  95.3562520  70.2445400
  41.3492670  96.0556260  69.1767690  44.2725560  98.2544200  54.4963680
  44.6941980  98.0884070  55.3395070  44.3976400  97.4444430  54.0018820
  42.4352980  94.2340750  67.3034660  41.9049440  93.7431700  66.6758000
  43.1041050  94.6624950  66.7692590  46.7853200  97.2781810  51.7440780
  47.3058860  96.5630830  51.3781930  47.4321600  97.9167680  52.0441290
  51.8053210  96.0406370  69.0715000  52.3873980  95.2858690  68.9835480
  51.9814980  96.5713810  68.2946480  42.9225280  91.2003120  67.3831950
  42.8282150  90.5823870  66.6582820  42.3422670  91.9269410  67.1561860
  45.6886720  89.7576360  64.4159340  45.2404020  89.7800620  63.5704890
  45.0551920  89.3595380  65.0129640  48.4310170  96.3846870  66.4209620
  48.5506380  95.7888010  67.1604460  49.2904170  96.4216560  66.0010920
  50.7698070  96.9384060  64.9972130  50.2433290  97.4626680  64.3937270
  51.1129410  97.5711450  65.6281860  43.1684460  94.3277430  51.4421840
  42.9673520  93.4644790  51.8035180  42.9976510  94.2410790  50.5043440
  45.1978940  92.9268220  67.6785440  45.7878630  92.6184070  68.3663260
  44.3799180  92.4547970  67.8345340  50.0172370  92.5434030  67.9118460
  49.3287890  91.8815570  67.8468450  50.7378390  92.0972300  68.3566920
  50.6472770  89.1385660  53.9708720  50.9275060  88.2953560  54.3268140
  49.8738500  89.3708770  54.4847470  41.9667260  91.4278050  51.4299720
  42.2693160  91.4345480  50.5218870  42.7061850  91.0775910  51.9267380
  45.1852190  90.3712670  52.4155920  44.8374190  89.6936660  51.8358370
  45.3864960  89.9102180  53.2299310  38.5257830  96.9000320  58.8120290
  37.8706670  96.6311960  58.1679990  39.3635780  96.7904800  58.3622270
  51.4748270  91.6941610  53.0338780  51.8933150  91.5072590  52.1935440
  51.1684330  90.8420660  53.3441710  54.9738000  96.6065750  56.7314580
  54.5981600  95.8393680  56.2995870  54.2441120  96.9888450  57.2189510
  39.5633760  97.2852890  63.3523630  39.9306800  97.1980290  64.2319650
  38.9944580  96.5219440  63.2530490  54.3637620  95.7537270  66.3654100
  54.1323710  95.5250020  65.4652050  54.6242170  96.6736820  66.3198990
  39.1149760  94.1961980  67.2582050  38.2205810  94.1628740  67.5975760
  39.6547310  94.3948770  68.0233300  52.8025690  90.9793700  69.1433800
  53.6795870  90.9877100  69.5267800  52.8146530  90.2424540  68.5326150
  37.7395910  94.1099250  54.7545620  36.8359990  94.3729450  54.5797280
  38.2236530  94.3810420  53.9745580  54.2488960  94.8323240  60.0321820
  54.7726440  94.3385890  59.4011990  54.8348380  94.9673600  60.7769390
  54.4278680  94.9163110  63.5541370  53.4781390  94.8826650  63.6686360
  54.6091690  95.8263220  63.3191140  40.2823120  93.1664790  52.6640000
  40.9914820  92.7448010  52.1787280  39.5663060  93.2340020  52.0323350
  39.9297280  89.2204120  51.7042650  40.6525410  89.7613060  52.0223870
  40.2021800  88.9467540  50.8284190  53.7388930  94.0896590  55.9714230
  54.2348050  93.8567460  56.7563110  53.5405000  93.2508430  55.5551870
  39.6189470  88.4710310  61.6065270  40.2665660  87.9207690  61.1660430
  40.0391310  88.7253460  62.4281080  55.1676090  92.7257540  58.5051910
  55.0575370  92.5713580  59.4434180  55.9283680  92.1978480  58.2627320
  53.5141810  88.6651670  64.9634910  54.1514030  89.2785810  65.3294100
  53.6616700  88.7012330  64.0184140  56.0566360  90.5565460  51.7458050
  56.9815670  90.4246640  51.5376340  56.0342150  90.6358280  52.6994500
  56.1304850  91.3276120  54.3714760  55.3356350  91.2621240  54.9007670
  56.3348130  92.2626760  54.3600110  39.3721470  88.6265980  64.3490590
  39.0236290  89.0829800  65.1148770  39.0409170  87.7323110  64.4313020
  46.8846290  89.8177860  67.8710010  46.8235180  90.4099690  68.6205420
  47.8246670  89.7103820  67.7260270  49.5220850  89.4747920  67.5102300
  50.1361260  89.7927210  66.8483380  50.0670410  88.9896510  68.1298160
  40.0442110  88.1542180  67.6241360  40.5925100  87.9730230  66.8607470
  40.1097420  87.3636290  68.1597670  50.2628890  88.0380060  63.8371590
  49.3888730  88.3715170  63.6344520  50.1539640  87.5653240  64.6623460
  51.1700870  90.2450930  65.2213310  50.8414230  89.4302690  64.8415040
  52.1183170  90.2020740  65.0979000  48.0103710  88.9549900  62.7764500
  47.2275500  89.4295400  63.0561260  47.7166640  88.0504730  62.6677680
  52.5624780  89.6573000  60.8213590  53.0032870  89.6018100  59.9735190
  52.2932370  90.5731010  60.8923770  54.4263350  89.2888240  58.8322410
  54.3651750  88.3449460  58.6853430  55.2055380  89.3968330  59.3775870
  39.3544120  89.2597380  55.2978220  40.1123480  89.3726260  54.7242250
  38.8921290  90.0966580  55.2521650  45.8957930  91.3736650  58.2880530
  45.0832440  90.9993540  57.9476410  46.3999570  90.6181730  58.5901720
  50.3982910  88.0379100  59.5263600  51.0012280  88.6099310  60.0012120
  49.6575900  88.6018540  59.3037500  53.5417510  88.4400660  54.8003880
  53.7368140  89.3384110  55.0671310  52.7547380  88.2087740  55.2936830
  41.7269270  89.7861430  53.8380190  42.2562030  88.9991230  53.7088140
  42.3597590  90.4652620  54.0715720  43.9207110  89.5236570  56.8925580
  43.2909850  88.8223880  57.0595710  43.3812250  90.2840700  56.6758740
  44.0462670  88.8020550  69.3278070  43.7646940  89.3054150  68.5638890
  44.4282370  88.0042300  68.9620200  50.6478130  88.2174130  69.9058540
  50.5343580  88.5368740  70.8010060  51.4647870  88.6186640  69.6095820
  49.5536280  96.2366600  40.2693280  49.4730330  95.3221210  39.9984990
  49.1400700  96.7333670  39.5632990  47.6854320  98.0145620  42.1502550
  46.9096420  97.5346060  42.4401120  48.3367250  97.3351270  41.9758710
  41.7020150  98.3265430  43.0278310  40.8705030  98.0714140  43.4274820
  42.3101130  98.3976200  43.7636230  40.1112100  93.2867320  36.8120700
  39.2228800  93.6283290  36.7100580  40.3953290  93.0867640  35.9201530
  38.0745110  95.8872970  42.6960400  38.6461220  95.1195170  42.6964040
  38.0746650  96.1861730  41.7867010  39.3169980  91.2957330  44.4829330
  39.1372820  90.3983080  44.7632090  38.9150060  91.8429200  45.1576280
  48.1568480  93.4973190  42.3841640  48.5333300  92.6245070  42.2715310
  48.0587990  93.8331890  41.4932080  42.2873490  91.8698820  37.8459080
  42.3940240  92.7702550  38.1527840  41.3765850  91.8216790  37.5553730
  51.9392600  90.9923630  39.3169980  52.7602220  90.5020200  39.3595460
  51.9726680  91.5821290  40.0701820  39.9356650  93.7917830  43.0911670
  40.6166760  94.0556200  43.7099070  39.6204700  92.9518700  43.4249680
  44.1281220  94.8385190  42.1784260  44.6359440  95.3366160  42.8189280
  44.6594460  94.0620390  42.0023620  56.2292150  93.0090380  45.8813610
  55.5244320  93.3972090  45.3628720  56.4950070  93.7040670  46.4834540
  42.4117320  89.4783750  46.4447680  42.4135760  89.9956140  45.6393580
  41.5821630  89.0013930  46.4217610  52.1754080  92.9324010  42.0897520
  51.4709650  93.2208900  42.6700630  52.5366240  93.7424120  41.7297080
  42.0932650  91.1893710  44.4518130  42.4349460  92.0335760  44.1572000
  41.1548460  91.3377450  44.5683470  55.2441000  92.3778800  42.4806730
  54.2965910  92.4117780  42.6122160  55.5690990  93.1917750  42.8656090
  45.7760540  88.6775980  40.7762720  46.0835520  88.1222870  40.0598220
  44.8461240  88.8120440  40.5935710  48.1641300  96.7424810  37.5122840
  47.2370580  96.6762190  37.7411310  48.3166120  97.6804940  37.3978080
  48.1510380  93.0141810  34.5090000  47.2114050  93.1755770  34.5942460
  48.4693640  93.7327490  33.9625990  54.6723140  97.6960330  44.4869030
  53.8441770  97.7653420  44.0119160  55.2673620  98.2814640  44.0184860
  52.1938590  98.3045110  38.0158090  51.5751010  97.9664660  37.3684390
  52.1763040  97.6604870  38.7237280  51.6365150  94.4829650  45.4323900
  51.2236330  95.3083360  45.6863890  50.9041100  93.8974690  45.2400260
  43.7697940  97.2689550  40.2942570  43.3654940  96.5566800  39.7988470
  43.8561060  96.9242790  41.1830610  42.4826560  94.0432760  44.0741610
  43.0341150  94.1528100  43.2994860  42.9970070  94.4170360  44.7896840
  50.3703290  97.5431920  35.0230840  50.8096570  96.7054350  34.8768660
  51.0831710  98.1761320  35.1094980  42.1569290  97.5652120  47.6846950
  42.0177060  98.4374920  48.0534350  41.2750650  97.2224930  47.5394890
  53.9520430  88.7974730  33.3371880  53.6393090  88.8901560  34.2370950
  54.7132900  89.3755760  33.2869310  40.4702570  96.1634530  37.7949220
  40.3500170  96.8896620  37.1830490  40.1603460  95.3937440  37.3177130
  55.1621720  93.5346230  49.3146020  54.5465990  94.0425900  48.7861480
  54.8418140  92.6344560  49.2571960  42.9366230  89.5069600  41.1772890
  42.4934380  90.2879140  40.8457410  43.4951220  89.8299490  41.8843830
  47.2236040  92.3738120  46.7808210  46.7615410  92.5821140  47.5928150
  46.8214150  91.5597470  46.4778880  52.2240550  93.5947070  47.9104870
  51.3734140  93.2952820  48.2313940  52.0642340  93.8389080  46.9988690
  49.3190260  95.0948820  50.0103660  49.6443670  94.2612570  49.6705890
  50.1070590  95.6177340  50.1581990  46.0525050  89.1280300  36.0578720
  45.4279230  89.1240170  36.7832030  45.9655170  88.2611260  35.6614690
  44.9742130  90.0516930  43.0362490  45.2714460  90.9579760  42.9554510
  45.5227690  89.5635710  42.4222060  42.7280450  94.6303170  38.9054140
  42.5021370  94.4140340  39.8100760  41.9472980  95.0631630  38.5600110
  49.9578210  94.6366540  37.5044790  49.3587100  95.3602340  37.3208410
  50.5057820  94.5743320  36.7221240  45.1679660  95.5288750  49.5714410
  45.0723260  94.5883480  49.4214810  46.0111640  95.7503820  49.1762480
  48.5643080  93.2730080  39.5348070  48.9572650  93.5902280  38.7216760
  48.9259930  92.3941960  39.6492590  40.2990200  91.9402420  47.7248190
  39.9053590  92.7877630  47.9320970  39.6108600  91.3028790  47.9156830
  46.8735250  92.0237390  50.7944930  46.1833570  91.8309590  51.4291020
  47.6167550  92.3072030  51.3269230  37.6007250  89.8630880  41.7578270
  37.3120300  90.4333740  42.4703250  38.3453010  89.3835330  42.1209500
  37.7877480  93.8051000  32.9680990  37.7052150  94.7481760  33.1095980
  37.4360540  93.6625910  32.0893340  49.1498220  95.8635830  43.6298850
  48.4179340  96.3722640  43.9788950  48.7522560  95.0465810  43.3287630
  45.5875610  92.5390030  42.0351340  45.5911670  92.0979980  41.1855880
  46.4826730  92.8607360  42.1423160  41.4377990  92.4216520  40.9945550
  41.0978040  92.8991750  41.7512600  40.6755310  91.9681640  40.6346650
  45.6495760  93.5402110  35.0258100  45.7708580  93.4988590  35.9743920
  45.2644270  94.4026260  34.8704830  49.6124130  91.3169510  43.0421790
  49.6296870  91.7678160  43.8863640  49.3639710  90.4175150  43.2555230
  44.6617260  95.8503250  34.4241400  44.0934160  95.4021500  33.7977310
  45.3706260  96.2096030  33.8906550  53.0394880  88.7301690  48.8808170
  53.3640650  87.9991350  49.4066150  53.0751390  88.4115330  47.9789160
  45.8883580  96.5991810  43.7816750  46.2553710  96.1250380  44.5278090
  45.6988640  97.4733380  44.1225090  38.7524070  91.3435500  39.9110220
  38.4670990  90.9791170  40.7488840  38.6902930  90.6115960  39.2973360
  43.6782950  95.6400450  46.1000960  43.3740020  96.5192430  46.3251320
  44.6329410  95.7000240  46.1358400  48.4262660  90.2364760  36.6323590
  47.6127270  89.7377930  36.5568900  48.2324610  91.0763010  36.2159940
  51.1411050  94.6084410  34.9285750  52.0290670  94.9201640  34.7537090
  51.1116140  93.7356660  34.5366330  39.7346680  96.4803190  47.2472320
  39.3761620  97.1457040  47.8345660  39.4401240  95.6486740  47.6184940
  42.9359800  96.9387430  50.1311870  42.6359940  97.0844610  49.2339690
  43.7071040  96.3792720  50.0385260  53.4125320  95.9196250  34.3965610
  53.3289040  96.3510470  33.5462050  54.1319510  96.3794600  34.8292430
  38.2454730  96.4794450  33.8706920  39.1149580  96.7619250  34.1542840
  37.7545050  97.2930320  33.7555730  41.3101320  88.2105310  38.4637720
  41.1815950  88.2023210  39.4122640  40.4863340  88.5488400  38.1128730
  38.3095250  89.9696430  47.9244420  37.5953770  90.1693350  48.5297030
  38.7290290  89.1936000  48.2959220  49.8034030  92.4618740  45.6745870
  50.1714850  91.6413950  46.0025440  48.9432230  92.5220630  46.0901520
  53.1696060  91.4175680  36.4833430  52.5409220  91.5221350  35.7691660
  52.6747980  91.6372460  37.2727310  45.1380090  93.6961630  37.8991310
  44.4296240  94.1647970  38.3404920  45.4224570  93.0383640  38.5336500
  46.7636020  95.1158330  45.8983840  47.2621270  95.5904150  46.5635690
  46.9058970  94.1921850  46.1053870  49.1695520  90.4212290  39.3387100
  49.0463300  90.4398420  38.3896610  50.1180080  90.4691230  39.4585500
  43.3415110  92.0046710  35.2742020  44.1905640  92.4416860  35.2082210
  42.9746380  92.3166970  36.1014080  53.9702880  91.3326290  46.7412230
  53.4676480  92.0731690  47.0806040  54.7859540  91.7210290  46.4249020
  52.2624890  96.5759470  40.1873590  51.3215030  96.5909700  40.3621280
  52.5768960  95.7895430  40.6333890  42.2406530  98.2579070  33.7477550
  43.0069800  98.1460430  34.3102980  42.3181220  97.5617040  33.0954320
  40.9353290  95.6904140  34.4310440  41.0156880  94.7431650  34.5427840
  41.8273040  96.0211020  34.5371100  38.4624090  97.5119060  49.6666610
  38.9663110  96.9326340  50.2382840  37.7231510  97.7959290  50.2042980
  40.4947170  95.6548650  50.5616680  40.5352510  95.3562520  51.4701910
  41.3492670  96.0556260  50.4024200  44.2725560  98.2544200  35.7220190
  44.6941980  98.0884070  36.5651580  44.3976400  97.4444430  35.2275330
  42.4352980  94.2340750  48.5291170  41.9049440  93.7431700  47.9014510
  43.1041050  94.6624950  47.9949100  46.7853200  97.2781810  32.9697290
  47.3058860  96.5630830  32.6038440  47.4321600  97.9167680  33.2697800
  51.8053210  96.0406370  50.2971510  52.3873980  95.2858690  50.2091990
  51.9814980  96.5713810  49.5202990  42.9225280  91.2003120  48.6088460
  42.8282150  90.5823870  47.8839330  42.3422670  91.9269410  48.3818370
  45.6886720  89.7576360  45.6415850  45.2404020  89.7800620  44.7961400
  45.0551920  89.3595380  46.2386150  48.4310170  96.3846870  47.6466130
  48.5506380  95.7888010  48.3860970  49.2904170  96.4216560  47.2267430
  50.7698070  96.9384060  46.2228640  50.2433290  97.4626680  45.6193780
  51.1129410  97.5711450  46.8538370  43.1684460  94.3277430  32.6678350
  42.9673520  93.4644790  33.0291690  42.9976510  94.2410790  31.7299950
  45.1978940  92.9268220  48.9041950  45.7878630  92.6184070  49.5919770
  44.3799180  92.4547970  49.0601850  50.0172370  92.5434030  49.1374970
  49.3287890  91.8815570  49.0724960  50.7378390  92.0972300  49.5823430
  50.6472770  89.1385660  35.1965230  50.9275060  88.2953560  35.5524650
  49.8738500  89.3708770  35.7103980  41.9667260  91.4278050  32.6556230
  42.2693160  91.4345480  31.7475380  42.7061850  91.0775910  33.1523890
  45.1852190  90.3712670  33.6412430  44.8374190  89.6936660  33.0614880
  45.3864960  89.9102180  34.4555820  38.5257830  96.9000320  40.0376800
  37.8706670  96.6311960  39.3936500  39.3635780  96.7904800  39.5878780
  51.4748270  91.6941610  34.2595290  51.8933150  91.5072590  33.4191950
  51.1684330  90.8420660  34.5698220  54.9738000  96.6065750  37.9571090
  54.5981600  95.8393680  37.5252380  54.2441120  96.9888450  38.4446020
  39.5633760  97.2852890  44.5780140  39.9306800  97.1980290  45.4576160
  38.9944580  96.5219440  44.4787000  54.3637620  95.7537270  47.5910610
  54.1323710  95.5250020  46.6908560  54.6242170  96.6736820  47.5455500
  39.1149760  94.1961980  48.4838560  38.2205810  94.1628740  48.8232270
  39.6547310  94.3948770  49.2489810  52.8025690  90.9793700  50.3690310
  53.6795870  90.9877100  50.7524310  52.8146530  90.2424540  49.7582660
  37.7395910  94.1099250  35.9802130  36.8359990  94.3729450  35.8053790
  38.2236530  94.3810420  35.2002090  54.2488960  94.8323240  41.2578330
  54.7726440  94.3385890  40.6268500  54.8348380  94.9673600  42.0025900
  54.4278680  94.9163110  44.7797880  53.4781390  94.8826650  44.8942870
  54.6091690  95.8263220  44.5447650  40.2823120  93.1664790  33.8896510
  40.9914820  92.7448010  33.4043790  39.5663060  93.2340020  33.2579860
  39.9297280  89.2204120  32.9299160  40.6525410  89.7613060  33.2480380
  40.2021800  88.9467540  32.0540700  53.7388930  94.0896590  37.1970740
  54.2348050  93.8567460  37.9819620  53.5405000  93.2508430  36.7808380
  39.6189470  88.4710310  42.8321780  40.2665660  87.9207690  42.3916940
  40.0391310  88.7253460  43.6537590  55.1676090  92.7257540  39.7308420
  55.0575370  92.5713580  40.6690690  55.9283680  92.1978480  39.4883830
  53.5141810  88.6651670  46.1891420  54.1514030  89.2785810  46.5550610
  53.6616700  88.7012330  45.2440650  56.0566360  90.5565460  32.9714560
  56.9815670  90.4246640  32.7632850  56.0342150  90.6358280  33.9251010
  56.1304850  91.3276120  35.5971270  55.3356350  91.2621240  36.1264180
  56.3348130  92.2626760  35.5856620  39.3721470  88.6265980  45.5747100
  39.0236290  89.0829800  46.3405280  39.0409170  87.7323110  45.6569530
  46.8846290  89.8177860  49.0966520  46.8235180  90.4099690  49.8461930
  47.8246670  89.7103820  48.9516780  49.5220850  89.4747920  48.7358810
  50.1361260  89.7927210  48.0739890  50.0670410  88.9896510  49.3554670
  40.0442110  88.1542180  48.8497870  40.5925100  87.9730230  48.0863980
  40.1097420  87.3636290  49.3854180  50.2628890  88.0380060  45.0628100
  49.3888730  88.3715170  44.8601030  50.1539640  87.5653240  45.8879970
  51.1700870  90.2450930  46.4469820  50.8414230  89.4302690  46.0671550
  52.1183170  90.2020740  46.3235510  48.0103710  88.9549900  44.0021010
  47.2275500  89.4295400  44.2817770  47.7166640  88.0504730  43.8934190
  52.5624780  89.6573000  42.0470100  53.0032870  89.6018100  41.1991700
  52.2932370  90.5731010  42.1180280  54.4263350  89.2888240  40.0578920
  54.3651750  88.3449460  39.9109940  55.2055380  89.3968330  40.6032380
  39.3544120  89.2597380  36.5234730  40.1123480  89.3726260  35.9498760
  38.8921290  90.0966580  36.4778160  45.8957930  91.3736650  39.5137040
  45.0832440  90.9993540  39.1732920  46.3999570  90.6181730  39.8158230
  50.3982910  88.0379100  40.7520110  51.0012280  88.6099310  41.2268630
  49.6575900  88.6018540  40.5294010  53.5417510  88.4400660  36.0260390
  53.7368140  89.3384110  36.2927820  52.7547380  88.2087740  36.5193340
  41.7269270  89.7861430  35.0636700  42.2562030  88.9991230  34.9344650
  42.3597590  90.4652620  35.2972230  43.9207110  89.5236570  38.1182090
  43.2909850  88.8223880  38.2852220  43.3812250  90.2840700  37.9015250
  44.0462670  88.8020550  50.5534580  43.7646940  89.3054150  49.7895400
  44.4282370  88.0042300  50.1876710  50.6478130  88.2174130  51.1315050
  50.5343580  88.5368740  52.0266570  51.4647870  88.6186640  50.8352330
  49.5536280  96.2366600  21.4949790  49.4730330  95.3221210  21.2241500
  49.1400700  96.7333670  20.7889500  47.6854320  98.0145620  23.3759060
  46.9096420  97.5346060  23.6657630  48.3367250  97.3351270  23.2015220
  41.7020150  98.3265430  24.2534820  40.8705030  98.0714140  24.6531330
  42.3101130  98.3976200  24.9892740  40.1112100  93.2867320  18.0377210
  39.2228800  93.6283290  17.9357090  40.3953290  93.0867640  17.1458040
  38.0745110  95.8872970  23.9216910  38.6461220  95.1195170  23.9220550
  38.0746650  96.1861730  23.0123520  39.3169980  91.2957330  25.7085840
  39.1372820  90.3983080  25.9888600  38.9150060  91.8429200  26.3832790
  48.1568480  93.4973190  23.6098150  48.5333300  92.6245070  23.4971820
  48.0587990  93.8331890  22.7188590  42.2873490  91.8698820  19.0715590
  42.3940240  92.7702550  19.3784350  41.3765850  91.8216790  18.7810240
  51.9392600  90.9923630  20.5426490  52.7602220  90.5020200  20.5851970
  51.9726680  91.5821290  21.2958330  39.9356650  93.7917830  24.3168180
  40.6166760  94.0556200  24.9355580  39.6204700  92.9518700  24.6506190
  44.1281220  94.8385190  23.4040770  44.6359440  95.3366160  24.0445790
  44.6594460  94.0620390  23.2280130  56.2292150  93.0090380  27.1070120
  55.5244320  93.3972090  26.5885230  56.4950070  93.7040670  27.7091050
  42.4117320  89.4783750  27.6704190  42.4135760  89.9956140  26.8650090
  41.5821630  89.0013930  27.6474120  52.1754080  92.9324010  23.3154030
  51.4709650  93.2208900  23.8957140  52.5366240  93.7424120  22.9553590
  42.0932650  91.1893710  25.6774640  42.4349460  92.0335760  25.3828510
  41.1548460  91.3377450  25.7939980  55.2441000  92.3778800  23.7063240
  54.2965910  92.4117780  23.8378670  55.5690990  93.1917750  24.0912600
  45.7760540  88.6775980  22.0019230  46.0835520  88.1222870  21.2854730
  44.8461240  88.8120440  21.8192220  48.1641300  96.7424810  18.7379350
  47.2370580  96.6762190  18.9667820  48.3166120  97.6804940  18.6234590
  48.1510380  93.0141810  15.7346510  47.2114050  93.1755770  15.8198970
  48.4693640  93.7327490  15.1882500  54.6723140  97.6960330  25.7125540
  53.8441770  97.7653420  25.2375670  55.2673620  98.2814640  25.2441370
  52.1938590  98.3045110  19.2414600  51.5751010  97.9664660  18.5940900
  52.1763040  97.6604870  19.9493790  51.6365150  94.4829650  26.6580410
  51.2236330  95.3083360  26.9120400  50.9041100  93.8974690  26.4656770
  43.7697940  97.2689550  21.5199080  43.3654940  96.5566800  21.0244980
  43.8561060  96.9242790  22.4087120  42.4826560  94.0432760  25.2998120
  43.0341150  94.1528100  24.5251370  42.9970070  94.4170360  26.0153350
  50.3703290  97.5431920  16.2487350  50.8096570  96.7054350  16.1025170
  51.0831710  98.1761320  16.3351490  42.1569290  97.5652120  28.9103460
  42.0177060  98.4374920  29.2790860  41.2750650  97.2224930  28.7651400
  53.9520430  88.7974730  14.5628390  53.6393090  88.8901560  15.4627460
  54.7132900  89.3755760  14.5125820  40.4702570  96.1634530  19.0205730
  40.3500170  96.8896620  18.4087000  40.1603460  95.3937440  18.5433640
  55.1621720  93.5346230  30.5402530  54.5465990  94.0425900  30.0117990
  54.8418140  92.6344560  30.4828470  42.9366230  89.5069600  22.4029400
  42.4934380  90.2879140  22.0713920  43.4951220  89.8299490  23.1100340
  47.2236040  92.3738120  28.0064720  46.7615410  92.5821140  28.8184660
  46.8214150  91.5597470  27.7035390  52.2240550  93.5947070  29.1361380
  51.3734140  93.2952820  29.4570450  52.0642340  93.8389080  28.2245200
  49.3190260  95.0948820  31.2360170  49.6443670  94.2612570  30.8962400
  50.1070590  95.6177340  31.3838500  46.0525050  89.1280300  17.2835230
  45.4279230  89.1240170  18.0088540  45.9655170  88.2611260  16.8871200
  44.9742130  90.0516930  24.2619000  45.2714460  90.9579760  24.1811020
  45.5227690  89.5635710  23.6478570  42.7280450  94.6303170  20.1310650
  42.5021370  94.4140340  21.0357270  41.9472980  95.0631630  19.7856620
  49.9578210  94.6366540  18.7301300  49.3587100  95.3602340  18.5464920
  50.5057820  94.5743320  17.9477750  45.1679660  95.5288750  30.7970920
  45.0723260  94.5883480  30.6471320  46.0111640  95.7503820  30.4018990
  48.5643080  93.2730080  20.7604580  48.9572650  93.5902280  19.9473270
  48.9259930  92.3941960  20.8749100  40.2990200  91.9402420  28.9504700
  39.9053590  92.7877630  29.1577480  39.6108600  91.3028790  29.1413340
  46.8735250  92.0237390  32.0201440  46.1833570  91.8309590  32.6547530
  47.6167550  92.3072030  32.5525740  37.6007250  89.8630880  22.9834780
  37.3120300  90.4333740  23.6959760  38.3453010  89.3835330  23.3466010
  37.7877480  93.8051000  14.1937500  37.7052150  94.7481760  14.3352490
  37.4360540  93.6625910  13.3149850  49.1498220  95.8635830  24.8555360
  48.4179340  96.3722640  25.2045460  48.7522560  95.0465810  24.5544140
  45.5875610  92.5390030  23.2607850  45.5911670  92.0979980  22.4112390
  46.4826730  92.8607360  23.3679670  41.4377990  92.4216520  22.2202060
  41.0978040  92.8991750  22.9769110  40.6755310  91.9681640  21.8603160
  45.6495760  93.5402110  16.2514610  45.7708580  93.4988590  17.2000430
  45.2644270  94.4026260  16.0961340  49.6124130  91.3169510  24.2678300
  49.6296870  91.7678160  25.1120150  49.3639710  90.4175150  24.4811740
  44.6617260  95.8503250  15.6497910  44.0934160  95.4021500  15.0233820
  45.3706260  96.2096030  15.1163060  53.0394880  88.7301690  30.1064680
  53.3640650  87.9991350  30.6322660  53.0751390  88.4115330  29.2045670
  45.8883580  96.5991810  25.0073260  46.2553710  96.1250380  25.7534600
  45.6988640  97.4733380  25.3481600  38.7524070  91.3435500  21.1366730
  38.4670990  90.9791170  21.9745350  38.6902930  90.6115960  20.5229870
  43.6782950  95.6400450  27.3257470  43.3740020  96.5192430  27.5507830
  44.6329410  95.7000240  27.3614910  48.4262660  90.2364760  17.8580100
  47.6127270  89.7377930  17.7825410  48.2324610  91.0763010  17.4416450
  51.1411050  94.6084410  16.1542260  52.0290670  94.9201640  15.9793600
  51.1116140  93.7356660  15.7622840  39.7346680  96.4803190  28.4728830
  39.3761620  97.1457040  29.0602170  39.4401240  95.6486740  28.8441450
  42.9359800  96.9387430  31.3568380  42.6359940  97.0844610  30.4596200
  43.7071040  96.3792720  31.2641770  53.4125320  95.9196250  15.6222120
  53.3289040  96.3510470  14.7718560  54.1319510  96.3794600  16.0548940
  38.2454730  96.4794450  15.0963430  39.1149580  96.7619250  15.3799350
  37.7545050  97.2930320  14.9812240  41.3101320  88.2105310  19.6894230
  41.1815950  88.2023210  20.6379150  40.4863340  88.5488400  19.3385240
  38.3095250  89.9696430  29.1500930  37.5953770  90.1693350  29.7553540
  38.7290290  89.1936000  29.5215730  49.8034030  92.4618740  26.9002380
  50.1714850  91.6413950  27.2281950  48.9432230  92.5220630  27.3158030
  53.1696060  91.4175680  17.7089940  52.5409220  91.5221350  16.9948170
  52.6747980  91.6372460  18.4983820  45.1380090  93.6961630  19.1247820
  44.4296240  94.1647970  19.5661430  45.4224570  93.0383640  19.7593010
  46.7636020  95.1158330  27.1240350  47.2621270  95.5904150  27.7892200
  46.9058970  94.1921850  27.3310380  49.1695520  90.4212290  20.5643610
  49.0463300  90.4398420  19.6153120  50.1180080  90.4691230  20.6842010
  43.3415110  92.0046710  16.4998530  44.1905640  92.4416860  16.4338720
  42.9746380  92.3166970  17.3270590  53.9702880  91.3326290  27.9668740
  53.4676480  92.0731690  28.3062550  54.7859540  91.7210290  27.6505530
  52.2624890  96.5759470  21.4130100  51.3215030  96.5909700  21.5877790
  52.5768960  95.7895430  21.8590400  42.2406530  98.2579070  14.9734060
  43.0069800  98.1460430  15.5359490  42.3181220  97.5617040  14.3210830
  40.9353290  95.6904140  15.6566950  41.0156880  94.7431650  15.7684350
  41.8273040  96.0211020  15.7627610  38.4624090  97.5119060  30.8923120
  38.9663110  96.9326340  31.4639350  37.7231510  97.7959290  31.4299490
  40.4947170  95.6548650  31.7873190  40.5352510  95.3562520  32.6958420
  41.3492670  96.0556260  31.6280710  44.2725560  98.2544200  16.9476700
  44.6941980  98.0884070  17.7908090  44.3976400  97.4444430  16.4531840
  42.4352980  94.2340750  29.7547680  41.9049440  93.7431700  29.1271020
  43.1041050  94.6624950  29.2205610  46.7853200  97.2781810  14.1953800
  47.3058860  96.5630830  13.8294950  47.4321600  97.9167680  14.4954310
  51.8053210  96.0406370  31.5228020  52.3873980  95.2858690  31.4348500
  51.9814980  96.5713810  30.7459500  42.9225280  91.2003120  29.8344970
  42.8282150  90.5823870  29.1095840  42.3422670  91.9269410  29.6074880
  45.6886720  89.7576360  26.8672360  45.2404020  89.7800620  26.0217910
  45.0551920  89.3595380  27.4642660  48.4310170  96.3846870  28.8722640
  48.5506380  95.7888010  29.6117480  49.2904170  96.4216560  28.4523940
  50.7698070  96.9384060  27.4485150  50.2433290  97.4626680  26.8450290
  51.1129410  97.5711450  28.0794880  43.1684460  94.3277430  13.8934860
  42.9673520  93.4644790  14.2548200  42.9976510  94.2410790  12.9556460
  45.1978940  92.9268220  30.1298460  45.7878630  92.6184070  30.8176280
  44.3799180  92.4547970  30.2858360  50.0172370  92.5434030  30.3631480
  49.3287890  91.8815570  30.2981470  50.7378390  92.0972300  30.8079940
  50.6472770  89.1385660  16.4221740  50.9275060  88.2953560  16.7781160
  49.8738500  89.3708770  16.9360490  41.9667260  91.4278050  13.8812740
  42.2693160  91.4345480  12.9731890  42.7061850  91.0775910  14.3780400
  45.1852190  90.3712670  14.8668940  44.8374190  89.6936660  14.2871390
  45.3864960  89.9102180  15.6812330  38.5257830  96.9000320  21.2633310
  37.8706670  96.6311960  20.6193010  39.3635780  96.7904800  20.8135290
  51.4748270  91.6941610  15.4851800  51.8933150  91.5072590  14.6448460
  51.1684330  90.8420660  15.7954730  54.9738000  96.6065750  19.1827600
  54.5981600  95.8393680  18.7508890  54.2441120  96.9888450  19.6702530
  39.5633760  97.2852890  25.8036650  39.9306800  97.1980290  26.6832670
  38.9944580  96.5219440  25.7043510  54.3637620  95.7537270  28.8167120
  54.1323710  95.5250020  27.9165070  54.6242170  96.6736820  28.7712010
  39.1149760  94.1961980  29.7095070  38.2205810  94.1628740  30.0488780
  39.6547310  94.3948770  30.4746320  52.8025690  90.9793700  31.5946820
  53.6795870  90.9877100  31.9780820  52.8146530  90.2424540  30.9839170
  37.7395910  94.1099250  17.2058640  36.8359990  94.3729450  17.0310300
  38.2236530  94.3810420  16.4258600  54.2488960  94.8323240  22.4834840
  54.7726440  94.3385890  21.8525010  54.8348380  94.9673600  23.2282410
  54.4278680  94.9163110  26.0054390  53.4781390  94.8826650  26.1199380
  54.6091690  95.8263220  25.7704160  40.2823120  93.1664790  15.1153020
  40.9914820  92.7448010  14.6300300  39.5663060  93.2340020  14.4836370
  39.9297280  89.2204120  14.1555670  40.6525410  89.7613060  14.4736890
  40.2021800  88.9467540  13.2797210  53.7388930  94.0896590  18.4227250
  54.2348050  93.8567460  19.2076130  53.5405000  93.2508430  18.0064890
  39.6189470  88.4710310  24.0578290  40.2665660  87.9207690  23.6173450
  40.0391310  88.7253460  24.8794100  55.1676090  92.7257540  20.9564930
  55.0575370  92.5713580  21.8947200  55.9283680  92.1978480  20.7140340
  53.5141810  88.6651670  27.4147930  54.1514030  89.2785810  27.7807120
  53.6616700  88.7012330  26.4697160  56.0566360  90.5565460  14.1971070
  56.9815670  90.4246640  13.9889360  56.0342150  90.6358280  15.1507520
  56.1304850  91.3276120  16.8227780  55.3356350  91.2621240  17.3520690
  56.3348130  92.2626760  16.8113130  39.3721470  88.6265980  26.8003610
  39.0236290  89.0829800  27.5661790  39.0409170  87.7323110  26.8826040
  46.8846290  89.8177860  30.3223030  46.8235180  90.4099690  31.0718440
  47.8246670  89.7103820  30.1773290  49.5220850  89.4747920  29.9615320
  50.1361260  89.7927210  29.2996400  50.0670410  88.9896510  30.5811180
  40.0442110  88.1542180  30.0754380  40.5925100  87.9730230  29.3120490
  40.1097420  87.3636290  30.6110690  50.2628890  88.0380060  26.2884610
  49.3888730  88.3715170  26.0857540  50.1539640  87.5653240  27.1136480
  51.1700870  90.2450930  27.6726330  50.8414230  89.4302690  27.2928060
  52.1183170  90.2020740  27.5492020  48.0103710  88.9549900  25.2277520
  47.2275500  89.4295400  25.5074280  47.7166640  88.0504730  25.1190700
  52.5624780  89.6573000  23.2726610  53.0032870  89.6018100  22.4248210
  52.2932370  90.5731010  23.3436790  54.4263350  89.2888240  21.2835430
  54.3651750  88.3449460  21.1366450  55.2055380  89.3968330  21.8288890
  39.3544120  89.2597380  17.7491240  40.1123480  89.3726260  17.1755270
  38.8921290  90.0966580  17.7034670  45.8957930  91.3736650  20.7393550
  45.0832440  90.9993540  20.3989430  46.3999570  90.6181730  21.0414740
  50.3982910  88.0379100  21.9776620  51.0012280  88.6099310  22.4525140
  49.6575900  88.6018540  21.7550520  53.5417510  88.4400660  17.2516900
  53.7368140  89.3384110  17.5184330  52.7547380  88.2087740  17.7449850
  41.7269270  89.7861430  16.2893210  42.2562030  88.9991230  16.1601160
  42.3597590  90.4652620  16.5228740  43.9207110  89.5236570  19.3438600
  43.2909850  88.8223880  19.5108730  43.3812250  90.2840700  19.1271760
  44.0462670  88.8020550  31.7791090  43.7646940  89.3054150  31.0151910
  44.4282370  88.0042300  31.4133220  50.6478130  88.2174130  32.3571560
  50.5343580  88.5368740  33.2523080  51.4647870  88.6186640  32.0608840
  49.5536280  96.2366600   2.7206300  49.4730330  95.3221210   2.4498010
  49.1400700  96.7333670   2.0146010  47.6854320  98.0145620   4.6015570
  46.9096420  97.5346060   4.8914140  48.3367250  97.3351270   4.4271730
  41.7020150  98.3265430   5.4791330  40.8705030  98.0714140   5.8787840
  42.3101130  98.3976200   6.2149250  38.0745110  95.8872970   5.1473420
  38.6461220  95.1195170   5.1477060  38.0746650  96.1861730   4.2380030
  39.3169980  91.2957330   6.9342350  39.1372820  90.3983080   7.2145110
  38.9150060  91.8429200   7.6089300  48.1568480  93.4973190   4.8354660
  48.5333300  92.6245070   4.7228330  48.0587990  93.8331890   3.9445100
  51.9392600  90.9923630   1.7683000  52.7602220  90.5020200   1.8108480
  51.9726680  91.5821290   2.5214840  39.9356650  93.7917830   5.5424690
  40.6166760  94.0556200   6.1612090  39.6204700  92.9518700   5.8762700
  44.1281220  94.8385190   4.6297280  44.6359440  95.3366160   5.2702300
  44.6594460  94.0620390   4.4536640  56.2292150  93.0090380   8.3326630
  55.5244320  93.3972090   7.8141740  56.4950070  93.7040670   8.9347560
  42.4117320  89.4783750   8.8960700  42.4135760  89.9956140   8.0906600
  41.5821630  89.0013930   8.8730630  52.1754080  92.9324010   4.5410540
  51.4709650  93.2208900   5.1213650  52.5366240  93.7424120   4.1810100
  42.0932650  91.1893710   6.9031150  42.4349460  92.0335760   6.6085020
  41.1548460  91.3377450   7.0196490  55.2441000  92.3778800   4.9319750
  54.2965910  92.4117780   5.0635180  55.5690990  93.1917750   5.3169110
  45.7760540  88.6775980   3.2275740  46.0835520  88.1222870   2.5111240
  44.8461240  88.8120440   3.0448730  54.6723140  97.6960330   6.9382050
  53.8441770  97.7653420   6.4632180  55.2673620  98.2814640   6.4697880
  51.6365150  94.4829650   7.8836920  51.2236330  95.3083360   8.1376910
  50.9041100  93.8974690   7.6913280  43.7697940  97.2689550   2.7455590
  43.3654940  96.5566800   2.2501490  43.8561060  96.9242790   3.6343630
  42.4826560  94.0432760   6.5254630  43.0341150  94.1528100   5.7507880
  42.9970070  94.4170360   7.2409860  42.1569290  97.5652120  10.1359970
  42.0177060  98.4374920  10.5047370  41.2750650  97.2224930   9.9907910
  55.1621720  93.5346230  11.7659040  54.5465990  94.0425900  11.2374500
  54.8418140  92.6344560  11.7084980  42.9366230  89.5069600   3.6285910
  42.4934380  90.2879140   3.2970430  43.4951220  89.8299490   4.3356850
  47.2236040  92.3738120   9.2321230  46.7615410  92.5821140  10.0441170
  46.8214150  91.5597470   8.9291900  52.2240550  93.5947070  10.3617890
  51.3734140  93.2952820  10.6826960  52.0642340  93.8389080   9.4501710
  49.3190260  95.0948820  12.4616680  49.6443670  94.2612570  12.1218910
  50.1070590  95.6177340  12.6095010  44.9742130  90.0516930   5.4875510
  45.2714460  90.9579760   5.4067530  45.5227690  89.5635710   4.8735080
  45.1679660  95.5288750  12.0227430  45.0723260  94.5883480  11.8727830
  46.0111640  95.7503820  11.6275500  40.2990200  91.9402420  10.1761210
  39.9053590  92.7877630  10.3833990  39.6108600  91.3028790  10.3669850
  46.8735250  92.0237390  13.2457950  46.1833570  91.8309590  13.8804040
  47.6167550  92.3072030  13.7782250  37.6007250  89.8630880   4.2091290
  37.3120300  90.4333740   4.9216270  38.3453010  89.3835330   4.5722520
  49.1498220  95.8635830   6.0811870  48.4179340  96.3722640   6.4301970
  48.7522560  95.0465810   5.7800650  45.5875610  92.5390030   4.4864360
  45.5911670  92.0979980   3.6368900  46.4826730  92.8607360   4.5936180
  41.4377990  92.4216520   3.4458570  41.0978040  92.8991750   4.2025620
  40.6755310  91.9681640   3.0859670  49.6124130  91.3169510   5.4934810
  49.6296870  91.7678160   6.3376660  49.3639710  90.4175150   5.7068250
  53.0394880  88.7301690  11.3321190  53.3640650  87.9991350  11.8579170
  53.0751390  88.4115330  10.4302180  45.8883580  96.5991810   6.2329770
  46.2553710  96.1250380   6.9791110  45.6988640  97.4733380   6.5738110
  38.7524070  91.3435500   2.3623240  38.4670990  90.9791170   3.2001860
  38.6902930  90.6115960   1.7486380  43.6782950  95.6400450   8.5513980
  43.3740020  96.5192430   8.7764340  44.6329410  95.7000240   8.5871420
  39.7346680  96.4803190   9.6985340  39.3761620  97.1457040  10.2858680
  39.4401240  95.6486740  10.0697960  42.9359800  96.9387430  12.5824890
  42.6359940  97.0844610  11.6852710  43.7071040  96.3792720  12.4898280
  38.3095250  89.9696430  10.3757440  37.5953770  90.1693350  10.9810050
  38.7290290  89.1936000  10.7472240  49.8034030  92.4618740   8.1258890
  50.1714850  91.6413950   8.4538460  48.9432230  92.5220630   8.5414540
  46.7636020  95.1158330   8.3496860  47.2621270  95.5904150   9.0148710
  46.9058970  94.1921850   8.5566890  53.9702880  91.3326290   9.1925250
  53.4676480  92.0731690   9.5319060  54.7859540  91.7210290   8.8762040
  52.2624890  96.5759470   2.6386610  51.3215030  96.5909700   2.8134300
  52.5768960  95.7895430   3.0846910  38.4624090  97.5119060  12.1179630
  38.9663110  96.9326340  12.6895860  37.7231510  97.7959290  12.6556000
  40.4947170  95.6548650  13.0129700  40.5352510  95.3562520  13.9214930
  41.3492670  96.0556260  12.8537220  42.4352980  94.2340750  10.9804190
  41.9049440  93.7431700  10.3527530  43.1041050  94.6624950  10.4462120
  51.8053210  96.0406370  12.7484530  52.3873980  95.2858690  12.6605010
  51.9814980  96.5713810  11.9716010  42.9225280  91.2003120  11.0601480
  42.8282150  90.5823870  10.3352350  42.3422670  91.9269410  10.8331390
  45.6886720  89.7576360   8.0928870  45.2404020  89.7800620   7.2474420
  45.0551920  89.3595380   8.6899170  48.4310170  96.3846870  10.0979150
  48.5506380  95.7888010  10.8373990  49.2904170  96.4216560   9.6780450
  50.7698070  96.9384060   8.6741660  50.2433290  97.4626680   8.0706800
  51.1129410  97.5711450   9.3051390  45.1978940  92.9268220  11.3554970
  45.7878630  92.6184070  12.0432790  44.3799180  92.4547970  11.5114870
  50.0172370  92.5434030  11.5887990  49.3287890  91.8815570  11.5237980
  50.7378390  92.0972300  12.0336450  38.5257830  96.9000320   2.4889820
  37.8706670  96.6311960   1.8449520  39.3635780  96.7904800   2.0391800
  39.5633760  97.2852890   7.0293160  39.9306800  97.1980290   7.9089180
  38.9944580  96.5219440   6.9300020  54.3637620  95.7537270  10.0423630
  54.1323710  95.5250020   9.1421580  54.6242170  96.6736820   9.9968520
  39.1149760  94.1961980  10.9351580  38.2205810  94.1628740  11.2745290
  39.6547310  94.3948770  11.7002830  52.8025690  90.9793700  12.8203330
  53.6795870  90.9877100  13.2037330  52.8146530  90.2424540  12.2095680
  54.2488960  94.8323240   3.7091350  54.7726440  94.3385890   3.0781520
  54.8348380  94.9673600   4.4538920  54.4278680  94.9163110   7.2310900
  53.4781390  94.8826650   7.3455890  54.6091690  95.8263220   6.9960670
  39.6189470  88.4710310   5.2834800  40.2665660  87.9207690   4.8429960
  40.0391310  88.7253460   6.1050610  55.1676090  92.7257540   2.1821440
  55.0575370  92.5713580   3.1203710  55.9283680  92.1978480   1.9396850
  53.5141810  88.6651670   8.6404440  54.1514030  89.2785810   9.0063630
  53.6616700  88.7012330   7.6953670  39.3721470  88.6265980   8.0260120
  39.0236290  89.0829800   8.7918300  39.0409170  87.7323110   8.1082550
  46.8846290  89.8177860  11.5479540  46.8235180  90.4099690  12.2974950
  47.8246670  89.7103820  11.4029800  49.5220850  89.4747920  11.1871830
  50.1361260  89.7927210  10.5252910  50.0670410  88.9896510  11.8067690
  40.0442110  88.1542180  11.3010890  40.5925100  87.9730230  10.5377000
  40.1097420  87.3636290  11.8367200  50.2628890  88.0380060   7.5141120
  49.3888730  88.3715170   7.3114050  50.1539640  87.5653240   8.3392990
  51.1700870  90.2450930   8.8982840  50.8414230  89.4302690   8.5184570
  52.1183170  90.2020740   8.7748530  48.0103710  88.9549900   6.4534030
  47.2275500  89.4295400   6.7330790  47.7166640  88.0504730   6.3447210
  52.5624780  89.6573000   4.4983120  53.0032870  89.6018100   3.6504720
  52.2932370  90.5731010   4.5693300  54.4263350  89.2888240   2.5091940
  54.3651750  88.3449460   2.3622960  55.2055380  89.3968330   3.0545400
  45.8957930  91.3736650   1.9650060  45.0832440  90.9993540   1.6245940
  46.3999570  90.6181730   2.2671250  50.3982910  88.0379100   3.2033130
  51.0012280  88.6099310   3.6781650  49.6575900  88.6018540   2.9807030
  44.0462670  88.8020550  13.0047600  43.7646940  89.3054150  12.2408420
  44.4282370  88.0042300  12.6389730  50.6478130  88.2174130  13.5828070
  50.5343580  88.5368740  14.4779590  51.4647870  88.6186640  13.2865350
  49.5536280  77.4623110  77.8180260  49.4730330  76.5477720  77.5471970
  49.1400700  77.9590180  77.1119970  47.6854320  79.2402130  79.6989530
  46.9096420  78.7602570  79.9888100  48.3367250  78.5607780  79.5245690
  41.7020150  79.5521940  80.5765290  40.8705030  79.2970650  80.9761800
  42.3101130  79.6232710  81.3123210  51.7061750  83.6462320  78.4788660
  51.2443280  82.8749560  78.8075830  52.5187300  83.6728390  78.9841110
  41.6821410  83.5862030  80.7723310  41.9849450  82.6959770  80.5933530
  42.4265000  84.1432250  80.5445560  40.1112100  74.5123830  74.3607680
  39.2228800  74.8539800  74.2587560  40.3953290  74.3124150  73.4688510
  38.0745110  77.1129480  80.2447380  38.6461220  76.3451680  80.2451020
  38.0746650  77.4118240  79.3353990  47.9325060  85.9320330  78.0992650
  47.3136500  86.3877830  77.5287090  48.7876840  86.0871790  77.6982350
  47.1263310  81.9159320  79.7059690  47.0571590  80.9749260  79.5448820
  47.8883170  82.0060730  80.2782260  48.1568480  74.7229700  79.9328620
  48.5333300  73.8501580  79.8202290  48.0587990  75.0588400  79.0419060
  42.2873490  73.0955330  75.3946060  42.3940240  73.9959060  75.7014820
  41.3765850  73.0473300  75.1040710  51.9392600  72.2180140  76.8656960
  52.7602220  71.7276710  76.9082440  51.9726680  72.8077800  77.6188800
  39.9356650  75.0174340  80.6398650  40.6166760  75.2812710  81.2586050
  39.6204700  74.1775210  80.9736660  44.1281220  76.0641700  79.7271240
  44.6359440  76.5622670  80.3676260  44.6594460  75.2876900  79.5510600
  48.7988410  80.8159570  75.4924560  48.1805680  81.2809020  74.9287280
  49.3111660  81.5087050  75.9094070  52.1754080  74.1580520  79.6384500
  51.4709650  74.4465410  80.2187610  52.5366240  74.9680630  79.2784060
  42.0932650  72.4150220  82.0005110  42.4349460  73.2592270  81.7058980
  41.1548460  72.5633960  82.1170450  38.1671610  81.5016100  72.8664190
  37.7899590  81.9903200  72.1349090  38.4244680  82.1741380  73.4970720
  53.7916860  83.7755650  81.9011980  53.1080380  84.4454760  81.8928650
  54.3311150  83.9736300  81.1356840  55.2441000  73.6035310  80.0293710
  54.2965910  73.6374290  80.1609140  55.5690990  74.4174260  80.4143070
  45.7760540  69.9032490  78.3249700  46.0835520  69.3479380  77.6085200
  44.8461240  70.0376950  78.1422690  51.3275600  85.6199780  80.6157160
  51.3402760  85.2162070  79.7479420  50.7750820  86.3947070  80.5118590
  52.6221020  82.3416000  75.7047330  52.5117350  81.3990330  75.8296750
  52.6189270  82.7031640  76.5910090  48.1641300  77.9681320  75.0609820
  47.2370580  77.9018700  75.2898290  48.3166120  78.9061450  74.9465060
  48.1510380  74.2398320  72.0576980  47.2114050  74.4012280  72.1429440
  48.4693640  74.9584000  71.5112970  54.6723140  78.9216840  82.0356010
  53.8441770  78.9909930  81.5606140  55.2673620  79.5071150  81.5671840
  52.1938590  79.5301620  75.5645070  51.5751010  79.1921170  74.9171370
  52.1763040  78.8861380  76.2724260  43.7697940  78.4946060  77.8429550
  43.3654940  77.7823310  77.3475450  43.8561060  78.1499300  78.7317590
  44.2379640  82.1813620  80.0068760  43.9407930  81.5759090  79.3276540
  45.1879460  82.2190930  79.8958120  50.3703290  78.7688430  72.5717820
  50.8096570  77.9310860  72.4255640  51.0831710  79.4017830  72.6581960
  48.4798670  83.7084500  76.5399060  48.9194580  84.4508830  76.1254450
  48.4185560  83.9511070  77.4638020  53.9520430  70.0231240  70.8858860
  53.6393090  70.1158070  71.7857930  54.7132900  70.6012270  70.8356290
  40.4702570  77.3891040  75.3436200  40.3500170  78.1153130  74.7317470
  40.1603460  76.6193950  74.8664110  38.1087940  80.5606180  81.1504840
  38.1868360  80.6954950  80.2060560  38.7229620  79.8522070  81.3432960
  39.3535570  82.2606370  77.5611020  38.9463650  82.4020960  76.7064620
  40.2448580  81.9766530  77.3582230  51.1468850  86.6953620  73.8962070
  50.9869990  86.4056560  74.7943900  50.9815560  85.9193750  73.3607300
  43.6257230  86.4752150  75.6733690  43.4499710  85.5587690  75.4601490
  42.7712970  86.8339440  75.9131490  50.8494980  84.2041180  72.4560070
  50.1560140  84.2018470  71.7962350  51.5917840  83.7800500  72.0254240
  50.4144910  85.8303890  76.5308560  50.8701860  85.0493270  76.8447180
  50.7537430  86.5410710  77.0749740  42.9366230  70.7326110  78.7259870
  42.4934380  71.5135650  78.3944390  43.4951220  71.0556000  79.4330810
  46.0525050  70.3536810  73.6065700  45.4279230  70.3496680  74.3319010
  45.9655170  69.4867770  73.2101670  44.9742130  71.2773440  80.5849470
  45.2714460  72.1836270  80.5041490  45.5227690  70.7892220  79.9709040
  42.7280450  75.8559680  76.4541120  42.5021370  75.6396850  77.3587740
  41.9472980  76.2888140  76.1087090  49.9578210  75.8623050  75.0531770
  49.3587100  76.5858850  74.8695390  50.5057820  75.7999830  74.2708220
  48.5643080  74.4986590  77.0835050  48.9572650  74.8158790  76.2703740
  48.9259930  73.6198470  77.1979570  37.6007250  71.0887390  79.3065250
  37.3120300  71.6590250  80.0190230  38.3453010  70.6091840  79.6696480
  37.7877480  75.0307510  70.5167970  37.7052150  75.9738270  70.6582960
  37.4360540  74.8882420  69.6380320  49.1498220  77.0892340  81.1785830
  48.4179340  77.5979150  81.5275930  48.7522560  76.2722320  80.8774610
  45.5875610  73.7646540  79.5838320  45.5911670  73.3236490  78.7342860
  46.4826730  74.0863870  79.6910140  41.4377990  73.6473030  78.5432530
  41.0978040  74.1248260  79.2999580  40.6755310  73.1938150  78.1833630
  45.6495760  74.7658620  72.5745080  45.7708580  74.7245100  73.5230900
  45.2644270  75.6282770  72.4191810  49.6124130  72.5426020  80.5908770
  49.6296870  72.9934670  81.4350620  49.3639710  71.6431660  80.8042210
  44.6617260  77.0759760  71.9728380  44.0934160  76.6278010  71.3464290
  45.3706260  77.4352540  71.4393530  45.8883580  77.8248320  81.3303730
  46.2553710  77.3506890  82.0765070  45.6988640  78.6989890  81.6712070
  38.7524070  72.5692010  77.4597200  38.4670990  72.2047680  78.2975820
  38.6902930  71.8372470  76.8460340  42.2064740  81.0717950  74.2454790
  41.4327000  80.5315570  74.0853510  42.9359370  80.5524560  73.9072550
  52.9652720  80.0683310  80.0381180  53.6851840  80.5638600  79.6477290
  52.7634540  79.3901200  79.3935050  48.4262660  71.4621270  74.1810570
  47.6127270  70.9634440  74.1055880  48.2324610  72.3019520  73.7646920
  51.1411050  75.8340920  72.4772730  52.0290670  76.1458150  72.3024070
  51.1116140  74.9613170  72.0853310  42.2502140  80.7398330  77.8833600
  42.7680810  79.9366590  77.8290490  41.7986160  80.6777470  78.7250430
  47.1371640  82.0064610  73.1560900  47.4787340  82.7506840  72.6604220
  46.3084350  82.3195730  73.5185730  53.4125320  77.1452760  71.9452590
  53.3289040  77.5766980  71.0949030  54.1319510  77.6051110  72.3779410
  54.4412570  83.9995020  74.6734720  53.7988730  83.3450640  74.9478440
  54.0543230  84.4050110  73.8975390  50.0199050  81.3280450  78.5206410
  50.3722870  80.7308580  77.8607780  49.1361380  81.0024680  78.6914660
  46.1062330  82.0878140  75.9276820  46.7933460  82.6347350  76.3084410
  45.3194750  82.6318870  75.9626430  38.2454730  77.7050960  71.4193900
  39.1149580  77.9875760  71.7029820  37.7545050  78.5186830  71.3042710
  45.4089540  79.0924170  75.5402180  45.8652320  79.9029420  75.7662370
  45.0577750  78.7747310  76.3720670  41.3101320  69.4361820  76.0124700
  41.1815950  69.4279720  76.9609620  40.4863340  69.7744910  75.6615710
  48.9854230  82.6062860  81.4871930  49.6276460  81.9056020  81.6004100
  49.5103580  83.3861300  81.3068820  52.8309950  82.8911480  71.2111070
  52.6047530  82.1741920  71.8035710  52.4406150  82.6423920  70.3732820
  38.6125980  86.9178340  71.9855530  38.9723620  87.5167680  71.3312800
  38.4718320  87.4638230  72.7590560  52.4126200  80.8083420  72.8725230
  52.1247900  81.2696110  73.6603110  53.2078370  80.3481190  73.1409450
  44.6294600  84.3009540  72.8029200  44.6204700  85.0339230  72.1873710
  43.7092960  84.0541120  72.8956160  40.2301240  79.5224430  73.5475960
  39.6229190  80.2623330  73.5571260  40.7050590  79.6123790  72.7214160
  53.1696060  72.6432190  74.0320410  52.5409220  72.7477860  73.3178640
  52.6747980  72.8628970  74.8214290  47.6154200  84.3637780  71.4654390
  47.7166180  84.1601770  70.5356370  46.7155940  84.1096060  71.6702170
  45.1380090  74.9218140  75.4478290  44.4296240  75.3904480  75.8891900
  45.4224570  74.2640150  76.0823480  49.1695520  71.6468800  76.8874080
  49.0463300  71.6654930  75.9383590  50.1180080  71.6947740  77.0072480
  46.2572310  86.8824100  76.1602060  46.5113810  86.8445490  75.2381430
  45.3084790  86.7557430  76.1530310  43.3415110  73.2303220  72.8229000
  44.1905640  73.6673370  72.7569190  42.9746380  73.5423480  73.6501060
  52.2624890  77.8015980  77.7360570  51.3215030  77.8166210  77.9108260
  52.5768960  77.0151940  78.1820870  42.2406530  79.4835580  71.2964530
  43.0069800  79.3716940  71.8589960  42.3181220  78.7873550  70.6441300
  40.9353290  76.9160650  71.9797420  41.0156880  75.9688160  72.0914820
  41.8273040  77.2467530  72.0858080  54.2650470  84.9724830  79.4114830
  54.3897890  85.7956000  79.8838640  55.1316030  84.7615560  79.0638980
  41.7368000  87.0656040  79.0831960  42.4730480  86.5171500  79.3540530
  42.1208920  87.9312050  78.9437950  38.6213480  83.1329610  74.9573470
  37.6953260  83.3750750  74.9478880  39.0869910  83.9603870  74.8358220
  44.8470310  86.2386350  70.9057530  45.6398920  86.5275180  70.4539320
  44.3274660  85.8078520  70.2270010  53.9000480  85.4656480  72.3294270
  53.6141990  85.0521620  71.5148450  53.7020030  86.3944190  72.2094790
  45.3647710  81.4589760  70.7699880  45.2598350  80.8442110  71.4961260
  45.1971930  80.9355650  69.9862890  48.6050440  80.5209790  71.3741870
  48.0560540  80.9679090  72.0184610  49.2269700  80.0159040  71.8979540
  44.2725560  79.4800710  73.2707170  44.6941980  79.3140580  74.1138560
  44.3976400  78.6700940  72.7762310  46.7853200  78.5038320  70.5184270
  47.3058860  77.7887340  70.1525420  47.4321600  79.1424190  70.8184780
  43.1684460  75.5533940  70.2165330  42.9673520  74.6901300  70.5778670
  42.9976510  75.4667300  69.2786930  50.6472770  70.3642170  72.7452210
  50.9275060  69.5210070  73.1011630  49.8738500  70.5965280  73.2590960
  41.9667260  72.6534560  70.2043210  42.2693160  72.6601990  69.2962360
  42.7061850  72.3032420  70.7010870  45.1852190  71.5969180  71.1899410
  44.8374190  70.9193170  70.6101860  45.3864960  71.1358690  72.0042800
  47.3501230  86.5849930  72.8086010  48.2452020  86.9234900  72.8304770
  47.3818860  85.8629340  72.1810290  40.9897390  81.9576980  71.0373010
  41.4272260  82.5006650  71.6930590  41.4745120  81.1323930  71.0469350
  38.2043190  84.7466010  78.4893270  38.5346200  83.8787070  78.2571910
  38.6334190  84.9524530  79.3198230  42.8005110  83.0775020  76.1495240
  42.5000650  82.9539990  77.0499150  42.6942600  82.2183610  75.7410970
  38.6933400  85.6136600  81.2274900  38.2564390  85.7937400  82.0599050
  39.2611080  86.3711220  81.0856620  55.5697030  82.8571420  70.8521920
  54.7389990  82.9248070  71.3229150  55.7468860  83.7475540  70.5488780
  55.0253490  79.6018900  73.3556120  55.7872400  80.1715550  73.4615810
  55.0407860  79.0346100  74.1264430  38.5257830  78.1256830  77.5863780
  37.8706670  77.8568470  76.9423480  39.3635780  78.0161310  77.1365760
  56.0313460  80.4569000  78.1998050  56.4022290  79.6736320  77.7934020
  56.6715390  81.1458100  78.0215350  55.0772660  79.8953270  70.5128640
  55.3521500  80.8032150  70.3847860  54.8883400  79.8315800  71.4490630
  51.4748270  72.9198120  71.8082270  51.8933150  72.7329100  70.9678930
  51.1684330  72.0677170  72.1185200  54.9738000  77.8322260  75.5058070
  54.5981600  77.0650190  75.0739360  54.2441120  78.2144960  75.9933000
  37.7395910  75.3355760  73.5289110  36.8359990  75.5985960  73.3540770
  38.2236530  75.6066930  72.7489070  54.2488960  76.0579750  78.8065310
  54.7726440  75.5642400  78.1755480  54.8348380  76.1930110  79.5512880
  40.2823120  74.3921300  71.4383490  40.9914820  73.9704520  70.9530770
  39.5663060  74.4596530  70.8066840  39.9297280  70.4460630  70.4786140
  40.6525410  70.9869570  70.7967360  40.2021800  70.1724050  69.6027680
  53.7388930  75.3153100  74.7457720  54.2348050  75.0823970  75.5306600
  53.5405000  74.4764940  74.3295360  39.6189470  69.6966820  80.3808760
  40.2665660  69.1464200  79.9403920  40.0391310  69.9509970  81.2024570
  55.1676090  73.9514050  77.2795400  55.0575370  73.7970090  78.2177670
  55.9283680  73.4234990  77.0370810  56.0566360  71.7821970  70.5201540
  56.9815670  71.6503150  70.3119830  56.0342150  71.8614790  71.4737990
  56.1304850  72.5532630  73.1458250  55.3356350  72.4877750  73.6751160
  56.3348130  73.4883270  73.1343600  53.0723270  86.5924180  77.1396640
  53.6682340  86.2708750  76.4631060  53.3301420  86.1196000  77.9309910
  53.6235480  87.2419480  80.9694370  53.1638450  87.9935290  80.5952390
  52.9947940  86.5225950  80.9109170  44.0531200  85.5507720  80.1442500
  44.5696220  84.9395080  79.6190760  44.7028580  86.0536500  80.6353510
  46.7926700  86.4416210  80.9711480  47.0804510  86.1870510  80.0944490
  47.3049920  85.8893570  81.5617050  48.0103710  70.1806410  81.5507990
  47.2275500  70.6551910  81.8304750  47.7166640  69.2761240  81.4421170
  52.5624780  70.8829510  79.5957080  53.0032870  70.8274610  78.7478680
  52.2932370  71.7987520  79.6667260  54.4263350  70.5144750  77.6065900
  54.3651750  69.5705970  77.4596920  55.2055380  70.6224840  78.1519360
  38.7316100  86.6537110  76.5689850  38.5638140  86.0207790  77.2671740
  37.8650610  86.8596510  76.2184040  39.3544120  70.4853890  74.0721710
  40.1123480  70.5982770  73.4985740  38.8921290  71.3223090  74.0265140
  45.8957930  72.5993160  77.0624020  45.0832440  72.2250050  76.7219900
  46.3999570  71.8438240  77.3645210  50.3982910  69.2635610  78.3007090
  51.0012280  69.8355820  78.7755610  49.6575900  69.8275050  78.0780990
  53.5417510  69.6657170  73.5747370  53.7368140  70.5640620  73.8414800
  52.7547380  69.4344250  74.0680320  40.3378800  85.3470340  74.0139990
  39.8126420  85.7278370  73.3101950  40.2623380  85.9721110  74.7349700
  41.7269270  71.0117940  72.6123680  42.2562030  70.2247740  72.4831630
  42.3597590  71.6909130  72.8459210  43.9207110  70.7493080  75.6669070
  43.2909850  70.0480390  75.8339200  43.3812250  71.5097210  75.4502230
  55.0944120  86.9057880  75.3353930  55.2696310  86.2195620  74.6914850
  54.3965690  87.4304930  74.9430600  42.9371770  87.2952720  72.8889240
  43.6690590  87.0112000  72.3413130  43.1965440  87.0566000  73.7788620
  42.0986560  83.4117450  72.8935570  41.4695440  83.8802550  73.4421400
  42.2134390  82.5666670  73.3281760  49.5536280  77.4623110  59.0436770
  49.4730330  76.5477720  58.7728480  49.1400700  77.9590180  58.3376480
  47.6854320  79.2402130  60.9246040  46.9096420  78.7602570  61.2144610
  48.3367250  78.5607780  60.7502200  41.7020150  79.5521940  61.8021800
  40.8705030  79.2970650  62.2018310  42.3101130  79.6232710  62.5379720
  51.7061750  83.6462320  59.7045170  51.2443280  82.8749560  60.0332340
  52.5187300  83.6728390  60.2097620  41.6821410  83.5862030  61.9979820
  41.9849450  82.6959770  61.8190040  42.4265000  84.1432250  61.7702070
  40.1112100  74.5123830  55.5864190  39.2228800  74.8539800  55.4844070
  40.3953290  74.3124150  54.6945020  38.0745110  77.1129480  61.4703890
  38.6461220  76.3451680  61.4707530  38.0746650  77.4118240  60.5610500
  47.9325060  85.9320330  59.3249160  47.3136500  86.3877830  58.7543600
  48.7876840  86.0871790  58.9238860  47.1263310  81.9159320  60.9316200
  47.0571590  80.9749260  60.7705330  47.8883170  82.0060730  61.5038770
  39.3169980  72.5213840  63.2572820  39.1372820  71.6239590  63.5375580
  38.9150060  73.0685710  63.9319770  48.1568480  74.7229700  61.1585130
  48.5333300  73.8501580  61.0458800  48.0587990  75.0588400  60.2675570
  42.2873490  73.0955330  56.6202570  42.3940240  73.9959060  56.9271330
  41.3765850  73.0473300  56.3297220  39.9356650  75.0174340  61.8655160
  40.6166760  75.2812710  62.4842560  39.6204700  74.1775210  62.1993170
  44.1281220  76.0641700  60.9527750  44.6359440  76.5622670  61.5932770
  44.6594460  75.2876900  60.7767110  56.2292150  74.2346890  64.6557100
  55.5244320  74.6228600  64.1372210  56.4950070  74.9297180  65.2578030
  42.4117320  70.7040260  65.2191170  42.4135760  71.2212650  64.4137070
  41.5821630  70.2270440  65.1961100  48.7988410  80.8159570  56.7181070
  48.1805680  81.2809020  56.1543790  49.3111660  81.5087050  57.1350580
  43.6620170  80.3435440  63.3964670  43.3289550  80.9704360  64.0385740
  43.8386850  80.8697320  62.6166340  52.1754080  74.1580520  60.8641010
  51.4709650  74.4465410  61.4444120  52.5366240  74.9680630  60.5040570
  42.0932650  72.4150220  63.2261620  42.4349460  73.2592270  62.9315490
  41.1548460  72.5633960  63.3426960  42.8739270  82.3116240  65.2113850
  43.4913270  82.9867320  64.9298300  42.0132390  82.7204220  65.1201350
  38.1671610  81.5016100  54.0920700  37.7899590  81.9903200  53.3605600
  38.4244680  82.1741380  54.7227230  53.7916860  83.7755650  63.1268490
  53.1080380  84.4454760  63.1185160  54.3311150  83.9736300  62.3613350
  55.2441000  73.6035310  61.2550220  54.2965910  73.6374290  61.3865650
  55.5690990  74.4174260  61.6399580  45.7760540  69.9032490  59.5506210
  46.0835520  69.3479380  58.8341710  44.8461240  70.0376950  59.3679200
  51.3275600  85.6199780  61.8413670  51.3402760  85.2162070  60.9735930
  50.7750820  86.3947070  61.7375100  52.6221020  82.3416000  56.9303840
  52.5117350  81.3990330  57.0553260  52.6189270  82.7031640  57.8166600
  50.7261040  80.5229620  63.1696280  51.1429830  80.3089730  62.3349740
  51.4500860  80.7802410  63.7404900  48.1641300  77.9681320  56.2866330
  47.2370580  77.9018700  56.5154800  48.3166120  78.9061450  56.1721570
  48.1510380  74.2398320  53.2833490  47.2114050  74.4012280  53.3685950
  48.4693640  74.9584000  52.7369480  54.6723140  78.9216840  63.2612520
  53.8441770  78.9909930  62.7862650  55.2673620  79.5071150  62.7928350
  52.1938590  79.5301620  56.7901580  51.5751010  79.1921170  56.1427880
  52.1763040  78.8861380  57.4980770  51.6365150  75.7086160  64.2067390
  51.2236330  76.5339870  64.4607380  50.9041100  75.1231200  64.0143750
  43.7697940  78.4946060  59.0686060  43.3654940  77.7823310  58.5731960
  43.8561060  78.1499300  59.9574100  44.2379640  82.1813620  61.2325270
  43.9407930  81.5759090  60.5533050  45.1879460  82.2190930  61.1214630
  42.4826560  75.2689270  62.8485100  43.0341150  75.3784610  62.0738350
  42.9970070  75.6426870  63.5640330  52.3265250  85.7545490  64.8948370
  51.8495810  86.5617680  64.7020980  51.6427040  85.1023820  65.0474580
  43.3298070  81.9195310  67.8833070  42.4326600  82.1435280  68.1306470
  43.3550940  82.0430250  66.9344470  50.3703290  78.7688430  53.7974330
  50.8096570  77.9310860  53.6512150  51.0831710  79.4017830  53.8838470
  42.1569290  78.7908630  66.4590440  42.0177060  79.6631430  66.8277840
  41.2750650  78.4481440  66.3138380  48.4798670  83.7084500  57.7655570
  48.9194580  84.4508830  57.3510960  48.4185560  83.9511070  58.6894530
  43.9549640  84.7330330  68.6675590  43.9265070  85.1373280  67.8004020
  43.7914610  83.8040690  68.5047190  40.4702570  77.3891040  56.5692710
  40.3500170  78.1153130  55.9573980  40.1603460  76.6193950  56.0920620
  55.9064460  85.5157430  69.9639760  56.3824180  85.9940320  70.6428840
  56.5271620  85.4474920  69.2385260  38.1087940  80.5606180  62.3761350
  38.1868360  80.6954950  61.4317070  38.7229620  79.8522070  62.5689470
  39.3535570  82.2606370  58.7867530  38.9463650  82.4020960  57.9321130
  40.2448580  81.9766530  58.5838740  55.3097710  82.7070280  67.1239770
  55.4360770  82.4682160  66.2056950  55.3519090  81.8754820  67.5961850
  49.1714450  86.4098280  65.6934580  49.6859120  86.3206290  66.4957010
  48.3283530  86.7557980  65.9862490  51.1468850  86.6953620  55.1218580
  50.9869990  86.4056560  56.0200410  50.9815560  85.9193750  54.5863810
  43.6257230  86.4752150  56.8990200  43.4499710  85.5587690  56.6858000
  42.7712970  86.8339440  57.1388000  50.8494980  84.2041180  53.6816580
  50.1560140  84.2018470  53.0218860  51.5917840  83.7800500  53.2510750
  50.4144910  85.8303890  57.7565070  50.8701860  85.0493270  58.0703690
  50.7537430  86.5410710  58.3006250  55.1621720  74.7602740  68.0889510
  54.5465990  75.2682410  67.5604970  54.8418140  73.8601070  68.0315450
  38.1647460  81.6020350  64.9155810  38.3278500  81.1325710  64.0975180
  38.6299910  81.0943910  65.5804650  42.9366230  70.7326110  59.9516380
  42.4934380  71.5135650  59.6200900  43.4951220  71.0556000  60.6587320
  47.2236040  73.5994630  65.5551700  46.7615410  73.8077650  66.3671640
  46.8214150  72.7853980  65.2522370  52.2240550  74.8203580  66.6848360
  51.3734140  74.5209330  67.0057430  52.0642340  75.0645590  65.7732180
  49.3190260  76.3205330  68.7847150  49.6443670  75.4869080  68.4449380
  50.1070590  76.8433850  68.9325480  44.9742130  71.2773440  61.8105980
  45.2714460  72.1836270  61.7298000  45.5227690  70.7892220  61.1965550
  42.7280450  75.8559680  57.6797630  42.5021370  75.6396850  58.5844250
  41.9472980  76.2888140  57.3343600  49.9578210  75.8623050  56.2788280
  49.3587100  76.5858850  56.0951900  50.5057820  75.7999830  55.4964730
  45.1679660  76.7545260  68.3457900  45.0723260  75.8139990  68.1958300
  46.0111640  76.9760330  67.9505970  48.5643080  74.4986590  58.3091560
  48.9572650  74.8158790  57.4960250  48.9259930  73.6198470  58.4236080
  40.2990200  73.1658930  66.4991680  39.9053590  74.0134140  66.7064460
  39.6108600  72.5285300  66.6900320  46.8735250  73.2493900  69.5688420
  46.1833570  73.0566100  70.2034510  47.6167550  73.5328540  70.1012720
  37.6007250  71.0887390  60.5321760  37.3120300  71.6590250  61.2446740
  38.3453010  70.6091840  60.8952990  37.7877480  75.0307510  51.7424480
  37.7052150  75.9738270  51.8839470  37.4360540  74.8882420  50.8636830
  49.1498220  77.0892340  62.4042340  48.4179340  77.5979150  62.7532440
  48.7522560  76.2722320  62.1031120  45.5875610  73.7646540  60.8094830
  45.5911670  73.3236490  59.9599370  46.4826730  74.0863870  60.9166650
  41.4377990  73.6473030  59.7689040  41.0978040  74.1248260  60.5256090
  40.6755310  73.1938150  59.4090140  45.6495760  74.7658620  53.8001590
  45.7708580  74.7245100  54.7487410  45.2644270  75.6282770  53.6448320
  49.6124130  72.5426020  61.8165280  49.6296870  72.9934670  62.6607130
  49.3639710  71.6431660  62.0298720  44.6617260  77.0759760  53.1984890
  44.0934160  76.6278010  52.5720800  45.3706260  77.4352540  52.6650040
  53.0394880  69.9558200  67.6551660  53.3640650  69.2247860  68.1809640
  53.0751390  69.6371840  66.7532650  39.7386440  80.9771780  67.0751620
  39.3541230  80.3365450  67.6734580  40.0498630  81.6807900  67.6446350
  45.8883580  77.8248320  62.5560240  46.2553710  77.3506890  63.3021580
  45.6988640  78.6989890  62.8968580  38.7524070  72.5692010  58.6853710
  38.4670990  72.2047680  59.5232330  38.6902930  71.8372470  58.0716850
  43.6782950  76.8656960  64.8744450  43.3740020  77.7448940  65.0994810
  44.6329410  76.9256750  64.9101890  42.2064740  81.0717950  55.4711300
  41.4327000  80.5315570  55.3110020  42.9359370  80.5524560  55.1329060
  52.9652720  80.0683310  61.2637690  53.6851840  80.5638600  60.8733800
  52.7634540  79.3901200  60.6191560  48.3471520  80.1392370  67.1506690
  48.2808830  79.2188040  66.8964280  47.7176660  80.2367810  67.8651330
  51.1411050  75.8340920  53.7029240  52.0290670  76.1458150  53.5280580
  51.1116140  74.9613170  53.3109820  42.2502140  80.7398330  59.1090110
  42.7680810  79.9366590  59.0547000  41.7986160  80.6777470  59.9506940
  47.1371640  82.0064610  54.3817410  47.4787340  82.7506840  53.8860730
  46.3084350  82.3195730  54.7442240  39.7346680  77.7059700  66.0215810
  39.3761620  78.3713550  66.6089150  39.4401240  76.8743250  66.3928430
  42.9359800  78.1643940  68.9055360  42.6359940  78.3101120  68.0083180
  43.7071040  77.6049230  68.8128750  48.2788250  82.9612940  66.9010490
  48.2932790  82.0293900  66.6829400  47.5713350  83.0472700  67.5400260
  54.4899460  79.6020280  66.2479070  53.7647650  80.1949060  66.0508460
  55.0174920  79.5943820  65.4492440  54.4412570  83.9995020  55.8991230
  53.7988730  83.3450640  56.1734950  54.0543230  84.4050110  55.1231900
  50.0199050  81.3280450  59.7462920  50.3722870  80.7308580  59.0864290
  49.1361380  81.0024680  59.9171170  46.1062330  82.0878140  57.1533330
  46.7933460  82.6347350  57.5340920  45.3194750  82.6318870  57.1882940
  38.2454730  77.7050960  52.6450410  39.1149580  77.9875760  52.9286330
  37.7545050  78.5186830  52.5299220  45.4089540  79.0924170  56.7658690
  45.8652320  79.9029420  56.9918880  45.0577750  78.7747310  57.5977180
  47.7122150  84.6030510  63.9950990  48.3564370  84.8089890  64.6724410
  48.0751590  83.8418910  63.5421840  48.9854230  82.6062860  62.7128440
  49.6276460  81.9056020  62.8260610  49.5103580  83.3861300  62.5325330
  52.8309950  82.8911480  52.4367580  52.6047530  82.1741920  53.0292220
  52.4406150  82.6423920  51.5989330  50.7591850  83.4057760  65.9164500
  51.0948090  83.9924450  66.5942420  49.8392190  83.2750470  66.1462290
  38.6125980  86.9178340  53.2112040  38.9723620  87.5167680  52.5569310
  38.4718320  87.4638230  53.9847070  38.3095250  71.1952940  66.6987910
  37.5953770  71.3949860  67.3040520  38.7290290  70.4192510  67.0702710
  52.4126200  80.8083420  54.0981740  52.1247900  81.2696110  54.8859620
  53.2078370  80.3481190  54.3665960  38.5967840  85.1833200  67.6854440
  38.7058960  84.2427940  67.5449830  37.9448400  85.4487950  67.0368170
  46.5880430  83.4549090  69.0852560  46.2677300  82.7358330  69.6298250
  45.9138790  84.1304160  69.1588620  44.6294600  84.3009540  54.0285710
  44.6204700  85.0339230  53.4130220  43.7092960  84.0541120  54.1212670
  40.2301240  79.5224430  54.7732470  39.6229190  80.2623330  54.7827770
  40.7050590  79.6123790  53.9470670  49.8034030  73.6875250  64.4489360
  50.1714850  72.8670460  64.7768930  48.9432230  73.7477140  64.8645010
  47.6154200  84.3637780  52.6910900  47.7166180  84.1601770  51.7612880
  46.7155940  84.1096060  52.8958680  45.1380090  74.9218140  56.6734800
  44.4296240  75.3904480  57.1148410  45.4224570  74.2640150  57.3079990
  46.7636020  76.3414840  64.6727330  47.2621270  76.8160660  65.3379180
  46.9058970  75.4178360  64.8797360  49.1695520  71.6468800  58.1130590
  49.0463300  71.6654930  57.1640100  50.1180080  71.6947740  58.2328990
  46.2572310  86.8824100  57.3858570  46.5113810  86.8445490  56.4637940
  45.3084790  86.7557430  57.3786820  43.3415110  73.2303220  54.0485510
  44.1905640  73.6673370  53.9825700  42.9746380  73.5423480  54.8757570
  53.9702880  72.5582800  65.5155720  53.4676480  73.2988200  65.8549530
  54.7859540  72.9466800  65.1992510  52.2624890  77.8015980  58.9617080
  51.3215030  77.8166210  59.1364770  52.5768960  77.0151940  59.4077380
  42.2406530  79.4835580  52.5221040  43.0069800  79.3716940  53.0846470
  42.3181220  78.7873550  51.8697810  40.9353290  76.9160650  53.2053930
  41.0156880  75.9688160  53.3171330  41.8273040  77.2467530  53.3114590
  54.2650470  84.9724830  60.6371340  54.3897890  85.7956000  61.1095150
  55.1316030  84.7615560  60.2895490  41.7368000  87.0656040  60.3088470
  42.4730480  86.5171500  60.5797040  42.1208920  87.9312050  60.1694460
  38.6213480  83.1329610  56.1829980  37.6953260  83.3750750  56.1735390
  39.0869910  83.9603870  56.0614730  40.7426280  86.2502110  69.4974050
  41.5439010  86.5714160  69.9109450  40.2278100  85.8897690  70.2193960
  44.8470310  86.2386350  52.1314040  45.6398920  86.5275180  51.6795830
  44.3274660  85.8078520  51.4526520  49.5790910  82.3581980  69.4449460
  48.9729070  82.3813580  68.7045210  49.2745020  81.6265020  69.9816710
  51.0091280  86.0862270  68.0558870  51.9613030  86.0020290  68.0059110
  50.8619500  86.7503980  68.7292660  53.9000480  85.4656480  53.5550780
  53.6141990  85.0521620  52.7404960  53.7020030  86.3944190  53.4351300
  38.4624090  78.7375570  68.4410100  38.9663110  78.1582850  69.0126330
  37.7231510  79.0215800  68.9786470  45.3647710  81.4589760  51.9956390
  45.2598350  80.8442110  52.7217770  45.1971930  80.9355650  51.2119400
  45.5162030  80.1446560  67.9745620  44.7507700  80.7131560  67.8900290
  45.6977990  79.8522770  67.0813850  48.6050440  80.5209790  52.5998380
  48.0560540  80.9679090  53.2441120  49.2269700  80.0159040  53.1236050
  52.6585380  81.8751890  68.5320640  53.3994850  82.2127650  68.0288100
  51.8958060  82.0443950  67.9790410  40.4947170  76.8805160  69.3360170
  40.5352510  76.5819030  70.2445400  41.3492670  77.2812770  69.1767690
  44.2725560  79.4800710  54.4963680  44.6941980  79.3140580  55.3395070
  44.3976400  78.6700940  54.0018820  42.4352980  75.4597260  67.3034660
  41.9049440  74.9688210  66.6758000  43.1041050  75.8881460  66.7692590
  46.7853200  78.5038320  51.7440780  47.3058860  77.7887340  51.3781930
  47.4321600  79.1424190  52.0441290  51.3331040  79.9266720  67.0675850
  51.7472060  80.0811800  67.9166270  50.3982040  80.0521940  67.2301630
  51.8053210  77.2662880  69.0715000  52.3873980  76.5115200  68.9835480
  51.9814980  77.7970320  68.2946480  42.9225280  72.4259630  67.3831950
  42.8282150  71.8080380  66.6582820  42.3422670  73.1525920  67.1561860
  45.6886720  70.9832870  64.4159340  45.2404020  71.0057130  63.5704890
  45.0551920  70.5851890  65.0129640  46.0946270  79.8787200  65.0371780
  46.5134380  80.7219930  64.8648020  45.1754900  80.0159240  64.8078560
  48.4310170  77.6103380  66.4209620  48.5506380  77.0144520  67.1604460
  49.2904170  77.6473070  66.0010920  50.7698070  78.1640570  64.9972130
  50.2433290  78.6883190  64.3937270  51.1129410  78.7967960  65.6281860
  43.1684460  75.5533940  51.4421840  42.9673520  74.6901300  51.8035180
  42.9976510  75.4667300  50.5043440  43.9453690  86.1840210  66.1529510
  43.4074780  86.9086270  65.8338210  44.1987650  85.7070550  65.3626850
  45.1978940  74.1524730  67.6785440  45.7878630  73.8440580  68.3663260
  44.3799180  73.6804480  67.8345340  50.0172370  73.7690540  67.9118460
  49.3287890  73.1072080  67.8468450  50.7378390  73.3228810  68.3566920
  41.9667260  72.6534560  51.4299720  42.2693160  72.6601990  50.5218870
  42.7061850  72.3032420  51.9267380  46.8015900  87.4191420  66.4116160
  46.7274600  88.3226560  66.7188530  45.8994740  87.1003320  66.3838230
  47.3501230  86.5849930  54.0342520  48.2452020  86.9234900  54.0561280
  47.3818860  85.8629340  53.4066800  40.9897390  81.9576980  52.2629520
  41.4272260  82.5006650  52.9187100  41.4745120  81.1323930  52.2725860
  38.2043190  84.7466010  59.7149780  38.5346200  83.8787070  59.4828420
  38.6334190  84.9524530  60.5454740  42.8005110  83.0775020  57.3751750
  42.5000650  82.9539990  58.2755660  42.6942600  82.2183610  56.9667480
  38.6933400  85.6136600  62.4531410  38.2564390  85.7937400  63.2855560
  39.2611080  86.3711220  62.3113130  54.3295580  85.1153600  66.7408720
  53.7297570  85.1746160  65.9972640  54.4589480  84.1758580  66.8705570
  55.5697030  82.8571420  52.0778430  54.7389990  82.9248070  52.5485660
  55.7468860  83.7475540  51.7745290  38.5257830  78.1256830  58.8120290
  37.8706670  77.8568470  58.1679990  39.3635780  78.0161310  58.3622270
  56.0313460  80.4569000  59.4254560  56.4022290  79.6736320  59.0190530
  56.6715390  81.1458100  59.2471860  53.0147220  81.8405580  64.8384880
  52.2007060  82.2702740  65.1010670  53.4221420  82.4523990  64.2253930
  55.0772660  79.8953270  51.7385150  55.3521500  80.8032150  51.6104370
  54.8883400  79.8315800  52.6747140  39.5633760  78.5109400  63.3523630
  39.9306800  78.4236800  64.2319650  38.9944580  77.7475950  63.2530490
  54.3637620  76.9793780  66.3654100  54.1323710  76.7506530  65.4652050
  54.6242170  77.8993330  66.3198990  39.1149760  75.4218490  67.2582050
  38.2205810  75.3885250  67.5975760  39.6547310  75.6205280  68.0233300
  52.8025690  72.2050210  69.1433800  53.6795870  72.2133610  69.5267800
  52.8146530  71.4681050  68.5326150  37.7395910  75.3355760  54.7545620
  36.8359990  75.5985960  54.5797280  38.2236530  75.6066930  53.9745580
  54.2488960  76.0579750  60.0321820  54.7726440  75.5642400  59.4011990
  54.8348380  76.1930110  60.7769390  54.4278680  76.1419620  63.5541370
  53.4781390  76.1083160  63.6686360  54.6091690  77.0519730  63.3191140
  40.2823120  74.3921300  52.6640000  40.9914820  73.9704520  52.1787280
  39.5663060  74.4596530  52.0323350  39.6189470  69.6966820  61.6065270
  40.2665660  69.1464200  61.1660430  40.0391310  69.9509970  62.4281080
  53.5141810  69.8908180  64.9634910  54.1514030  70.5042320  65.3294100
  53.6616700  69.9268840  64.0184140  53.0723270  86.5924180  58.3653150
  53.6682340  86.2708750  57.6887570  53.3301420  86.1196000  59.1566420
  39.3721470  69.8522490  64.3490590  39.0236290  70.3086310  65.1148770
  39.0409170  68.9579620  64.4313020  40.9785840  83.0242090  68.5143780
  40.9355470  82.6535000  69.3958240  41.1096850  83.9619660  68.6545600
  44.6791870  84.5801680  64.1153500  44.4383230  84.8476240  63.2284020
  45.6194510  84.7507410  64.1704360  46.8846290  71.0434370  67.8710010
  46.8235180  71.6356200  68.6205420  47.8246670  70.9360330  67.7260270
  49.5220850  70.7004430  67.5102300  50.1361260  71.0183720  66.8483380
  50.0670410  70.2153020  68.1298160  55.9396030  86.5996060  64.9164140
  55.4454310  86.9964930  64.1991270  55.3309320  85.9745270  65.3101420
  40.0442110  69.3798690  67.6241360  40.5925100  69.1986740  66.8607470
  40.1097420  68.5892800  68.1597670  40.8173870  85.9704340  65.6341560
  40.2234190  85.8389040  66.3731600  40.8097710  85.1342480  65.1683660
  50.2628890  69.2636570  63.8371590  49.3888730  69.5971680  63.6344520
  50.1539640  68.7909750  64.6623460  51.1700870  71.4707440  65.2213310
  50.8414230  70.6559200  64.8415040  52.1183170  71.4277250  65.0979000
  53.6235480  87.2419480  62.1950880  53.1638450  87.9935290  61.8208900
  52.9947940  86.5225950  62.1365680  40.4486100  83.3362720  64.5849600
  39.7220160  82.7168010  64.5175550  40.5095250  83.7303330  63.7147680
  44.0531200  85.5507720  61.3699010  44.5696220  84.9395080  60.8447270
  44.7028580  86.0536500  61.8610020  46.7926700  86.4416210  62.1967990
  47.0804510  86.1870510  61.3201000  47.3049920  85.8893570  62.7873560
  48.0103710  70.1806410  62.7764500  47.2275500  70.6551910  63.0561260
  47.7166640  69.2761240  62.6677680  52.5624780  70.8829510  60.8213590
  53.0032870  70.8274610  59.9735190  52.2932370  71.7987520  60.8923770
  38.7316100  86.6537110  57.7946360  38.5638140  86.0207790  58.4928250
  37.8650610  86.8596510  57.4440550  45.8957930  72.5993160  58.2880530
  45.0832440  72.2250050  57.9476410  46.3999570  71.8438240  58.5901720
  40.3378800  85.3470340  55.2396500  39.8126420  85.7278370  54.5358460
  40.2623380  85.9721110  55.9606210  43.9207110  70.7493080  56.8925580
  43.2909850  70.0480390  57.0595710  43.3812250  71.5097210  56.6758740
  46.8599060  87.3632310  69.5636190  47.7866370  87.1276580  69.6072150
  46.8449490  88.1904310  69.0822220  55.0944120  86.9057880  56.5610440
  55.2696310  86.2195620  55.9171360  54.3965690  87.4304930  56.1687110
  44.0462670  70.0277060  69.3278070  43.7646940  70.5310660  68.5638890
  44.4282370  69.2298810  68.9620200  42.9371770  87.2952720  54.1145750
  43.6690590  87.0112000  53.5669640  43.1965440  87.0566000  55.0045130
  42.0986560  83.4117450  54.1192080  41.4695440  83.8802550  54.6677910
  42.2134390  82.5666670  54.5538270  50.6478130  69.4430640  69.9058540
  50.5343580  69.7625250  70.8010060  51.4647870  69.8443150  69.6095820
  53.4276620  86.5902170  69.3877230  54.2201940  86.0951400  69.1803190
  53.7209770  87.2692310  69.9952840  49.5536280  77.4623110  40.2693280
  49.4730330  76.5477720  39.9984990  49.1400700  77.9590180  39.5632990
  47.6854320  79.2402130  42.1502550  46.9096420  78.7602570  42.4401120
  48.3367250  78.5607780  41.9758710  41.7020150  79.5521940  43.0278310
  40.8705030  79.2970650  43.4274820  42.3101130  79.6232710  43.7636230
  51.7061750  83.6462320  40.9301680  51.2443280  82.8749560  41.2588850
  52.5187300  83.6728390  41.4354130  41.6821410  83.5862030  43.2236330
  41.9849450  82.6959770  43.0446550  42.4265000  84.1432250  42.9958580
  40.1112100  74.5123830  36.8120700  39.2228800  74.8539800  36.7100580
  40.3953290  74.3124150  35.9201530  38.0745110  77.1129480  42.6960400
  38.6461220  76.3451680  42.6964040  38.0746650  77.4118240  41.7867010
  47.9325060  85.9320330  40.5505670  47.3136500  86.3877830  39.9800110
  48.7876840  86.0871790  40.1495370  47.1263310  81.9159320  42.1572710
  47.0571590  80.9749260  41.9961840  47.8883170  82.0060730  42.7295280
  39.3169980  72.5213840  44.4829330  39.1372820  71.6239590  44.7632090
  38.9150060  73.0685710  45.1576280  48.1568480  74.7229700  42.3841640
  48.5333300  73.8501580  42.2715310  48.0587990  75.0588400  41.4932080
  42.2873490  73.0955330  37.8459080  42.3940240  73.9959060  38.1527840
  41.3765850  73.0473300  37.5553730  39.9356650  75.0174340  43.0911670
  40.6166760  75.2812710  43.7099070  39.6204700  74.1775210  43.4249680
  44.1281220  76.0641700  42.1784260  44.6359440  76.5622670  42.8189280
  44.6594460  75.2876900  42.0023620  48.7988410  80.8159570  37.9437580
  48.1805680  81.2809020  37.3800300  49.3111660  81.5087050  38.3607090
  43.6620170  80.3435440  44.6221180  43.3289550  80.9704360  45.2642250
  43.8386850  80.8697320  43.8422850  42.0932650  72.4150220  44.4518130
  42.4349460  73.2592270  44.1572000  41.1548460  72.5633960  44.5683470
  42.8739270  82.3116240  46.4370360  43.4913270  82.9867320  46.1554810
  42.0132390  82.7204220  46.3457860  38.1671610  81.5016100  35.3177210
  37.7899590  81.9903200  34.5862110  38.4244680  82.1741380  35.9483740
  53.7916860  83.7755650  44.3525000  53.1080380  84.4454760  44.3441670
  54.3311150  83.9736300  43.5869860  51.3275600  85.6199780  43.0670180
  51.3402760  85.2162070  42.1992440  50.7750820  86.3947070  42.9631610
  52.6221020  82.3416000  38.1560350  52.5117350  81.3990330  38.2809770
  52.6189270  82.7031640  39.0423110  50.7261040  80.5229620  44.3952790
  51.1429830  80.3089730  43.5606250  51.4500860  80.7802410  44.9661410
  48.1641300  77.9681320  37.5122840  47.2370580  77.9018700  37.7411310
  48.3166120  78.9061450  37.3978080  48.1510380  74.2398320  34.5090000
  47.2114050  74.4012280  34.5942460  48.4693640  74.9584000  33.9625990
  52.1938590  79.5301620  38.0158090  51.5751010  79.1921170  37.3684390
  52.1763040  78.8861380  38.7237280  51.6365150  75.7086160  45.4323900
  51.2236330  76.5339870  45.6863890  50.9041100  75.1231200  45.2400260
  43.7697940  78.4946060  40.2942570  43.3654940  77.7823310  39.7988470
  43.8561060  78.1499300  41.1830610  44.2379640  82.1813620  42.4581780
  43.9407930  81.5759090  41.7789560  45.1879460  82.2190930  42.3471140
  42.4826560  75.2689270  44.0741610  43.0341150  75.3784610  43.2994860
  42.9970070  75.6426870  44.7896840  52.3265250  85.7545490  46.1204880
  51.8495810  86.5617680  45.9277490  51.6427040  85.1023820  46.2731090
  43.3298070  81.9195310  49.1089580  42.4326600  82.1435280  49.3562980
  43.3550940  82.0430250  48.1600980  50.3703290  78.7688430  35.0230840
  50.8096570  77.9310860  34.8768660  51.0831710  79.4017830  35.1094980
  42.1569290  78.7908630  47.6846950  42.0177060  79.6631430  48.0534350
  41.2750650  78.4481440  47.5394890  48.4798670  83.7084500  38.9912080
  48.9194580  84.4508830  38.5767470  48.4185560  83.9511070  39.9151040
  43.9549640  84.7330330  49.8932100  43.9265070  85.1373280  49.0260530
  43.7914610  83.8040690  49.7303700  40.4702570  77.3891040  37.7949220
  40.3500170  78.1153130  37.1830490  40.1603460  76.6193950  37.3177130
  55.9064460  85.5157430  51.1896270  56.3824180  85.9940320  51.8685350
  56.5271620  85.4474920  50.4641770  38.1087940  80.5606180  43.6017860
  38.1868360  80.6954950  42.6573580  38.7229620  79.8522070  43.7945980
  39.3535570  82.2606370  40.0124040  38.9463650  82.4020960  39.1577640
  40.2448580  81.9766530  39.8095250  55.3097710  82.7070280  48.3496280
  55.4360770  82.4682160  47.4313460  55.3519090  81.8754820  48.8218360
  49.1714450  86.4098280  46.9191090  49.6859120  86.3206290  47.7213520
  48.3283530  86.7557980  47.2119000  51.1468850  86.6953620  36.3475090
  50.9869990  86.4056560  37.2456920  50.9815560  85.9193750  35.8120320
  43.6257230  86.4752150  38.1246710  43.4499710  85.5587690  37.9114510
  42.7712970  86.8339440  38.3644510  50.8494980  84.2041180  34.9073090
  50.1560140  84.2018470  34.2475370  51.5917840  83.7800500  34.4767260
  50.4144910  85.8303890  38.9821580  50.8701860  85.0493270  39.2960200
  50.7537430  86.5410710  39.5262760  38.1647460  81.6020350  46.1412320
  38.3278500  81.1325710  45.3231690  38.6299910  81.0943910  46.8061160
  47.2236040  73.5994630  46.7808210  46.7615410  73.8077650  47.5928150
  46.8214150  72.7853980  46.4778880  49.3190260  76.3205330  50.0103660
  49.6443670  75.4869080  49.6705890  50.1070590  76.8433850  50.1581990
  42.7280450  75.8559680  38.9054140  42.5021370  75.6396850  39.8100760
  41.9472980  76.2888140  38.5600110  49.9578210  75.8623050  37.5044790
  49.3587100  76.5858850  37.3208410  50.5057820  75.7999830  36.7221240
  45.1679660  76.7545260  49.5714410  45.0723260  75.8139990  49.4214810
  46.0111640  76.9760330  49.1762480  48.5643080  74.4986590  39.5348070
  48.9572650  74.8158790  38.7216760  48.9259930  73.6198470  39.6492590
  40.2990200  73.1658930  47.7248190  39.9053590  74.0134140  47.9320970
  39.6108600  72.5285300  47.9156830  37.7877480  75.0307510  32.9680990
  37.7052150  75.9738270  33.1095980  37.4360540  74.8882420  32.0893340
  49.1498220  77.0892340  43.6298850  48.4179340  77.5979150  43.9788950
  48.7522560  76.2722320  43.3287630  45.5875610  73.7646540  42.0351340
  45.5911670  73.3236490  41.1855880  46.4826730  74.0863870  42.1423160
  41.4377990  73.6473030  40.9945550  41.0978040  74.1248260  41.7512600
  40.6755310  73.1938150  40.6346650  45.6495760  74.7658620  35.0258100
  45.7708580  74.7245100  35.9743920  45.2644270  75.6282770  34.8704830
  44.6617260  77.0759760  34.4241400  44.0934160  76.6278010  33.7977310
  45.3706260  77.4352540  33.8906550  39.7386440  80.9771780  48.3008130
  39.3541230  80.3365450  48.8991090  40.0498630  81.6807900  48.8702860
  45.8883580  77.8248320  43.7816750  46.2553710  77.3506890  44.5278090
  45.6988640  78.6989890  44.1225090  38.7524070  72.5692010  39.9110220
  38.4670990  72.2047680  40.7488840  38.6902930  71.8372470  39.2973360
  43.6782950  76.8656960  46.1000960  43.3740020  77.7448940  46.3251320
  44.6329410  76.9256750  46.1358400  42.2064740  81.0717950  36.6967810
  41.4327000  80.5315570  36.5366530  42.9359370  80.5524560  36.3585570
  52.9652720  80.0683310  42.4894200  53.6851840  80.5638600  42.0990310
  52.7634540  79.3901200  41.8448070  48.3471520  80.1392370  48.3763200
  48.2808830  79.2188040  48.1220790  47.7176660  80.2367810  49.0907840
  51.1411050  75.8340920  34.9285750  52.0290670  76.1458150  34.7537090
  51.1116140  74.9613170  34.5366330  42.2502140  80.7398330  40.3346620
  42.7680810  79.9366590  40.2803510  41.7986160  80.6777470  41.1763450
  47.1371640  82.0064610  35.6073920  47.4787340  82.7506840  35.1117240
  46.3084350  82.3195730  35.9698750  39.7346680  77.7059700  47.2472320
  39.3761620  78.3713550  47.8345660  39.4401240  76.8743250  47.6184940
  42.9359800  78.1643940  50.1311870  42.6359940  78.3101120  49.2339690
  43.7071040  77.6049230  50.0385260  48.2788250  82.9612940  48.1267000
  48.2932790  82.0293900  47.9085910  47.5713350  83.0472700  48.7656770
  54.4899460  79.6020280  47.4735580  53.7647650  80.1949060  47.2764970
  55.0174920  79.5943820  46.6748950  54.4412570  83.9995020  37.1247740
  53.7988730  83.3450640  37.3991460  54.0543230  84.4050110  36.3488410
  50.0199050  81.3280450  40.9719430  50.3722870  80.7308580  40.3120800
  49.1361380  81.0024680  41.1427680  46.1062330  82.0878140  38.3789840
  46.7933460  82.6347350  38.7597430  45.3194750  82.6318870  38.4139450
  38.2454730  77.7050960  33.8706920  39.1149580  77.9875760  34.1542840
  37.7545050  78.5186830  33.7555730  45.4089540  79.0924170  37.9915200
  45.8652320  79.9029420  38.2175390  45.0577750  78.7747310  38.8233690
  47.7122150  84.6030510  45.2207500  48.3564370  84.8089890  45.8980920
  48.0751590  83.8418910  44.7678350  48.9854230  82.6062860  43.9384950
  49.6276460  81.9056020  44.0517120  49.5103580  83.3861300  43.7581840
  52.8309950  82.8911480  33.6624090  52.6047530  82.1741920  34.2548730
  52.4406150  82.6423920  32.8245840  50.7591850  83.4057760  47.1421010
  51.0948090  83.9924450  47.8198930  49.8392190  83.2750470  47.3718800
  38.6125980  86.9178340  34.4368550  38.9723620  87.5167680  33.7825820
  38.4718320  87.4638230  35.2103580  52.4126200  80.8083420  35.3238250
  52.1247900  81.2696110  36.1116130  53.2078370  80.3481190  35.5922470
  38.5967840  85.1833200  48.9110950  38.7058960  84.2427940  48.7706340
  37.9448400  85.4487950  48.2624680  46.5880430  83.4549090  50.3109070
  46.2677300  82.7358330  50.8554760  45.9138790  84.1304160  50.3845130
  44.6294600  84.3009540  35.2542220  44.6204700  85.0339230  34.6386730
  43.7092960  84.0541120  35.3469180  40.2301240  79.5224430  35.9988980
  39.6229190  80.2623330  36.0084280  40.7050590  79.6123790  35.1727180
  49.8034030  73.6875250  45.6745870  50.1714850  72.8670460  46.0025440
  48.9432230  73.7477140  46.0901520  47.6154200  84.3637780  33.9167410
  47.7166180  84.1601770  32.9869390  46.7155940  84.1096060  34.1215190
  45.1380090  74.9218140  37.8991310  44.4296240  75.3904480  38.3404920
  45.4224570  74.2640150  38.5336500  46.7636020  76.3414840  45.8983840
  47.2621270  76.8160660  46.5635690  46.9058970  75.4178360  46.1053870
  46.2572310  86.8824100  38.6115080  46.5113810  86.8445490  37.6894450
  45.3084790  86.7557430  38.6043330  43.3415110  73.2303220  35.2742020
  44.1905640  73.6673370  35.2082210  42.9746380  73.5423480  36.1014080
  52.2624890  77.8015980  40.1873590  51.3215030  77.8166210  40.3621280
  52.5768960  77.0151940  40.6333890  42.2406530  79.4835580  33.7477550
  43.0069800  79.3716940  34.3102980  42.3181220  78.7873550  33.0954320
  40.9353290  76.9160650  34.4310440  41.0156880  75.9688160  34.5427840
  41.8273040  77.2467530  34.5371100  54.2650470  84.9724830  41.8627850
  54.3897890  85.7956000  42.3351660  55.1316030  84.7615560  41.5152000
  41.7368000  87.0656040  41.5344980  42.4730480  86.5171500  41.8053550
  42.1208920  87.9312050  41.3950970  38.6213480  83.1329610  37.4086490
  37.6953260  83.3750750  37.3991900  39.0869910  83.9603870  37.2871240
  40.7426280  86.2502110  50.7230560  41.5439010  86.5714160  51.1365960
  40.2278100  85.8897690  51.4450470  44.8470310  86.2386350  33.3570550
  45.6398920  86.5275180  32.9052340  44.3274660  85.8078520  32.6783030
  49.5790910  82.3581980  50.6705970  48.9729070  82.3813580  49.9301720
  49.2745020  81.6265020  51.2073220  51.0091280  86.0862270  49.2815380
  51.9613030  86.0020290  49.2315620  50.8619500  86.7503980  49.9549170
  53.9000480  85.4656480  34.7807290  53.6141990  85.0521620  33.9661470
  53.7020030  86.3944190  34.6607810  38.4624090  78.7375570  49.6666610
  38.9663110  78.1582850  50.2382840  37.7231510  79.0215800  50.2042980
  45.3647710  81.4589760  33.2212900  45.2598350  80.8442110  33.9474280
  45.1971930  80.9355650  32.4375910  45.5162030  80.1446560  49.2002130
  44.7507700  80.7131560  49.1156800  45.6977990  79.8522770  48.3070360
  48.6050440  80.5209790  33.8254890  48.0560540  80.9679090  34.4697630
  49.2269700  80.0159040  34.3492560  52.6585380  81.8751890  49.7577150
  53.3994850  82.2127650  49.2544610  51.8958060  82.0443950  49.2046920
  40.4947170  76.8805160  50.5616680  40.5352510  76.5819030  51.4701910
  41.3492670  77.2812770  50.4024200  44.2725560  79.4800710  35.7220190
  44.6941980  79.3140580  36.5651580  44.3976400  78.6700940  35.2275330
  42.4352980  75.4597260  48.5291170  41.9049440  74.9688210  47.9014510
  43.1041050  75.8881460  47.9949100  46.7853200  78.5038320  32.9697290
  47.3058860  77.7887340  32.6038440  47.4321600  79.1424190  33.2697800
  51.3331040  79.9266720  48.2932360  51.7472060  80.0811800  49.1422780
  50.3982040  80.0521940  48.4558140  51.8053210  77.2662880  50.2971510
  52.3873980  76.5115200  50.2091990  51.9814980  77.7970320  49.5202990
  42.9225280  72.4259630  48.6088460  42.8282150  71.8080380  47.8839330
  42.3422670  73.1525920  48.3818370  46.0946270  79.8787200  46.2628290
  46.5134380  80.7219930  46.0904530  45.1754900  80.0159240  46.0335070
  48.4310170  77.6103380  47.6466130  48.5506380  77.0144520  48.3860970
  49.2904170  77.6473070  47.2267430  50.7698070  78.1640570  46.2228640
  50.2433290  78.6883190  45.6193780  51.1129410  78.7967960  46.8538370
  43.1684460  75.5533940  32.6678350  42.9673520  74.6901300  33.0291690
  42.9976510  75.4667300  31.7299950  43.9453690  86.1840210  47.3786020
  43.4074780  86.9086270  47.0594720  44.1987650  85.7070550  46.5883360
  45.1978940  74.1524730  48.9041950  45.7878630  73.8440580  49.5919770
  44.3799180  73.6804480  49.0601850  50.0172370  73.7690540  49.1374970
  49.3287890  73.1072080  49.0724960  50.7378390  73.3228810  49.5823430
  41.9667260  72.6534560  32.6556230  42.2693160  72.6601990  31.7475380
  42.7061850  72.3032420  33.1523890  46.8015900  87.4191420  47.6372670
  46.7274600  88.3226560  47.9445040  45.8994740  87.1003320  47.6094740
  47.3501230  86.5849930  35.2599030  48.2452020  86.9234900  35.2817790
  47.3818860  85.8629340  34.6323310  40.9897390  81.9576980  33.4886030
  41.4272260  82.5006650  34.1443610  41.4745120  81.1323930  33.4982370
  38.2043190  84.7466010  40.9406290  38.5346200  83.8787070  40.7084930
  38.6334190  84.9524530  41.7711250  42.8005110  83.0775020  38.6008260
  42.5000650  82.9539990  39.5012170  42.6942600  82.2183610  38.1923990
  38.6933400  85.6136600  43.6787920  38.2564390  85.7937400  44.5112070
  39.2611080  86.3711220  43.5369640  54.3295580  85.1153600  47.9665230
  53.7297570  85.1746160  47.2229150  54.4589480  84.1758580  48.0962080
  55.5697030  82.8571420  33.3034940  54.7389990  82.9248070  33.7742170
  55.7468860  83.7475540  33.0001800  55.0253490  79.6018900  35.8069140
  55.7872400  80.1715550  35.9128830  55.0407860  79.0346100  36.5777450
  38.5257830  78.1256830  40.0376800  37.8706670  77.8568470  39.3936500
  39.3635780  78.0161310  39.5878780  56.0313460  80.4569000  40.6511070
  56.4022290  79.6736320  40.2447040  56.6715390  81.1458100  40.4728370
  53.0147220  81.8405580  46.0641390  52.2007060  82.2702740  46.3267180
  53.4221420  82.4523990  45.4510440  55.0772660  79.8953270  32.9641660
  55.3521500  80.8032150  32.8360880  54.8883400  79.8315800  33.9003650
  51.4748270  72.9198120  34.2595290  51.8933150  72.7329100  33.4191950
  51.1684330  72.0677170  34.5698220  39.5633760  78.5109400  44.5780140
  39.9306800  78.4236800  45.4576160  38.9944580  77.7475950  44.4787000
  39.1149760  75.4218490  48.4838560  38.2205810  75.3885250  48.8232270
  39.6547310  75.6205280  49.2489810  37.7395910  75.3355760  35.9802130
  36.8359990  75.5985960  35.8053790  38.2236530  75.6066930  35.2002090
  40.2823120  74.3921300  33.8896510  40.9914820  73.9704520  33.4043790
  39.5663060  74.4596530  33.2579860  53.0723270  86.5924180  39.5909660
  53.6682340  86.2708750  38.9144080  53.3301420  86.1196000  40.3822930
  40.9785840  83.0242090  49.7400290  40.9355470  82.6535000  50.6214750
  41.1096850  83.9619660  49.8802110  44.6791870  84.5801680  45.3410010
  44.4383230  84.8476240  44.4540530  45.6194510  84.7507410  45.3960870
  55.9396030  86.5996060  46.1420650  55.4454310  86.9964930  45.4247780
  55.3309320  85.9745270  46.5357930  40.8173870  85.9704340  46.8598070
  40.2234190  85.8389040  47.5988110  40.8097710  85.1342480  46.3940170
  53.6235480  87.2419480  43.4207390  53.1638450  87.9935290  43.0465410
  52.9947940  86.5225950  43.3622190  40.4486100  83.3362720  45.8106110
  39.7220160  82.7168010  45.7432060  40.5095250  83.7303330  44.9404190
  44.0531200  85.5507720  42.5955520  44.5696220  84.9395080  42.0703780
  44.7028580  86.0536500  43.0866530  46.7926700  86.4416210  43.4224500
  47.0804510  86.1870510  42.5457510  47.3049920  85.8893570  44.0130070
  38.7316100  86.6537110  39.0202870  38.5638140  86.0207790  39.7184760
  37.8650610  86.8596510  38.6697060  40.3378800  85.3470340  36.4653010
  39.8126420  85.7278370  35.7614970  40.2623380  85.9721110  37.1862720
  46.8599060  87.3632310  50.7892700  47.7866370  87.1276580  50.8328660
  46.8449490  88.1904310  50.3078730  55.0944120  86.9057880  37.7866950
  55.2696310  86.2195620  37.1427870  54.3965690  87.4304930  37.3943620
  42.9371770  87.2952720  35.3402260  43.6690590  87.0112000  34.7926150
  43.1965440  87.0566000  36.2301640  42.0986560  83.4117450  35.3448590
  41.4695440  83.8802550  35.8934420  42.2134390  82.5666670  35.7794780
  53.4276620  86.5902170  50.6133740  54.2201940  86.0951400  50.4059700
  53.7209770  87.2692310  51.2209350  49.5536280  77.4623110  21.4949790
  49.4730330  76.5477720  21.2241500  49.1400700  77.9590180  20.7889500
  47.6854320  79.2402130  23.3759060  46.9096420  78.7602570  23.6657630
  48.3367250  78.5607780  23.2015220  41.7020150  79.5521940  24.2534820
  40.8705030  79.2970650  24.6531330  42.3101130  79.6232710  24.9892740
  51.7061750  83.6462320  22.1558190  51.2443280  82.8749560  22.4845360
  52.5187300  83.6728390  22.6610640  41.6821410  83.5862030  24.4492840
  41.9849450  82.6959770  24.2703060  42.4265000  84.1432250  24.2215090
  40.1112100  74.5123830  18.0377210  39.2228800  74.8539800  17.9357090
  40.3953290  74.3124150  17.1458040  38.0745110  77.1129480  23.9216910
  38.6461220  76.3451680  23.9220550  38.0746650  77.4118240  23.0123520
  47.9325060  85.9320330  21.7762180  47.3136500  86.3877830  21.2056620
  48.7876840  86.0871790  21.3751880  47.1263310  81.9159320  23.3829220
  47.0571590  80.9749260  23.2218350  47.8883170  82.0060730  23.9551790
  48.1568480  74.7229700  23.6098150  48.5333300  73.8501580  23.4971820
  48.0587990  75.0588400  22.7188590  42.2873490  73.0955330  19.0715590
  42.3940240  73.9959060  19.3784350  41.3765850  73.0473300  18.7810240
  51.9392600  72.2180140  20.5426490  52.7602220  71.7276710  20.5851970
  51.9726680  72.8077800  21.2958330  39.9356650  75.0174340  24.3168180
  40.6166760  75.2812710  24.9355580  39.6204700  74.1775210  24.6506190
  44.1281220  76.0641700  23.4040770  44.6359440  76.5622670  24.0445790
  44.6594460  75.2876900  23.2280130  48.7988410  80.8159570  19.1694090
  48.1805680  81.2809020  18.6056810  49.3111660  81.5087050  19.5863600
  43.6620170  80.3435440  25.8477690  43.3289550  80.9704360  26.4898760
  43.8386850  80.8697320  25.0679360  52.1754080  74.1580520  23.3154030
  51.4709650  74.4465410  23.8957140  52.5366240  74.9680630  22.9553590
  42.0932650  72.4150220  25.6774640  42.4349460  73.2592270  25.3828510
  41.1548460  72.5633960  25.7939980  42.8739270  82.3116240  27.6626870
  43.4913270  82.9867320  27.3811320  42.0132390  82.7204220  27.5714370
  38.1671610  81.5016100  16.5433720  37.7899590  81.9903200  15.8118620
  38.4244680  82.1741380  17.1740250  53.7916860  83.7755650  25.5781510
  53.1080380  84.4454760  25.5698180  54.3311150  83.9736300  24.8126370
  55.2441000  73.6035310  23.7063240  54.2965910  73.6374290  23.8378670
  55.5690990  74.4174260  24.0912600  51.3275600  85.6199780  24.2926690
  51.3402760  85.2162070  23.4248950  50.7750820  86.3947070  24.1888120
  52.6221020  82.3416000  19.3816860  52.5117350  81.3990330  19.5066280
  52.6189270  82.7031640  20.2679620  50.7261040  80.5229620  25.6209300
  51.1429830  80.3089730  24.7862760  51.4500860  80.7802410  26.1917920
  48.1641300  77.9681320  18.7379350  47.2370580  77.9018700  18.9667820
  48.3166120  78.9061450  18.6234590  48.1510380  74.2398320  15.7346510
  47.2114050  74.4012280  15.8198970  48.4693640  74.9584000  15.1882500
  54.6723140  78.9216840  25.7125540  53.8441770  78.9909930  25.2375670
  55.2673620  79.5071150  25.2441370  52.1938590  79.5301620  19.2414600
  51.5751010  79.1921170  18.5940900  52.1763040  78.8861380  19.9493790
  51.6365150  75.7086160  26.6580410  51.2236330  76.5339870  26.9120400
  50.9041100  75.1231200  26.4656770  43.7697940  78.4946060  21.5199080
  43.3654940  77.7823310  21.0244980  43.8561060  78.1499300  22.4087120
  44.2379640  82.1813620  23.6838290  43.9407930  81.5759090  23.0046070
  45.1879460  82.2190930  23.5727650  42.4826560  75.2689270  25.2998120
  43.0341150  75.3784610  24.5251370  42.9970070  75.6426870  26.0153350
  52.3265250  85.7545490  27.3461390  51.8495810  86.5617680  27.1534000
  51.6427040  85.1023820  27.4987600  43.3298070  81.9195310  30.3346090
  42.4326600  82.1435280  30.5819490  43.3550940  82.0430250  29.3857490
  50.3703290  78.7688430  16.2487350  50.8096570  77.9310860  16.1025170
  51.0831710  79.4017830  16.3351490  42.1569290  78.7908630  28.9103460
  42.0177060  79.6631430  29.2790860  41.2750650  78.4481440  28.7651400
  48.4798670  83.7084500  20.2168590  48.9194580  84.4508830  19.8023980
  48.4185560  83.9511070  21.1407550  43.9549640  84.7330330  31.1188610
  43.9265070  85.1373280  30.2517040  43.7914610  83.8040690  30.9560210
  53.9520430  70.0231240  14.5628390  53.6393090  70.1158070  15.4627460
  54.7132900  70.6012270  14.5125820  40.4702570  77.3891040  19.0205730
  40.3500170  78.1153130  18.4087000  40.1603460  76.6193950  18.5433640
  55.9064460  85.5157430  32.4152780  56.3824180  85.9940320  33.0941860
  56.5271620  85.4474920  31.6898280  38.1087940  80.5606180  24.8274370
  38.1868360  80.6954950  23.8830090  38.7229620  79.8522070  25.0202490
  39.3535570  82.2606370  21.2380550  38.9463650  82.4020960  20.3834150
  40.2448580  81.9766530  21.0351760  55.3097710  82.7070280  29.5752790
  55.4360770  82.4682160  28.6569970  55.3519090  81.8754820  30.0474870
  49.1714450  86.4098280  28.1447600  49.6859120  86.3206290  28.9470030
  48.3283530  86.7557980  28.4375510  51.1468850  86.6953620  17.5731600
  50.9869990  86.4056560  18.4713430  50.9815560  85.9193750  17.0376830
  43.6257230  86.4752150  19.3503220  43.4499710  85.5587690  19.1371020
  42.7712970  86.8339440  19.5901020  50.8494980  84.2041180  16.1329600
  50.1560140  84.2018470  15.4731880  51.5917840  83.7800500  15.7023770
  50.4144910  85.8303890  20.2078090  50.8701860  85.0493270  20.5216710
  50.7537430  86.5410710  20.7519270  38.1647460  81.6020350  27.3668830
  38.3278500  81.1325710  26.5488200  38.6299910  81.0943910  28.0317670
  42.9366230  70.7326110  22.4029400  42.4934380  71.5135650  22.0713920
  43.4951220  71.0556000  23.1100340  52.2240550  74.8203580  29.1361380
  51.3734140  74.5209330  29.4570450  52.0642340  75.0645590  28.2245200
  49.3190260  76.3205330  31.2360170  49.6443670  75.4869080  30.8962400
  50.1070590  76.8433850  31.3838500  46.0525050  70.3536810  17.2835230
  45.4279230  70.3496680  18.0088540  45.9655170  69.4867770  16.8871200
  42.7280450  75.8559680  20.1310650  42.5021370  75.6396850  21.0357270
  41.9472980  76.2888140  19.7856620  49.9578210  75.8623050  18.7301300
  49.3587100  76.5858850  18.5464920  50.5057820  75.7999830  17.9477750
  45.1679660  76.7545260  30.7970920  45.0723260  75.8139990  30.6471320
  46.0111640  76.9760330  30.4018990  48.5643080  74.4986590  20.7604580
  48.9572650  74.8158790  19.9473270  48.9259930  73.6198470  20.8749100
  40.2990200  73.1658930  28.9504700  39.9053590  74.0134140  29.1577480
  39.6108600  72.5285300  29.1413340  37.7877480  75.0307510  14.1937500
  37.7052150  75.9738270  14.3352490  37.4360540  74.8882420  13.3149850
  49.1498220  77.0892340  24.8555360  48.4179340  77.5979150  25.2045460
  48.7522560  76.2722320  24.5544140  45.5875610  73.7646540  23.2607850
  45.5911670  73.3236490  22.4112390  46.4826730  74.0863870  23.3679670
  41.4377990  73.6473030  22.2202060  41.0978040  74.1248260  22.9769110
  40.6755310  73.1938150  21.8603160  45.6495760  74.7658620  16.2514610
  45.7708580  74.7245100  17.2000430  45.2644270  75.6282770  16.0961340
  49.6124130  72.5426020  24.2678300  49.6296870  72.9934670  25.1120150
  49.3639710  71.6431660  24.4811740  44.6617260  77.0759760  15.6497910
  44.0934160  76.6278010  15.0233820  45.3706260  77.4352540  15.1163060
  39.7386440  80.9771780  29.5264640  39.3541230  80.3365450  30.1247600
  40.0498630  81.6807900  30.0959370  45.8883580  77.8248320  25.0073260
  46.2553710  77.3506890  25.7534600  45.6988640  78.6989890  25.3481600
  38.7524070  72.5692010  21.1366730  38.4670990  72.2047680  21.9745350
  38.6902930  71.8372470  20.5229870  43.6782950  76.8656960  27.3257470
  43.3740020  77.7448940  27.5507830  44.6329410  76.9256750  27.3614910
  42.2064740  81.0717950  17.9224320  41.4327000  80.5315570  17.7623040
  42.9359370  80.5524560  17.5842080  52.9652720  80.0683310  23.7150710
  53.6851840  80.5638600  23.3246820  52.7634540  79.3901200  23.0704580
  48.4262660  71.4621270  17.8580100  47.6127270  70.9634440  17.7825410
  48.2324610  72.3019520  17.4416450  48.3471520  80.1392370  29.6019710
  48.2808830  79.2188040  29.3477300  47.7176660  80.2367810  30.3164350
  51.1411050  75.8340920  16.1542260  52.0290670  76.1458150  15.9793600
  51.1116140  74.9613170  15.7622840  42.2502140  80.7398330  21.5603130
  42.7680810  79.9366590  21.5060020  41.7986160  80.6777470  22.4019960
  47.1371640  82.0064610  16.8330430  47.4787340  82.7506840  16.3373750
  46.3084350  82.3195730  17.1955260  39.7346680  77.7059700  28.4728830
  39.3761620  78.3713550  29.0602170  39.4401240  76.8743250  28.8441450
  42.9359800  78.1643940  31.3568380  42.6359940  78.3101120  30.4596200
  43.7071040  77.6049230  31.2641770  48.2788250  82.9612940  29.3523510
  48.2932790  82.0293900  29.1342420  47.5713350  83.0472700  29.9913280
  53.4125320  77.1452760  15.6222120  53.3289040  77.5766980  14.7718560
  54.1319510  77.6051110  16.0548940  54.4899460  79.6020280  28.6992090
  53.7647650  80.1949060  28.5021480  55.0174920  79.5943820  27.9005460
  54.4412570  83.9995020  18.3504250  53.7988730  83.3450640  18.6247970
  54.0543230  84.4050110  17.5744920  50.0199050  81.3280450  22.1975940
  50.3722870  80.7308580  21.5377310  49.1361380  81.0024680  22.3684190
  46.1062330  82.0878140  19.6046350  46.7933460  82.6347350  19.9853940
  45.3194750  82.6318870  19.6395960  38.2454730  77.7050960  15.0963430
  39.1149580  77.9875760  15.3799350  37.7545050  78.5186830  14.9812240
  45.4089540  79.0924170  19.2171710  45.8652320  79.9029420  19.4431900
  45.0577750  78.7747310  20.0490200  47.7122150  84.6030510  26.4464010
  48.3564370  84.8089890  27.1237430  48.0751590  83.8418910  25.9934860
  41.3101320  69.4361820  19.6894230  41.1815950  69.4279720  20.6379150
  40.4863340  69.7744910  19.3385240  48.9854230  82.6062860  25.1641460
  49.6276460  81.9056020  25.2773630  49.5103580  83.3861300  24.9838350
  52.8309950  82.8911480  14.8880600  52.6047530  82.1741920  15.4805240
  52.4406150  82.6423920  14.0502350  50.7591850  83.4057760  28.3677520
  51.0948090  83.9924450  29.0455440  49.8392190  83.2750470  28.5975310
  38.6125980  86.9178340  15.6625060  38.9723620  87.5167680  15.0082330
  38.4718320  87.4638230  16.4360090  52.4126200  80.8083420  16.5494760
  52.1247900  81.2696110  17.3372640  53.2078370  80.3481190  16.8178980
  38.5967840  85.1833200  30.1367460  38.7058960  84.2427940  29.9962850
  37.9448400  85.4487950  29.4881190  46.5880430  83.4549090  31.5365580
  46.2677300  82.7358330  32.0811270  45.9138790  84.1304160  31.6101640
  44.6294600  84.3009540  16.4798730  44.6204700  85.0339230  15.8643240
  43.7092960  84.0541120  16.5725690  40.2301240  79.5224430  17.2245490
  39.6229190  80.2623330  17.2340790  40.7050590  79.6123790  16.3983690
  49.8034030  73.6875250  26.9002380  50.1714850  72.8670460  27.2281950
  48.9432230  73.7477140  27.3158030  53.1696060  72.6432190  17.7089940
  52.5409220  72.7477860  16.9948170  52.6747980  72.8628970  18.4983820
  47.6154200  84.3637780  15.1423920  47.7166180  84.1601770  14.2125900
  46.7155940  84.1096060  15.3471700  45.1380090  74.9218140  19.1247820
  44.4296240  75.3904480  19.5661430  45.4224570  74.2640150  19.7593010
  46.7636020  76.3414840  27.1240350  47.2621270  76.8160660  27.7892200
  46.9058970  75.4178360  27.3310380  49.1695520  71.6468800  20.5643610
  49.0463300  71.6654930  19.6153120  50.1180080  71.6947740  20.6842010
  46.2572310  86.8824100  19.8371590  46.5113810  86.8445490  18.9150960
  45.3084790  86.7557430  19.8299840  43.3415110  73.2303220  16.4998530
  44.1905640  73.6673370  16.4338720  42.9746380  73.5423480  17.3270590
  52.2624890  77.8015980  21.4130100  51.3215030  77.8166210  21.5877790
  52.5768960  77.0151940  21.8590400  42.2406530  79.4835580  14.9734060
  43.0069800  79.3716940  15.5359490  42.3181220  78.7873550  14.3210830
  40.9353290  76.9160650  15.6566950  41.0156880  75.9688160  15.7684350
  41.8273040  77.2467530  15.7627610  54.2650470  84.9724830  23.0884360
  54.3897890  85.7956000  23.5608170  55.1316030  84.7615560  22.7408510
  41.7368000  87.0656040  22.7601490  42.4730480  86.5171500  23.0310060
  42.1208920  87.9312050  22.6207480  38.6213480  83.1329610  18.6343000
  37.6953260  83.3750750  18.6248410  39.0869910  83.9603870  18.5127750
  40.7426280  86.2502110  31.9487070  41.5439010  86.5714160  32.3622470
  40.2278100  85.8897690  32.6706980  44.8470310  86.2386350  14.5827060
  45.6398920  86.5275180  14.1308850  44.3274660  85.8078520  13.9039540
  49.5790910  82.3581980  31.8962480  48.9729070  82.3813580  31.1558230
  49.2745020  81.6265020  32.4329730  51.0091280  86.0862270  30.5071890
  51.9613030  86.0020290  30.4572130  50.8619500  86.7503980  31.1805680
  53.9000480  85.4656480  16.0063800  53.6141990  85.0521620  15.1917980
  53.7020030  86.3944190  15.8864320  38.4624090  78.7375570  30.8923120
  38.9663110  78.1582850  31.4639350  37.7231510  79.0215800  31.4299490
  45.3647710  81.4589760  14.4469410  45.2598350  80.8442110  15.1730790
  45.1971930  80.9355650  13.6632420  45.5162030  80.1446560  30.4258640
  44.7507700  80.7131560  30.3413310  45.6977990  79.8522770  29.5326870
  48.6050440  80.5209790  15.0511400  48.0560540  80.9679090  15.6954140
  49.2269700  80.0159040  15.5749070  52.6585380  81.8751890  30.9833660
  53.3994850  82.2127650  30.4801120  51.8958060  82.0443950  30.4303430
  40.4947170  76.8805160  31.7873190  40.5352510  76.5819030  32.6958420
  41.3492670  77.2812770  31.6280710  44.2725560  79.4800710  16.9476700
  44.6941980  79.3140580  17.7908090  44.3976400  78.6700940  16.4531840
  42.4352980  75.4597260  29.7547680  41.9049440  74.9688210  29.1271020
  43.1041050  75.8881460  29.2205610  46.7853200  78.5038320  14.1953800
  47.3058860  77.7887340  13.8294950  47.4321600  79.1424190  14.4954310
  51.3331040  79.9266720  29.5188870  51.7472060  80.0811800  30.3679290
  50.3982040  80.0521940  29.6814650  51.8053210  77.2662880  31.5228020
  52.3873980  76.5115200  31.4348500  51.9814980  77.7970320  30.7459500
  46.0946270  79.8787200  27.4884800  46.5134380  80.7219930  27.3161040
  45.1754900  80.0159240  27.2591580  48.4310170  77.6103380  28.8722640
  48.5506380  77.0144520  29.6117480  49.2904170  77.6473070  28.4523940
  50.7698070  78.1640570  27.4485150  50.2433290  78.6883190  26.8450290
  51.1129410  78.7967960  28.0794880  43.1684460  75.5533940  13.8934860
  42.9673520  74.6901300  14.2548200  42.9976510  75.4667300  12.9556460
  43.9453690  86.1840210  28.6042530  43.4074780  86.9086270  28.2851230
  44.1987650  85.7070550  27.8139870  45.1978940  74.1524730  30.1298460
  45.7878630  73.8440580  30.8176280  44.3799180  73.6804480  30.2858360
  50.0172370  73.7690540  30.3631480  49.3287890  73.1072080  30.2981470
  50.7378390  73.3228810  30.8079940  50.6472770  70.3642170  16.4221740
  50.9275060  69.5210070  16.7781160  49.8738500  70.5965280  16.9360490
  41.9667260  72.6534560  13.8812740  42.2693160  72.6601990  12.9731890
  42.7061850  72.3032420  14.3780400  46.8015900  87.4191420  28.8629180
  46.7274600  88.3226560  29.1701550  45.8994740  87.1003320  28.8351250
  45.1852190  71.5969180  14.8668940  44.8374190  70.9193170  14.2871390
  45.3864960  71.1358690  15.6812330  47.3501230  86.5849930  16.4855540
  48.2452020  86.9234900  16.5074300  47.3818860  85.8629340  15.8579820
  40.9897390  81.9576980  14.7142540  41.4272260  82.5006650  15.3700120
  41.4745120  81.1323930  14.7238880  38.2043190  84.7466010  22.1662800
  38.5346200  83.8787070  21.9341440  38.6334190  84.9524530  22.9967760
  42.8005110  83.0775020  19.8264770  42.5000650  82.9539990  20.7268680
  42.6942600  82.2183610  19.4180500  38.6933400  85.6136600  24.9044430
  38.2564390  85.7937400  25.7368580  39.2611080  86.3711220  24.7626150
  54.3295580  85.1153600  29.1921740  53.7297570  85.1746160  28.4485660
  54.4589480  84.1758580  29.3218590  55.5697030  82.8571420  14.5291450
  54.7389990  82.9248070  14.9998680  55.7468860  83.7475540  14.2258310
  55.0253490  79.6018900  17.0325650  55.7872400  80.1715550  17.1385340
  55.0407860  79.0346100  17.8033960  38.5257830  78.1256830  21.2633310
  37.8706670  77.8568470  20.6193010  39.3635780  78.0161310  20.8135290
  56.0313460  80.4569000  21.8767580  56.4022290  79.6736320  21.4703550
  56.6715390  81.1458100  21.6984880  53.0147220  81.8405580  27.2897900
  52.2007060  82.2702740  27.5523690  53.4221420  82.4523990  26.6766950
  55.0772660  79.8953270  14.1898170  55.3521500  80.8032150  14.0617390
  54.8883400  79.8315800  15.1260160  51.4748270  72.9198120  15.4851800
  51.8933150  72.7329100  14.6448460  51.1684330  72.0677170  15.7954730
  54.9738000  77.8322260  19.1827600  54.5981600  77.0650190  18.7508890
  54.2441120  78.2144960  19.6702530  39.5633760  78.5109400  25.8036650
  39.9306800  78.4236800  26.6832670  38.9944580  77.7475950  25.7043510
  39.1149760  75.4218490  29.7095070  38.2205810  75.3885250  30.0488780
  39.6547310  75.6205280  30.4746320  37.7395910  75.3355760  17.2058640
  36.8359990  75.5985960  17.0310300  38.2236530  75.6066930  16.4258600
  54.2488960  76.0579750  22.4834840  54.7726440  75.5642400  21.8525010
  54.8348380  76.1930110  23.2282410  40.2823120  74.3921300  15.1153020
  40.9914820  73.9704520  14.6300300  39.5663060  74.4596530  14.4836370
  39.9297280  70.4460630  14.1555670  40.6525410  70.9869570  14.4736890
  40.2021800  70.1724050  13.2797210  53.7388930  75.3153100  18.4227250
  54.2348050  75.0823970  19.2076130  53.5405000  74.4764940  18.0064890
  55.1676090  73.9514050  20.9564930  55.0575370  73.7970090  21.8947200
  55.9283680  73.4234990  20.7140340  56.0566360  71.7821970  14.1971070
  56.9815670  71.6503150  13.9889360  56.0342150  71.8614790  15.1507520
  56.1304850  72.5532630  16.8227780  55.3356350  72.4877750  17.3520690
  56.3348130  73.4883270  16.8113130  53.0723270  86.5924180  20.8166170
  53.6682340  86.2708750  20.1400590  53.3301420  86.1196000  21.6079440
  40.9785840  83.0242090  30.9656800  40.9355470  82.6535000  31.8471260
  41.1096850  83.9619660  31.1058620  44.6791870  84.5801680  26.5666520
  44.4383230  84.8476240  25.6797040  45.6194510  84.7507410  26.6217380
  55.9396030  86.5996060  27.3677160  55.4454310  86.9964930  26.6504290
  55.3309320  85.9745270  27.7614440  40.8173870  85.9704340  28.0854580
  40.2234190  85.8389040  28.8244620  40.8097710  85.1342480  27.6196680
  53.6235480  87.2419480  24.6463900  53.1638450  87.9935290  24.2721920
  52.9947940  86.5225950  24.5878700  40.4486100  83.3362720  27.0362620
  39.7220160  82.7168010  26.9688570  40.5095250  83.7303330  26.1660700
  44.0531200  85.5507720  23.8212030  44.5696220  84.9395080  23.2960290
  44.7028580  86.0536500  24.3123040  46.7926700  86.4416210  24.6481010
  47.0804510  86.1870510  23.7714020  47.3049920  85.8893570  25.2386580
  52.5624780  70.8829510  23.2726610  53.0032870  70.8274610  22.4248210
  52.2932370  71.7987520  23.3436790  54.4263350  70.5144750  21.2835430
  54.3651750  69.5705970  21.1366450  55.2055380  70.6224840  21.8288890
  38.7316100  86.6537110  20.2459380  38.5638140  86.0207790  20.9441270
  37.8650610  86.8596510  19.8953570  39.3544120  70.4853890  17.7491240
  40.1123480  70.5982770  17.1755270  38.8921290  71.3223090  17.7034670
  45.8957930  72.5993160  20.7393550  45.0832440  72.2250050  20.3989430
  46.3999570  71.8438240  21.0414740  50.3982910  69.2635610  21.9776620
  51.0012280  69.8355820  22.4525140  49.6575900  69.8275050  21.7550520
  53.5417510  69.6657170  17.2516900  53.7368140  70.5640620  17.5184330
  52.7547380  69.4344250  17.7449850  40.3378800  85.3470340  17.6909520
  39.8126420  85.7278370  16.9871480  40.2623380  85.9721110  18.4119230
  41.7269270  71.0117940  16.2893210  42.2562030  70.2247740  16.1601160
  42.3597590  71.6909130  16.5228740  43.9207110  70.7493080  19.3438600
  43.2909850  70.0480390  19.5108730  43.3812250  71.5097210  19.1271760
  46.8599060  87.3632310  32.0149210  47.7866370  87.1276580  32.0585170
  46.8449490  88.1904310  31.5335240  55.0944120  86.9057880  19.0123460
  55.2696310  86.2195620  18.3684380  54.3965690  87.4304930  18.6200130
  42.9371770  87.2952720  16.5658770  43.6690590  87.0112000  16.0182660
  43.1965440  87.0566000  17.4558150  42.0986560  83.4117450  16.5705100
  41.4695440  83.8802550  17.1190930  42.2134390  82.5666670  17.0051290
  53.4276620  86.5902170  31.8390250  54.2201940  86.0951400  31.6316210
  53.7209770  87.2692310  32.4465860  49.5536280  77.4623110   2.7206300
  49.4730330  76.5477720   2.4498010  49.1400700  77.9590180   2.0146010
  47.6854320  79.2402130   4.6015570  46.9096420  78.7602570   4.8914140
  48.3367250  78.5607780   4.4271730  41.7020150  79.5521940   5.4791330
  40.8705030  79.2970650   5.8787840  42.3101130  79.6232710   6.2149250
  51.7061750  83.6462320   3.3814700  51.2443280  82.8749560   3.7101870
  52.5187300  83.6728390   3.8867150  41.6821410  83.5862030   5.6749350
  41.9849450  82.6959770   5.4959570  42.4265000  84.1432250   5.4471600
  38.0745110  77.1129480   5.1473420  38.6461220  76.3451680   5.1477060
  38.0746650  77.4118240   4.2380030  47.9325060  85.9320330   3.0018690
  47.3136500  86.3877830   2.4313130  48.7876840  86.0871790   2.6008390
  47.1263310  81.9159320   4.6085730  47.0571590  80.9749260   4.4474860
  47.8883170  82.0060730   5.1808300  39.3169980  72.5213840   6.9342350
  39.1372820  71.6239590   7.2145110  38.9150060  73.0685710   7.6089300
  48.1568480  74.7229700   4.8354660  48.5333300  73.8501580   4.7228330
  48.0587990  75.0588400   3.9445100  51.9392600  72.2180140   1.7683000
  52.7602220  71.7276710   1.8108480  51.9726680  72.8077800   2.5214840
  39.9356650  75.0174340   5.5424690  40.6166760  75.2812710   6.1612090
  39.6204700  74.1775210   5.8762700  44.1281220  76.0641700   4.6297280
  44.6359440  76.5622670   5.2702300  44.6594460  75.2876900   4.4536640
  56.2292150  74.2346890   8.3326630  55.5244320  74.6228600   7.8141740
  56.4950070  74.9297180   8.9347560  42.4117320  70.7040260   8.8960700
  42.4135760  71.2212650   8.0906600  41.5821630  70.2270440   8.8730630
  43.6620170  80.3435440   7.0734200  43.3289550  80.9704360   7.7155270
  43.8386850  80.8697320   6.2935870  52.1754080  74.1580520   4.5410540
  51.4709650  74.4465410   5.1213650  52.5366240  74.9680630   4.1810100
  42.0932650  72.4150220   6.9031150  42.4349460  73.2592270   6.6085020
  41.1548460  72.5633960   7.0196490  42.8739270  82.3116240   8.8883380
  43.4913270  82.9867320   8.6067830  42.0132390  82.7204220   8.7970880
  53.7916860  83.7755650   6.8038020  53.1080380  84.4454760   6.7954690
  54.3311150  83.9736300   6.0382880  55.2441000  73.6035310   4.9319750
  54.2965910  73.6374290   5.0635180  55.5690990  74.4174260   5.3169110
  45.7760540  69.9032490   3.2275740  46.0835520  69.3479380   2.5111240
  44.8461240  70.0376950   3.0448730  51.3275600  85.6199780   5.5183200
  51.3402760  85.2162070   4.6505460  50.7750820  86.3947070   5.4144630
  50.7261040  80.5229620   6.8465810  51.1429830  80.3089730   6.0119270
  51.4500860  80.7802410   7.4174430  54.6723140  78.9216840   6.9382050
  53.8441770  78.9909930   6.4632180  55.2673620  79.5071150   6.4697880
  51.6365150  75.7086160   7.8836920  51.2236330  76.5339870   8.1376910
  50.9041100  75.1231200   7.6913280  43.7697940  78.4946060   2.7455590
  43.3654940  77.7823310   2.2501490  43.8561060  78.1499300   3.6343630
  44.2379640  82.1813620   4.9094800  43.9407930  81.5759090   4.2302580
  45.1879460  82.2190930   4.7984160  42.4826560  75.2689270   6.5254630
  43.0341150  75.3784610   5.7507880  42.9970070  75.6426870   7.2409860
  52.3265250  85.7545490   8.5717900  51.8495810  86.5617680   8.3790510
  51.6427040  85.1023820   8.7244110  43.3298070  81.9195310  11.5602600
  42.4326600  82.1435280  11.8076000  43.3550940  82.0430250  10.6114000
  42.1569290  78.7908630  10.1359970  42.0177060  79.6631430  10.5047370
  41.2750650  78.4481440   9.9907910  43.9549640  84.7330330  12.3445120
  43.9265070  85.1373280  11.4773550  43.7914610  83.8040690  12.1816720
  55.9064460  85.5157430  13.6409290  56.3824180  85.9940320  14.3198370
  56.5271620  85.4474920  12.9154790  38.1087940  80.5606180   6.0530880
  38.1868360  80.6954950   5.1086600  38.7229620  79.8522070   6.2459000
  39.3535570  82.2606370   2.4637060  38.9463650  82.4020960   1.6090660
  40.2448580  81.9766530   2.2608270  55.3097710  82.7070280  10.8009300
  55.4360770  82.4682160   9.8826480  55.3519090  81.8754820  11.2731380
  49.1714450  86.4098280   9.3704110  49.6859120  86.3206290  10.1726540
  48.3283530  86.7557980   9.6632020  55.1621720  74.7602740  11.7659040
  54.5465990  75.2682410  11.2374500  54.8418140  73.8601070  11.7084980
  38.1647460  81.6020350   8.5925340  38.3278500  81.1325710   7.7744710
  38.6299910  81.0943910   9.2574180  42.9366230  70.7326110   3.6285910
  42.4934380  71.5135650   3.2970430  43.4951220  71.0556000   4.3356850
  47.2236040  73.5994630   9.2321230  46.7615410  73.8077650  10.0441170
  46.8214150  72.7853980   8.9291900  52.2240550  74.8203580  10.3617890
  51.3734140  74.5209330  10.6826960  52.0642340  75.0645590   9.4501710
  49.3190260  76.3205330  12.4616680  49.6443670  75.4869080  12.1218910
  50.1070590  76.8433850  12.6095010  44.9742130  71.2773440   5.4875510
  45.2714460  72.1836270   5.4067530  45.5227690  70.7892220   4.8735080
  45.1679660  76.7545260  12.0227430  45.0723260  75.8139990  11.8727830
  46.0111640  76.9760330  11.6275500  40.2990200  73.1658930  10.1761210
  39.9053590  74.0134140  10.3833990  39.6108600  72.5285300  10.3669850
  46.8735250  73.2493900  13.2457950  46.1833570  73.0566100  13.8804040
  47.6167550  73.5328540  13.7782250  37.6007250  71.0887390   4.2091290
  37.3120300  71.6590250   4.9216270  38.3453010  70.6091840   4.5722520
  49.1498220  77.0892340   6.0811870  48.4179340  77.5979150   6.4301970
  48.7522560  76.2722320   5.7800650  45.5875610  73.7646540   4.4864360
  45.5911670  73.3236490   3.6368900  46.4826730  74.0863870   4.5936180
  41.4377990  73.6473030   3.4458570  41.0978040  74.1248260   4.2025620
  40.6755310  73.1938150   3.0859670  49.6124130  72.5426020   5.4934810
  49.6296870  72.9934670   6.3376660  49.3639710  71.6431660   5.7068250
  53.0394880  69.9558200  11.3321190  53.3640650  69.2247860  11.8579170
  53.0751390  69.6371840  10.4302180  39.7386440  80.9771780  10.7521150
  39.3541230  80.3365450  11.3504110  40.0498630  81.6807900  11.3215880
  45.8883580  77.8248320   6.2329770  46.2553710  77.3506890   6.9791110
  45.6988640  78.6989890   6.5738110  38.7524070  72.5692010   2.3623240
  38.4670990  72.2047680   3.2001860  38.6902930  71.8372470   1.7486380
  43.6782950  76.8656960   8.5513980  43.3740020  77.7448940   8.7764340
  44.6329410  76.9256750   8.5871420  52.9652720  80.0683310   4.9407220
  53.6851840  80.5638600   4.5503330  52.7634540  79.3901200   4.2961090
  48.3471520  80.1392370  10.8276220  48.2808830  79.2188040  10.5733810
  47.7176660  80.2367810  11.5420860  42.2502140  80.7398330   2.7859640
  42.7680810  79.9366590   2.7316530  41.7986160  80.6777470   3.6276470
  39.7346680  77.7059700   9.6985340  39.3761620  78.3713550  10.2858680
  39.4401240  76.8743250  10.0697960  42.9359800  78.1643940  12.5824890
  42.6359940  78.3101120  11.6852710  43.7071040  77.6049230  12.4898280
  48.2788250  82.9612940  10.5780020  48.2932790  82.0293900  10.3598930
  47.5713350  83.0472700  11.2169790  54.4899460  79.6020280   9.9248600
  53.7647650  80.1949060   9.7277990  55.0174920  79.5943820   9.1261970
  50.0199050  81.3280450   3.4232450  50.3722870  80.7308580   2.7633820
  49.1361380  81.0024680   3.5940700  47.7122150  84.6030510   7.6720520
  48.3564370  84.8089890   8.3493940  48.0751590  83.8418910   7.2191370
  48.9854230  82.6062860   6.3897970  49.6276460  81.9056020   6.5030140
  49.5103580  83.3861300   6.2094860  50.7591850  83.4057760   9.5934030
  51.0948090  83.9924450  10.2711950  49.8392190  83.2750470   9.8231820
  38.3095250  71.1952940  10.3757440  37.5953770  71.3949860  10.9810050
  38.7290290  70.4192510  10.7472240  38.5967840  85.1833200  11.3623970
  38.7058960  84.2427940  11.2219360  37.9448400  85.4487950  10.7137700
  46.5880430  83.4549090  12.7622090  46.2677300  82.7358330  13.3067780
  45.9138790  84.1304160  12.8358150  49.8034030  73.6875250   8.1258890
  50.1714850  72.8670460   8.4538460  48.9432230  73.7477140   8.5414540
  46.7636020  76.3414840   8.3496860  47.2621270  76.8160660   9.0148710
  46.9058970  75.4178360   8.5566890  53.9702880  72.5582800   9.1925250
  53.4676480  73.2988200   9.5319060  54.7859540  72.9466800   8.8762040
  52.2624890  77.8015980   2.6386610  51.3215030  77.8166210   2.8134300
  52.5768960  77.0151940   3.0846910  54.2650470  84.9724830   4.3140870
  54.3897890  85.7956000   4.7864680  55.1316030  84.7615560   3.9665020
  41.7368000  87.0656040   3.9858000  42.4730480  86.5171500   4.2566570
  42.1208920  87.9312050   3.8463990  40.7426280  86.2502110  13.1743580
  41.5439010  86.5714160  13.5878980  40.2278100  85.8897690  13.8963490
  49.5790910  82.3581980  13.1218990  48.9729070  82.3813580  12.3814740
  49.2745020  81.6265020  13.6586240  51.0091280  86.0862270  11.7328400
  51.9613030  86.0020290  11.6828640  50.8619500  86.7503980  12.4062190
  38.4624090  78.7375570  12.1179630  38.9663110  78.1582850  12.6895860
  37.7231510  79.0215800  12.6556000  45.5162030  80.1446560  11.6515150
  44.7507700  80.7131560  11.5669820  45.6977990  79.8522770  10.7583380
  52.6585380  81.8751890  12.2090170  53.3994850  82.2127650  11.7057630
  51.8958060  82.0443950  11.6559940  40.4947170  76.8805160  13.0129700
  40.5352510  76.5819030  13.9214930  41.3492670  77.2812770  12.8537220
  42.4352980  75.4597260  10.9804190  41.9049440  74.9688210  10.3527530
  43.1041050  75.8881460  10.4462120  51.3331040  79.9266720  10.7445380
  51.7472060  80.0811800  11.5935800  50.3982040  80.0521940  10.9071160
  51.8053210  77.2662880  12.7484530  52.3873980  76.5115200  12.6605010
  51.9814980  77.7970320  11.9716010  42.9225280  72.4259630  11.0601480
  42.8282150  71.8080380  10.3352350  42.3422670  73.1525920  10.8331390
  45.6886720  70.9832870   8.0928870  45.2404020  71.0057130   7.2474420
  45.0551920  70.5851890   8.6899170  46.0946270  79.8787200   8.7141310
  46.5134380  80.7219930   8.5417550  45.1754900  80.0159240   8.4848090
  48.4310170  77.6103380  10.0979150  48.5506380  77.0144520  10.8373990
  49.2904170  77.6473070   9.6780450  50.7698070  78.1640570   8.6741660
  50.2433290  78.6883190   8.0706800  51.1129410  78.7967960   9.3051390
  43.9453690  86.1840210   9.8299040  43.4074780  86.9086270   9.5107740
  44.1987650  85.7070550   9.0396380  45.1978940  74.1524730  11.3554970
  45.7878630  73.8440580  12.0432790  44.3799180  73.6804480  11.5114870
  50.0172370  73.7690540  11.5887990  49.3287890  73.1072080  11.5237980
  50.7378390  73.3228810  12.0336450  46.8015900  87.4191420  10.0885690
  46.7274600  88.3226560  10.3958060  45.8994740  87.1003320  10.0607760
  38.2043190  84.7466010   3.3919310  38.5346200  83.8787070   3.1597950
  38.6334190  84.9524530   4.2224270  38.6933400  85.6136600   6.1300940
  38.2564390  85.7937400   6.9625090  39.2611080  86.3711220   5.9882660
  54.3295580  85.1153600  10.4178250  53.7297570  85.1746160   9.6742170
  54.4589480  84.1758580  10.5475100  38.5257830  78.1256830   2.4889820
  37.8706670  77.8568470   1.8449520  39.3635780  78.0161310   2.0391800
  56.0313460  80.4569000   3.1024090  56.4022290  79.6736320   2.6960060
  56.6715390  81.1458100   2.9241390  53.0147220  81.8405580   8.5154410
  52.2007060  82.2702740   8.7780200  53.4221420  82.4523990   7.9023460
  39.5633760  78.5109400   7.0293160  39.9306800  78.4236800   7.9089180
  38.9944580  77.7475950   6.9300020  54.3637620  76.9793780  10.0423630
  54.1323710  76.7506530   9.1421580  54.6242170  77.8993330   9.9968520
  39.1149760  75.4218490  10.9351580  38.2205810  75.3885250  11.2745290
  39.6547310  75.6205280  11.7002830  52.8025690  72.2050210  12.8203330
  53.6795870  72.2133610  13.2037330  52.8146530  71.4681050  12.2095680
  54.2488960  76.0579750   3.7091350  54.7726440  75.5642400   3.0781520
  54.8348380  76.1930110   4.4538920  54.4278680  76.1419620   7.2310900
  53.4781390  76.1083160   7.3455890  54.6091690  77.0519730   6.9960670
  39.6189470  69.6966820   5.2834800  40.2665660  69.1464200   4.8429960
  40.0391310  69.9509970   6.1050610  55.1676090  73.9514050   2.1821440
  55.0575370  73.7970090   3.1203710  55.9283680  73.4234990   1.9396850
  53.5141810  69.8908180   8.6404440  54.1514030  70.5042320   9.0063630
  53.6616700  69.9268840   7.6953670  39.3721470  69.8522490   8.0260120
  39.0236290  70.3086310   8.7918300  39.0409170  68.9579620   8.1082550
  40.9785840  83.0242090  12.1913310  40.9355470  82.6535000  13.0727770
  41.1096850  83.9619660  12.3315130  44.6791870  84.5801680   7.7923030
  44.4383230  84.8476240   6.9053550  45.6194510  84.7507410   7.8473890
  46.8846290  71.0434370  11.5479540  46.8235180  71.6356200  12.2974950
  47.8246670  70.9360330  11.4029800  49.5220850  70.7004430  11.1871830
  50.1361260  71.0183720  10.5252910  50.0670410  70.2153020  11.8067690
  55.9396030  86.5996060   8.5933670  55.4454310  86.9964930   7.8760800
  55.3309320  85.9745270   8.9870950  40.0442110  69.3798690  11.3010890
  40.5925100  69.1986740  10.5377000  40.1097420  68.5892800  11.8367200
  40.8173870  85.9704340   9.3111090  40.2234190  85.8389040  10.0501130
  40.8097710  85.1342480   8.8453190  50.2628890  69.2636570   7.5141120
  49.3888730  69.5971680   7.3114050  50.1539640  68.7909750   8.3392990
  51.1700870  71.4707440   8.8982840  50.8414230  70.6559200   8.5184570
  52.1183170  71.4277250   8.7748530  53.6235480  87.2419480   5.8720410
  53.1638450  87.9935290   5.4978430  52.9947940  86.5225950   5.8135210
  40.4486100  83.3362720   8.2619130  39.7220160  82.7168010   8.1945080
  40.5095250  83.7303330   7.3917210  44.0531200  85.5507720   5.0468540
  44.5696220  84.9395080   4.5216800  44.7028580  86.0536500   5.5379550
  46.7926700  86.4416210   5.8737520  47.0804510  86.1870510   4.9970530
  47.3049920  85.8893570   6.4643090  48.0103710  70.1806410   6.4534030
  47.2275500  70.6551910   6.7330790  47.7166640  69.2761240   6.3447210
  52.5624780  70.8829510   4.4983120  53.0032870  70.8274610   3.6504720
  52.2932370  71.7987520   4.5693300  54.4263350  70.5144750   2.5091940
  54.3651750  69.5705970   2.3622960  55.2055380  70.6224840   3.0545400
  45.8957930  72.5993160   1.9650060  45.0832440  72.2250050   1.6245940
  46.3999570  71.8438240   2.2671250  50.3982910  69.2635610   3.2033130
  51.0012280  69.8355820   3.6781650  49.6575900  69.8275050   2.9807030
  46.8599060  87.3632310  13.2405720  47.7866370  87.1276580  13.2841680
  46.8449490  88.1904310  12.7591750  44.0462670  70.0277060  13.0047600
  43.7646940  70.5310660  12.2408420  44.4282370  69.2298810  12.6389730
  50.6478130  69.4430640  13.5828070  50.5343580  69.7625250  14.4779590
  51.4647870  69.8443150  13.2865350  53.4276620  86.5902170  13.0646760
  54.2201940  86.0951400  12.8572720  53.7209770  87.2692310  13.6722370
  49.5536280  58.6879620  77.8180260  49.4730330  57.7734230  77.5471970
  49.1400700  59.1846690  77.1119970  47.6854320  60.4658640  79.6989530
  46.9096420  59.9859080  79.9888100  48.3367250  59.7864290  79.5245690
  41.7020150  60.7778450  80.5765290  40.8705030  60.5227160  80.9761800
  42.3101130  60.8489220  81.3123210  51.7061750  64.8718830  78.4788660
  51.2443280  64.1006070  78.8075830  52.5187300  64.8984900  78.9841110
  41.6821410  64.8118540  80.7723310  41.9849450  63.9216280  80.5933530
  42.4265000  65.3688760  80.5445560  40.1112100  55.7380340  74.3607680
  39.2228800  56.0796310  74.2587560  40.3953290  55.5380660  73.4688510
  38.0745110  58.3385990  80.2447380  38.6461220  57.5708190  80.2451020
  38.0746650  58.6374750  79.3353990  47.9325060  67.1576840  78.0992650
  47.3136500  67.6134340  77.5287090  48.7876840  67.3128300  77.6982350
  47.1263310  63.1415830  79.7059690  47.0571590  62.2005770  79.5448820
  47.8883170  63.2317240  80.2782260  48.1568480  55.9486210  79.9328620
  48.5333300  55.0758090  79.8202290  48.0587990  56.2844910  79.0419060
  42.2873490  54.3211840  75.3946060  42.3940240  55.2215570  75.7014820
  41.3765850  54.2729810  75.1040710  51.9392600  53.4436650  76.8656960
  52.7602220  52.9533220  76.9082440  51.9726680  54.0334310  77.6188800
  39.9356650  56.2430850  80.6398650  40.6166760  56.5069220  81.2586050
  39.6204700  55.4031720  80.9736660  44.1281220  57.2898210  79.7271240
  44.6359440  57.7879180  80.3676260  44.6594460  56.5133410  79.5510600
  48.7988410  62.0416080  75.4924560  48.1805680  62.5065530  74.9287280
  49.3111660  62.7343560  75.9094070  52.1754080  55.3837030  79.6384500
  51.4709650  55.6721920  80.2187610  52.5366240  56.1937140  79.2784060
  42.0932650  53.6406730  82.0005110  42.4349460  54.4848780  81.7058980
  41.1548460  53.7890470  82.1170450  38.1671610  62.7272610  72.8664190
  37.7899590  63.2159710  72.1349090  38.4244680  63.3997890  73.4970720
  53.7916860  65.0012160  81.9011980  53.1080380  65.6711270  81.8928650
  54.3311150  65.1992810  81.1356840  55.2441000  54.8291820  80.0293710
  54.2965910  54.8630800  80.1609140  55.5690990  55.6430770  80.4143070
  45.7760540  51.1289000  78.3249700  46.0835520  50.5735890  77.6085200
  44.8461240  51.2633460  78.1422690  51.3275600  66.8456290  80.6157160
  51.3402760  66.4418580  79.7479420  50.7750820  67.6203580  80.5118590
  52.6221020  63.5672510  75.7047330  52.5117350  62.6246840  75.8296750
  52.6189270  63.9288150  76.5910090  48.1641300  59.1937830  75.0609820
  47.2370580  59.1275210  75.2898290  48.3166120  60.1317960  74.9465060
  48.1510380  55.4654830  72.0576980  47.2114050  55.6268790  72.1429440
  48.4693640  56.1840510  71.5112970  54.6723140  60.1473350  82.0356010
  53.8441770  60.2166440  81.5606140  55.2673620  60.7327660  81.5671840
  52.1938590  60.7558130  75.5645070  51.5751010  60.4177680  74.9171370
  52.1763040  60.1117890  76.2724260  43.7697940  59.7202570  77.8429550
  43.3654940  59.0079820  77.3475450  43.8561060  59.3755810  78.7317590
  44.2379640  63.4070130  80.0068760  43.9407930  62.8015600  79.3276540
  45.1879460  63.4447440  79.8958120  50.3703290  59.9944940  72.5717820
  50.8096570  59.1567370  72.4255640  51.0831710  60.6274340  72.6581960
  48.4798670  64.9341010  76.5399060  48.9194580  65.6765340  76.1254450
  48.4185560  65.1767580  77.4638020  53.9520430  51.2487750  70.8858860
  53.6393090  51.3414580  71.7857930  54.7132900  51.8268780  70.8356290
  40.4702570  58.6147550  75.3436200  40.3500170  59.3409640  74.7317470
  40.1603460  57.8450460  74.8664110  38.1087940  61.7862690  81.1504840
  38.1868360  61.9211460  80.2060560  38.7229620  61.0778580  81.3432960
  39.3535570  63.4862880  77.5611020  38.9463650  63.6277470  76.7064620
  40.2448580  63.2023040  77.3582230  51.1468850  67.9210130  73.8962070
  50.9869990  67.6313070  74.7943900  50.9815560  67.1450260  73.3607300
  43.6257230  67.7008660  75.6733690  43.4499710  66.7844200  75.4601490
  42.7712970  68.0595950  75.9131490  50.8494980  65.4297690  72.4560070
  50.1560140  65.4274980  71.7962350  51.5917840  65.0057010  72.0254240
  50.4144910  67.0560400  76.5308560  50.8701860  66.2749780  76.8447180
  50.7537430  67.7667220  77.0749740  42.9366230  51.9582620  78.7259870
  42.4934380  52.7392160  78.3944390  43.4951220  52.2812510  79.4330810
  46.0525050  51.5793320  73.6065700  45.4279230  51.5753190  74.3319010
  45.9655170  50.7124280  73.2101670  44.9742130  52.5029950  80.5849470
  45.2714460  53.4092780  80.5041490  45.5227690  52.0148730  79.9709040
  42.7280450  57.0816190  76.4541120  42.5021370  56.8653360  77.3587740
  41.9472980  57.5144650  76.1087090  49.9578210  57.0879560  75.0531770
  49.3587100  57.8115360  74.8695390  50.5057820  57.0256340  74.2708220
  48.5643080  55.7243100  77.0835050  48.9572650  56.0415300  76.2703740
  48.9259930  54.8454980  77.1979570  37.6007250  52.3143900  79.3065250
  37.3120300  52.8846760  80.0190230  38.3453010  51.8348350  79.6696480
  37.7877480  56.2564020  70.5167970  37.7052150  57.1994780  70.6582960
  37.4360540  56.1138930  69.6380320  49.1498220  58.3148850  81.1785830
  48.4179340  58.8235660  81.5275930  48.7522560  57.4978830  80.8774610
  45.5875610  54.9903050  79.5838320  45.5911670  54.5493000  78.7342860
  46.4826730  55.3120380  79.6910140  41.4377990  54.8729540  78.5432530
  41.0978040  55.3504770  79.2999580  40.6755310  54.4194660  78.1833630
  45.6495760  55.9915130  72.5745080  45.7708580  55.9501610  73.5230900
  45.2644270  56.8539280  72.4191810  49.6124130  53.7682530  80.5908770
  49.6296870  54.2191180  81.4350620  49.3639710  52.8688170  80.8042210
  44.6617260  58.3016270  71.9728380  44.0934160  57.8534520  71.3464290
  45.3706260  58.6609050  71.4393530  45.8883580  59.0504830  81.3303730
  46.2553710  58.5763400  82.0765070  45.6988640  59.9246400  81.6712070
  38.7524070  53.7948520  77.4597200  38.4670990  53.4304190  78.2975820
  38.6902930  53.0628980  76.8460340  42.2064740  62.2974460  74.2454790
  41.4327000  61.7572080  74.0853510  42.9359370  61.7781070  73.9072550
  52.9652720  61.2939820  80.0381180  53.6851840  61.7895110  79.6477290
  52.7634540  60.6157710  79.3935050  48.4262660  52.6877780  74.1810570
  47.6127270  52.1890950  74.1055880  48.2324610  53.5276030  73.7646920
  51.1411050  57.0597430  72.4772730  52.0290670  57.3714660  72.3024070
  51.1116140  56.1869680  72.0853310  42.2502140  61.9654840  77.8833600
  42.7680810  61.1623100  77.8290490  41.7986160  61.9033980  78.7250430
  47.1371640  63.2321120  73.1560900  47.4787340  63.9763350  72.6604220
  46.3084350  63.5452240  73.5185730  53.4125320  58.3709270  71.9452590
  53.3289040  58.8023490  71.0949030  54.1319510  58.8307620  72.3779410
  54.4412570  65.2251530  74.6734720  53.7988730  64.5707150  74.9478440
  54.0543230  65.6306620  73.8975390  50.0199050  62.5536960  78.5206410
  50.3722870  61.9565090  77.8607780  49.1361380  62.2281190  78.6914660
  46.1062330  63.3134650  75.9276820  46.7933460  63.8603860  76.3084410
  45.3194750  63.8575380  75.9626430  38.2454730  58.9307470  71.4193900
  39.1149580  59.2132270  71.7029820  37.7545050  59.7443340  71.3042710
  45.4089540  60.3180680  75.5402180  45.8652320  61.1285930  75.7662370
  45.0577750  60.0003820  76.3720670  41.3101320  50.6618330  76.0124700
  41.1815950  50.6536230  76.9609620  40.4863340  51.0001420  75.6615710
  48.9854230  63.8319370  81.4871930  49.6276460  63.1312530  81.6004100
  49.5103580  64.6117810  81.3068820  52.8309950  64.1167990  71.2111070
  52.6047530  63.3998430  71.8035710  52.4406150  63.8680430  70.3732820
  38.6125980  68.1434850  71.9855530  38.9723620  68.7424190  71.3312800
  38.4718320  68.6894740  72.7590560  52.4126200  62.0339930  72.8725230
  52.1247900  62.4952620  73.6603110  53.2078370  61.5737700  73.1409450
  44.6294600  65.5266050  72.8029200  44.6204700  66.2595740  72.1873710
  43.7092960  65.2797630  72.8956160  40.2301240  60.7480940  73.5475960
  39.6229190  61.4879840  73.5571260  40.7050590  60.8380300  72.7214160
  53.1696060  53.8688700  74.0320410  52.5409220  53.9734370  73.3178640
  52.6747980  54.0885480  74.8214290  47.6154200  65.5894290  71.4654390
  47.7166180  65.3858280  70.5356370  46.7155940  65.3352570  71.6702170
  45.1380090  56.1474650  75.4478290  44.4296240  56.6160990  75.8891900
  45.4224570  55.4896660  76.0823480  49.1695520  52.8725310  76.8874080
  49.0463300  52.8911440  75.9383590  50.1180080  52.9204250  77.0072480
  46.2572310  68.1080610  76.1602060  46.5113810  68.0702000  75.2381430
  45.3084790  67.9813940  76.1530310  43.3415110  54.4559730  72.8229000
  44.1905640  54.8929880  72.7569190  42.9746380  54.7679990  73.6501060
  52.2624890  59.0272490  77.7360570  51.3215030  59.0422720  77.9108260
  52.5768960  58.2408450  78.1820870  42.2406530  60.7092090  71.2964530
  43.0069800  60.5973450  71.8589960  42.3181220  60.0130060  70.6441300
  40.9353290  58.1417160  71.9797420  41.0156880  57.1944670  72.0914820
  41.8273040  58.4724040  72.0858080  54.2650470  66.1981340  79.4114830
  54.3897890  67.0212510  79.8838640  55.1316030  65.9872070  79.0638980
  41.7368000  68.2912550  79.0831960  42.4730480  67.7428010  79.3540530
  42.1208920  69.1568560  78.9437950  38.6213480  64.3586120  74.9573470
  37.6953260  64.6007260  74.9478880  39.0869910  65.1860380  74.8358220
  44.8470310  67.4642860  70.9057530  45.6398920  67.7531690  70.4539320
  44.3274660  67.0335030  70.2270010  53.9000480  66.6912990  72.3294270
  53.6141990  66.2778130  71.5148450  53.7020030  67.6200700  72.2094790
  45.3647710  62.6846270  70.7699880  45.2598350  62.0698620  71.4961260
  45.1971930  62.1612160  69.9862890  48.6050440  61.7466300  71.3741870
  48.0560540  62.1935600  72.0184610  49.2269700  61.2415550  71.8979540
  44.2725560  60.7057220  73.2707170  44.6941980  60.5397090  74.1138560
  44.3976400  59.8957450  72.7762310  46.7853200  59.7294830  70.5184270
  47.3058860  59.0143850  70.1525420  47.4321600  60.3680700  70.8184780
  43.1684460  56.7790450  70.2165330  42.9673520  55.9157810  70.5778670
  42.9976510  56.6923810  69.2786930  50.6472770  51.5898680  72.7452210
  50.9275060  50.7466580  73.1011630  49.8738500  51.8221790  73.2590960
  41.9667260  53.8791070  70.2043210  42.2693160  53.8858500  69.2962360
  42.7061850  53.5288930  70.7010870  45.1852190  52.8225690  71.1899410
  44.8374190  52.1449680  70.6101860  45.3864960  52.3615200  72.0042800
  47.3501230  67.8106440  72.8086010  48.2452020  68.1491410  72.8304770
  47.3818860  67.0885850  72.1810290  40.9897390  63.1833490  71.0373010
  41.4272260  63.7263160  71.6930590  41.4745120  62.3580440  71.0469350
  38.2043190  65.9722520  78.4893270  38.5346200  65.1043580  78.2571910
  38.6334190  66.1781040  79.3198230  42.8005110  64.3031530  76.1495240
  42.5000650  64.1796500  77.0499150  42.6942600  63.4440120  75.7410970
  38.6933400  66.8393110  81.2274900  38.2564390  67.0193910  82.0599050
  39.2611080  67.5967730  81.0856620  55.5697030  64.0827930  70.8521920
  54.7389990  64.1504580  71.3229150  55.7468860  64.9732050  70.5488780
  55.0253490  60.8275410  73.3556120  55.7872400  61.3972060  73.4615810
  55.0407860  60.2602610  74.1264430  38.5257830  59.3513340  77.5863780
  37.8706670  59.0824980  76.9423480  39.3635780  59.2417820  77.1365760
  56.0313460  61.6825510  78.1998050  56.4022290  60.8992830  77.7934020
  56.6715390  62.3714610  78.0215350  55.0772660  61.1209780  70.5128640
  55.3521500  62.0288660  70.3847860  54.8883400  61.0572310  71.4490630
  51.4748270  54.1454630  71.8082270  51.8933150  53.9585610  70.9678930
  51.1684330  53.2933680  72.1185200  54.9738000  59.0578770  75.5058070
  54.5981600  58.2906700  75.0739360  54.2441120  59.4401470  75.9933000
  37.7395910  56.5612270  73.5289110  36.8359990  56.8242470  73.3540770
  38.2236530  56.8323440  72.7489070  54.2488960  57.2836260  78.8065310
  54.7726440  56.7898910  78.1755480  54.8348380  57.4186620  79.5512880
  40.2823120  55.6177810  71.4383490  40.9914820  55.1961030  70.9530770
  39.5663060  55.6853040  70.8066840  39.9297280  51.6717140  70.4786140
  40.6525410  52.2126080  70.7967360  40.2021800  51.3980560  69.6027680
  53.7388930  56.5409610  74.7457720  54.2348050  56.3080480  75.5306600
  53.5405000  55.7021450  74.3295360  39.6189470  50.9223330  80.3808760
  40.2665660  50.3720710  79.9403920  40.0391310  51.1766480  81.2024570
  55.1676090  55.1770560  77.2795400  55.0575370  55.0226600  78.2177670
  55.9283680  54.6491500  77.0370810  56.0566360  53.0078480  70.5201540
  56.9815670  52.8759660  70.3119830  56.0342150  53.0871300  71.4737990
  56.1304850  53.7789140  73.1458250  55.3356350  53.7134260  73.6751160
  56.3348130  54.7139780  73.1343600  53.0723270  67.8180690  77.1396640
  53.6682340  67.4965260  76.4631060  53.3301420  67.3452510  77.9309910
  53.6235480  68.4675990  80.9694370  53.1638450  69.2191800  80.5952390
  52.9947940  67.7482460  80.9109170  44.0531200  66.7764230  80.1442500
  44.5696220  66.1651590  79.6190760  44.7028580  67.2793010  80.6353510
  46.7926700  67.6672720  80.9711480  47.0804510  67.4127020  80.0944490
  47.3049920  67.1150080  81.5617050  48.0103710  51.4062920  81.5507990
  47.2275500  51.8808420  81.8304750  47.7166640  50.5017750  81.4421170
  52.5624780  52.1086020  79.5957080  53.0032870  52.0531120  78.7478680
  52.2932370  53.0244030  79.6667260  54.4263350  51.7401260  77.6065900
  54.3651750  50.7962480  77.4596920  55.2055380  51.8481350  78.1519360
  38.7316100  67.8793620  76.5689850  38.5638140  67.2464300  77.2671740
  37.8650610  68.0853020  76.2184040  39.3544120  51.7110400  74.0721710
  40.1123480  51.8239280  73.4985740  38.8921290  52.5479600  74.0265140
  45.8957930  53.8249670  77.0624020  45.0832440  53.4506560  76.7219900
  46.3999570  53.0694750  77.3645210  50.3982910  50.4892120  78.3007090
  51.0012280  51.0612330  78.7755610  49.6575900  51.0531560  78.0780990
  53.5417510  50.8913680  73.5747370  53.7368140  51.7897130  73.8414800
  52.7547380  50.6600760  74.0680320  40.3378800  66.5726850  74.0139990
  39.8126420  66.9534880  73.3101950  40.2623380  67.1977620  74.7349700
  41.7269270  52.2374450  72.6123680  42.2562030  51.4504250  72.4831630
  42.3597590  52.9165640  72.8459210  43.9207110  51.9749590  75.6669070
  43.2909850  51.2736900  75.8339200  43.3812250  52.7353720  75.4502230
  55.0944120  68.1314390  75.3353930  55.2696310  67.4452130  74.6914850
  54.3965690  68.6561440  74.9430600  42.9371770  68.5209230  72.8889240
  43.6690590  68.2368510  72.3413130  43.1965440  68.2822510  73.7788620
  42.0986560  64.6373960  72.8935570  41.4695440  65.1059060  73.4421400
  42.2134390  63.7923180  73.3281760  47.6854320  60.4658640  60.9246040
  46.9096420  59.9859080  61.2144610  48.3367250  59.7864290  60.7502200
  41.7020150  60.7778450  61.8021800  40.8705030  60.5227160  62.2018310
  42.3101130  60.8489220  62.5379720  51.7061750  64.8718830  59.7045170
  51.2443280  64.1006070  60.0332340  52.5187300  64.8984900  60.2097620
  41.6821410  64.8118540  61.9979820  41.9849450  63.9216280  61.8190040
  42.4265000  65.3688760  61.7702070  38.0745110  58.3385990  61.4703890
  38.6461220  57.5708190  61.4707530  38.0746650  58.6374750  60.5610500
  47.1263310  63.1415830  60.9316200  47.0571590  62.2005770  60.7705330
  47.8883170  63.2317240  61.5038770  39.3169980  53.7470350  63.2572820
  39.1372820  52.8496100  63.5375580  38.9150060  54.2942220  63.9319770
  48.1568480  55.9486210  61.1585130  48.5333300  55.0758090  61.0458800
  48.0587990  56.2844910  60.2675570  39.9356650  56.2430850  61.8655160
  40.6166760  56.5069220  62.4842560  39.6204700  55.4031720  62.1993170
  44.1281220  57.2898210  60.9527750  44.6359440  57.7879180  61.5932770
  44.6594460  56.5133410  60.7767110  56.2292150  55.4603400  64.6557100
  55.5244320  55.8485110  64.1372210  56.4950070  56.1553690  65.2578030
  42.4117320  51.9296770  65.2191170  42.4135760  52.4469160  64.4137070
  41.5821630  51.4526950  65.1961100  43.6620170  61.5691950  63.3964670
  43.3289550  62.1960870  64.0385740  43.8386850  62.0953830  62.6166340
  52.1754080  55.3837030  60.8641010  51.4709650  55.6721920  61.4444120
  52.5366240  56.1937140  60.5040570  42.0932650  53.6406730  63.2261620
  42.4349460  54.4848780  62.9315490  41.1548460  53.7890470  63.3426960
  42.8739270  63.5372750  65.2113850  43.4913270  64.2123830  64.9298300
  42.0132390  63.9460730  65.1201350  53.7916860  65.0012160  63.1268490
  53.1080380  65.6711270  63.1185160  54.3311150  65.1992810  62.3613350
  55.2441000  54.8291820  61.2550220  54.2965910  54.8630800  61.3865650
  55.5690990  55.6430770  61.6399580  51.3275600  66.8456290  61.8413670
  51.3402760  66.4418580  60.9735930  50.7750820  67.6203580  61.7375100
  50.7261040  61.7486130  63.1696280  51.1429830  61.5346240  62.3349740
  51.4500860  62.0058920  63.7404900  54.6723140  60.1473350  63.2612520
  53.8441770  60.2166440  62.7862650  55.2673620  60.7327660  62.7928350
  51.6365150  56.9342670  64.2067390  51.2236330  57.7596380  64.4607380
  50.9041100  56.3487710  64.0143750  44.2379640  63.4070130  61.2325270
  43.9407930  62.8015600  60.5533050  45.1879460  63.4447440  61.1214630
  42.4826560  56.4945780  62.8485100  43.0341150  56.6041120  62.0738350
  42.9970070  56.8683380  63.5640330  52.3265250  66.9802000  64.8948370
  51.8495810  67.7874190  64.7020980  51.6427040  66.3280330  65.0474580
  43.3298070  63.1451820  67.8833070  42.4326600  63.3691790  68.1306470
  43.3550940  63.2686760  66.9344470  42.1569290  60.0165140  66.4590440
  42.0177060  60.8887940  66.8277840  41.2750650  59.6737950  66.3138380
  43.9549640  65.9586840  68.6675590  43.9265070  66.3629790  67.8004020
  43.7914610  65.0297200  68.5047190  55.9064460  66.7413940  69.9639760
  56.3824180  67.2196830  70.6428840  56.5271620  66.6731430  69.2385260
  38.1087940  61.7862690  62.3761350  38.1868360  61.9211460  61.4317070
  38.7229620  61.0778580  62.5689470  55.3097710  63.9326790  67.1239770
  55.4360770  63.6938670  66.2056950  55.3519090  63.1011330  67.5961850
  49.1714450  67.6354790  65.6934580  49.6859120  67.5462800  66.4957010
  48.3283530  67.9814490  65.9862490  55.1621720  55.9859250  68.0889510
  54.5465990  56.4938920  67.5604970  54.8418140  55.0857580  68.0315450
  38.1647460  62.8276860  64.9155810  38.3278500  62.3582220  64.0975180
  38.6299910  62.3200420  65.5804650  42.9366230  51.9582620  59.9516380
  42.4934380  52.7392160  59.6200900  43.4951220  52.2812510  60.6587320
  47.2236040  54.8251140  65.5551700  46.7615410  55.0334160  66.3671640
  46.8214150  54.0110490  65.2522370  52.2240550  56.0460090  66.6848360
  51.3734140  55.7465840  67.0057430  52.0642340  56.2902100  65.7732180
  49.3190260  57.5461840  68.7847150  49.6443670  56.7125590  68.4449380
  50.1070590  58.0690360  68.9325480  44.9742130  52.5029950  61.8105980
  45.2714460  53.4092780  61.7298000  45.5227690  52.0148730  61.1965550
  45.1679660  57.9801770  68.3457900  45.0723260  57.0396500  68.1958300
  46.0111640  58.2016840  67.9505970  40.2990200  54.3915440  66.4991680
  39.9053590  55.2390650  66.7064460  39.6108600  53.7541810  66.6900320
  46.8735250  54.4750410  69.5688420  46.1833570  54.2822610  70.2034510
  47.6167550  54.7585050  70.1012720  37.6007250  52.3143900  60.5321760
  37.3120300  52.8846760  61.2446740  38.3453010  51.8348350  60.8952990
  49.1498220  58.3148850  62.4042340  48.4179340  58.8235660  62.7532440
  48.7522560  57.4978830  62.1031120  45.5875610  54.9903050  60.8094830
  45.5911670  54.5493000  59.9599370  46.4826730  55.3120380  60.9166650
  49.6124130  53.7682530  61.8165280  49.6296870  54.2191180  62.6607130
  49.3639710  52.8688170  62.0298720  53.0394880  51.1814710  67.6551660
  53.3640650  50.4504370  68.1809640  53.0751390  50.8628350  66.7532650
  39.7386440  62.2028290  67.0751620  39.3541230  61.5621960  67.6734580
  40.0498630  62.9064410  67.6446350  45.8883580  59.0504830  62.5560240
  46.2553710  58.5763400  63.3021580  45.6988640  59.9246400  62.8968580
  43.6782950  58.0913470  64.8744450  43.3740020  58.9705450  65.0994810
  44.6329410  58.1513260  64.9101890  52.9652720  61.2939820  61.2637690
  53.6851840  61.7895110  60.8733800  52.7634540  60.6157710  60.6191560
  48.3471520  61.3648880  67.1506690  48.2808830  60.4444550  66.8964280
  47.7176660  61.4624320  67.8651330  39.7346680  58.9316210  66.0215810
  39.3761620  59.5970060  66.6089150  39.4401240  58.0999760  66.3928430
  42.9359800  59.3900450  68.9055360  42.6359940  59.5357630  68.0083180
  43.7071040  58.8305740  68.8128750  48.2788250  64.1869450  66.9010490
  48.2932790  63.2550410  66.6829400  47.5713350  64.2729210  67.5400260
  54.4899460  60.8276790  66.2479070  53.7647650  61.4205570  66.0508460
  55.0174920  60.8200330  65.4492440  47.7122150  65.8287020  63.9950990
  48.3564370  66.0346400  64.6724410  48.0751590  65.0675420  63.5421840
  48.9854230  63.8319370  62.7128440  49.6276460  63.1312530  62.8260610
  49.5103580  64.6117810  62.5325330  50.7591850  64.6314270  65.9164500
  51.0948090  65.2180960  66.5942420  49.8392190  64.5006980  66.1462290
  38.3095250  52.4209450  66.6987910  37.5953770  52.6206370  67.3040520
  38.7290290  51.6449020  67.0702710  38.5967840  66.4089710  67.6854440
  38.7058960  65.4684450  67.5449830  37.9448400  66.6744460  67.0368170
  46.5880430  64.6805600  69.0852560  46.2677300  63.9614840  69.6298250
  45.9138790  65.3560670  69.1588620  49.8034030  54.9131760  64.4489360
  50.1714850  54.0926970  64.7768930  48.9432230  54.9733650  64.8645010
  46.7636020  57.5671350  64.6727330  47.2621270  58.0417170  65.3379180
  46.9058970  56.6434870  64.8797360  53.9702880  53.7839310  65.5155720
  53.4676480  54.5244710  65.8549530  54.7859540  54.1723310  65.1992510
  41.7368000  68.2912550  60.3088470  42.4730480  67.7428010  60.5797040
  42.1208920  69.1568560  60.1694460  40.7426280  67.4758620  69.4974050
  41.5439010  67.7970670  69.9109450  40.2278100  67.1154200  70.2193960
  49.5790910  63.5838490  69.4449460  48.9729070  63.6070090  68.7045210
  49.2745020  62.8521530  69.9816710  51.0091280  67.3118780  68.0558870
  51.9613030  67.2276800  68.0059110  50.8619500  67.9760490  68.7292660
  38.4624090  59.9632080  68.4410100  38.9663110  59.3839360  69.0126330
  37.7231510  60.2472310  68.9786470  45.5162030  61.3703070  67.9745620
  44.7507700  61.9388070  67.8900290  45.6977990  61.0779280  67.0813850
  52.6585380  63.1008400  68.5320640  53.3994850  63.4384160  68.0288100
  51.8958060  63.2700460  67.9790410  40.4947170  58.1061670  69.3360170
  40.5352510  57.8075540  70.2445400  41.3492670  58.5069280  69.1767690
  42.4352980  56.6853770  67.3034660  41.9049440  56.1944720  66.6758000
  43.1041050  57.1137970  66.7692590  51.3331040  61.1523230  67.0675850
  51.7472060  61.3068310  67.9166270  50.3982040  61.2778450  67.2301630
  51.8053210  58.4919390  69.0715000  52.3873980  57.7371710  68.9835480
  51.9814980  59.0226830  68.2946480  42.9225280  53.6516140  67.3831950
  42.8282150  53.0336890  66.6582820  42.3422670  54.3782430  67.1561860
  45.6886720  52.2089380  64.4159340  45.2404020  52.2313640  63.5704890
  45.0551920  51.8108400  65.0129640  46.0946270  61.1043710  65.0371780
  46.5134380  61.9476440  64.8648020  45.1754900  61.2415750  64.8078560
  48.4310170  58.8359890  66.4209620  48.5506380  58.2401030  67.1604460
  49.2904170  58.8729580  66.0010920  50.7698070  59.3897080  64.9972130
  50.2433290  59.9139700  64.3937270  51.1129410  60.0224470  65.6281860
  43.9453690  67.4096720  66.1529510  43.4074780  68.1342780  65.8338210
  44.1987650  66.9327060  65.3626850  45.1978940  55.3781240  67.6785440
  45.7878630  55.0697090  68.3663260  44.3799180  54.9060990  67.8345340
  50.0172370  54.9947050  67.9118460  49.3287890  54.3328590  67.8468450
  50.7378390  54.5485320  68.3566920  46.8015900  68.6447930  66.4116160
  46.7274600  69.5483070  66.7188530  45.8994740  68.3259830  66.3838230
  38.2043190  65.9722520  59.7149780  38.5346200  65.1043580  59.4828420
  38.6334190  66.1781040  60.5454740  38.6933400  66.8393110  62.4531410
  38.2564390  67.0193910  63.2855560  39.2611080  67.5967730  62.3113130
  54.3295580  66.3410110  66.7408720  53.7297570  66.4002670  65.9972640
  54.4589480  65.4015090  66.8705570  53.0147220  63.0662090  64.8384880
  52.2007060  63.4959250  65.1010670  53.4221420  63.6780500  64.2253930
  39.5633760  59.7365910  63.3523630  39.9306800  59.6493310  64.2319650
  38.9944580  58.9732460  63.2530490  54.3637620  58.2050290  66.3654100
  54.1323710  57.9763040  65.4652050  54.6242170  59.1249840  66.3198990
  39.1149760  56.6475000  67.2582050  38.2205810  56.6141760  67.5975760
  39.6547310  56.8461790  68.0233300  52.8025690  53.4306720  69.1433800
  53.6795870  53.4390120  69.5267800  52.8146530  52.6937560  68.5326150
  54.2488960  57.2836260  60.0321820  54.7726440  56.7898910  59.4011990
  54.8348380  57.4186620  60.7769390  54.4278680  57.3676130  63.5541370
  53.4781390  57.3339670  63.6686360  54.6091690  58.2776240  63.3191140
  39.6189470  50.9223330  61.6065270  40.2665660  50.3720710  61.1660430
  40.0391310  51.1766480  62.4281080  55.1676090  55.1770560  58.5051910
  55.0575370  55.0226600  59.4434180  55.9283680  54.6491500  58.2627320
  53.5141810  51.1164690  64.9634910  54.1514030  51.7298830  65.3294100
  53.6616700  51.1525350  64.0184140  56.0566360  53.0078480  51.7458050
  56.9815670  52.8759660  51.5376340  56.0342150  53.0871300  52.6994500
  56.1304850  53.7789140  54.3714760  55.3356350  53.7134260  54.9007670
  56.3348130  54.7139780  54.3600110  39.3721470  51.0779000  64.3490590
  39.0236290  51.5342820  65.1148770  39.0409170  50.1836130  64.4313020
  40.9785840  64.2498600  68.5143780  40.9355470  63.8791510  69.3958240
  41.1096850  65.1876170  68.6545600  44.6791870  65.8058190  64.1153500
  44.4383230  66.0732750  63.2284020  45.6194510  65.9763920  64.1704360
  46.8846290  52.2690880  67.8710010  46.8235180  52.8612710  68.6205420
  47.8246670  52.1616840  67.7260270  49.5220850  51.9260940  67.5102300
  50.1361260  52.2440230  66.8483380  50.0670410  51.4409530  68.1298160
  55.9396030  67.8252570  64.9164140  55.4454310  68.2221440  64.1991270
  55.3309320  67.2001780  65.3101420  40.0442110  50.6055200  67.6241360
  40.5925100  50.4243250  66.8607470  40.1097420  49.8149310  68.1597670
  40.8173870  67.1960850  65.6341560  40.2234190  67.0645550  66.3731600
  40.8097710  66.3598990  65.1683660  50.2628890  50.4893080  63.8371590
  49.3888730  50.8228190  63.6344520  50.1539640  50.0166260  64.6623460
  51.1700870  52.6963950  65.2213310  50.8414230  51.8815710  64.8415040
  52.1183170  52.6533760  65.0979000  53.6235480  68.4675990  62.1950880
  53.1638450  69.2191800  61.8208900  52.9947940  67.7482460  62.1365680
  40.4486100  64.5619230  64.5849600  39.7220160  63.9424520  64.5175550
  40.5095250  64.9559840  63.7147680  44.0531200  66.7764230  61.3699010
  44.5696220  66.1651590  60.8447270  44.7028580  67.2793010  61.8610020
  46.7926700  67.6672720  62.1967990  47.0804510  67.4127020  61.3201000
  47.3049920  67.1150080  62.7873560  48.0103710  51.4062920  62.7764500
  47.2275500  51.8808420  63.0561260  47.7166640  50.5017750  62.6677680
  52.5624780  52.1086020  60.8213590  53.0032870  52.0531120  59.9735190
  52.2932370  53.0244030  60.8923770  54.4263350  51.7401260  58.8322410
  54.3651750  50.7962480  58.6853430  55.2055380  51.8481350  59.3775870
  46.8599060  68.5888820  69.5636190  47.7866370  68.3533090  69.6072150
  46.8449490  69.4160820  69.0822220  44.0462670  51.2533570  69.3278070
  43.7646940  51.7567170  68.5638890  44.4282370  50.4555320  68.9620200
  50.6478130  50.6687150  69.9058540  50.5343580  50.9881760  70.8010060
  51.4647870  51.0699660  69.6095820  53.4276620  67.8158680  69.3877230
  54.2201940  67.3207910  69.1803190  53.7209770  68.4948820  69.9952840
  56.2292150  55.4603400  45.8813610  55.5244320  55.8485110  45.3628720
  56.4950070  56.1553690  46.4834540  55.2441000  54.8291820  42.4806730
  54.2965910  54.8630800  42.6122160  55.5690990  55.6430770  42.8656090
  53.9520430  51.2487750  33.3371880  53.6393090  51.3414580  34.2370950
  54.7132900  51.8268780  33.2869310  55.1621720  55.9859250  49.3146020
  54.5465990  56.4938920  48.7861480  54.8418140  55.0857580  49.2571960
  53.1696060  53.8688700  36.4833430  52.5409220  53.9734370  35.7691660
  52.6747980  54.0885480  37.2727310  53.9702880  53.7839310  46.7412230
  53.4676480  54.5244710  47.0806040  54.7859540  54.1723310  46.4249020
  54.3637620  58.2050290  47.5910610  54.1323710  57.9763040  46.6908560
  54.6242170  59.1249840  47.5455500  54.4278680  57.3676130  44.7797880
  53.4781390  57.3339670  44.8942870  54.6091690  58.2776240  44.5447650
  55.1676090  55.1770560  39.7308420  55.0575370  55.0226600  40.6690690
  55.9283680  54.6491500  39.4883830  56.0566360  53.0078480  32.9714560
  56.9815670  52.8759660  32.7632850  56.0342150  53.0871300  33.9251010
  56.1304850  53.7789140  35.5971270  55.3356350  53.7134260  36.1264180
  56.3348130  54.7139780  35.5856620  54.4263350  51.7401260  40.0578920
  54.3651750  50.7962480  39.9109940  55.2055380  51.8481350  40.6032380
  53.5417510  50.8913680  36.0260390  53.7368140  51.7897130  36.2927820
  52.7547380  50.6600760  36.5193340  49.5536280  58.6879620  21.4949790
  49.4730330  57.7734230  21.2241500  49.1400700  59.1846690  20.7889500
  51.7061750  64.8718830  22.1558190  51.2443280  64.1006070  22.4845360
  52.5187300  64.8984900  22.6610640  40.1112100  55.7380340  18.0377210
  39.2228800  56.0796310  17.9357090  40.3953290  55.5380660  17.1458040
  42.2873490  54.3211840  19.0715590  42.3940240  55.2215570  19.3784350
  41.3765850  54.2729810  18.7810240  51.9392600  53.4436650  20.5426490
  52.7602220  52.9533220  20.5851970  51.9726680  54.0334310  21.2958330
  44.1281220  57.2898210  23.4040770  44.6359440  57.7879180  24.0445790
  44.6594460  56.5133410  23.2280130  56.2292150  55.4603400  27.1070120
  55.5244320  55.8485110  26.5885230  56.4950070  56.1553690  27.7091050
  48.7988410  62.0416080  19.1694090  48.1805680  62.5065530  18.6056810
  49.3111660  62.7343560  19.5863600  52.1754080  55.3837030  23.3154030
  51.4709650  55.6721920  23.8957140  52.5366240  56.1937140  22.9553590
  38.1671610  62.7272610  16.5433720  37.7899590  63.2159710  15.8118620
  38.4244680  63.3997890  17.1740250  55.2441000  54.8291820  23.7063240
  54.2965910  54.8630800  23.8378670  55.5690990  55.6430770  24.0912600
  45.7760540  51.1289000  22.0019230  46.0835520  50.5735890  21.2854730
  44.8461240  51.2633460  21.8192220  52.6221020  63.5672510  19.3816860
  52.5117350  62.6246840  19.5066280  52.6189270  63.9288150  20.2679620
  48.1641300  59.1937830  18.7379350  47.2370580  59.1275210  18.9667820
  48.3166120  60.1317960  18.6234590  48.1510380  55.4654830  15.7346510
  47.2114050  55.6268790  15.8198970  48.4693640  56.1840510  15.1882500
  52.1938590  60.7558130  19.2414600  51.5751010  60.4177680  18.5940900
  52.1763040  60.1117890  19.9493790  43.7697940  59.7202570  21.5199080
  43.3654940  59.0079820  21.0244980  43.8561060  59.3755810  22.4087120
  50.3703290  59.9944940  16.2487350  50.8096570  59.1567370  16.1025170
  51.0831710  60.6274340  16.3351490  48.4798670  64.9341010  20.2168590
  48.9194580  65.6765340  19.8023980  48.4185560  65.1767580  21.1407550
  53.9520430  51.2487750  14.5628390  53.6393090  51.3414580  15.4627460
  54.7132900  51.8268780  14.5125820  40.4702570  58.6147550  19.0205730
  40.3500170  59.3409640  18.4087000  40.1603460  57.8450460  18.5433640
  39.3535570  63.4862880  21.2380550  38.9463650  63.6277470  20.3834150
  40.2448580  63.2023040  21.0351760  51.1468850  67.9210130  17.5731600
  50.9869990  67.6313070  18.4713430  50.9815560  67.1450260  17.0376830
  43.6257230  67.7008660  19.3503220  43.4499710  66.7844200  19.1371020
  42.7712970  68.0595950  19.5901020  50.8494980  65.4297690  16.1329600
  50.1560140  65.4274980  15.4731880  51.5917840  65.0057010  15.7023770
  50.4144910  67.0560400  20.2078090  50.8701860  66.2749780  20.5216710
  50.7537430  67.7667220  20.7519270  55.1621720  55.9859250  30.5402530
  54.5465990  56.4938920  30.0117990  54.8418140  55.0857580  30.4828470
  42.9366230  51.9582620  22.4029400  42.4934380  52.7392160  22.0713920
  43.4951220  52.2812510  23.1100340  46.0525050  51.5793320  17.2835230
  45.4279230  51.5753190  18.0088540  45.9655170  50.7124280  16.8871200
  42.7280450  57.0816190  20.1310650  42.5021370  56.8653360  21.0357270
  41.9472980  57.5144650  19.7856620  49.9578210  57.0879560  18.7301300
  49.3587100  57.8115360  18.5464920  50.5057820  57.0256340  17.9477750
  48.5643080  55.7243100  20.7604580  48.9572650  56.0415300  19.9473270
  48.9259930  54.8454980  20.8749100  37.7877480  56.2564020  14.1937500
  37.7052150  57.1994780  14.3352490  37.4360540  56.1138930  13.3149850
  41.4377990  54.8729540  22.2202060  41.0978040  55.3504770  22.9769110
  40.6755310  54.4194660  21.8603160  45.6495760  55.9915130  16.2514610
  45.7708580  55.9501610  17.2000430  45.2644270  56.8539280  16.0961340
  44.6617260  58.3016270  15.6497910  44.0934160  57.8534520  15.0233820
  45.3706260  58.6609050  15.1163060  53.0394880  51.1814710  30.1064680
  53.3640650  50.4504370  30.6322660  53.0751390  50.8628350  29.2045670
  38.7524070  53.7948520  21.1366730  38.4670990  53.4304190  21.9745350
  38.6902930  53.0628980  20.5229870  42.2064740  62.2974460  17.9224320
  41.4327000  61.7572080  17.7623040  42.9359370  61.7781070  17.5842080
  52.9652720  61.2939820  23.7150710  53.6851840  61.7895110  23.3246820
  52.7634540  60.6157710  23.0704580  48.4262660  52.6877780  17.8580100
  47.6127270  52.1890950  17.7825410  48.2324610  53.5276030  17.4416450
  51.1411050  57.0597430  16.1542260  52.0290670  57.3714660  15.9793600
  51.1116140  56.1869680  15.7622840  42.2502140  61.9654840  21.5603130
  42.7680810  61.1623100  21.5060020  41.7986160  61.9033980  22.4019960
  47.1371640  63.2321120  16.8330430  47.4787340  63.9763350  16.3373750
  46.3084350  63.5452240  17.1955260  53.4125320  58.3709270  15.6222120
  53.3289040  58.8023490  14.7718560  54.1319510  58.8307620  16.0548940
  54.4412570  65.2251530  18.3504250  53.7988730  64.5707150  18.6247970
  54.0543230  65.6306620  17.5744920  50.0199050  62.5536960  22.1975940
  50.3722870  61.9565090  21.5377310  49.1361380  62.2281190  22.3684190
  46.1062330  63.3134650  19.6046350  46.7933460  63.8603860  19.9853940
  45.3194750  63.8575380  19.6395960  38.2454730  58.9307470  15.0963430
  39.1149580  59.2132270  15.3799350  37.7545050  59.7443340  14.9812240
  45.4089540  60.3180680  19.2171710  45.8652320  61.1285930  19.4431900
  45.0577750  60.0003820  20.0490200  41.3101320  50.6618330  19.6894230
  41.1815950  50.6536230  20.6379150  40.4863340  51.0001420  19.3385240
  52.8309950  64.1167990  14.8880600  52.6047530  63.3998430  15.4805240
  52.4406150  63.8680430  14.0502350  38.6125980  68.1434850  15.6625060
  38.9723620  68.7424190  15.0082330  38.4718320  68.6894740  16.4360090
  52.4126200  62.0339930  16.5494760  52.1247900  62.4952620  17.3372640
  53.2078370  61.5737700  16.8178980  44.6294600  65.5266050  16.4798730
  44.6204700  66.2595740  15.8643240  43.7092960  65.2797630  16.5725690
  40.2301240  60.7480940  17.2245490  39.6229190  61.4879840  17.2340790
  40.7050590  60.8380300  16.3983690  53.1696060  53.8688700  17.7089940
  52.5409220  53.9734370  16.9948170  52.6747980  54.0885480  18.4983820
  47.6154200  65.5894290  15.1423920  47.7166180  65.3858280  14.2125900
  46.7155940  65.3352570  15.3471700  45.1380090  56.1474650  19.1247820
  44.4296240  56.6160990  19.5661430  45.4224570  55.4896660  19.7593010
  49.1695520  52.8725310  20.5643610  49.0463300  52.8911440  19.6153120
  50.1180080  52.9204250  20.6842010  46.2572310  68.1080610  19.8371590
  46.5113810  68.0702000  18.9150960  45.3084790  67.9813940  19.8299840
  43.3415110  54.4559730  16.4998530  44.1905640  54.8929880  16.4338720
  42.9746380  54.7679990  17.3270590  53.9702880  53.7839310  27.9668740
  53.4676480  54.5244710  28.3062550  54.7859540  54.1723310  27.6505530
  52.2624890  59.0272490  21.4130100  51.3215030  59.0422720  21.5877790
  52.5768960  58.2408450  21.8590400  42.2406530  60.7092090  14.9734060
  43.0069800  60.5973450  15.5359490  42.3181220  60.0130060  14.3210830
  40.9353290  58.1417160  15.6566950  41.0156880  57.1944670  15.7684350
  41.8273040  58.4724040  15.7627610  54.2650470  66.1981340  23.0884360
  54.3897890  67.0212510  23.5608170  55.1316030  65.9872070  22.7408510
  41.7368000  68.2912550  22.7601490  42.4730480  67.7428010  23.0310060
  42.1208920  69.1568560  22.6207480  38.6213480  64.3586120  18.6343000
  37.6953260  64.6007260  18.6248410  39.0869910  65.1860380  18.5127750
  44.8470310  67.4642860  14.5827060  45.6398920  67.7531690  14.1308850
  44.3274660  67.0335030  13.9039540  53.9000480  66.6912990  16.0063800
  53.6141990  66.2778130  15.1917980  53.7020030  67.6200700  15.8864320
  45.3647710  62.6846270  14.4469410  45.2598350  62.0698620  15.1730790
  45.1971930  62.1612160  13.6632420  48.6050440  61.7466300  15.0511400
  48.0560540  62.1935600  15.6954140  49.2269700  61.2415550  15.5749070
  44.2725560  60.7057220  16.9476700  44.6941980  60.5397090  17.7908090
  44.3976400  59.8957450  16.4531840  46.7853200  59.7294830  14.1953800
  47.3058860  59.0143850  13.8294950  47.4321600  60.3680700  14.4954310
  43.1684460  56.7790450  13.8934860  42.9673520  55.9157810  14.2548200
  42.9976510  56.6923810  12.9556460  50.6472770  51.5898680  16.4221740
  50.9275060  50.7466580  16.7781160  49.8738500  51.8221790  16.9360490
  41.9667260  53.8791070  13.8812740  42.2693160  53.8858500  12.9731890
  42.7061850  53.5288930  14.3780400  45.1852190  52.8225690  14.8668940
  44.8374190  52.1449680  14.2871390  45.3864960  52.3615200  15.6812330
  47.3501230  67.8106440  16.4855540  48.2452020  68.1491410  16.5074300
  47.3818860  67.0885850  15.8579820  40.9897390  63.1833490  14.7142540
  41.4272260  63.7263160  15.3700120  41.4745120  62.3580440  14.7238880
  38.2043190  65.9722520  22.1662800  38.5346200  65.1043580  21.9341440
  38.6334190  66.1781040  22.9967760  42.8005110  64.3031530  19.8264770
  42.5000650  64.1796500  20.7268680  42.6942600  63.4440120  19.4180500
  55.5697030  64.0827930  14.5291450  54.7389990  64.1504580  14.9998680
  55.7468860  64.9732050  14.2258310  55.0253490  60.8275410  17.0325650
  55.7872400  61.3972060  17.1385340  55.0407860  60.2602610  17.8033960
  38.5257830  59.3513340  21.2633310  37.8706670  59.0824980  20.6193010
  39.3635780  59.2417820  20.8135290  56.0313460  61.6825510  21.8767580
  56.4022290  60.8992830  21.4703550  56.6715390  62.3714610  21.6984880
  55.0772660  61.1209780  14.1898170  55.3521500  62.0288660  14.0617390
  54.8883400  61.0572310  15.1260160  51.4748270  54.1454630  15.4851800
  51.8933150  53.9585610  14.6448460  51.1684330  53.2933680  15.7954730
  54.9738000  59.0578770  19.1827600  54.5981600  58.2906700  18.7508890
  54.2441120  59.4401470  19.6702530  52.8025690  53.4306720  31.5946820
  53.6795870  53.4390120  31.9780820  52.8146530  52.6937560  30.9839170
  37.7395910  56.5612270  17.2058640  36.8359990  56.8242470  17.0310300
  38.2236530  56.8323440  16.4258600  54.2488960  57.2836260  22.4834840
  54.7726440  56.7898910  21.8525010  54.8348380  57.4186620  23.2282410
  54.4278680  57.3676130  26.0054390  53.4781390  57.3339670  26.1199380
  54.6091690  58.2776240  25.7704160  40.2823120  55.6177810  15.1153020
  40.9914820  55.1961030  14.6300300  39.5663060  55.6853040  14.4836370
  39.9297280  51.6717140  14.1555670  40.6525410  52.2126080  14.4736890
  40.2021800  51.3980560  13.2797210  53.7388930  56.5409610  18.4227250
  54.2348050  56.3080480  19.2076130  53.5405000  55.7021450  18.0064890
  55.1676090  55.1770560  20.9564930  55.0575370  55.0226600  21.8947200
  55.9283680  54.6491500  20.7140340  53.5141810  51.1164690  27.4147930
  54.1514030  51.7298830  27.7807120  53.6616700  51.1525350  26.4697160
  56.0566360  53.0078480  14.1971070  56.9815670  52.8759660  13.9889360
  56.0342150  53.0871300  15.1507520  56.1304850  53.7789140  16.8227780
  55.3356350  53.7134260  17.3520690  56.3348130  54.7139780  16.8113130
  53.0723270  67.8180690  20.8166170  53.6682340  67.4965260  20.1400590
  53.3301420  67.3452510  21.6079440  52.5624780  52.1086020  23.2726610
  53.0032870  52.0531120  22.4248210  52.2932370  53.0244030  23.3436790
  54.4263350  51.7401260  21.2835430  54.3651750  50.7962480  21.1366450
  55.2055380  51.8481350  21.8288890  38.7316100  67.8793620  20.2459380
  38.5638140  67.2464300  20.9441270  37.8650610  68.0853020  19.8953570
  39.3544120  51.7110400  17.7491240  40.1123480  51.8239280  17.1755270
  38.8921290  52.5479600  17.7034670  45.8957930  53.8249670  20.7393550
  45.0832440  53.4506560  20.3989430  46.3999570  53.0694750  21.0414740
  50.3982910  50.4892120  21.9776620  51.0012280  51.0612330  22.4525140
  49.6575900  51.0531560  21.7550520  53.5417510  50.8913680  17.2516900
  53.7368140  51.7897130  17.5184330  52.7547380  50.6600760  17.7449850
  40.3378800  66.5726850  17.6909520  39.8126420  66.9534880  16.9871480
  40.2623380  67.1977620  18.4119230  41.7269270  52.2374450  16.2893210
  42.2562030  51.4504250  16.1601160  42.3597590  52.9165640  16.5228740
  43.9207110  51.9749590  19.3438600  43.2909850  51.2736900  19.5108730
  43.3812250  52.7353720  19.1271760  55.0944120  68.1314390  19.0123460
  55.2696310  67.4452130  18.3684380  54.3965690  68.6561440  18.6200130
  42.9371770  68.5209230  16.5658770  43.6690590  68.2368510  16.0182660
  43.1965440  68.2822510  17.4558150  42.0986560  64.6373960  16.5705100
  41.4695440  65.1059060  17.1190930  42.2134390  63.7923180  17.0051290
  49.5536280  58.6879620   2.7206300  49.4730330  57.7734230   2.4498010
  49.1400700  59.1846690   2.0146010  47.6854320  60.4658640   4.6015570
  46.9096420  59.9859080   4.8914140  48.3367250  59.7864290   4.4271730
  41.7020150  60.7778450   5.4791330  40.8705030  60.5227160   5.8787840
  42.3101130  60.8489220   6.2149250  51.7061750  64.8718830   3.3814700
  51.2443280  64.1006070   3.7101870  52.5187300  64.8984900   3.8867150
  41.6821410  64.8118540   5.6749350  41.9849450  63.9216280   5.4959570
  42.4265000  65.3688760   5.4471600  38.0745110  58.3385990   5.1473420
  38.6461220  57.5708190   5.1477060  38.0746650  58.6374750   4.2380030
  47.9325060  67.1576840   3.0018690  47.3136500  67.6134340   2.4313130
  48.7876840  67.3128300   2.6008390  47.1263310  63.1415830   4.6085730
  47.0571590  62.2005770   4.4474860  47.8883170  63.2317240   5.1808300
  39.3169980  53.7470350   6.9342350  39.1372820  52.8496100   7.2145110
  38.9150060  54.2942220   7.6089300  48.1568480  55.9486210   4.8354660
  48.5333300  55.0758090   4.7228330  48.0587990  56.2844910   3.9445100
  51.9392600  53.4436650   1.7683000  52.7602220  52.9533220   1.8108480
  51.9726680  54.0334310   2.5214840  39.9356650  56.2430850   5.5424690
  40.6166760  56.5069220   6.1612090  39.6204700  55.4031720   5.8762700
  44.1281220  57.2898210   4.6297280  44.6359440  57.7879180   5.2702300
  44.6594460  56.5133410   4.4536640  56.2292150  55.4603400   8.3326630
  55.5244320  55.8485110   7.8141740  56.4950070  56.1553690   8.9347560
  42.4117320  51.9296770   8.8960700  42.4135760  52.4469160   8.0906600
  41.5821630  51.4526950   8.8730630  43.6620170  61.5691950   7.0734200
  43.3289550  62.1960870   7.7155270  43.8386850  62.0953830   6.2935870
  52.1754080  55.3837030   4.5410540  51.4709650  55.6721920   5.1213650
  52.5366240  56.1937140   4.1810100  42.0932650  53.6406730   6.9031150
  42.4349460  54.4848780   6.6085020  41.1548460  53.7890470   7.0196490
  42.8739270  63.5372750   8.8883380  43.4913270  64.2123830   8.6067830
  42.0132390  63.9460730   8.7970880  53.7916860  65.0012160   6.8038020
  53.1080380  65.6711270   6.7954690  54.3311150  65.1992810   6.0382880
  55.2441000  54.8291820   4.9319750  54.2965910  54.8630800   5.0635180
  55.5690990  55.6430770   5.3169110  45.7760540  51.1289000   3.2275740
  46.0835520  50.5735890   2.5111240  44.8461240  51.2633460   3.0448730
  51.3275600  66.8456290   5.5183200  51.3402760  66.4418580   4.6505460
  50.7750820  67.6203580   5.4144630  50.7261040  61.7486130   6.8465810
  51.1429830  61.5346240   6.0119270  51.4500860  62.0058920   7.4174430
  54.6723140  60.1473350   6.9382050  53.8441770  60.2166440   6.4632180
  55.2673620  60.7327660   6.4697880  51.6365150  56.9342670   7.8836920
  51.2236330  57.7596380   8.1376910  50.9041100  56.3487710   7.6913280
  43.7697940  59.7202570   2.7455590  43.3654940  59.0079820   2.2501490
  43.8561060  59.3755810   3.6343630  44.2379640  63.4070130   4.9094800
  43.9407930  62.8015600   4.2302580  45.1879460  63.4447440   4.7984160
  42.4826560  56.4945780   6.5254630  43.0341150  56.6041120   5.7507880
  42.9970070  56.8683380   7.2409860  52.3265250  66.9802000   8.5717900
  51.8495810  67.7874190   8.3790510  51.6427040  66.3280330   8.7244110
  43.3298070  63.1451820  11.5602600  42.4326600  63.3691790  11.8076000
  43.3550940  63.2686760  10.6114000  42.1569290  60.0165140  10.1359970
  42.0177060  60.8887940  10.5047370  41.2750650  59.6737950   9.9907910
  43.9549640  65.9586840  12.3445120  43.9265070  66.3629790  11.4773550
  43.7914610  65.0297200  12.1816720  55.9064460  66.7413940  13.6409290
  56.3824180  67.2196830  14.3198370  56.5271620  66.6731430  12.9154790
  38.1087940  61.7862690   6.0530880  38.1868360  61.9211460   5.1086600
  38.7229620  61.0778580   6.2459000  39.3535570  63.4862880   2.4637060
  38.9463650  63.6277470   1.6090660  40.2448580  63.2023040   2.2608270
  55.3097710  63.9326790  10.8009300  55.4360770  63.6938670   9.8826480
  55.3519090  63.1011330  11.2731380  49.1714450  67.6354790   9.3704110
  49.6859120  67.5462800  10.1726540  48.3283530  67.9814490   9.6632020
  55.1621720  55.9859250  11.7659040  54.5465990  56.4938920  11.2374500
  54.8418140  55.0857580  11.7084980  38.1647460  62.8276860   8.5925340
  38.3278500  62.3582220   7.7744710  38.6299910  62.3200420   9.2574180
  42.9366230  51.9582620   3.6285910  42.4934380  52.7392160   3.2970430
  43.4951220  52.2812510   4.3356850  47.2236040  54.8251140   9.2321230
  46.7615410  55.0334160  10.0441170  46.8214150  54.0110490   8.9291900
  52.2240550  56.0460090  10.3617890  51.3734140  55.7465840  10.6826960
  52.0642340  56.2902100   9.4501710  49.3190260  57.5461840  12.4616680
  49.6443670  56.7125590  12.1218910  50.1070590  58.0690360  12.6095010
  44.9742130  52.5029950   5.4875510  45.2714460  53.4092780   5.4067530
  45.5227690  52.0148730   4.8735080  45.1679660  57.9801770  12.0227430
  45.0723260  57.0396500  11.8727830  46.0111640  58.2016840  11.6275500
  40.2990200  54.3915440  10.1761210  39.9053590  55.2390650  10.3833990
  39.6108600  53.7541810  10.3669850  46.8735250  54.4750410  13.2457950
  46.1833570  54.2822610  13.8804040  47.6167550  54.7585050  13.7782250
  37.6007250  52.3143900   4.2091290  37.3120300  52.8846760   4.9216270
  38.3453010  51.8348350   4.5722520  49.1498220  58.3148850   6.0811870
  48.4179340  58.8235660   6.4301970  48.7522560  57.4978830   5.7800650
  45.5875610  54.9903050   4.4864360  45.5911670  54.5493000   3.6368900
  46.4826730  55.3120380   4.5936180  41.4377990  54.8729540   3.4458570
  41.0978040  55.3504770   4.2025620  40.6755310  54.4194660   3.0859670
  49.6124130  53.7682530   5.4934810  49.6296870  54.2191180   6.3376660
  49.3639710  52.8688170   5.7068250  53.0394880  51.1814710  11.3321190
  53.3640650  50.4504370  11.8579170  53.0751390  50.8628350  10.4302180
  39.7386440  62.2028290  10.7521150  39.3541230  61.5621960  11.3504110
  40.0498630  62.9064410  11.3215880  45.8883580  59.0504830   6.2329770
  46.2553710  58.5763400   6.9791110  45.6988640  59.9246400   6.5738110
  38.7524070  53.7948520   2.3623240  38.4670990  53.4304190   3.2001860
  38.6902930  53.0628980   1.7486380  43.6782950  58.0913470   8.5513980
  43.3740020  58.9705450   8.7764340  44.6329410  58.1513260   8.5871420
  52.9652720  61.2939820   4.9407220  53.6851840  61.7895110   4.5503330
  52.7634540  60.6157710   4.2961090  48.3471520  61.3648880  10.8276220
  48.2808830  60.4444550  10.5733810  47.7176660  61.4624320  11.5420860
  42.2502140  61.9654840   2.7859640  42.7680810  61.1623100   2.7316530
  41.7986160  61.9033980   3.6276470  39.7346680  58.9316210   9.6985340
  39.3761620  59.5970060  10.2858680  39.4401240  58.0999760  10.0697960
  42.9359800  59.3900450  12.5824890  42.6359940  59.5357630  11.6852710
  43.7071040  58.8305740  12.4898280  48.2788250  64.1869450  10.5780020
  48.2932790  63.2550410  10.3598930  47.5713350  64.2729210  11.2169790
  54.4899460  60.8276790   9.9248600  53.7647650  61.4205570   9.7277990
  55.0174920  60.8200330   9.1261970  50.0199050  62.5536960   3.4232450
  50.3722870  61.9565090   2.7633820  49.1361380  62.2281190   3.5940700
  47.7122150  65.8287020   7.6720520  48.3564370  66.0346400   8.3493940
  48.0751590  65.0675420   7.2191370  48.9854230  63.8319370   6.3897970
  49.6276460  63.1312530   6.5030140  49.5103580  64.6117810   6.2094860
  50.7591850  64.6314270   9.5934030  51.0948090  65.2180960  10.2711950
  49.8392190  64.5006980   9.8231820  38.3095250  52.4209450  10.3757440
  37.5953770  52.6206370  10.9810050  38.7290290  51.6449020  10.7472240
  38.5967840  66.4089710  11.3623970  38.7058960  65.4684450  11.2219360
  37.9448400  66.6744460  10.7137700  46.5880430  64.6805600  12.7622090
  46.2677300  63.9614840  13.3067780  45.9138790  65.3560670  12.8358150
  49.8034030  54.9131760   8.1258890  50.1714850  54.0926970   8.4538460
  48.9432230  54.9733650   8.5414540  46.7636020  57.5671350   8.3496860
  47.2621270  58.0417170   9.0148710  46.9058970  56.6434870   8.5566890
  53.9702880  53.7839310   9.1925250  53.4676480  54.5244710   9.5319060
  54.7859540  54.1723310   8.8762040  52.2624890  59.0272490   2.6386610
  51.3215030  59.0422720   2.8134300  52.5768960  58.2408450   3.0846910
  54.2650470  66.1981340   4.3140870  54.3897890  67.0212510   4.7864680
  55.1316030  65.9872070   3.9665020  41.7368000  68.2912550   3.9858000
  42.4730480  67.7428010   4.2566570  42.1208920  69.1568560   3.8463990
  40.7426280  67.4758620  13.1743580  41.5439010  67.7970670  13.5878980
  40.2278100  67.1154200  13.8963490  49.5790910  63.5838490  13.1218990
  48.9729070  63.6070090  12.3814740  49.2745020  62.8521530  13.6586240
  51.0091280  67.3118780  11.7328400  51.9613030  67.2276800  11.6828640
  50.8619500  67.9760490  12.4062190  38.4624090  59.9632080  12.1179630
  38.9663110  59.3839360  12.6895860  37.7231510  60.2472310  12.6556000
  45.5162030  61.3703070  11.6515150  44.7507700  61.9388070  11.5669820
  45.6977990  61.0779280  10.7583380  52.6585380  63.1008400  12.2090170
  53.3994850  63.4384160  11.7057630  51.8958060  63.2700460  11.6559940
  40.4947170  58.1061670  13.0129700  40.5352510  57.8075540  13.9214930
  41.3492670  58.5069280  12.8537220  42.4352980  56.6853770  10.9804190
  41.9049440  56.1944720  10.3527530  43.1041050  57.1137970  10.4462120
  51.3331040  61.1523230  10.7445380  51.7472060  61.3068310  11.5935800
  50.3982040  61.2778450  10.9071160  51.8053210  58.4919390  12.7484530
  52.3873980  57.7371710  12.6605010  51.9814980  59.0226830  11.9716010
  42.9225280  53.6516140  11.0601480  42.8282150  53.0336890  10.3352350
  42.3422670  54.3782430  10.8331390  45.6886720  52.2089380   8.0928870
  45.2404020  52.2313640   7.2474420  45.0551920  51.8108400   8.6899170
  46.0946270  61.1043710   8.7141310  46.5134380  61.9476440   8.5417550
  45.1754900  61.2415750   8.4848090  48.4310170  58.8359890  10.0979150
  48.5506380  58.2401030  10.8373990  49.2904170  58.8729580   9.6780450
  50.7698070  59.3897080   8.6741660  50.2433290  59.9139700   8.0706800
  51.1129410  60.0224470   9.3051390  43.9453690  67.4096720   9.8299040
  43.4074780  68.1342780   9.5107740  44.1987650  66.9327060   9.0396380
  45.1978940  55.3781240  11.3554970  45.7878630  55.0697090  12.0432790
  44.3799180  54.9060990  11.5114870  50.0172370  54.9947050  11.5887990
  49.3287890  54.3328590  11.5237980  50.7378390  54.5485320  12.0336450
  46.8015900  68.6447930  10.0885690  46.7274600  69.5483070  10.3958060
  45.8994740  68.3259830  10.0607760  38.2043190  65.9722520   3.3919310
  38.5346200  65.1043580   3.1597950  38.6334190  66.1781040   4.2224270
  38.6933400  66.8393110   6.1300940  38.2564390  67.0193910   6.9625090
  39.2611080  67.5967730   5.9882660  54.3295580  66.3410110  10.4178250
  53.7297570  66.4002670   9.6742170  54.4589480  65.4015090  10.5475100
  38.5257830  59.3513340   2.4889820  37.8706670  59.0824980   1.8449520
  39.3635780  59.2417820   2.0391800  56.0313460  61.6825510   3.1024090
  56.4022290  60.8992830   2.6960060  56.6715390  62.3714610   2.9241390
  53.0147220  63.0662090   8.5154410  52.2007060  63.4959250   8.7780200
  53.4221420  63.6780500   7.9023460  39.5633760  59.7365910   7.0293160
  39.9306800  59.6493310   7.9089180  38.9944580  58.9732460   6.9300020
  54.3637620  58.2050290  10.0423630  54.1323710  57.9763040   9.1421580
  54.6242170  59.1249840   9.9968520  39.1149760  56.6475000  10.9351580
  38.2205810  56.6141760  11.2745290  39.6547310  56.8461790  11.7002830
  52.8025690  53.4306720  12.8203330  53.6795870  53.4390120  13.2037330
  52.8146530  52.6937560  12.2095680  54.2488960  57.2836260   3.7091350
  54.7726440  56.7898910   3.0781520  54.8348380  57.4186620   4.4538920
  54.4278680  57.3676130   7.2310900  53.4781390  57.3339670   7.3455890
  54.6091690  58.2776240   6.9960670  39.6189470  50.9223330   5.2834800
  40.2665660  50.3720710   4.8429960  40.0391310  51.1766480   6.1050610
  55.1676090  55.1770560   2.1821440  55.0575370  55.0226600   3.1203710
  55.9283680  54.6491500   1.9396850  53.5141810  51.1164690   8.6404440
  54.1514030  51.7298830   9.0063630  53.6616700  51.1525350   7.6953670
  39.3721470  51.0779000   8.0260120  39.0236290  51.5342820   8.7918300
  39.0409170  50.1836130   8.1082550  40.9785840  64.2498600  12.1913310
  40.9355470  63.8791510  13.0727770  41.1096850  65.1876170  12.3315130
  44.6791870  65.8058190   7.7923030  44.4383230  66.0732750   6.9053550
  45.6194510  65.9763920   7.8473890  46.8846290  52.2690880  11.5479540
  46.8235180  52.8612710  12.2974950  47.8246670  52.1616840  11.4029800
  49.5220850  51.9260940  11.1871830  50.1361260  52.2440230  10.5252910
  50.0670410  51.4409530  11.8067690  55.9396030  67.8252570   8.5933670
  55.4454310  68.2221440   7.8760800  55.3309320  67.2001780   8.9870950
  40.0442110  50.6055200  11.3010890  40.5925100  50.4243250  10.5377000
  40.1097420  49.8149310  11.8367200  40.8173870  67.1960850   9.3111090
  40.2234190  67.0645550  10.0501130  40.8097710  66.3598990   8.8453190
  50.2628890  50.4893080   7.5141120  49.3888730  50.8228190   7.3114050
  50.1539640  50.0166260   8.3392990  51.1700870  52.6963950   8.8982840
  50.8414230  51.8815710   8.5184570  52.1183170  52.6533760   8.7748530
  53.6235480  68.4675990   5.8720410  53.1638450  69.2191800   5.4978430
  52.9947940  67.7482460   5.8135210  40.4486100  64.5619230   8.2619130
  39.7220160  63.9424520   8.1945080  40.5095250  64.9559840   7.3917210
  44.0531200  66.7764230   5.0468540  44.5696220  66.1651590   4.5216800
  44.7028580  67.2793010   5.5379550  46.7926700  67.6672720   5.8737520
  47.0804510  67.4127020   4.9970530  47.3049920  67.1150080   6.4643090
  48.0103710  51.4062920   6.4534030  47.2275500  51.8808420   6.7330790
  47.7166640  50.5017750   6.3447210  52.5624780  52.1086020   4.4983120
  53.0032870  52.0531120   3.6504720  52.2932370  53.0244030   4.5693300
  54.4263350  51.7401260   2.5091940  54.3651750  50.7962480   2.3622960
  55.2055380  51.8481350   3.0545400  45.8957930  53.8249670   1.9650060
  45.0832440  53.4506560   1.6245940  46.3999570  53.0694750   2.2671250
  50.3982910  50.4892120   3.2033130  51.0012280  51.0612330   3.6781650
  49.6575900  51.0531560   2.9807030  46.8599060  68.5888820  13.2405720
  47.7866370  68.3533090  13.2841680  46.8449490  69.4160820  12.7591750
  44.0462670  51.2533570  13.0047600  43.7646940  51.7567170  12.2408420
  44.4282370  50.4555320  12.6389730  50.6478130  50.6687150  13.5828070
  50.5343580  50.9881760  14.4779590  51.4647870  51.0699660  13.2865350
  53.4276620  67.8158680  13.0646760  54.2201940  67.3207910  12.8572720
  53.7209770  68.4948820  13.6722370  49.5536280  39.9136130  77.8180260
  49.4730330  38.9990740  77.5471970  49.1400700  40.4103200  77.1119970
  47.6854320  41.6915150  79.6989530  46.9096420  41.2115590  79.9888100
  48.3367250  41.0120800  79.5245690  41.7020150  42.0034960  80.5765290
  40.8705030  41.7483670  80.9761800  42.3101130  42.0745730  81.3123210
  51.7061750  46.0975340  78.4788660  51.2443280  45.3262580  78.8075830
  52.5187300  46.1241410  78.9841110  41.6821410  46.0375050  80.7723310
  41.9849450  45.1472790  80.5933530  42.4265000  46.5945270  80.5445560
  40.1112100  36.9636850  74.3607680  39.2228800  37.3052820  74.2587560
  40.3953290  36.7637170  73.4688510  38.0745110  39.5642500  80.2447380
  38.6461220  38.7964700  80.2451020  38.0746650  39.8631260  79.3353990
  47.9325060  48.3833350  78.0992650  47.3136500  48.8390850  77.5287090
  48.7876840  48.5384810  77.6982350  47.1263310  44.3672340  79.7059690
  47.0571590  43.4262280  79.5448820  47.8883170  44.4573750  80.2782260
  48.1568480  37.1742720  79.9328620  48.5333300  36.3014600  79.8202290
  48.0587990  37.5101420  79.0419060  42.2873490  35.5468350  75.3946060
  42.3940240  36.4472080  75.7014820  41.3765850  35.4986320  75.1040710
  51.9392600  34.6693160  76.8656960  52.7602220  34.1789730  76.9082440
  51.9726680  35.2590820  77.6188800  39.9356650  37.4687360  80.6398650
  40.6166760  37.7325730  81.2586050  39.6204700  36.6288230  80.9736660
  44.1281220  38.5154720  79.7271240  44.6359440  39.0135690  80.3676260
  44.6594460  37.7389920  79.5510600  48.7988410  43.2672590  75.4924560
  48.1805680  43.7322040  74.9287280  49.3111660  43.9600070  75.9094070
  52.1754080  36.6093540  79.6384500  51.4709650  36.8978430  80.2187610
  52.5366240  37.4193650  79.2784060  42.0932650  34.8663240  82.0005110
  42.4349460  35.7105290  81.7058980  41.1548460  35.0146980  82.1170450
  38.1671610  43.9529120  72.8664190  37.7899590  44.4416220  72.1349090
  38.4244680  44.6254400  73.4970720  53.7916860  46.2268670  81.9011980
  53.1080380  46.8967780  81.8928650  54.3311150  46.4249320  81.1356840
  55.2441000  36.0548330  80.0293710  54.2965910  36.0887310  80.1609140
  55.5690990  36.8687280  80.4143070  45.7760540  32.3545510  78.3249700
  46.0835520  31.7992400  77.6085200  44.8461240  32.4889970  78.1422690
  51.3275600  48.0712800  80.6157160  51.3402760  47.6675090  79.7479420
  50.7750820  48.8460090  80.5118590  52.6221020  44.7929020  75.7047330
  52.5117350  43.8503350  75.8296750  52.6189270  45.1544660  76.5910090
  48.1641300  40.4194340  75.0609820  47.2370580  40.3531720  75.2898290
  48.3166120  41.3574470  74.9465060  48.1510380  36.6911340  72.0576980
  47.2114050  36.8525300  72.1429440  48.4693640  37.4097020  71.5112970
  54.6723140  41.3729860  82.0356010  53.8441770  41.4422950  81.5606140
  55.2673620  41.9584170  81.5671840  52.1938590  41.9814640  75.5645070
  51.5751010  41.6434190  74.9171370  52.1763040  41.3374400  76.2724260
  43.7697940  40.9459080  77.8429550  43.3654940  40.2336330  77.3475450
  43.8561060  40.6012320  78.7317590  44.2379640  44.6326640  80.0068760
  43.9407930  44.0272110  79.3276540  45.1879460  44.6703950  79.8958120
  50.3703290  41.2201450  72.5717820  50.8096570  40.3823880  72.4255640
  51.0831710  41.8530850  72.6581960  48.4798670  46.1597520  76.5399060
  48.9194580  46.9021850  76.1254450  48.4185560  46.4024090  77.4638020
  53.9520430  32.4744260  70.8858860  53.6393090  32.5671090  71.7857930
  54.7132900  33.0525290  70.8356290  40.4702570  39.8404060  75.3436200
  40.3500170  40.5666150  74.7317470  40.1603460  39.0706970  74.8664110
  38.1087940  43.0119200  81.1504840  38.1868360  43.1467970  80.2060560
  38.7229620  42.3035090  81.3432960  39.3535570  44.7119390  77.5611020
  38.9463650  44.8533980  76.7064620  40.2448580  44.4279550  77.3582230
  51.1468850  49.1466640  73.8962070  50.9869990  48.8569580  74.7943900
  50.9815560  48.3706770  73.3607300  43.6257230  48.9265170  75.6733690
  43.4499710  48.0100710  75.4601490  42.7712970  49.2852460  75.9131490
  50.8494980  46.6554200  72.4560070  50.1560140  46.6531490  71.7962350
  51.5917840  46.2313520  72.0254240  50.4144910  48.2816910  76.5308560
  50.8701860  47.5006290  76.8447180  50.7537430  48.9923730  77.0749740
  42.9366230  33.1839130  78.7259870  42.4934380  33.9648670  78.3944390
  43.4951220  33.5069020  79.4330810  46.0525050  32.8049830  73.6065700
  45.4279230  32.8009700  74.3319010  45.9655170  31.9380790  73.2101670
  44.9742130  33.7286460  80.5849470  45.2714460  34.6349290  80.5041490
  45.5227690  33.2405240  79.9709040  42.7280450  38.3072700  76.4541120
  42.5021370  38.0909870  77.3587740  41.9472980  38.7401160  76.1087090
  49.9578210  38.3136070  75.0531770  49.3587100  39.0371870  74.8695390
  50.5057820  38.2512850  74.2708220  48.5643080  36.9499610  77.0835050
  48.9572650  37.2671810  76.2703740  48.9259930  36.0711490  77.1979570
  37.6007250  33.5400410  79.3065250  37.3120300  34.1103270  80.0190230
  38.3453010  33.0604860  79.6696480  37.7877480  37.4820530  70.5167970
  37.7052150  38.4251290  70.6582960  37.4360540  37.3395440  69.6380320
  49.1498220  39.5405360  81.1785830  48.4179340  40.0492170  81.5275930
  48.7522560  38.7235340  80.8774610  45.5875610  36.2159560  79.5838320
  45.5911670  35.7749510  78.7342860  46.4826730  36.5376890  79.6910140
  41.4377990  36.0986050  78.5432530  41.0978040  36.5761280  79.2999580
  40.6755310  35.6451170  78.1833630  45.6495760  37.2171640  72.5745080
  45.7708580  37.1758120  73.5230900  45.2644270  38.0795790  72.4191810
  49.6124130  34.9939040  80.5908770  49.6296870  35.4447690  81.4350620
  49.3639710  34.0944680  80.8042210  44.6617260  39.5272780  71.9728380
  44.0934160  39.0791030  71.3464290  45.3706260  39.8865560  71.4393530
  45.8883580  40.2761340  81.3303730  46.2553710  39.8019910  82.0765070
  45.6988640  41.1502910  81.6712070  38.7524070  35.0205030  77.4597200
  38.4670990  34.6560700  78.2975820  38.6902930  34.2885490  76.8460340
  42.2064740  43.5230970  74.2454790  41.4327000  42.9828590  74.0853510
  42.9359370  43.0037580  73.9072550  52.9652720  42.5196330  80.0381180
  53.6851840  43.0151620  79.6477290  52.7634540  41.8414220  79.3935050
  48.4262660  33.9134290  74.1810570  47.6127270  33.4147460  74.1055880
  48.2324610  34.7532540  73.7646920  51.1411050  38.2853940  72.4772730
  52.0290670  38.5971170  72.3024070  51.1116140  37.4126190  72.0853310
  42.2502140  43.1911350  77.8833600  42.7680810  42.3879610  77.8290490
  41.7986160  43.1290490  78.7250430  47.1371640  44.4577630  73.1560900
  47.4787340  45.2019860  72.6604220  46.3084350  44.7708750  73.5185730
  53.4125320  39.5965780  71.9452590  53.3289040  40.0280000  71.0949030
  54.1319510  40.0564130  72.3779410  54.4412570  46.4508040  74.6734720
  53.7988730  45.7963660  74.9478440  54.0543230  46.8563130  73.8975390
  50.0199050  43.7793470  78.5206410  50.3722870  43.1821600  77.8607780
  49.1361380  43.4537700  78.6914660  46.1062330  44.5391160  75.9276820
  46.7933460  45.0860370  76.3084410  45.3194750  45.0831890  75.9626430
  38.2454730  40.1563980  71.4193900  39.1149580  40.4388780  71.7029820
  37.7545050  40.9699850  71.3042710  45.4089540  41.5437190  75.5402180
  45.8652320  42.3542440  75.7662370  45.0577750  41.2260330  76.3720670
  41.3101320  31.8874840  76.0124700  41.1815950  31.8792740  76.9609620
  40.4863340  32.2257930  75.6615710  48.9854230  45.0575880  81.4871930
  49.6276460  44.3569040  81.6004100  49.5103580  45.8374320  81.3068820
  52.8309950  45.3424500  71.2111070  52.6047530  44.6254940  71.8035710
  52.4406150  45.0936940  70.3732820  38.6125980  49.3691360  71.9855530
  38.9723620  49.9680700  71.3312800  38.4718320  49.9151250  72.7590560
  52.4126200  43.2596440  72.8725230  52.1247900  43.7209130  73.6603110
  53.2078370  42.7994210  73.1409450  44.6294600  46.7522560  72.8029200
  44.6204700  47.4852250  72.1873710  43.7092960  46.5054140  72.8956160
  40.2301240  41.9737450  73.5475960  39.6229190  42.7136350  73.5571260
  40.7050590  42.0636810  72.7214160  53.1696060  35.0945210  74.0320410
  52.5409220  35.1990880  73.3178640  52.6747980  35.3141990  74.8214290
  47.6154200  46.8150800  71.4654390  47.7166180  46.6114790  70.5356370
  46.7155940  46.5609080  71.6702170  45.1380090  37.3731160  75.4478290
  44.4296240  37.8417500  75.8891900  45.4224570  36.7153170  76.0823480
  49.1695520  34.0981820  76.8874080  49.0463300  34.1167950  75.9383590
  50.1180080  34.1460760  77.0072480  46.2572310  49.3337120  76.1602060
  46.5113810  49.2958510  75.2381430  45.3084790  49.2070450  76.1530310
  43.3415110  35.6816240  72.8229000  44.1905640  36.1186390  72.7569190
  42.9746380  35.9936500  73.6501060  52.2624890  40.2529000  77.7360570
  51.3215030  40.2679230  77.9108260  52.5768960  39.4664960  78.1820870
  42.2406530  41.9348600  71.2964530  43.0069800  41.8229960  71.8589960
  42.3181220  41.2386570  70.6441300  40.9353290  39.3673670  71.9797420
  41.0156880  38.4201180  72.0914820  41.8273040  39.6980550  72.0858080
  54.2650470  47.4237850  79.4114830  54.3897890  48.2469020  79.8838640
  55.1316030  47.2128580  79.0638980  41.7368000  49.5169060  79.0831960
  42.4730480  48.9684520  79.3540530  42.1208920  50.3825070  78.9437950
  38.6213480  45.5842630  74.9573470  37.6953260  45.8263770  74.9478880
  39.0869910  46.4116890  74.8358220  44.8470310  48.6899370  70.9057530
  45.6398920  48.9788200  70.4539320  44.3274660  48.2591540  70.2270010
  53.9000480  47.9169500  72.3294270  53.6141990  47.5034640  71.5148450
  53.7020030  48.8457210  72.2094790  45.3647710  43.9102780  70.7699880
  45.2598350  43.2955130  71.4961260  45.1971930  43.3868670  69.9862890
  48.6050440  42.9722810  71.3741870  48.0560540  43.4192110  72.0184610
  49.2269700  42.4672060  71.8979540  44.2725560  41.9313730  73.2707170
  44.6941980  41.7653600  74.1138560  44.3976400  41.1213960  72.7762310
  46.7853200  40.9551340  70.5184270  47.3058860  40.2400360  70.1525420
  47.4321600  41.5937210  70.8184780  43.1684460  38.0046960  70.2165330
  42.9673520  37.1414320  70.5778670  42.9976510  37.9180320  69.2786930
  50.6472770  32.8155190  72.7452210  50.9275060  31.9723090  73.1011630
  49.8738500  33.0478300  73.2590960  41.9667260  35.1047580  70.2043210
  42.2693160  35.1115010  69.2962360  42.7061850  34.7545440  70.7010870
  45.1852190  34.0482200  71.1899410  44.8374190  33.3706190  70.6101860
  45.3864960  33.5871710  72.0042800  47.3501230  49.0362950  72.8086010
  48.2452020  49.3747920  72.8304770  47.3818860  48.3142360  72.1810290
  40.9897390  44.4090000  71.0373010  41.4272260  44.9519670  71.6930590
  41.4745120  43.5836950  71.0469350  38.2043190  47.1979030  78.4893270
  38.5346200  46.3300090  78.2571910  38.6334190  47.4037550  79.3198230
  42.8005110  45.5288040  76.1495240  42.5000650  45.4053010  77.0499150
  42.6942600  44.6696630  75.7410970  38.6933400  48.0649620  81.2274900
  38.2564390  48.2450420  82.0599050  39.2611080  48.8224240  81.0856620
  55.5697030  45.3084440  70.8521920  54.7389990  45.3761090  71.3229150
  55.7468860  46.1988560  70.5488780  55.0253490  42.0531920  73.3556120
  55.7872400  42.6228570  73.4615810  55.0407860  41.4859120  74.1264430
  38.5257830  40.5769850  77.5863780  37.8706670  40.3081490  76.9423480
  39.3635780  40.4674330  77.1365760  56.0313460  42.9082020  78.1998050
  56.4022290  42.1249340  77.7934020  56.6715390  43.5971120  78.0215350
  55.0772660  42.3466290  70.5128640  55.3521500  43.2545170  70.3847860
  54.8883400  42.2828820  71.4490630  51.4748270  35.3711140  71.8082270
  51.8933150  35.1842120  70.9678930  51.1684330  34.5190190  72.1185200
  54.9738000  40.2835280  75.5058070  54.5981600  39.5163210  75.0739360
  54.2441120  40.6657980  75.9933000  37.7395910  37.7868780  73.5289110
  36.8359990  38.0498980  73.3540770  38.2236530  38.0579950  72.7489070
  54.2488960  38.5092770  78.8065310  54.7726440  38.0155420  78.1755480
  54.8348380  38.6443130  79.5512880  40.2823120  36.8434320  71.4383490
  40.9914820  36.4217540  70.9530770  39.5663060  36.9109550  70.8066840
  39.9297280  32.8973650  70.4786140  40.6525410  33.4382590  70.7967360
  40.2021800  32.6237070  69.6027680  53.7388930  37.7666120  74.7457720
  54.2348050  37.5336990  75.5306600  53.5405000  36.9277960  74.3295360
  39.6189470  32.1479840  80.3808760  40.2665660  31.5977220  79.9403920
  40.0391310  32.4022990  81.2024570  55.1676090  36.4027070  77.2795400
  55.0575370  36.2483110  78.2177670  55.9283680  35.8748010  77.0370810
  56.0566360  34.2334990  70.5201540  56.9815670  34.1016170  70.3119830
  56.0342150  34.3127810  71.4737990  56.1304850  35.0045650  73.1458250
  55.3356350  34.9390770  73.6751160  56.3348130  35.9396290  73.1343600
  53.0723270  49.0437200  77.1396640  53.6682340  48.7221770  76.4631060
  53.3301420  48.5709020  77.9309910  53.6235480  49.6932500  80.9694370
  53.1638450  50.4448310  80.5952390  52.9947940  48.9738970  80.9109170
  44.0531200  48.0020740  80.1442500  44.5696220  47.3908100  79.6190760
  44.7028580  48.5049520  80.6353510  46.7926700  48.8929230  80.9711480
  47.0804510  48.6383530  80.0944490  47.3049920  48.3406590  81.5617050
  48.0103710  32.6319430  81.5507990  47.2275500  33.1064930  81.8304750
  47.7166640  31.7274260  81.4421170  52.5624780  33.3342530  79.5957080
  53.0032870  33.2787630  78.7478680  52.2932370  34.2500540  79.6667260
  54.4263350  32.9657770  77.6065900  54.3651750  32.0218990  77.4596920
  55.2055380  33.0737860  78.1519360  38.7316100  49.1050130  76.5689850
  38.5638140  48.4720810  77.2671740  37.8650610  49.3109530  76.2184040
  39.3544120  32.9366910  74.0721710  40.1123480  33.0495790  73.4985740
  38.8921290  33.7736110  74.0265140  45.8957930  35.0506180  77.0624020
  45.0832440  34.6763070  76.7219900  46.3999570  34.2951260  77.3645210
  50.3982910  31.7148630  78.3007090  51.0012280  32.2868840  78.7755610
  49.6575900  32.2788070  78.0780990  53.5417510  32.1170190  73.5747370
  53.7368140  33.0153640  73.8414800  52.7547380  31.8857270  74.0680320
  40.3378800  47.7983360  74.0139990  39.8126420  48.1791390  73.3101950
  40.2623380  48.4234130  74.7349700  41.7269270  33.4630960  72.6123680
  42.2562030  32.6760760  72.4831630  42.3597590  34.1422150  72.8459210
  43.9207110  33.2006100  75.6669070  43.2909850  32.4993410  75.8339200
  43.3812250  33.9610230  75.4502230  55.0944120  49.3570900  75.3353930
  55.2696310  48.6708640  74.6914850  54.3965690  49.8817950  74.9430600
  42.9371770  49.7465740  72.8889240  43.6690590  49.4625020  72.3413130
  43.1965440  49.5079020  73.7788620  42.0986560  45.8630470  72.8935570
  41.4695440  46.3315570  73.4421400  42.2134390  45.0179690  73.3281760
  47.6854320  41.6915150  60.9246040  46.9096420  41.2115590  61.2144610
  48.3367250  41.0120800  60.7502200  41.7020150  42.0034960  61.8021800
  40.8705030  41.7483670  62.2018310  42.3101130  42.0745730  62.5379720
  51.7061750  46.0975340  59.7045170  51.2443280  45.3262580  60.0332340
  52.5187300  46.1241410  60.2097620  41.6821410  46.0375050  61.9979820
  41.9849450  45.1472790  61.8190040  42.4265000  46.5945270  61.7702070
  38.0745110  39.5642500  61.4703890  38.6461220  38.7964700  61.4707530
  38.0746650  39.8631260  60.5610500  47.1263310  44.3672340  60.9316200
  47.0571590  43.4262280  60.7705330  47.8883170  44.4573750  61.5038770
  39.3169980  34.9726860  63.2572820  39.1372820  34.0752610  63.5375580
  38.9150060  35.5198730  63.9319770  48.1568480  37.1742720  61.1585130
  48.5333300  36.3014600  61.0458800  48.0587990  37.5101420  60.2675570
  39.9356650  37.4687360  61.8655160  40.6166760  37.7325730  62.4842560
  39.6204700  36.6288230  62.1993170  44.1281220  38.5154720  60.9527750
  44.6359440  39.0135690  61.5932770  44.6594460  37.7389920  60.7767110
  56.2292150  36.6859910  64.6557100  55.5244320  37.0741620  64.1372210
  56.4950070  37.3810200  65.2578030  42.4117320  33.1553280  65.2191170
  42.4135760  33.6725670  64.4137070  41.5821630  32.6783460  65.1961100
  43.6620170  42.7948460  63.3964670  43.3289550  43.4217380  64.0385740
  43.8386850  43.3210340  62.6166340  52.1754080  36.6093540  60.8641010
  51.4709650  36.8978430  61.4444120  52.5366240  37.4193650  60.5040570
  42.0932650  34.8663240  63.2261620  42.4349460  35.7105290  62.9315490
  41.1548460  35.0146980  63.3426960  42.8739270  44.7629260  65.2113850
  43.4913270  45.4380340  64.9298300  42.0132390  45.1717240  65.1201350
  53.7916860  46.2268670  63.1268490  53.1080380  46.8967780  63.1185160
  54.3311150  46.4249320  62.3613350  55.2441000  36.0548330  61.2550220
  54.2965910  36.0887310  61.3865650  55.5690990  36.8687280  61.6399580
  51.3275600  48.0712800  61.8413670  51.3402760  47.6675090  60.9735930
  50.7750820  48.8460090  61.7375100  50.7261040  42.9742640  63.1696280
  51.1429830  42.7602750  62.3349740  51.4500860  43.2315430  63.7404900
  54.6723140  41.3729860  63.2612520  53.8441770  41.4422950  62.7862650
  55.2673620  41.9584170  62.7928350  52.1938590  41.9814640  56.7901580
  51.5751010  41.6434190  56.1427880  52.1763040  41.3374400  57.4980770
  51.6365150  38.1599180  64.2067390  51.2236330  38.9852890  64.4607380
  50.9041100  37.5744220  64.0143750  44.2379640  44.6326640  61.2325270
  43.9407930  44.0272110  60.5533050  45.1879460  44.6703950  61.1214630
  42.4826560  37.7202290  62.8485100  43.0341150  37.8297630  62.0738350
  42.9970070  38.0939890  63.5640330  52.3265250  48.2058510  64.8948370
  51.8495810  49.0130700  64.7020980  51.6427040  47.5536840  65.0474580
  43.3298070  44.3708330  67.8833070  42.4326600  44.5948300  68.1306470
  43.3550940  44.4943270  66.9344470  42.1569290  41.2421650  66.4590440
  42.0177060  42.1144450  66.8277840  41.2750650  40.8994460  66.3138380
  43.9549640  47.1843350  68.6675590  43.9265070  47.5886300  67.8004020
  43.7914610  46.2553710  68.5047190  55.9064460  47.9670450  69.9639760
  56.3824180  48.4453340  70.6428840  56.5271620  47.8987940  69.2385260
  38.1087940  43.0119200  62.3761350  38.1868360  43.1467970  61.4317070
  38.7229620  42.3035090  62.5689470  39.3535570  44.7119390  58.7867530
  38.9463650  44.8533980  57.9321130  40.2448580  44.4279550  58.5838740
  55.3097710  45.1583300  67.1239770  55.4360770  44.9195180  66.2056950
  55.3519090  44.3267840  67.5961850  49.1714450  48.8611300  65.6934580
  49.6859120  48.7719310  66.4957010  48.3283530  49.2071000  65.9862490
  55.1621720  37.2115760  68.0889510  54.5465990  37.7195430  67.5604970
  54.8418140  36.3114090  68.0315450  38.1647460  44.0533370  64.9155810
  38.3278500  43.5838730  64.0975180  38.6299910  43.5456930  65.5804650
  42.9366230  33.1839130  59.9516380  42.4934380  33.9648670  59.6200900
  43.4951220  33.5069020  60.6587320  47.2236040  36.0507650  65.5551700
  46.7615410  36.2590670  66.3671640  46.8214150  35.2367000  65.2522370
  52.2240550  37.2716600  66.6848360  51.3734140  36.9722350  67.0057430
  52.0642340  37.5158610  65.7732180  49.3190260  38.7718350  68.7847150
  49.6443670  37.9382100  68.4449380  50.1070590  39.2946870  68.9325480
  44.9742130  33.7286460  61.8105980  45.2714460  34.6349290  61.7298000
  45.5227690  33.2405240  61.1965550  45.1679660  39.2058280  68.3457900
  45.0723260  38.2653010  68.1958300  46.0111640  39.4273350  67.9505970
  40.2990200  35.6171950  66.4991680  39.9053590  36.4647160  66.7064460
  39.6108600  34.9798320  66.6900320  46.8735250  35.7006920  69.5688420
  46.1833570  35.5079120  70.2034510  47.6167550  35.9841560  70.1012720
  37.6007250  33.5400410  60.5321760  37.3120300  34.1103270  61.2446740
  38.3453010  33.0604860  60.8952990  49.1498220  39.5405360  62.4042340
  48.4179340  40.0492170  62.7532440  48.7522560  38.7235340  62.1031120
  45.5875610  36.2159560  60.8094830  45.5911670  35.7749510  59.9599370
  46.4826730  36.5376890  60.9166650  41.4377990  36.0986050  59.7689040
  41.0978040  36.5761280  60.5256090  40.6755310  35.6451170  59.4090140
  49.6124130  34.9939040  61.8165280  49.6296870  35.4447690  62.6607130
  49.3639710  34.0944680  62.0298720  53.0394880  32.4071220  67.6551660
  53.3640650  31.6760880  68.1809640  53.0751390  32.0884860  66.7532650
  39.7386440  43.4284800  67.0751620  39.3541230  42.7878470  67.6734580
  40.0498630  44.1320920  67.6446350  45.8883580  40.2761340  62.5560240
  46.2553710  39.8019910  63.3021580  45.6988640  41.1502910  62.8968580
  43.6782950  39.3169980  64.8744450  43.3740020  40.1961960  65.0994810
  44.6329410  39.3769770  64.9101890  52.9652720  42.5196330  61.2637690
  53.6851840  43.0151620  60.8733800  52.7634540  41.8414220  60.6191560
  48.3471520  42.5905390  67.1506690  48.2808830  41.6701060  66.8964280
  47.7176660  42.6880830  67.8651330  39.7346680  40.1572720  66.0215810
  39.3761620  40.8226570  66.6089150  39.4401240  39.3256270  66.3928430
  42.9359800  40.6156960  68.9055360  42.6359940  40.7614140  68.0083180
  43.7071040  40.0562250  68.8128750  48.2788250  45.4125960  66.9010490
  48.2932790  44.4806920  66.6829400  47.5713350  45.4985720  67.5400260
  53.4125320  39.5965780  53.1709100  53.3289040  40.0280000  52.3205540
  54.1319510  40.0564130  53.6035920  54.4899460  42.0533300  66.2479070
  53.7647650  42.6462080  66.0508460  55.0174920  42.0456840  65.4492440
  50.0199050  43.7793470  59.7462920  50.3722870  43.1821600  59.0864290
  49.1361380  43.4537700  59.9171170  47.7122150  47.0543530  63.9950990
  48.3564370  47.2602910  64.6724410  48.0751590  46.2931930  63.5421840
  48.9854230  45.0575880  62.7128440  49.6276460  44.3569040  62.8260610
  49.5103580  45.8374320  62.5325330  50.7591850  45.8570780  65.9164500
  51.0948090  46.4437470  66.5942420  49.8392190  45.7263490  66.1462290
  38.3095250  33.6465960  66.6987910  37.5953770  33.8462880  67.3040520
  38.7290290  32.8705530  67.0702710  52.4126200  43.2596440  54.0981740
  52.1247900  43.7209130  54.8859620  53.2078370  42.7994210  54.3665960
  38.5967840  47.6346220  67.6854440  38.7058960  46.6940960  67.5449830
  37.9448400  47.9000970  67.0368170  46.5880430  45.9062110  69.0852560
  46.2677300  45.1871350  69.6298250  45.9138790  46.5817180  69.1588620
  49.8034030  36.1388270  64.4489360  50.1714850  35.3183480  64.7768930
  48.9432230  36.1990160  64.8645010  46.7636020  38.7927860  64.6727330
  47.2621270  39.2673680  65.3379180  46.9058970  37.8691380  64.8797360
  53.9702880  35.0095820  65.5155720  53.4676480  35.7501220  65.8549530
  54.7859540  35.3979820  65.1992510  52.2624890  40.2529000  58.9617080
  51.3215030  40.2679230  59.1364770  52.5768960  39.4664960  59.4077380
  54.2650470  47.4237850  60.6371340  54.3897890  48.2469020  61.1095150
  55.1316030  47.2128580  60.2895490  41.7368000  49.5169060  60.3088470
  42.4730480  48.9684520  60.5797040  42.1208920  50.3825070  60.1694460
  40.7426280  48.7015130  69.4974050  41.5439010  49.0227180  69.9109450
  40.2278100  48.3410710  70.2193960  49.5790910  44.8095000  69.4449460
  48.9729070  44.8326600  68.7045210  49.2745020  44.0778040  69.9816710
  51.0091280  48.5375290  68.0558870  51.9613030  48.4533310  68.0059110
  50.8619500  49.2017000  68.7292660  53.9000480  47.9169500  53.5550780
  53.6141990  47.5034640  52.7404960  53.7020030  48.8457210  53.4351300
  38.4624090  41.1888590  68.4410100  38.9663110  40.6095870  69.0126330
  37.7231510  41.4728820  68.9786470  45.5162030  42.5959580  67.9745620
  44.7507700  43.1644580  67.8900290  45.6977990  42.3035790  67.0813850
  52.6585380  44.3264910  68.5320640  53.3994850  44.6640670  68.0288100
  51.8958060  44.4956970  67.9790410  40.4947170  39.3318180  69.3360170
  40.5352510  39.0332050  70.2445400  41.3492670  39.7325790  69.1767690
  42.4352980  37.9110280  67.3034660  41.9049440  37.4201230  66.6758000
  43.1041050  38.3394480  66.7692590  51.3331040  42.3779740  67.0675850
  51.7472060  42.5324820  67.9166270  50.3982040  42.5034960  67.2301630
  51.8053210  39.7175900  69.0715000  52.3873980  38.9628220  68.9835480
  51.9814980  40.2483340  68.2946480  42.9225280  34.8772650  67.3831950
  42.8282150  34.2593400  66.6582820  42.3422670  35.6038940  67.1561860
  45.6886720  33.4345890  64.4159340  45.2404020  33.4570150  63.5704890
  45.0551920  33.0364910  65.0129640  46.0946270  42.3300220  65.0371780
  46.5134380  43.1732950  64.8648020  45.1754900  42.4672260  64.8078560
  48.4310170  40.0616400  66.4209620  48.5506380  39.4657540  67.1604460
  49.2904170  40.0986090  66.0010920  50.7698070  40.6153590  64.9972130
  50.2433290  41.1396210  64.3937270  51.1129410  41.2480980  65.6281860
  43.9453690  48.6353230  66.1529510  43.4074780  49.3599290  65.8338210
  44.1987650  48.1583570  65.3626850  45.1978940  36.6037750  67.6785440
  45.7878630  36.2953600  68.3663260  44.3799180  36.1317500  67.8345340
  50.0172370  36.2203560  67.9118460  49.3287890  35.5585100  67.8468450
  50.7378390  35.7741830  68.3566920  46.8015900  49.8704440  66.4116160
  46.7274600  50.7739580  66.7188530  45.8994740  49.5516340  66.3838230
  38.2043190  47.1979030  59.7149780  38.5346200  46.3300090  59.4828420
  38.6334190  47.4037550  60.5454740  38.6933400  48.0649620  62.4531410
  38.2564390  48.2450420  63.2855560  39.2611080  48.8224240  62.3113130
  54.3295580  47.5666620  66.7408720  53.7297570  47.6259180  65.9972640
  54.4589480  46.6271600  66.8705570  55.5697030  45.3084440  52.0778430
  54.7389990  45.3761090  52.5485660  55.7468860  46.1988560  51.7745290
  55.0253490  42.0531920  54.5812630  55.7872400  42.6228570  54.6872320
  55.0407860  41.4859120  55.3520940  38.5257830  40.5769850  58.8120290
  37.8706670  40.3081490  58.1679990  39.3635780  40.4674330  58.3622270
  56.0313460  42.9082020  59.4254560  56.4022290  42.1249340  59.0190530
  56.6715390  43.5971120  59.2471860  53.0147220  44.2918600  64.8384880
  52.2007060  44.7215760  65.1010670  53.4221420  44.9037010  64.2253930
  55.0772660  42.3466290  51.7385150  55.3521500  43.2545170  51.6104370
  54.8883400  42.2828820  52.6747140  54.9738000  40.2835280  56.7314580
  54.5981600  39.5163210  56.2995870  54.2441120  40.6657980  57.2189510
  39.5633760  40.9622420  63.3523630  39.9306800  40.8749820  64.2319650
  38.9944580  40.1988970  63.2530490  54.3637620  39.4306800  66.3654100
  54.1323710  39.2019550  65.4652050  54.6242170  40.3506350  66.3198990
  39.1149760  37.8731510  67.2582050  38.2205810  37.8398270  67.5975760
  39.6547310  38.0718300  68.0233300  52.8025690  34.6563230  69.1433800
  53.6795870  34.6646630  69.5267800  52.8146530  33.9194070  68.5326150
  54.2488960  38.5092770  60.0321820  54.7726440  38.0155420  59.4011990
  54.8348380  38.6443130  60.7769390  54.4278680  38.5932640  63.5541370
  53.4781390  38.5596180  63.6686360  54.6091690  39.5032750  63.3191140
  53.7388930  37.7666120  55.9714230  54.2348050  37.5336990  56.7563110
  53.5405000  36.9277960  55.5551870  39.6189470  32.1479840  61.6065270
  40.2665660  31.5977220  61.1660430  40.0391310  32.4022990  62.4281080
  55.1676090  36.4027070  58.5051910  55.0575370  36.2483110  59.4434180
  55.9283680  35.8748010  58.2627320  53.5141810  32.3421200  64.9634910
  54.1514030  32.9555340  65.3294100  53.6616700  32.3781860  64.0184140
  56.0566360  34.2334990  51.7458050  56.9815670  34.1016170  51.5376340
  56.0342150  34.3127810  52.6994500  56.1304850  35.0045650  54.3714760
  55.3356350  34.9390770  54.9007670  56.3348130  35.9396290  54.3600110
  39.3721470  32.3035510  64.3490590  39.0236290  32.7599330  65.1148770
  39.0409170  31.4092640  64.4313020  40.9785840  45.4755110  68.5143780
  40.9355470  45.1048020  69.3958240  41.1096850  46.4132680  68.6545600
  44.6791870  47.0314700  64.1153500  44.4383230  47.2989260  63.2284020
  45.6194510  47.2020430  64.1704360  46.8846290  33.4947390  67.8710010
  46.8235180  34.0869220  68.6205420  47.8246670  33.3873350  67.7260270
  49.5220850  33.1517450  67.5102300  50.1361260  33.4696740  66.8483380
  50.0670410  32.6666040  68.1298160  55.9396030  49.0509080  64.9164140
  55.4454310  49.4477950  64.1991270  55.3309320  48.4258290  65.3101420
  40.0442110  31.8311710  67.6241360  40.5925100  31.6499760  66.8607470
  40.1097420  31.0405820  68.1597670  40.8173870  48.4217360  65.6341560
  40.2234190  48.2902060  66.3731600  40.8097710  47.5855500  65.1683660
  50.2628890  31.7149590  63.8371590  49.3888730  32.0484700  63.6344520
  50.1539640  31.2422770  64.6623460  51.1700870  33.9220460  65.2213310
  50.8414230  33.1072220  64.8415040  52.1183170  33.8790270  65.0979000
  53.6235480  49.6932500  62.1950880  53.1638450  50.4448310  61.8208900
  52.9947940  48.9738970  62.1365680  40.4486100  45.7875740  64.5849600
  39.7220160  45.1681030  64.5175550  40.5095250  46.1816350  63.7147680
  44.0531200  48.0020740  61.3699010  44.5696220  47.3908100  60.8447270
  44.7028580  48.5049520  61.8610020  46.7926700  48.8929230  62.1967990
  47.0804510  48.6383530  61.3201000  47.3049920  48.3406590  62.7873560
  48.0103710  32.6319430  62.7764500  47.2275500  33.1064930  63.0561260
  47.7166640  31.7274260  62.6677680  52.5624780  33.3342530  60.8213590
  53.0032870  33.2787630  59.9735190  52.2932370  34.2500540  60.8923770
  54.4263350  32.9657770  58.8322410  54.3651750  32.0218990  58.6853430
  55.2055380  33.0737860  59.3775870  50.3982910  31.7148630  59.5263600
  51.0012280  32.2868840  60.0012120  49.6575900  32.2788070  59.3037500
  46.8599060  49.8145330  69.5636190  47.7866370  49.5789600  69.6072150
  46.8449490  50.6417330  69.0822220  44.0462670  32.4790080  69.3278070
  43.7646940  32.9823680  68.5638890  44.4282370  31.6811830  68.9620200
  50.6478130  31.8943660  69.9058540  50.5343580  32.2138270  70.8010060
  51.4647870  32.2956170  69.6095820  53.4276620  49.0415190  69.3877230
  54.2201940  48.5464420  69.1803190  53.7209770  49.7205330  69.9952840
  51.9392600  34.6693160  39.3169980  52.7602220  34.1789730  39.3595460
  51.9726680  35.2590820  40.0701820  56.2292150  36.6859910  45.8813610
  55.5244320  37.0741620  45.3628720  56.4950070  37.3810200  46.4834540
  52.1754080  36.6093540  42.0897520  51.4709650  36.8978430  42.6700630
  52.5366240  37.4193650  41.7297080  53.7916860  46.2268670  44.3525000
  53.1080380  46.8967780  44.3441670  54.3311150  46.4249320  43.5869860
  55.2441000  36.0548330  42.4806730  54.2965910  36.0887310  42.6122160
  55.5690990  36.8687280  42.8656090  52.6221020  44.7929020  38.1560350
  52.5117350  43.8503350  38.2809770  52.6189270  45.1544660  39.0423110
  50.7261040  42.9742640  44.3952790  51.1429830  42.7602750  43.5606250
  51.4500860  43.2315430  44.9661410  54.6723140  41.3729860  44.4869030
  53.8441770  41.4422950  44.0119160  55.2673620  41.9584170  44.0184860
  52.1938590  41.9814640  38.0158090  51.5751010  41.6434190  37.3684390
  52.1763040  41.3374400  38.7237280  51.6365150  38.1599180  45.4323900
  51.2236330  38.9852890  45.6863890  50.9041100  37.5744220  45.2400260
  50.3703290  41.2201450  35.0230840  50.8096570  40.3823880  34.8768660
  51.0831710  41.8530850  35.1094980  53.9520430  32.4744260  33.3371880
  53.6393090  32.5671090  34.2370950  54.7132900  33.0525290  33.2869310
  55.9064460  47.9670450  51.1896270  56.3824180  48.4453340  51.8685350
  56.5271620  47.8987940  50.4641770  55.3097710  45.1583300  48.3496280
  55.4360770  44.9195180  47.4313460  55.3519090  44.3267840  48.8218360
  55.1621720  37.2115760  49.3146020  54.5465990  37.7195430  48.7861480
  54.8418140  36.3114090  49.2571960  52.2240550  37.2716600  47.9104870
  51.3734140  36.9722350  48.2313940  52.0642340  37.5158610  46.9988690
  52.9652720  42.5196330  42.4894200  53.6851840  43.0151620  42.0990310
  52.7634540  41.8414220  41.8448070  51.1411050  38.2853940  34.9285750
  52.0290670  38.5971170  34.7537090  51.1116140  37.4126190  34.5366330
  53.4125320  39.5965780  34.3965610  53.3289040  40.0280000  33.5462050
  54.1319510  40.0564130  34.8292430  54.4899460  42.0533300  47.4735580
  53.7647650  42.6462080  47.2764970  55.0174920  42.0456840  46.6748950
  54.4412570  46.4508040  37.1247740  53.7988730  45.7963660  37.3991460
  54.0543230  46.8563130  36.3488410  52.8309950  45.3424500  33.6624090
  52.6047530  44.6254940  34.2548730  52.4406150  45.0936940  32.8245840
  52.4126200  43.2596440  35.3238250  52.1247900  43.7209130  36.1116130
  53.2078370  42.7994210  35.5922470  53.1696060  35.0945210  36.4833430
  52.5409220  35.1990880  35.7691660  52.6747980  35.3141990  37.2727310
  53.9702880  35.0095820  46.7412230  53.4676480  35.7501220  47.0806040
  54.7859540  35.3979820  46.4249020  52.2624890  40.2529000  40.1873590
  51.3215030  40.2679230  40.3621280  52.5768960  39.4664960  40.6333890
  54.2650470  47.4237850  41.8627850  54.3897890  48.2469020  42.3351660
  55.1316030  47.2128580  41.5152000  53.9000480  47.9169500  34.7807290
  53.6141990  47.5034640  33.9661470  53.7020030  48.8457210  34.6607810
  52.6585380  44.3264910  49.7577150  53.3994850  44.6640670  49.2544610
  51.8958060  44.4956970  49.2046920  51.3331040  42.3779740  48.2932360
  51.7472060  42.5324820  49.1422780  50.3982040  42.5034960  48.4558140
  54.3295580  47.5666620  47.9665230  53.7297570  47.6259180  47.2229150
  54.4589480  46.6271600  48.0962080  55.5697030  45.3084440  33.3034940
  54.7389990  45.3761090  33.7742170  55.7468860  46.1988560  33.0001800
  55.0253490  42.0531920  35.8069140  55.7872400  42.6228570  35.9128830
  55.0407860  41.4859120  36.5777450  56.0313460  42.9082020  40.6511070
  56.4022290  42.1249340  40.2447040  56.6715390  43.5971120  40.4728370
  53.0147220  44.2918600  46.0641390  52.2007060  44.7215760  46.3267180
  53.4221420  44.9037010  45.4510440  55.0772660  42.3466290  32.9641660
  55.3521500  43.2545170  32.8360880  54.8883400  42.2828820  33.9003650
  51.4748270  35.3711140  34.2595290  51.8933150  35.1842120  33.4191950
  51.1684330  34.5190190  34.5698220  54.9738000  40.2835280  37.9571090
  54.5981600  39.5163210  37.5252380  54.2441120  40.6657980  38.4446020
  54.3637620  39.4306800  47.5910610  54.1323710  39.2019550  46.6908560
  54.6242170  40.3506350  47.5455500  54.2488960  38.5092770  41.2578330
  54.7726440  38.0155420  40.6268500  54.8348380  38.6443130  42.0025900
  54.4278680  38.5932640  44.7797880  53.4781390  38.5596180  44.8942870
  54.6091690  39.5032750  44.5447650  53.7388930  37.7666120  37.1970740
  54.2348050  37.5336990  37.9819620  53.5405000  36.9277960  36.7808380
  55.1676090  36.4027070  39.7308420  55.0575370  36.2483110  40.6690690
  55.9283680  35.8748010  39.4883830  56.0566360  34.2334990  32.9714560
  56.9815670  34.1016170  32.7632850  56.0342150  34.3127810  33.9251010
  56.1304850  35.0045650  35.5971270  55.3356350  34.9390770  36.1264180
  56.3348130  35.9396290  35.5856620  55.9396030  49.0509080  46.1420650
  55.4454310  49.4477950  45.4247780  55.3309320  48.4258290  46.5357930
  54.4263350  32.9657770  40.0578920  54.3651750  32.0218990  39.9109940
  55.2055380  33.0737860  40.6032380  53.5417510  32.1170190  36.0260390
  53.7368140  33.0153640  36.2927820  52.7547380  31.8857270  36.5193340
  55.0944120  49.3570900  37.7866950  55.2696310  48.6708640  37.1427870
  54.3965690  49.8817950  37.3943620  49.5536280  39.9136130  21.4949790
  49.4730330  38.9990740  21.2241500  49.1400700  40.4103200  20.7889500
  47.6854320  41.6915150  23.3759060  46.9096420  41.2115590  23.6657630
  48.3367250  41.0120800  23.2015220  51.7061750  46.0975340  22.1558190
  51.2443280  45.3262580  22.4845360  52.5187300  46.1241410  22.6610640
  40.1112100  36.9636850  18.0377210  39.2228800  37.3052820  17.9357090
  40.3953290  36.7637170  17.1458040  47.9325060  48.3833350  21.7762180
  47.3136500  48.8390850  21.2056620  48.7876840  48.5384810  21.3751880
  48.1568480  37.1742720  23.6098150  48.5333300  36.3014600  23.4971820
  48.0587990  37.5101420  22.7188590  42.2873490  35.5468350  19.0715590
  42.3940240  36.4472080  19.3784350  41.3765850  35.4986320  18.7810240
  51.9392600  34.6693160  20.5426490  52.7602220  34.1789730  20.5851970
  51.9726680  35.2590820  21.2958330  56.2292150  36.6859910  27.1070120
  55.5244320  37.0741620  26.5885230  56.4950070  37.3810200  27.7091050
  48.7988410  43.2672590  19.1694090  48.1805680  43.7322040  18.6056810
  49.3111660  43.9600070  19.5863600  52.1754080  36.6093540  23.3154030
  51.4709650  36.8978430  23.8957140  52.5366240  37.4193650  22.9553590
  38.1671610  43.9529120  16.5433720  37.7899590  44.4416220  15.8118620
  38.4244680  44.6254400  17.1740250  53.7916860  46.2268670  25.5781510
  53.1080380  46.8967780  25.5698180  54.3311150  46.4249320  24.8126370
  55.2441000  36.0548330  23.7063240  54.2965910  36.0887310  23.8378670
  55.5690990  36.8687280  24.0912600  45.7760540  32.3545510  22.0019230
  46.0835520  31.7992400  21.2854730  44.8461240  32.4889970  21.8192220
  51.3275600  48.0712800  24.2926690  51.3402760  47.6675090  23.4248950
  50.7750820  48.8460090  24.1888120  52.6221020  44.7929020  19.3816860
  52.5117350  43.8503350  19.5066280  52.6189270  45.1544660  20.2679620
  50.7261040  42.9742640  25.6209300  51.1429830  42.7602750  24.7862760
  51.4500860  43.2315430  26.1917920  48.1641300  40.4194340  18.7379350
  47.2370580  40.3531720  18.9667820  48.3166120  41.3574470  18.6234590
  48.1510380  36.6911340  15.7346510  47.2114050  36.8525300  15.8198970
  48.4693640  37.4097020  15.1882500  54.6723140  41.3729860  25.7125540
  53.8441770  41.4422950  25.2375670  55.2673620  41.9584170  25.2441370
  52.1938590  41.9814640  19.2414600  51.5751010  41.6434190  18.5940900
  52.1763040  41.3374400  19.9493790  51.6365150  38.1599180  26.6580410
  51.2236330  38.9852890  26.9120400  50.9041100  37.5744220  26.4656770
  43.7697940  40.9459080  21.5199080  43.3654940  40.2336330  21.0244980
  43.8561060  40.6012320  22.4087120  50.3703290  41.2201450  16.2487350
  50.8096570  40.3823880  16.1025170  51.0831710  41.8530850  16.3351490
  48.4798670  46.1597520  20.2168590  48.9194580  46.9021850  19.8023980
  48.4185560  46.4024090  21.1407550  53.9520430  32.4744260  14.5628390
  53.6393090  32.5671090  15.4627460  54.7132900  33.0525290  14.5125820
  40.4702570  39.8404060  19.0205730  40.3500170  40.5666150  18.4087000
  40.1603460  39.0706970  18.5433640  55.9064460  47.9670450  32.4152780
  56.3824180  48.4453340  33.0941860  56.5271620  47.8987940  31.6898280
  39.3535570  44.7119390  21.2380550  38.9463650  44.8533980  20.3834150
  40.2448580  44.4279550  21.0351760  55.3097710  45.1583300  29.5752790
  55.4360770  44.9195180  28.6569970  55.3519090  44.3267840  30.0474870
  51.1468850  49.1466640  17.5731600  50.9869990  48.8569580  18.4713430
  50.9815560  48.3706770  17.0376830  43.6257230  48.9265170  19.3503220
  43.4499710  48.0100710  19.1371020  42.7712970  49.2852460  19.5901020
  50.8494980  46.6554200  16.1329600  50.1560140  46.6531490  15.4731880
  51.5917840  46.2313520  15.7023770  50.4144910  48.2816910  20.2078090
  50.8701860  47.5006290  20.5216710  50.7537430  48.9923730  20.7519270
  55.1621720  37.2115760  30.5402530  54.5465990  37.7195430  30.0117990
  54.8418140  36.3114090  30.4828470  42.9366230  33.1839130  22.4029400
  42.4934380  33.9648670  22.0713920  43.4951220  33.5069020  23.1100340
  52.2240550  37.2716600  29.1361380  51.3734140  36.9722350  29.4570450
  52.0642340  37.5158610  28.2245200  46.0525050  32.8049830  17.2835230
  45.4279230  32.8009700  18.0088540  45.9655170  31.9380790  16.8871200
  42.7280450  38.3072700  20.1310650  42.5021370  38.0909870  21.0357270
  41.9472980  38.7401160  19.7856620  49.9578210  38.3136070  18.7301300
  49.3587100  39.0371870  18.5464920  50.5057820  38.2512850  17.9477750
  48.5643080  36.9499610  20.7604580  48.9572650  37.2671810  19.9473270
  48.9259930  36.0711490  20.8749100  37.7877480  37.4820530  14.1937500
  37.7052150  38.4251290  14.3352490  37.4360540  37.3395440  13.3149850
  49.1498220  39.5405360  24.8555360  48.4179340  40.0492170  25.2045460
  48.7522560  38.7235340  24.5544140  45.5875610  36.2159560  23.2607850
  45.5911670  35.7749510  22.4112390  46.4826730  36.5376890  23.3679670
  41.4377990  36.0986050  22.2202060  41.0978040  36.5761280  22.9769110
  40.6755310  35.6451170  21.8603160  45.6495760  37.2171640  16.2514610
  45.7708580  37.1758120  17.2000430  45.2644270  38.0795790  16.0961340
  49.6124130  34.9939040  24.2678300  49.6296870  35.4447690  25.1120150
  49.3639710  34.0944680  24.4811740  44.6617260  39.5272780  15.6497910
  44.0934160  39.0791030  15.0233820  45.3706260  39.8865560  15.1163060
  53.0394880  32.4071220  30.1064680  53.3640650  31.6760880  30.6322660
  53.0751390  32.0884860  29.2045670  38.7524070  35.0205030  21.1366730
  38.4670990  34.6560700  21.9745350  38.6902930  34.2885490  20.5229870
  42.2064740  43.5230970  17.9224320  41.4327000  42.9828590  17.7623040
  42.9359370  43.0037580  17.5842080  52.9652720  42.5196330  23.7150710
  53.6851840  43.0151620  23.3246820  52.7634540  41.8414220  23.0704580
  48.4262660  33.9134290  17.8580100  47.6127270  33.4147460  17.7825410
  48.2324610  34.7532540  17.4416450  48.3471520  42.5905390  29.6019710
  48.2808830  41.6701060  29.3477300  47.7176660  42.6880830  30.3164350
  51.1411050  38.2853940  16.1542260  52.0290670  38.5971170  15.9793600
  51.1116140  37.4126190  15.7622840  42.2502140  43.1911350  21.5603130
  42.7680810  42.3879610  21.5060020  41.7986160  43.1290490  22.4019960
  47.1371640  44.4577630  16.8330430  47.4787340  45.2019860  16.3373750
  46.3084350  44.7708750  17.1955260  53.4125320  39.5965780  15.6222120
  53.3289040  40.0280000  14.7718560  54.1319510  40.0564130  16.0548940
  54.4899460  42.0533300  28.6992090  53.7647650  42.6462080  28.5021480
  55.0174920  42.0456840  27.9005460  54.4412570  46.4508040  18.3504250
  53.7988730  45.7963660  18.6247970  54.0543230  46.8563130  17.5744920
  50.0199050  43.7793470  22.1975940  50.3722870  43.1821600  21.5377310
  49.1361380  43.4537700  22.3684190  46.1062330  44.5391160  19.6046350
  46.7933460  45.0860370  19.9853940  45.3194750  45.0831890  19.6395960
  38.2454730  40.1563980  15.0963430  39.1149580  40.4388780  15.3799350
  37.7545050  40.9699850  14.9812240  45.4089540  41.5437190  19.2171710
  45.8652320  42.3542440  19.4431900  45.0577750  41.2260330  20.0490200
  41.3101320  31.8874840  19.6894230  41.1815950  31.8792740  20.6379150
  40.4863340  32.2257930  19.3385240  48.9854230  45.0575880  25.1641460
  49.6276460  44.3569040  25.2773630  49.5103580  45.8374320  24.9838350
  52.8309950  45.3424500  14.8880600  52.6047530  44.6254940  15.4805240
  52.4406150  45.0936940  14.0502350  38.6125980  49.3691360  15.6625060
  38.9723620  49.9680700  15.0082330  38.4718320  49.9151250  16.4360090
  52.4126200  43.2596440  16.5494760  52.1247900  43.7209130  17.3372640
  53.2078370  42.7994210  16.8178980  44.6294600  46.7522560  16.4798730
  44.6204700  47.4852250  15.8643240  43.7092960  46.5054140  16.5725690
  40.2301240  41.9737450  17.2245490  39.6229190  42.7136350  17.2340790
  40.7050590  42.0636810  16.3983690  49.8034030  36.1388270  26.9002380
  50.1714850  35.3183480  27.2281950  48.9432230  36.1990160  27.3158030
  53.1696060  35.0945210  17.7089940  52.5409220  35.1990880  16.9948170
  52.6747980  35.3141990  18.4983820  47.6154200  46.8150800  15.1423920
  47.7166180  46.6114790  14.2125900  46.7155940  46.5609080  15.3471700
  45.1380090  37.3731160  19.1247820  44.4296240  37.8417500  19.5661430
  45.4224570  36.7153170  19.7593010  49.1695520  34.0981820  20.5643610
  49.0463300  34.1167950  19.6153120  50.1180080  34.1460760  20.6842010
  46.2572310  49.3337120  19.8371590  46.5113810  49.2958510  18.9150960
  45.3084790  49.2070450  19.8299840  43.3415110  35.6816240  16.4998530
  44.1905640  36.1186390  16.4338720  42.9746380  35.9936500  17.3270590
  53.9702880  35.0095820  27.9668740  53.4676480  35.7501220  28.3062550
  54.7859540  35.3979820  27.6505530  52.2624890  40.2529000  21.4130100
  51.3215030  40.2679230  21.5877790  52.5768960  39.4664960  21.8590400
  42.2406530  41.9348600  14.9734060  43.0069800  41.8229960  15.5359490
  42.3181220  41.2386570  14.3210830  40.9353290  39.3673670  15.6566950
  41.0156880  38.4201180  15.7684350  41.8273040  39.6980550  15.7627610
  54.2650470  47.4237850  23.0884360  54.3897890  48.2469020  23.5608170
  55.1316030  47.2128580  22.7408510  38.6213480  45.5842630  18.6343000
  37.6953260  45.8263770  18.6248410  39.0869910  46.4116890  18.5127750
  44.8470310  48.6899370  14.5827060  45.6398920  48.9788200  14.1308850
  44.3274660  48.2591540  13.9039540  53.9000480  47.9169500  16.0063800
  53.6141990  47.5034640  15.1917980  53.7020030  48.8457210  15.8864320
  45.3647710  43.9102780  14.4469410  45.2598350  43.2955130  15.1730790
  45.1971930  43.3868670  13.6632420  48.6050440  42.9722810  15.0511400
  48.0560540  43.4192110  15.6954140  49.2269700  42.4672060  15.5749070
  52.6585380  44.3264910  30.9833660  53.3994850  44.6640670  30.4801120
  51.8958060  44.4956970  30.4303430  44.2725560  41.9313730  16.9476700
  44.6941980  41.7653600  17.7908090  44.3976400  41.1213960  16.4531840
  46.7853200  40.9551340  14.1953800  47.3058860  40.2400360  13.8294950
  47.4321600  41.5937210  14.4954310  51.3331040  42.3779740  29.5188870
  51.7472060  42.5324820  30.3679290  50.3982040  42.5034960  29.6814650
  51.8053210  39.7175900  31.5228020  52.3873980  38.9628220  31.4348500
  51.9814980  40.2483340  30.7459500  50.7698070  40.6153590  27.4485150
  50.2433290  41.1396210  26.8450290  51.1129410  41.2480980  28.0794880
  43.1684460  38.0046960  13.8934860  42.9673520  37.1414320  14.2548200
  42.9976510  37.9180320  12.9556460  50.0172370  36.2203560  30.3631480
  49.3287890  35.5585100  30.2981470  50.7378390  35.7741830  30.8079940
  50.6472770  32.8155190  16.4221740  50.9275060  31.9723090  16.7781160
  49.8738500  33.0478300  16.9360490  41.9667260  35.1047580  13.8812740
  42.2693160  35.1115010  12.9731890  42.7061850  34.7545440  14.3780400
  45.1852190  34.0482200  14.8668940  44.8374190  33.3706190  14.2871390
  45.3864960  33.5871710  15.6812330  47.3501230  49.0362950  16.4855540
  48.2452020  49.3747920  16.5074300  47.3818860  48.3142360  15.8579820
  40.9897390  44.4090000  14.7142540  41.4272260  44.9519670  15.3700120
  41.4745120  43.5836950  14.7238880  38.2043190  47.1979030  22.1662800
  38.5346200  46.3300090  21.9341440  38.6334190  47.4037550  22.9967760
  42.8005110  45.5288040  19.8264770  42.5000650  45.4053010  20.7268680
  42.6942600  44.6696630  19.4180500  54.3295580  47.5666620  29.1921740
  53.7297570  47.6259180  28.4485660  54.4589480  46.6271600  29.3218590
  55.5697030  45.3084440  14.5291450  54.7389990  45.3761090  14.9998680
  55.7468860  46.1988560  14.2258310  55.0253490  42.0531920  17.0325650
  55.7872400  42.6228570  17.1385340  55.0407860  41.4859120  17.8033960
  38.5257830  40.5769850  21.2633310  37.8706670  40.3081490  20.6193010
  39.3635780  40.4674330  20.8135290  56.0313460  42.9082020  21.8767580
  56.4022290  42.1249340  21.4703550  56.6715390  43.5971120  21.6984880
  53.0147220  44.2918600  27.2897900  52.2007060  44.7215760  27.5523690
  53.4221420  44.9037010  26.6766950  55.0772660  42.3466290  14.1898170
  55.3521500  43.2545170  14.0617390  54.8883400  42.2828820  15.1260160
  51.4748270  35.3711140  15.4851800  51.8933150  35.1842120  14.6448460
  51.1684330  34.5190190  15.7954730  54.9738000  40.2835280  19.1827600
  54.5981600  39.5163210  18.7508890  54.2441120  40.6657980  19.6702530
  54.3637620  39.4306800  28.8167120  54.1323710  39.2019550  27.9165070
  54.6242170  40.3506350  28.7712010  52.8025690  34.6563230  31.5946820
  53.6795870  34.6646630  31.9780820  52.8146530  33.9194070  30.9839170
  37.7395910  37.7868780  17.2058640  36.8359990  38.0498980  17.0310300
  38.2236530  38.0579950  16.4258600  54.2488960  38.5092770  22.4834840
  54.7726440  38.0155420  21.8525010  54.8348380  38.6443130  23.2282410
  54.4278680  38.5932640  26.0054390  53.4781390  38.5596180  26.1199380
  54.6091690  39.5032750  25.7704160  40.2823120  36.8434320  15.1153020
  40.9914820  36.4217540  14.6300300  39.5663060  36.9109550  14.4836370
  39.9297280  32.8973650  14.1555670  40.6525410  33.4382590  14.4736890
  40.2021800  32.6237070  13.2797210  53.7388930  37.7666120  18.4227250
  54.2348050  37.5336990  19.2076130  53.5405000  36.9277960  18.0064890
  55.1676090  36.4027070  20.9564930  55.0575370  36.2483110  21.8947200
  55.9283680  35.8748010  20.7140340  53.5141810  32.3421200  27.4147930
  54.1514030  32.9555340  27.7807120  53.6616700  32.3781860  26.4697160
  56.0566360  34.2334990  14.1971070  56.9815670  34.1016170  13.9889360
  56.0342150  34.3127810  15.1507520  56.1304850  35.0045650  16.8227780
  55.3356350  34.9390770  17.3520690  56.3348130  35.9396290  16.8113130
  53.0723270  49.0437200  20.8166170  53.6682340  48.7221770  20.1400590
  53.3301420  48.5709020  21.6079440  55.9396030  49.0509080  27.3677160
  55.4454310  49.4477950  26.6504290  55.3309320  48.4258290  27.7614440
  51.1700870  33.9220460  27.6726330  50.8414230  33.1072220  27.2928060
  52.1183170  33.8790270  27.5492020  53.6235480  49.6932500  24.6463900
  53.1638450  50.4448310  24.2721920  52.9947940  48.9738970  24.5878700
  52.5624780  33.3342530  23.2726610  53.0032870  33.2787630  22.4248210
  52.2932370  34.2500540  23.3436790  54.4263350  32.9657770  21.2835430
  54.3651750  32.0218990  21.1366450  55.2055380  33.0737860  21.8288890
  38.7316100  49.1050130  20.2459380  38.5638140  48.4720810  20.9441270
  37.8650610  49.3109530  19.8953570  39.3544120  32.9366910  17.7491240
  40.1123480  33.0495790  17.1755270  38.8921290  33.7736110  17.7034670
  45.8957930  35.0506180  20.7393550  45.0832440  34.6763070  20.3989430
  46.3999570  34.2951260  21.0414740  50.3982910  31.7148630  21.9776620
  51.0012280  32.2868840  22.4525140  49.6575900  32.2788070  21.7550520
  53.5417510  32.1170190  17.2516900  53.7368140  33.0153640  17.5184330
  52.7547380  31.8857270  17.7449850  40.3378800  47.7983360  17.6909520
  39.8126420  48.1791390  16.9871480  40.2623380  48.4234130  18.4119230
  41.7269270  33.4630960  16.2893210  42.2562030  32.6760760  16.1601160
  42.3597590  34.1422150  16.5228740  43.9207110  33.2006100  19.3438600
  43.2909850  32.4993410  19.5108730  43.3812250  33.9610230  19.1271760
  55.0944120  49.3570900  19.0123460  55.2696310  48.6708640  18.3684380
  54.3965690  49.8817950  18.6200130  42.9371770  49.7465740  16.5658770
  43.6690590  49.4625020  16.0182660  43.1965440  49.5079020  17.4558150
  42.0986560  45.8630470  16.5705100  41.4695440  46.3315570  17.1190930
  42.2134390  45.0179690  17.0051290  53.4276620  49.0415190  31.8390250
  54.2201940  48.5464420  31.6316210  53.7209770  49.7205330  32.4465860
  49.5536280  39.9136130   2.7206300  49.4730330  38.9990740   2.4498010
  49.1400700  40.4103200   2.0146010  47.6854320  41.6915150   4.6015570
  46.9096420  41.2115590   4.8914140  48.3367250  41.0120800   4.4271730
  41.7020150  42.0034960   5.4791330  40.8705030  41.7483670   5.8787840
  42.3101130  42.0745730   6.2149250  51.7061750  46.0975340   3.3814700
  51.2443280  45.3262580   3.7101870  52.5187300  46.1241410   3.8867150
  41.6821410  46.0375050   5.6749350  41.9849450  45.1472790   5.4959570
  42.4265000  46.5945270   5.4471600  38.0745110  39.5642500   5.1473420
  38.6461220  38.7964700   5.1477060  38.0746650  39.8631260   4.2380030
  47.9325060  48.3833350   3.0018690  47.3136500  48.8390850   2.4313130
  48.7876840  48.5384810   2.6008390  47.1263310  44.3672340   4.6085730
  47.0571590  43.4262280   4.4474860  47.8883170  44.4573750   5.1808300
  39.3169980  34.9726860   6.9342350  39.1372820  34.0752610   7.2145110
  38.9150060  35.5198730   7.6089300  48.1568480  37.1742720   4.8354660
  48.5333300  36.3014600   4.7228330  48.0587990  37.5101420   3.9445100
  51.9392600  34.6693160   1.7683000  52.7602220  34.1789730   1.8108480
  51.9726680  35.2590820   2.5214840  39.9356650  37.4687360   5.5424690
  40.6166760  37.7325730   6.1612090  39.6204700  36.6288230   5.8762700
  44.1281220  38.5154720   4.6297280  44.6359440  39.0135690   5.2702300
  44.6594460  37.7389920   4.4536640  56.2292150  36.6859910   8.3326630
  55.5244320  37.0741620   7.8141740  56.4950070  37.3810200   8.9347560
  42.4117320  33.1553280   8.8960700  42.4135760  33.6725670   8.0906600
  41.5821630  32.6783460   8.8730630  43.6620170  42.7948460   7.0734200
  43.3289550  43.4217380   7.7155270  43.8386850  43.3210340   6.2935870
  52.1754080  36.6093540   4.5410540  51.4709650  36.8978430   5.1213650
  52.5366240  37.4193650   4.1810100  42.0932650  34.8663240   6.9031150
  42.4349460  35.7105290   6.6085020  41.1548460  35.0146980   7.0196490
  42.8739270  44.7629260   8.8883380  43.4913270  45.4380340   8.6067830
  42.0132390  45.1717240   8.7970880  53.7916860  46.2268670   6.8038020
  53.1080380  46.8967780   6.7954690  54.3311150  46.4249320   6.0382880
  55.2441000  36.0548330   4.9319750  54.2965910  36.0887310   5.0635180
  55.5690990  36.8687280   5.3169110  45.7760540  32.3545510   3.2275740
  46.0835520  31.7992400   2.5111240  44.8461240  32.4889970   3.0448730
  51.3275600  48.0712800   5.5183200  51.3402760  47.6675090   4.6505460
  50.7750820  48.8460090   5.4144630  50.7261040  42.9742640   6.8465810
  51.1429830  42.7602750   6.0119270  51.4500860  43.2315430   7.4174430
  54.6723140  41.3729860   6.9382050  53.8441770  41.4422950   6.4632180
  55.2673620  41.9584170   6.4697880  51.6365150  38.1599180   7.8836920
  51.2236330  38.9852890   8.1376910  50.9041100  37.5744220   7.6913280
  43.7697940  40.9459080   2.7455590  43.3654940  40.2336330   2.2501490
  43.8561060  40.6012320   3.6343630  44.2379640  44.6326640   4.9094800
  43.9407930  44.0272110   4.2302580  45.1879460  44.6703950   4.7984160
  42.4826560  37.7202290   6.5254630  43.0341150  37.8297630   5.7507880
  42.9970070  38.0939890   7.2409860  52.3265250  48.2058510   8.5717900
  51.8495810  49.0130700   8.3790510  51.6427040  47.5536840   8.7244110
  43.3298070  44.3708330  11.5602600  42.4326600  44.5948300  11.8076000
  43.3550940  44.4943270  10.6114000  42.1569290  41.2421650  10.1359970
  42.0177060  42.1144450  10.5047370  41.2750650  40.8994460   9.9907910
  43.9549640  47.1843350  12.3445120  43.9265070  47.5886300  11.4773550
  43.7914610  46.2553710  12.1816720  55.9064460  47.9670450  13.6409290
  56.3824180  48.4453340  14.3198370  56.5271620  47.8987940  12.9154790
  38.1087940  43.0119200   6.0530880  38.1868360  43.1467970   5.1086600
  38.7229620  42.3035090   6.2459000  39.3535570  44.7119390   2.4637060
  38.9463650  44.8533980   1.6090660  40.2448580  44.4279550   2.2608270
  55.3097710  45.1583300  10.8009300  55.4360770  44.9195180   9.8826480
  55.3519090  44.3267840  11.2731380  49.1714450  48.8611300   9.3704110
  49.6859120  48.7719310  10.1726540  48.3283530  49.2071000   9.6632020
  55.1621720  37.2115760  11.7659040  54.5465990  37.7195430  11.2374500
  54.8418140  36.3114090  11.7084980  38.1647460  44.0533370   8.5925340
  38.3278500  43.5838730   7.7744710  38.6299910  43.5456930   9.2574180
  42.9366230  33.1839130   3.6285910  42.4934380  33.9648670   3.2970430
  43.4951220  33.5069020   4.3356850  47.2236040  36.0507650   9.2321230
  46.7615410  36.2590670  10.0441170  46.8214150  35.2367000   8.9291900
  52.2240550  37.2716600  10.3617890  51.3734140  36.9722350  10.6826960
  52.0642340  37.5158610   9.4501710  49.3190260  38.7718350  12.4616680
  49.6443670  37.9382100  12.1218910  50.1070590  39.2946870  12.6095010
  44.9742130  33.7286460   5.4875510  45.2714460  34.6349290   5.4067530
  45.5227690  33.2405240   4.8735080  45.1679660  39.2058280  12.0227430
  45.0723260  38.2653010  11.8727830  46.0111640  39.4273350  11.6275500
  40.2990200  35.6171950  10.1761210  39.9053590  36.4647160  10.3833990
  39.6108600  34.9798320  10.3669850  46.8735250  35.7006920  13.2457950
  46.1833570  35.5079120  13.8804040  47.6167550  35.9841560  13.7782250
  37.6007250  33.5400410   4.2091290  37.3120300  34.1103270   4.9216270
  38.3453010  33.0604860   4.5722520  49.1498220  39.5405360   6.0811870
  48.4179340  40.0492170   6.4301970  48.7522560  38.7235340   5.7800650
  45.5875610  36.2159560   4.4864360  45.5911670  35.7749510   3.6368900
  46.4826730  36.5376890   4.5936180  41.4377990  36.0986050   3.4458570
  41.0978040  36.5761280   4.2025620  40.6755310  35.6451170   3.0859670
  49.6124130  34.9939040   5.4934810  49.6296870  35.4447690   6.3376660
  49.3639710  34.0944680   5.7068250  53.0394880  32.4071220  11.3321190
  53.3640650  31.6760880  11.8579170  53.0751390  32.0884860  10.4302180
  39.7386440  43.4284800  10.7521150  39.3541230  42.7878470  11.3504110
  40.0498630  44.1320920  11.3215880  45.8883580  40.2761340   6.2329770
  46.2553710  39.8019910   6.9791110  45.6988640  41.1502910   6.5738110
  38.7524070  35.0205030   2.3623240  38.4670990  34.6560700   3.2001860
  38.6902930  34.2885490   1.7486380  43.6782950  39.3169980   8.5513980
  43.3740020  40.1961960   8.7764340  44.6329410  39.3769770   8.5871420
  52.9652720  42.5196330   4.9407220  53.6851840  43.0151620   4.5503330
  52.7634540  41.8414220   4.2961090  48.3471520  42.5905390  10.8276220
  48.2808830  41.6701060  10.5733810  47.7176660  42.6880830  11.5420860
  42.2502140  43.1911350   2.7859640  42.7680810  42.3879610   2.7316530
  41.7986160  43.1290490   3.6276470  39.7346680  40.1572720   9.6985340
  39.3761620  40.8226570  10.2858680  39.4401240  39.3256270  10.0697960
  42.9359800  40.6156960  12.5824890  42.6359940  40.7614140  11.6852710
  43.7071040  40.0562250  12.4898280  48.2788250  45.4125960  10.5780020
  48.2932790  44.4806920  10.3598930  47.5713350  45.4985720  11.2169790
  54.4899460  42.0533300   9.9248600  53.7647650  42.6462080   9.7277990
  55.0174920  42.0456840   9.1261970  50.0199050  43.7793470   3.4232450
  50.3722870  43.1821600   2.7633820  49.1361380  43.4537700   3.5940700
  47.7122150  47.0543530   7.6720520  48.3564370  47.2602910   8.3493940
  48.0751590  46.2931930   7.2191370  48.9854230  45.0575880   6.3897970
  49.6276460  44.3569040   6.5030140  49.5103580  45.8374320   6.2094860
  50.7591850  45.8570780   9.5934030  51.0948090  46.4437470  10.2711950
  49.8392190  45.7263490   9.8231820  38.3095250  33.6465960  10.3757440
  37.5953770  33.8462880  10.9810050  38.7290290  32.8705530  10.7472240
  38.5967840  47.6346220  11.3623970  38.7058960  46.6940960  11.2219360
  37.9448400  47.9000970  10.7137700  46.5880430  45.9062110  12.7622090
  46.2677300  45.1871350  13.3067780  45.9138790  46.5817180  12.8358150
  49.8034030  36.1388270   8.1258890  50.1714850  35.3183480   8.4538460
  48.9432230  36.1990160   8.5414540  46.7636020  38.7927860   8.3496860
  47.2621270  39.2673680   9.0148710  46.9058970  37.8691380   8.5566890
  53.9702880  35.0095820   9.1925250  53.4676480  35.7501220   9.5319060
  54.7859540  35.3979820   8.8762040  52.2624890  40.2529000   2.6386610
  51.3215030  40.2679230   2.8134300  52.5768960  39.4664960   3.0846910
  54.2650470  47.4237850   4.3140870  54.3897890  48.2469020   4.7864680
  55.1316030  47.2128580   3.9665020  41.7368000  49.5169060   3.9858000
  42.4730480  48.9684520   4.2566570  42.1208920  50.3825070   3.8463990
  40.7426280  48.7015130  13.1743580  41.5439010  49.0227180  13.5878980
  40.2278100  48.3410710  13.8963490  49.5790910  44.8095000  13.1218990
  48.9729070  44.8326600  12.3814740  49.2745020  44.0778040  13.6586240
  51.0091280  48.5375290  11.7328400  51.9613030  48.4533310  11.6828640
  50.8619500  49.2017000  12.4062190  38.4624090  41.1888590  12.1179630
  38.9663110  40.6095870  12.6895860  37.7231510  41.4728820  12.6556000
  45.5162030  42.5959580  11.6515150  44.7507700  43.1644580  11.5669820
  45.6977990  42.3035790  10.7583380  52.6585380  44.3264910  12.2090170
  53.3994850  44.6640670  11.7057630  51.8958060  44.4956970  11.6559940
  40.4947170  39.3318180  13.0129700  40.5352510  39.0332050  13.9214930
  41.3492670  39.7325790  12.8537220  42.4352980  37.9110280  10.9804190
  41.9049440  37.4201230  10.3527530  43.1041050  38.3394480  10.4462120
  51.3331040  42.3779740  10.7445380  51.7472060  42.5324820  11.5935800
  50.3982040  42.5034960  10.9071160  51.8053210  39.7175900  12.7484530
  52.3873980  38.9628220  12.6605010  51.9814980  40.2483340  11.9716010
  42.9225280  34.8772650  11.0601480  42.8282150  34.2593400  10.3352350
  42.3422670  35.6038940  10.8331390  45.6886720  33.4345890   8.0928870
  45.2404020  33.4570150   7.2474420  45.0551920  33.0364910   8.6899170
  46.0946270  42.3300220   8.7141310  46.5134380  43.1732950   8.5417550
  45.1754900  42.4672260   8.4848090  48.4310170  40.0616400  10.0979150
  48.5506380  39.4657540  10.8373990  49.2904170  40.0986090   9.6780450
  50.7698070  40.6153590   8.6741660  50.2433290  41.1396210   8.0706800
  51.1129410  41.2480980   9.3051390  43.9453690  48.6353230   9.8299040
  43.4074780  49.3599290   9.5107740  44.1987650  48.1583570   9.0396380
  45.1978940  36.6037750  11.3554970  45.7878630  36.2953600  12.0432790
  44.3799180  36.1317500  11.5114870  50.0172370  36.2203560  11.5887990
  49.3287890  35.5585100  11.5237980  50.7378390  35.7741830  12.0336450
  46.8015900  49.8704440  10.0885690  46.7274600  50.7739580  10.3958060
  45.8994740  49.5516340  10.0607760  38.2043190  47.1979030   3.3919310
  38.5346200  46.3300090   3.1597950  38.6334190  47.4037550   4.2224270
  38.6933400  48.0649620   6.1300940  38.2564390  48.2450420   6.9625090
  39.2611080  48.8224240   5.9882660  54.3295580  47.5666620  10.4178250
  53.7297570  47.6259180   9.6742170  54.4589480  46.6271600  10.5475100
  38.5257830  40.5769850   2.4889820  37.8706670  40.3081490   1.8449520
  39.3635780  40.4674330   2.0391800  56.0313460  42.9082020   3.1024090
  56.4022290  42.1249340   2.6960060  56.6715390  43.5971120   2.9241390
  53.0147220  44.2918600   8.5154410  52.2007060  44.7215760   8.7780200
  53.4221420  44.9037010   7.9023460  39.5633760  40.9622420   7.0293160
  39.9306800  40.8749820   7.9089180  38.9944580  40.1988970   6.9300020
  54.3637620  39.4306800  10.0423630  54.1323710  39.2019550   9.1421580
  54.6242170  40.3506350   9.9968520  39.1149760  37.8731510  10.9351580
  38.2205810  37.8398270  11.2745290  39.6547310  38.0718300  11.7002830
  52.8025690  34.6563230  12.8203330  53.6795870  34.6646630  13.2037330
  52.8146530  33.9194070  12.2095680  54.2488960  38.5092770   3.7091350
  54.7726440  38.0155420   3.0781520  54.8348380  38.6443130   4.4538920
  54.4278680  38.5932640   7.2310900  53.4781390  38.5596180   7.3455890
  54.6091690  39.5032750   6.9960670  39.6189470  32.1479840   5.2834800
  40.2665660  31.5977220   4.8429960  40.0391310  32.4022990   6.1050610
  55.1676090  36.4027070   2.1821440  55.0575370  36.2483110   3.1203710
  55.9283680  35.8748010   1.9396850  53.5141810  32.3421200   8.6404440
  54.1514030  32.9555340   9.0063630  53.6616700  32.3781860   7.6953670
  39.3721470  32.3035510   8.0260120  39.0236290  32.7599330   8.7918300
  39.0409170  31.4092640   8.1082550  40.9785840  45.4755110  12.1913310
  40.9355470  45.1048020  13.0727770  41.1096850  46.4132680  12.3315130
  44.6791870  47.0314700   7.7923030  44.4383230  47.2989260   6.9053550
  45.6194510  47.2020430   7.8473890  46.8846290  33.4947390  11.5479540
  46.8235180  34.0869220  12.2974950  47.8246670  33.3873350  11.4029800
  49.5220850  33.1517450  11.1871830  50.1361260  33.4696740  10.5252910
  50.0670410  32.6666040  11.8067690  55.9396030  49.0509080   8.5933670
  55.4454310  49.4477950   7.8760800  55.3309320  48.4258290   8.9870950
  40.0442110  31.8311710  11.3010890  40.5925100  31.6499760  10.5377000
  40.1097420  31.0405820  11.8367200  40.8173870  48.4217360   9.3111090
  40.2234190  48.2902060  10.0501130  40.8097710  47.5855500   8.8453190
  50.2628890  31.7149590   7.5141120  49.3888730  32.0484700   7.3114050
  50.1539640  31.2422770   8.3392990  51.1700870  33.9220460   8.8982840
  50.8414230  33.1072220   8.5184570  52.1183170  33.8790270   8.7748530
  53.6235480  49.6932500   5.8720410  53.1638450  50.4448310   5.4978430
  52.9947940  48.9738970   5.8135210  40.4486100  45.7875740   8.2619130
  39.7220160  45.1681030   8.1945080  40.5095250  46.1816350   7.3917210
  44.0531200  48.0020740   5.0468540  44.5696220  47.3908100   4.5216800
  44.7028580  48.5049520   5.5379550  46.7926700  48.8929230   5.8737520
  47.0804510  48.6383530   4.9970530  47.3049920  48.3406590   6.4643090
  48.0103710  32.6319430   6.4534030  47.2275500  33.1064930   6.7330790
  47.7166640  31.7274260   6.3447210  52.5624780  33.3342530   4.4983120
  53.0032870  33.2787630   3.6504720  52.2932370  34.2500540   4.5693300
  54.4263350  32.9657770   2.5091940  54.3651750  32.0218990   2.3622960
  55.2055380  33.0737860   3.0545400  45.8957930  35.0506180   1.9650060
  45.0832440  34.6763070   1.6245940  46.3999570  34.2951260   2.2671250
  50.3982910  31.7148630   3.2033130  51.0012280  32.2868840   3.6781650
  49.6575900  32.2788070   2.9807030  46.8599060  49.8145330  13.2405720
  47.7866370  49.5789600  13.2841680  46.8449490  50.6417330  12.7591750
  44.0462670  32.4790080  13.0047600  43.7646940  32.9823680  12.2408420
  44.4282370  31.6811830  12.6389730  50.6478130  31.8943660  13.5828070
  50.5343580  32.2138270  14.4779590  51.4647870  32.2956170  13.2865350
  53.4276620  49.0415190  13.0646760  54.2201940  48.5464420  12.8572720
  53.7209770  49.7205330  13.6722370  49.5536280  21.1392640  77.8180260
  49.4730330  20.2247250  77.5471970  49.1400700  21.6359710  77.1119970
  47.6854320  22.9171660  79.6989530  46.9096420  22.4372100  79.9888100
  48.3367250  22.2377310  79.5245690  41.7020150  23.2291470  80.5765290
  40.8705030  22.9740180  80.9761800  42.3101130  23.3002240  81.3123210
  51.7061750  27.3231850  78.4788660  51.2443280  26.5519090  78.8075830
  52.5187300  27.3497920  78.9841110  41.6821410  27.2631560  80.7723310
  41.9849450  26.3729300  80.5933530  42.4265000  27.8201780  80.5445560
  40.1112100  18.1893360  74.3607680  39.2228800  18.5309330  74.2587560
  40.3953290  17.9893680  73.4688510  38.0745110  20.7899010  80.2447380
  38.6461220  20.0221210  80.2451020  38.0746650  21.0887770  79.3353990
  47.9325060  29.6089860  78.0992650  47.3136500  30.0647360  77.5287090
  48.7876840  29.7641320  77.6982350  47.1263310  25.5928850  79.7059690
  47.0571590  24.6518790  79.5448820  47.8883170  25.6830260  80.2782260
  48.1568480  18.3999230  79.9328620  48.5333300  17.5271110  79.8202290
  48.0587990  18.7357930  79.0419060  42.2873490  16.7724860  75.3946060
  42.3940240  17.6728590  75.7014820  41.3765850  16.7242830  75.1040710
  51.9392600  15.8949670  76.8656960  52.7602220  15.4046240  76.9082440
  51.9726680  16.4847330  77.6188800  39.9356650  18.6943870  80.6398650
  40.6166760  18.9582240  81.2586050  39.6204700  17.8544740  80.9736660
  44.1281220  19.7411230  79.7271240  44.6359440  20.2392200  80.3676260
  44.6594460  18.9646430  79.5510600  48.7988410  24.4929100  75.4924560
  48.1805680  24.9578550  74.9287280  49.3111660  25.1856580  75.9094070
  52.1754080  17.8350050  79.6384500  51.4709650  18.1234940  80.2187610
  52.5366240  18.6450160  79.2784060  42.0932650  16.0919750  82.0005110
  42.4349460  16.9361800  81.7058980  41.1548460  16.2403490  82.1170450
  38.1671610  25.1785630  72.8664190  37.7899590  25.6672730  72.1349090
  38.4244680  25.8510910  73.4970720  53.7916860  27.4525180  81.9011980
  53.1080380  28.1224290  81.8928650  54.3311150  27.6505830  81.1356840
  55.2441000  17.2804840  80.0293710  54.2965910  17.3143820  80.1609140
  55.5690990  18.0943790  80.4143070  45.7760540  13.5802020  78.3249700
  46.0835520  13.0248910  77.6085200  44.8461240  13.7146480  78.1422690
  51.3275600  29.2969310  80.6157160  51.3402760  28.8931600  79.7479420
  50.7750820  30.0716600  80.5118590  52.6221020  26.0185530  75.7047330
  52.5117350  25.0759860  75.8296750  52.6189270  26.3801170  76.5910090
  48.1641300  21.6450850  75.0609820  47.2370580  21.5788230  75.2898290
  48.3166120  22.5830980  74.9465060  48.1510380  17.9167850  72.0576980
  47.2114050  18.0781810  72.1429440  48.4693640  18.6353530  71.5112970
  54.6723140  22.5986370  82.0356010  53.8441770  22.6679460  81.5606140
  55.2673620  23.1840680  81.5671840  52.1938590  23.2071150  75.5645070
  51.5751010  22.8690700  74.9171370  52.1763040  22.5630910  76.2724260
  43.7697940  22.1715590  77.8429550  43.3654940  21.4592840  77.3475450
  43.8561060  21.8268830  78.7317590  44.2379640  25.8583150  80.0068760
  43.9407930  25.2528620  79.3276540  45.1879460  25.8960460  79.8958120
  50.3703290  22.4457960  72.5717820  50.8096570  21.6080390  72.4255640
  51.0831710  23.0787360  72.6581960  48.4798670  27.3854030  76.5399060
  48.9194580  28.1278360  76.1254450  48.4185560  27.6280600  77.4638020
  53.9520430  13.7000770  70.8858860  53.6393090  13.7927600  71.7857930
  54.7132900  14.2781800  70.8356290  40.4702570  21.0660570  75.3436200
  40.3500170  21.7922660  74.7317470  40.1603460  20.2963480  74.8664110
  38.1087940  24.2375710  81.1504840  38.1868360  24.3724480  80.2060560
  38.7229620  23.5291600  81.3432960  39.3535570  25.9375900  77.5611020
  38.9463650  26.0790490  76.7064620  40.2448580  25.6536060  77.3582230
  51.1468850  30.3723150  73.8962070  50.9869990  30.0826090  74.7943900
  50.9815560  29.5963280  73.3607300  43.6257230  30.1521680  75.6733690
  43.4499710  29.2357220  75.4601490  42.7712970  30.5108970  75.9131490
  50.8494980  27.8810710  72.4560070  50.1560140  27.8788000  71.7962350
  51.5917840  27.4570030  72.0254240  50.4144910  29.5073420  76.5308560
  50.8701860  28.7262800  76.8447180  50.7537430  30.2180240  77.0749740
  42.9366230  14.4095640  78.7259870  42.4934380  15.1905180  78.3944390
  43.4951220  14.7325530  79.4330810  46.0525050  14.0306340  73.6065700
  45.4279230  14.0266210  74.3319010  45.9655170  13.1637300  73.2101670
  44.9742130  14.9542970  80.5849470  45.2714460  15.8605800  80.5041490
  45.5227690  14.4661750  79.9709040  42.7280450  19.5329210  76.4541120
  42.5021370  19.3166380  77.3587740  41.9472980  19.9657670  76.1087090
  49.9578210  19.5392580  75.0531770  49.3587100  20.2628380  74.8695390
  50.5057820  19.4769360  74.2708220  48.5643080  18.1756120  77.0835050
  48.9572650  18.4928320  76.2703740  48.9259930  17.2968000  77.1979570
  37.6007250  14.7656920  79.3065250  37.3120300  15.3359780  80.0190230
  38.3453010  14.2861370  79.6696480  37.7877480  18.7077040  70.5167970
  37.7052150  19.6507800  70.6582960  37.4360540  18.5651950  69.6380320
  49.1498220  20.7661870  81.1785830  48.4179340  21.2748680  81.5275930
  48.7522560  19.9491850  80.8774610  45.5875610  17.4416070  79.5838320
  45.5911670  17.0006020  78.7342860  46.4826730  17.7633400  79.6910140
  41.4377990  17.3242560  78.5432530  41.0978040  17.8017790  79.2999580
  40.6755310  16.8707680  78.1833630  45.6495760  18.4428150  72.5745080
  45.7708580  18.4014630  73.5230900  45.2644270  19.3052300  72.4191810
  49.6124130  16.2195550  80.5908770  49.6296870  16.6704200  81.4350620
  49.3639710  15.3201190  80.8042210  44.6617260  20.7529290  71.9728380
  44.0934160  20.3047540  71.3464290  45.3706260  21.1122070  71.4393530
  45.8883580  21.5017850  81.3303730  46.2553710  21.0276420  82.0765070
  45.6988640  22.3759420  81.6712070  38.7524070  16.2461540  77.4597200
  38.4670990  15.8817210  78.2975820  38.6902930  15.5142000  76.8460340
  42.2064740  24.7487480  74.2454790  41.4327000  24.2085100  74.0853510
  42.9359370  24.2294090  73.9072550  52.9652720  23.7452840  80.0381180
  53.6851840  24.2408130  79.6477290  52.7634540  23.0670730  79.3935050
  48.4262660  15.1390800  74.1810570  47.6127270  14.6403970  74.1055880
  48.2324610  15.9789050  73.7646920  51.1411050  19.5110450  72.4772730
  52.0290670  19.8227680  72.3024070  51.1116140  18.6382700  72.0853310
  42.2502140  24.4167860  77.8833600  42.7680810  23.6136120  77.8290490
  41.7986160  24.3547000  78.7250430  47.1371640  25.6834140  73.1560900
  47.4787340  26.4276370  72.6604220  46.3084350  25.9965260  73.5185730
  53.4125320  20.8222290  71.9452590  53.3289040  21.2536510  71.0949030
  54.1319510  21.2820640  72.3779410  54.4412570  27.6764550  74.6734720
  53.7988730  27.0220170  74.9478440  54.0543230  28.0819640  73.8975390
  50.0199050  25.0049980  78.5206410  50.3722870  24.4078110  77.8607780
  49.1361380  24.6794210  78.6914660  46.1062330  25.7647670  75.9276820
  46.7933460  26.3116880  76.3084410  45.3194750  26.3088400  75.9626430
  38.2454730  21.3820490  71.4193900  39.1149580  21.6645290  71.7029820
  37.7545050  22.1956360  71.3042710  45.4089540  22.7693700  75.5402180
  45.8652320  23.5798950  75.7662370  45.0577750  22.4516840  76.3720670
  41.3101320  13.1131350  76.0124700  41.1815950  13.1049250  76.9609620
  40.4863340  13.4514440  75.6615710  48.9854230  26.2832390  81.4871930
  49.6276460  25.5825550  81.6004100  49.5103580  27.0630830  81.3068820
  52.8309950  26.5681010  71.2111070  52.6047530  25.8511450  71.8035710
  52.4406150  26.3193450  70.3732820  38.6125980  30.5947870  71.9855530
  38.9723620  31.1937210  71.3312800  38.4718320  31.1407760  72.7590560
  52.4126200  24.4852950  72.8725230  52.1247900  24.9465640  73.6603110
  53.2078370  24.0250720  73.1409450  44.6294600  27.9779070  72.8029200
  44.6204700  28.7108760  72.1873710  43.7092960  27.7310650  72.8956160
  40.2301240  23.1993960  73.5475960  39.6229190  23.9392860  73.5571260
  40.7050590  23.2893320  72.7214160  53.1696060  16.3201720  74.0320410
  52.5409220  16.4247390  73.3178640  52.6747980  16.5398500  74.8214290
  47.6154200  28.0407310  71.4654390  47.7166180  27.8371300  70.5356370
  46.7155940  27.7865590  71.6702170  45.1380090  18.5987670  75.4478290
  44.4296240  19.0674010  75.8891900  45.4224570  17.9409680  76.0823480
  49.1695520  15.3238330  76.8874080  49.0463300  15.3424460  75.9383590
  50.1180080  15.3717270  77.0072480  46.2572310  30.5593630  76.1602060
  46.5113810  30.5215020  75.2381430  45.3084790  30.4326960  76.1530310
  43.3415110  16.9072750  72.8229000  44.1905640  17.3442900  72.7569190
  42.9746380  17.2193010  73.6501060  52.2624890  21.4785510  77.7360570
  51.3215030  21.4935740  77.9108260  52.5768960  20.6921470  78.1820870
  42.2406530  23.1605110  71.2964530  43.0069800  23.0486470  71.8589960
  42.3181220  22.4643080  70.6441300  40.9353290  20.5930180  71.9797420
  41.0156880  19.6457690  72.0914820  41.8273040  20.9237060  72.0858080
  54.2650470  28.6494360  79.4114830  54.3897890  29.4725530  79.8838640
  55.1316030  28.4385090  79.0638980  41.7368000  30.7425570  79.0831960
  42.4730480  30.1941030  79.3540530  42.1208920  31.6081580  78.9437950
  38.6213480  26.8099140  74.9573470  37.6953260  27.0520280  74.9478880
  39.0869910  27.6373400  74.8358220  44.8470310  29.9155880  70.9057530
  45.6398920  30.2044710  70.4539320  44.3274660  29.4848050  70.2270010
  53.9000480  29.1426010  72.3294270  53.6141990  28.7291150  71.5148450
  53.7020030  30.0713720  72.2094790  45.3647710  25.1359290  70.7699880
  45.2598350  24.5211640  71.4961260  45.1971930  24.6125180  69.9862890
  48.6050440  24.1979320  71.3741870  48.0560540  24.6448620  72.0184610
  49.2269700  23.6928570  71.8979540  44.2725560  23.1570240  73.2707170
  44.6941980  22.9910110  74.1138560  44.3976400  22.3470470  72.7762310
  46.7853200  22.1807850  70.5184270  47.3058860  21.4656870  70.1525420
  47.4321600  22.8193720  70.8184780  43.1684460  19.2303470  70.2165330
  42.9673520  18.3670830  70.5778670  42.9976510  19.1436830  69.2786930
  50.6472770  14.0411700  72.7452210  50.9275060  13.1979600  73.1011630
  49.8738500  14.2734810  73.2590960  41.9667260  16.3304090  70.2043210
  42.2693160  16.3371520  69.2962360  42.7061850  15.9801950  70.7010870
  45.1852190  15.2738710  71.1899410  44.8374190  14.5962700  70.6101860
  45.3864960  14.8128220  72.0042800  47.3501230  30.2619460  72.8086010
  48.2452020  30.6004430  72.8304770  47.3818860  29.5398870  72.1810290
  40.9897390  25.6346510  71.0373010  41.4272260  26.1776180  71.6930590
  41.4745120  24.8093460  71.0469350  38.2043190  28.4235540  78.4893270
  38.5346200  27.5556600  78.2571910  38.6334190  28.6294060  79.3198230
  42.8005110  26.7544550  76.1495240  42.5000650  26.6309520  77.0499150
  42.6942600  25.8953140  75.7410970  38.6933400  29.2906130  81.2274900
  38.2564390  29.4706930  82.0599050  39.2611080  30.0480750  81.0856620
  55.5697030  26.5340950  70.8521920  54.7389990  26.6017600  71.3229150
  55.7468860  27.4245070  70.5488780  55.0253490  23.2788430  73.3556120
  55.7872400  23.8485080  73.4615810  55.0407860  22.7115630  74.1264430
  38.5257830  21.8026360  77.5863780  37.8706670  21.5338000  76.9423480
  39.3635780  21.6930840  77.1365760  56.0313460  24.1338530  78.1998050
  56.4022290  23.3505850  77.7934020  56.6715390  24.8227630  78.0215350
  55.0772660  23.5722800  70.5128640  55.3521500  24.4801680  70.3847860
  54.8883400  23.5085330  71.4490630  51.4748270  16.5967650  71.8082270
  51.8933150  16.4098630  70.9678930  51.1684330  15.7446700  72.1185200
  54.9738000  21.5091790  75.5058070  54.5981600  20.7419720  75.0739360
  54.2441120  21.8914490  75.9933000  37.7395910  19.0125290  73.5289110
  36.8359990  19.2755490  73.3540770  38.2236530  19.2836460  72.7489070
  54.2488960  19.7349280  78.8065310  54.7726440  19.2411930  78.1755480
  54.8348380  19.8699640  79.5512880  40.2823120  18.0690830  71.4383490
  40.9914820  17.6474050  70.9530770  39.5663060  18.1366060  70.8066840
  39.9297280  14.1230160  70.4786140  40.6525410  14.6639100  70.7967360
  40.2021800  13.8493580  69.6027680  53.7388930  18.9922630  74.7457720
  54.2348050  18.7593500  75.5306600  53.5405000  18.1534470  74.3295360
  39.6189470  13.3736350  80.3808760  40.2665660  12.8233730  79.9403920
  40.0391310  13.6279500  81.2024570  55.1676090  17.6283580  77.2795400
  55.0575370  17.4739620  78.2177670  55.9283680  17.1004520  77.0370810
  56.0566360  15.4591500  70.5201540  56.9815670  15.3272680  70.3119830
  56.0342150  15.5384320  71.4737990  56.1304850  16.2302160  73.1458250
  55.3356350  16.1647280  73.6751160  56.3348130  17.1652800  73.1343600
  53.0723270  30.2693710  77.1396640  53.6682340  29.9478280  76.4631060
  53.3301420  29.7965530  77.9309910  53.6235480  30.9189010  80.9694370
  53.1638450  31.6704820  80.5952390  52.9947940  30.1995480  80.9109170
  44.0531200  29.2277250  80.1442500  44.5696220  28.6164610  79.6190760
  44.7028580  29.7306030  80.6353510  46.7926700  30.1185740  80.9711480
  47.0804510  29.8640040  80.0944490  47.3049920  29.5663100  81.5617050
  48.0103710  13.8575940  81.5507990  47.2275500  14.3321440  81.8304750
  47.7166640  12.9530770  81.4421170  52.5624780  14.5599040  79.5957080
  53.0032870  14.5044140  78.7478680  52.2932370  15.4757050  79.6667260
  54.4263350  14.1914280  77.6065900  54.3651750  13.2475500  77.4596920
  55.2055380  14.2994370  78.1519360  38.7316100  30.3306640  76.5689850
  38.5638140  29.6977320  77.2671740  37.8650610  30.5366040  76.2184040
  39.3544120  14.1623420  74.0721710  40.1123480  14.2752300  73.4985740
  38.8921290  14.9992620  74.0265140  45.8957930  16.2762690  77.0624020
  45.0832440  15.9019580  76.7219900  46.3999570  15.5207770  77.3645210
  50.3982910  12.9405140  78.3007090  51.0012280  13.5125350  78.7755610
  49.6575900  13.5044580  78.0780990  53.5417510  13.3426700  73.5747370
  53.7368140  14.2410150  73.8414800  52.7547380  13.1113780  74.0680320
  40.3378800  29.0239870  74.0139990  39.8126420  29.4047900  73.3101950
  40.2623380  29.6490640  74.7349700  41.7269270  14.6887470  72.6123680
  42.2562030  13.9017270  72.4831630  42.3597590  15.3678660  72.8459210
  43.9207110  14.4262610  75.6669070  43.2909850  13.7249920  75.8339200
  43.3812250  15.1866740  75.4502230  55.0944120  30.5827410  75.3353930
  55.2696310  29.8965150  74.6914850  54.3965690  31.1074460  74.9430600
  42.9371770  30.9722250  72.8889240  43.6690590  30.6881530  72.3413130
  43.1965440  30.7335530  73.7788620  42.0986560  27.0886980  72.8935570
  41.4695440  27.5572080  73.4421400  42.2134390  26.2436200  73.3281760
  49.5536280  21.1392640  59.0436770  49.4730330  20.2247250  58.7728480
  49.1400700  21.6359710  58.3376480  47.6854320  22.9171660  60.9246040
  46.9096420  22.4372100  61.2144610  48.3367250  22.2377310  60.7502200
  41.7020150  23.2291470  61.8021800  40.8705030  22.9740180  62.2018310
  42.3101130  23.3002240  62.5379720  51.7061750  27.3231850  59.7045170
  51.2443280  26.5519090  60.0332340  52.5187300  27.3497920  60.2097620
  41.6821410  27.2631560  61.9979820  41.9849450  26.3729300  61.8190040
  42.4265000  27.8201780  61.7702070  40.1112100  18.1893360  55.5864190
  39.2228800  18.5309330  55.4844070  40.3953290  17.9893680  54.6945020
  38.0745110  20.7899010  61.4703890  38.6461220  20.0221210  61.4707530
  38.0746650  21.0887770  60.5610500  47.1263310  25.5928850  60.9316200
  47.0571590  24.6518790  60.7705330  47.8883170  25.6830260  61.5038770
  39.3169980  16.1983370  63.2572820  39.1372820  15.3009120  63.5375580
  38.9150060  16.7455240  63.9319770  48.1568480  18.3999230  61.1585130
  48.5333300  17.5271110  61.0458800  48.0587990  18.7357930  60.2675570
  42.2873490  16.7724860  56.6202570  42.3940240  17.6728590  56.9271330
  41.3765850  16.7242830  56.3297220  51.9392600  15.8949670  58.0913470
  52.7602220  15.4046240  58.1338950  51.9726680  16.4847330  58.8445310
  39.9356650  18.6943870  61.8655160  40.6166760  18.9582240  62.4842560
  39.6204700  17.8544740  62.1993170  44.1281220  19.7411230  60.9527750
  44.6359440  20.2392200  61.5932770  44.6594460  18.9646430  60.7767110
  56.2292150  17.9116420  64.6557100  55.5244320  18.2998130  64.1372210
  56.4950070  18.6066710  65.2578030  42.4117320  14.3809790  65.2191170
  42.4135760  14.8982180  64.4137070  41.5821630  13.9039970  65.1961100
  48.7988410  24.4929100  56.7181070  48.1805680  24.9578550  56.1543790
  49.3111660  25.1856580  57.1350580  43.6620170  24.0204970  63.3964670
  43.3289550  24.6473890  64.0385740  43.8386850  24.5466850  62.6166340
  52.1754080  17.8350050  60.8641010  51.4709650  18.1234940  61.4444120
  52.5366240  18.6450160  60.5040570  42.0932650  16.0919750  63.2261620
  42.4349460  16.9361800  62.9315490  41.1548460  16.2403490  63.3426960
  42.8739270  25.9885770  65.2113850  43.4913270  26.6636850  64.9298300
  42.0132390  26.3973750  65.1201350  53.7916860  27.4525180  63.1268490
  53.1080380  28.1224290  63.1185160  54.3311150  27.6505830  62.3613350
  55.2441000  17.2804840  61.2550220  54.2965910  17.3143820  61.3865650
  55.5690990  18.0943790  61.6399580  45.7760540  13.5802020  59.5506210
  46.0835520  13.0248910  58.8341710  44.8461240  13.7146480  59.3679200
  51.3275600  29.2969310  61.8413670  51.3402760  28.8931600  60.9735930
  50.7750820  30.0716600  61.7375100  52.6221020  26.0185530  56.9303840
  52.5117350  25.0759860  57.0553260  52.6189270  26.3801170  57.8166600
  50.7261040  24.1999150  63.1696280  51.1429830  23.9859260  62.3349740
  51.4500860  24.4571940  63.7404900  48.1641300  21.6450850  56.2866330
  47.2370580  21.5788230  56.5154800  48.3166120  22.5830980  56.1721570
  48.1510380  17.9167850  53.2833490  47.2114050  18.0781810  53.3685950
  48.4693640  18.6353530  52.7369480  54.6723140  22.5986370  63.2612520
  53.8441770  22.6679460  62.7862650  55.2673620  23.1840680  62.7928350
  52.1938590  23.2071150  56.7901580  51.5751010  22.8690700  56.1427880
  52.1763040  22.5630910  57.4980770  51.6365150  19.3855690  64.2067390
  51.2236330  20.2109400  64.4607380  50.9041100  18.8000730  64.0143750
  43.7697940  22.1715590  59.0686060  43.3654940  21.4592840  58.5731960
  43.8561060  21.8268830  59.9574100  44.2379640  25.8583150  61.2325270
  43.9407930  25.2528620  60.5533050  45.1879460  25.8960460  61.1214630
  42.4826560  18.9458800  62.8485100  43.0341150  19.0554140  62.0738350
  42.9970070  19.3196400  63.5640330  52.3265250  29.4315020  64.8948370
  51.8495810  30.2387210  64.7020980  51.6427040  28.7793350  65.0474580
  43.3298070  25.5964840  67.8833070  42.4326600  25.8204810  68.1306470
  43.3550940  25.7199780  66.9344470  50.3703290  22.4457960  53.7974330
  50.8096570  21.6080390  53.6512150  51.0831710  23.0787360  53.8838470
  42.1569290  22.4678160  66.4590440  42.0177060  23.3400960  66.8277840
  41.2750650  22.1250970  66.3138380  43.9549640  28.4099860  68.6675590
  43.9265070  28.8142810  67.8004020  43.7914610  27.4810220  68.5047190
  53.9520430  13.7000770  52.1115370  53.6393090  13.7927600  53.0114440
  54.7132900  14.2781800  52.0612800  40.4702570  21.0660570  56.5692710
  40.3500170  21.7922660  55.9573980  40.1603460  20.2963480  56.0920620
  55.9064460  29.1926960  69.9639760  56.3824180  29.6709850  70.6428840
  56.5271620  29.1244450  69.2385260  38.1087940  24.2375710  62.3761350
  38.1868360  24.3724480  61.4317070  38.7229620  23.5291600  62.5689470
  55.3097710  26.3839810  67.1239770  55.4360770  26.1451690  66.2056950
  55.3519090  25.5524350  67.5961850  49.1714450  30.0867810  65.6934580
  49.6859120  29.9975820  66.4957010  48.3283530  30.4327510  65.9862490
  55.1621720  18.4372270  68.0889510  54.5465990  18.9451940  67.5604970
  54.8418140  17.5370600  68.0315450  38.1647460  25.2789880  64.9155810
  38.3278500  24.8095240  64.0975180  38.6299910  24.7713440  65.5804650
  42.9366230  14.4095640  59.9516380  42.4934380  15.1905180  59.6200900
  43.4951220  14.7325530  60.6587320  47.2236040  17.2764160  65.5551700
  46.7615410  17.4847180  66.3671640  46.8214150  16.4623510  65.2522370
  52.2240550  18.4973110  66.6848360  51.3734140  18.1978860  67.0057430
  52.0642340  18.7415120  65.7732180  49.3190260  19.9974860  68.7847150
  49.6443670  19.1638610  68.4449380  50.1070590  20.5203380  68.9325480
  46.0525050  14.0306340  54.8322210  45.4279230  14.0266210  55.5575520
  45.9655170  13.1637300  54.4358180  44.9742130  14.9542970  61.8105980
  45.2714460  15.8605800  61.7298000  45.5227690  14.4661750  61.1965550
  42.7280450  19.5329210  57.6797630  42.5021370  19.3166380  58.5844250
  41.9472980  19.9657670  57.3343600  49.9578210  19.5392580  56.2788280
  49.3587100  20.2628380  56.0951900  50.5057820  19.4769360  55.4964730
  45.1679660  20.4314790  68.3457900  45.0723260  19.4909520  68.1958300
  46.0111640  20.6529860  67.9505970  48.5643080  18.1756120  58.3091560
  48.9572650  18.4928320  57.4960250  48.9259930  17.2968000  58.4236080
  40.2990200  16.8428460  66.4991680  39.9053590  17.6903670  66.7064460
  39.6108600  16.2054830  66.6900320  46.8735250  16.9263430  69.5688420
  46.1833570  16.7335630  70.2034510  47.6167550  17.2098070  70.1012720
  37.6007250  14.7656920  60.5321760  37.3120300  15.3359780  61.2446740
  38.3453010  14.2861370  60.8952990  37.7877480  18.7077040  51.7424480
  37.7052150  19.6507800  51.8839470  37.4360540  18.5651950  50.8636830
  49.1498220  20.7661870  62.4042340  48.4179340  21.2748680  62.7532440
  48.7522560  19.9491850  62.1031120  45.5875610  17.4416070  60.8094830
  45.5911670  17.0006020  59.9599370  46.4826730  17.7633400  60.9166650
  41.4377990  17.3242560  59.7689040  41.0978040  17.8017790  60.5256090
  40.6755310  16.8707680  59.4090140  45.6495760  18.4428150  53.8001590
  45.7708580  18.4014630  54.7487410  45.2644270  19.3052300  53.6448320
  49.6124130  16.2195550  61.8165280  49.6296870  16.6704200  62.6607130
  49.3639710  15.3201190  62.0298720  44.6617260  20.7529290  53.1984890
  44.0934160  20.3047540  52.5720800  45.3706260  21.1122070  52.6650040
  53.0394880  13.6327730  67.6551660  53.3640650  12.9017390  68.1809640
  53.0751390  13.3141370  66.7532650  39.7386440  24.6541310  67.0751620
  39.3541230  24.0134980  67.6734580  40.0498630  25.3577430  67.6446350
  45.8883580  21.5017850  62.5560240  46.2553710  21.0276420  63.3021580
  45.6988640  22.3759420  62.8968580  38.7524070  16.2461540  58.6853710
  38.4670990  15.8817210  59.5232330  38.6902930  15.5142000  58.0716850
  43.6782950  20.5426490  64.8744450  43.3740020  21.4218470  65.0994810
  44.6329410  20.6026280  64.9101890  42.2064740  24.7487480  55.4711300
  41.4327000  24.2085100  55.3110020  42.9359370  24.2294090  55.1329060
  52.9652720  23.7452840  61.2637690  53.6851840  24.2408130  60.8733800
  52.7634540  23.0670730  60.6191560  48.4262660  15.1390800  55.4067080
  47.6127270  14.6403970  55.3312390  48.2324610  15.9789050  54.9903430
  48.3471520  23.8161900  67.1506690  48.2808830  22.8957570  66.8964280
  47.7176660  23.9137340  67.8651330  51.1411050  19.5110450  53.7029240
  52.0290670  19.8227680  53.5280580  51.1116140  18.6382700  53.3109820
  47.1371640  25.6834140  54.3817410  47.4787340  26.4276370  53.8860730
  46.3084350  25.9965260  54.7442240  39.7346680  21.3829230  66.0215810
  39.3761620  22.0483080  66.6089150  39.4401240  20.5512780  66.3928430
  42.9359800  21.8413470  68.9055360  42.6359940  21.9870650  68.0083180
  43.7071040  21.2818760  68.8128750  48.2788250  26.6382470  66.9010490
  48.2932790  25.7063430  66.6829400  47.5713350  26.7242230  67.5400260
  53.4125320  20.8222290  53.1709100  53.3289040  21.2536510  52.3205540
  54.1319510  21.2820640  53.6035920  54.4899460  23.2789810  66.2479070
  53.7647650  23.8718590  66.0508460  55.0174920  23.2713350  65.4492440
  54.4412570  27.6764550  55.8991230  53.7988730  27.0220170  56.1734950
  54.0543230  28.0819640  55.1231900  50.0199050  25.0049980  59.7462920
  50.3722870  24.4078110  59.0864290  49.1361380  24.6794210  59.9171170
  45.4089540  22.7693700  56.7658690  45.8652320  23.5798950  56.9918880
  45.0577750  22.4516840  57.5977180  47.7122150  28.2800040  63.9950990
  48.3564370  28.4859420  64.6724410  48.0751590  27.5188440  63.5421840
  41.3101320  13.1131350  57.2381210  41.1815950  13.1049250  58.1866130
  40.4863340  13.4514440  56.8872220  48.9854230  26.2832390  62.7128440
  49.6276460  25.5825550  62.8260610  49.5103580  27.0630830  62.5325330
  52.8309950  26.5681010  52.4367580  52.6047530  25.8511450  53.0292220
  52.4406150  26.3193450  51.5989330  50.7591850  27.0827290  65.9164500
  51.0948090  27.6693980  66.5942420  49.8392190  26.9520000  66.1462290
  38.3095250  14.8722470  66.6987910  37.5953770  15.0719390  67.3040520
  38.7290290  14.0962040  67.0702710  52.4126200  24.4852950  54.0981740
  52.1247900  24.9465640  54.8859620  53.2078370  24.0250720  54.3665960
  38.5967840  28.8602730  67.6854440  38.7058960  27.9197470  67.5449830
  37.9448400  29.1257480  67.0368170  46.5880430  27.1318620  69.0852560
  46.2677300  26.4127860  69.6298250  45.9138790  27.8073690  69.1588620
  49.8034030  17.3644780  64.4489360  50.1714850  16.5439990  64.7768930
  48.9432230  17.4246670  64.8645010  53.1696060  16.3201720  55.2576920
  52.5409220  16.4247390  54.5435150  52.6747980  16.5398500  56.0470800
  45.1380090  18.5987670  56.6734800  44.4296240  19.0674010  57.1148410
  45.4224570  17.9409680  57.3079990  46.7636020  20.0184370  64.6727330
  47.2621270  20.4930190  65.3379180  46.9058970  19.0947890  64.8797360
  49.1695520  15.3238330  58.1130590  49.0463300  15.3424460  57.1640100
  50.1180080  15.3717270  58.2328990  43.3415110  16.9072750  54.0485510
  44.1905640  17.3442900  53.9825700  42.9746380  17.2193010  54.8757570
  53.9702880  16.2352330  65.5155720  53.4676480  16.9757730  65.8549530
  54.7859540  16.6236330  65.1992510  52.2624890  21.4785510  58.9617080
  51.3215030  21.4935740  59.1364770  52.5768960  20.6921470  59.4077380
  42.2406530  23.1605110  52.5221040  43.0069800  23.0486470  53.0846470
  42.3181220  22.4643080  51.8697810  40.9353290  20.5930180  53.2053930
  41.0156880  19.6457690  53.3171330  41.8273040  20.9237060  53.3114590
  54.2650470  28.6494360  60.6371340  54.3897890  29.4725530  61.1095150
  55.1316030  28.4385090  60.2895490  41.7368000  30.7425570  60.3088470
  42.4730480  30.1941030  60.5797040  42.1208920  31.6081580  60.1694460
  40.7426280  29.9271640  69.4974050  41.5439010  30.2483690  69.9109450
  40.2278100  29.5667220  70.2193960  49.5790910  26.0351510  69.4449460
  48.9729070  26.0583110  68.7045210  49.2745020  25.3034550  69.9816710
  51.0091280  29.7631800  68.0558870  51.9613030  29.6789820  68.0059110
  50.8619500  30.4273510  68.7292660  38.4624090  22.4145100  68.4410100
  38.9663110  21.8352380  69.0126330  37.7231510  22.6985330  68.9786470
  45.5162030  23.8216090  67.9745620  44.7507700  24.3901090  67.8900290
  45.6977990  23.5292300  67.0813850  48.6050440  24.1979320  52.5998380
  48.0560540  24.6448620  53.2441120  49.2269700  23.6928570  53.1236050
  52.6585380  25.5521420  68.5320640  53.3994850  25.8897180  68.0288100
  51.8958060  25.7213480  67.9790410  40.4947170  20.5574690  69.3360170
  40.5352510  20.2588560  70.2445400  41.3492670  20.9582300  69.1767690
  44.2725560  23.1570240  54.4963680  44.6941980  22.9910110  55.3395070
  44.3976400  22.3470470  54.0018820  42.4352980  19.1366790  67.3034660
  41.9049440  18.6457740  66.6758000  43.1041050  19.5650990  66.7692590
  46.7853200  22.1807850  51.7440780  47.3058860  21.4656870  51.3781930
  47.4321600  22.8193720  52.0441290  51.3331040  23.6036250  67.0675850
  51.7472060  23.7581330  67.9166270  50.3982040  23.7291470  67.2301630
  51.8053210  20.9432410  69.0715000  52.3873980  20.1884730  68.9835480
  51.9814980  21.4739850  68.2946480  42.9225280  16.1029160  67.3831950
  42.8282150  15.4849910  66.6582820  42.3422670  16.8295450  67.1561860
  45.6886720  14.6602400  64.4159340  45.2404020  14.6826660  63.5704890
  45.0551920  14.2621420  65.0129640  46.0946270  23.5556730  65.0371780
  46.5134380  24.3989460  64.8648020  45.1754900  23.6928770  64.8078560
  48.4310170  21.2872910  66.4209620  48.5506380  20.6914050  67.1604460
  49.2904170  21.3242600  66.0010920  50.7698070  21.8410100  64.9972130
  50.2433290  22.3652720  64.3937270  51.1129410  22.4737490  65.6281860
  43.1684460  19.2303470  51.4421840  42.9673520  18.3670830  51.8035180
  42.9976510  19.1436830  50.5043440  43.9453690  29.8609740  66.1529510
  43.4074780  30.5855800  65.8338210  44.1987650  29.3840080  65.3626850
  45.1978940  17.8294260  67.6785440  45.7878630  17.5210110  68.3663260
  44.3799180  17.3574010  67.8345340  50.0172370  17.4460070  67.9118460
  49.3287890  16.7841610  67.8468450  50.7378390  16.9998340  68.3566920
  50.6472770  14.0411700  53.9708720  50.9275060  13.1979600  54.3268140
  49.8738500  14.2734810  54.4847470  41.9667260  16.3304090  51.4299720
  42.2693160  16.3371520  50.5218870  42.7061850  15.9801950  51.9267380
  46.8015900  31.0960950  66.4116160  46.7274600  31.9996090  66.7188530
  45.8994740  30.7772850  66.3838230  45.1852190  15.2738710  52.4155920
  44.8374190  14.5962700  51.8358370  45.3864960  14.8128220  53.2299310
  38.6933400  29.2906130  62.4531410  38.2564390  29.4706930  63.2855560
  39.2611080  30.0480750  62.3113130  54.3295580  28.7923130  66.7408720
  53.7297570  28.8515690  65.9972640  54.4589480  27.8528110  66.8705570
  55.5697030  26.5340950  52.0778430  54.7389990  26.6017600  52.5485660
  55.7468860  27.4245070  51.7745290  55.0253490  23.2788430  54.5812630
  55.7872400  23.8485080  54.6872320  55.0407860  22.7115630  55.3520940
  38.5257830  21.8026360  58.8120290  37.8706670  21.5338000  58.1679990
  39.3635780  21.6930840  58.3622270  56.0313460  24.1338530  59.4254560
  56.4022290  23.3505850  59.0190530  56.6715390  24.8227630  59.2471860
  53.0147220  25.5175110  64.8384880  52.2007060  25.9472270  65.1010670
  53.4221420  26.1293520  64.2253930  55.0772660  23.5722800  51.7385150
  55.3521500  24.4801680  51.6104370  54.8883400  23.5085330  52.6747140
  51.4748270  16.5967650  53.0338780  51.8933150  16.4098630  52.1935440
  51.1684330  15.7446700  53.3441710  54.9738000  21.5091790  56.7314580
  54.5981600  20.7419720  56.2995870  54.2441120  21.8914490  57.2189510
  39.5633760  22.1878930  63.3523630  39.9306800  22.1006330  64.2319650
  38.9944580  21.4245480  63.2530490  54.3637620  20.6563310  66.3654100
  54.1323710  20.4276060  65.4652050  54.6242170  21.5762860  66.3198990
  39.1149760  19.0988020  67.2582050  38.2205810  19.0654780  67.5975760
  39.6547310  19.2974810  68.0233300  52.8025690  15.8819740  69.1433800
  53.6795870  15.8903140  69.5267800  52.8146530  15.1450580  68.5326150
  37.7395910  19.0125290  54.7545620  36.8359990  19.2755490  54.5797280
  38.2236530  19.2836460  53.9745580  54.2488960  19.7349280  60.0321820
  54.7726440  19.2411930  59.4011990  54.8348380  19.8699640  60.7769390
  54.4278680  19.8189150  63.5541370  53.4781390  19.7852690  63.6686360
  54.6091690  20.7289260  63.3191140  40.2823120  18.0690830  52.6640000
  40.9914820  17.6474050  52.1787280  39.5663060  18.1366060  52.0323350
  39.9297280  14.1230160  51.7042650  40.6525410  14.6639100  52.0223870
  40.2021800  13.8493580  50.8284190  53.7388930  18.9922630  55.9714230
  54.2348050  18.7593500  56.7563110  53.5405000  18.1534470  55.5551870
  39.6189470  13.3736350  61.6065270  40.2665660  12.8233730  61.1660430
  40.0391310  13.6279500  62.4281080  55.1676090  17.6283580  58.5051910
  55.0575370  17.4739620  59.4434180  55.9283680  17.1004520  58.2627320
  53.5141810  13.5677710  64.9634910  54.1514030  14.1811850  65.3294100
  53.6616700  13.6038370  64.0184140  56.0566360  15.4591500  51.7458050
  56.9815670  15.3272680  51.5376340  56.0342150  15.5384320  52.6994500
  56.1304850  16.2302160  54.3714760  55.3356350  16.1647280  54.9007670
  56.3348130  17.1652800  54.3600110  39.3721470  13.5292020  64.3490590
  39.0236290  13.9855840  65.1148770  39.0409170  12.6349150  64.4313020
  40.9785840  26.7011620  68.5143780  40.9355470  26.3304530  69.3958240
  41.1096850  27.6389190  68.6545600  44.6791870  28.2571210  64.1153500
  44.4383230  28.5245770  63.2284020  45.6194510  28.4276940  64.1704360
  46.8846290  14.7203900  67.8710010  46.8235180  15.3125730  68.6205420
  47.8246670  14.6129860  67.7260270  49.5220850  14.3773960  67.5102300
  50.1361260  14.6953250  66.8483380  50.0670410  13.8922550  68.1298160
  55.9396030  30.2765590  64.9164140  55.4454310  30.6734460  64.1991270
  55.3309320  29.6514800  65.3101420  40.0442110  13.0568220  67.6241360
  40.5925100  12.8756270  66.8607470  40.1097420  12.2662330  68.1597670
  40.8173870  29.6473870  65.6341560  40.2234190  29.5158570  66.3731600
  40.8097710  28.8112010  65.1683660  50.2628890  12.9406100  63.8371590
  49.3888730  13.2741210  63.6344520  50.1539640  12.4679280  64.6623460
  51.1700870  15.1476970  65.2213310  50.8414230  14.3328730  64.8415040
  52.1183170  15.1046780  65.0979000  53.6235480  30.9189010  62.1950880
  53.1638450  31.6704820  61.8208900  52.9947940  30.1995480  62.1365680
  40.4486100  27.0132250  64.5849600  39.7220160  26.3937540  64.5175550
  40.5095250  27.4072860  63.7147680  44.0531200  29.2277250  61.3699010
  44.5696220  28.6164610  60.8447270  44.7028580  29.7306030  61.8610020
  46.7926700  30.1185740  62.1967990  47.0804510  29.8640040  61.3201000
  47.3049920  29.5663100  62.7873560  48.0103710  13.8575940  62.7764500
  47.2275500  14.3321440  63.0561260  47.7166640  12.9530770  62.6677680
  52.5624780  14.5599040  60.8213590  53.0032870  14.5044140  59.9735190
  52.2932370  15.4757050  60.8923770  54.4263350  14.1914280  58.8322410
  54.3651750  13.2475500  58.6853430  55.2055380  14.2994370  59.3775870
  39.3544120  14.1623420  55.2978220  40.1123480  14.2752300  54.7242250
  38.8921290  14.9992620  55.2521650  45.8957930  16.2762690  58.2880530
  45.0832440  15.9019580  57.9476410  46.3999570  15.5207770  58.5901720
  50.3982910  12.9405140  59.5263600  51.0012280  13.5125350  60.0012120
  49.6575900  13.5044580  59.3037500  53.5417510  13.3426700  54.8003880
  53.7368140  14.2410150  55.0671310  52.7547380  13.1113780  55.2936830
  41.7269270  14.6887470  53.8380190  42.2562030  13.9017270  53.7088140
  42.3597590  15.3678660  54.0715720  43.9207110  14.4262610  56.8925580
  43.2909850  13.7249920  57.0595710  43.3812250  15.1866740  56.6758740
  46.8599060  31.0401840  69.5636190  47.7866370  30.8046110  69.6072150
  46.8449490  31.8673840  69.0822220  44.0462670  13.7046590  69.3278070
  43.7646940  14.2080190  68.5638890  44.4282370  12.9068340  68.9620200
  50.6478130  13.1200170  69.9058540  50.5343580  13.4394780  70.8010060
  51.4647870  13.5212680  69.6095820  53.4276620  30.2671700  69.3877230
  54.2201940  29.7720930  69.1803190  53.7209770  30.9461840  69.9952840
  49.5536280  21.1392640  40.2693280  49.4730330  20.2247250  39.9984990
  49.1400700  21.6359710  39.5632990  47.6854320  22.9171660  42.1502550
  46.9096420  22.4372100  42.4401120  48.3367250  22.2377310  41.9758710
  41.7020150  23.2291470  43.0278310  40.8705030  22.9740180  43.4274820
  42.3101130  23.3002240  43.7636230  51.7061750  27.3231850  40.9301680
  51.2443280  26.5519090  41.2588850  52.5187300  27.3497920  41.4354130
  40.1112100  18.1893360  36.8120700  39.2228800  18.5309330  36.7100580
  40.3953290  17.9893680  35.9201530  38.0745110  20.7899010  42.6960400
  38.6461220  20.0221210  42.6964040  38.0746650  21.0887770  41.7867010
  47.1263310  25.5928850  42.1572710  47.0571590  24.6518790  41.9961840
  47.8883170  25.6830260  42.7295280  39.3169980  16.1983370  44.4829330
  39.1372820  15.3009120  44.7632090  38.9150060  16.7455240  45.1576280
  48.1568480  18.3999230  42.3841640  48.5333300  17.5271110  42.2715310
  48.0587990  18.7357930  41.4932080  42.2873490  16.7724860  37.8459080
  42.3940240  17.6728590  38.1527840  41.3765850  16.7242830  37.5553730
  51.9392600  15.8949670  39.3169980  52.7602220  15.4046240  39.3595460
  51.9726680  16.4847330  40.0701820  39.9356650  18.6943870  43.0911670
  40.6166760  18.9582240  43.7099070  39.6204700  17.8544740  43.4249680
  44.1281220  19.7411230  42.1784260  44.6359440  20.2392200  42.8189280
  44.6594460  18.9646430  42.0023620  56.2292150  17.9116420  45.8813610
  55.5244320  18.2998130  45.3628720  56.4950070  18.6066710  46.4834540
  42.4117320  14.3809790  46.4447680  42.4135760  14.8982180  45.6393580
  41.5821630  13.9039970  46.4217610  48.7988410  24.4929100  37.9437580
  48.1805680  24.9578550  37.3800300  49.3111660  25.1856580  38.3607090
  43.6620170  24.0204970  44.6221180  43.3289550  24.6473890  45.2642250
  43.8386850  24.5466850  43.8422850  52.1754080  17.8350050  42.0897520
  51.4709650  18.1234940  42.6700630  52.5366240  18.6450160  41.7297080
  42.0932650  16.0919750  44.4518130  42.4349460  16.9361800  44.1572000
  41.1548460  16.2403490  44.5683470  38.1671610  25.1785630  35.3177210
  37.7899590  25.6672730  34.5862110  38.4244680  25.8510910  35.9483740
  53.7916860  27.4525180  44.3525000  53.1080380  28.1224290  44.3441670
  54.3311150  27.6505830  43.5869860  55.2441000  17.2804840  42.4806730
  54.2965910  17.3143820  42.6122160  55.5690990  18.0943790  42.8656090
  45.7760540  13.5802020  40.7762720  46.0835520  13.0248910  40.0598220
  44.8461240  13.7146480  40.5935710  52.6221020  26.0185530  38.1560350
  52.5117350  25.0759860  38.2809770  52.6189270  26.3801170  39.0423110
  50.7261040  24.1999150  44.3952790  51.1429830  23.9859260  43.5606250
  51.4500860  24.4571940  44.9661410  48.1641300  21.6450850  37.5122840
  47.2370580  21.5788230  37.7411310  48.3166120  22.5830980  37.3978080
  48.1510380  17.9167850  34.5090000  47.2114050  18.0781810  34.5942460
  48.4693640  18.6353530  33.9625990  54.6723140  22.5986370  44.4869030
  53.8441770  22.6679460  44.0119160  55.2673620  23.1840680  44.0184860
  52.1938590  23.2071150  38.0158090  51.5751010  22.8690700  37.3684390
  52.1763040  22.5630910  38.7237280  51.6365150  19.3855690  45.4323900
  51.2236330  20.2109400  45.6863890  50.9041100  18.8000730  45.2400260
  43.7697940  22.1715590  40.2942570  43.3654940  21.4592840  39.7988470
  43.8561060  21.8268830  41.1830610  42.4826560  18.9458800  44.0741610
  43.0341150  19.0554140  43.2994860  42.9970070  19.3196400  44.7896840
  50.3703290  22.4457960  35.0230840  50.8096570  21.6080390  34.8768660
  51.0831710  23.0787360  35.1094980  42.1569290  22.4678160  47.6846950
  42.0177060  23.3400960  48.0534350  41.2750650  22.1250970  47.5394890
  48.4798670  27.3854030  38.9912080  48.9194580  28.1278360  38.5767470
  48.4185560  27.6280600  39.9151040  53.9520430  13.7000770  33.3371880
  53.6393090  13.7927600  34.2370950  54.7132900  14.2781800  33.2869310
  40.4702570  21.0660570  37.7949220  40.3500170  21.7922660  37.1830490
  40.1603460  20.2963480  37.3177130  55.9064460  29.1926960  51.1896270
  56.3824180  29.6709850  51.8685350  56.5271620  29.1244450  50.4641770
  55.3097710  26.3839810  48.3496280  55.4360770  26.1451690  47.4313460
  55.3519090  25.5524350  48.8218360  50.8494980  27.8810710  34.9073090
  50.1560140  27.8788000  34.2475370  51.5917840  27.4570030  34.4767260
  55.1621720  18.4372270  49.3146020  54.5465990  18.9451940  48.7861480
  54.8418140  17.5370600  49.2571960  42.9366230  14.4095640  41.1772890
  42.4934380  15.1905180  40.8457410  43.4951220  14.7325530  41.8843830
  47.2236040  17.2764160  46.7808210  46.7615410  17.4847180  47.5928150
  46.8214150  16.4623510  46.4778880  52.2240550  18.4973110  47.9104870
  51.3734140  18.1978860  48.2313940  52.0642340  18.7415120  46.9988690
  49.3190260  19.9974860  50.0103660  49.6443670  19.1638610  49.6705890
  50.1070590  20.5203380  50.1581990  46.0525050  14.0306340  36.0578720
  45.4279230  14.0266210  36.7832030  45.9655170  13.1637300  35.6614690
  44.9742130  14.9542970  43.0362490  45.2714460  15.8605800  42.9554510
  45.5227690  14.4661750  42.4222060  42.7280450  19.5329210  38.9054140
  42.5021370  19.3166380  39.8100760  41.9472980  19.9657670  38.5600110
  49.9578210  19.5392580  37.5044790  49.3587100  20.2628380  37.3208410
  50.5057820  19.4769360  36.7221240  45.1679660  20.4314790  49.5714410
  45.0723260  19.4909520  49.4214810  46.0111640  20.6529860  49.1762480
  48.5643080  18.1756120  39.5348070  48.9572650  18.4928320  38.7216760
  48.9259930  17.2968000  39.6492590  40.2990200  16.8428460  47.7248190
  39.9053590  17.6903670  47.9320970  39.6108600  16.2054830  47.9156830
  46.8735250  16.9263430  50.7944930  46.1833570  16.7335630  51.4291020
  47.6167550  17.2098070  51.3269230  37.6007250  14.7656920  41.7578270
  37.3120300  15.3359780  42.4703250  38.3453010  14.2861370  42.1209500
  37.7877480  18.7077040  32.9680990  37.7052150  19.6507800  33.1095980
  37.4360540  18.5651950  32.0893340  49.1498220  20.7661870  43.6298850
  48.4179340  21.2748680  43.9788950  48.7522560  19.9491850  43.3287630
  45.5875610  17.4416070  42.0351340  45.5911670  17.0006020  41.1855880
  46.4826730  17.7633400  42.1423160  41.4377990  17.3242560  40.9945550
  41.0978040  17.8017790  41.7512600  40.6755310  16.8707680  40.6346650
  45.6495760  18.4428150  35.0258100  45.7708580  18.4014630  35.9743920
  45.2644270  19.3052300  34.8704830  49.6124130  16.2195550  43.0421790
  49.6296870  16.6704200  43.8863640  49.3639710  15.3201190  43.2555230
  44.6617260  20.7529290  34.4241400  44.0934160  20.3047540  33.7977310
  45.3706260  21.1122070  33.8906550  53.0394880  13.6327730  48.8808170
  53.3640650  12.9017390  49.4066150  53.0751390  13.3141370  47.9789160
  39.7386440  24.6541310  48.3008130  39.3541230  24.0134980  48.8991090
  40.0498630  25.3577430  48.8702860  45.8883580  21.5017850  43.7816750
  46.2553710  21.0276420  44.5278090  45.6988640  22.3759420  44.1225090
  38.7524070  16.2461540  39.9110220  38.4670990  15.8817210  40.7488840
  38.6902930  15.5142000  39.2973360  43.6782950  20.5426490  46.1000960
  43.3740020  21.4218470  46.3251320  44.6329410  20.6026280  46.1358400
  42.2064740  24.7487480  36.6967810  41.4327000  24.2085100  36.5366530
  42.9359370  24.2294090  36.3585570  52.9652720  23.7452840  42.4894200
  53.6851840  24.2408130  42.0990310  52.7634540  23.0670730  41.8448070
  48.4262660  15.1390800  36.6323590  47.6127270  14.6403970  36.5568900
  48.2324610  15.9789050  36.2159940  48.3471520  23.8161900  48.3763200
  48.2808830  22.8957570  48.1220790  47.7176660  23.9137340  49.0907840
  51.1411050  19.5110450  34.9285750  52.0290670  19.8227680  34.7537090
  51.1116140  18.6382700  34.5366330  42.2502140  24.4167860  40.3346620
  42.7680810  23.6136120  40.2803510  41.7986160  24.3547000  41.1763450
  47.1371640  25.6834140  35.6073920  47.4787340  26.4276370  35.1117240
  46.3084350  25.9965260  35.9698750  39.7346680  21.3829230  47.2472320
  39.3761620  22.0483080  47.8345660  39.4401240  20.5512780  47.6184940
  42.9359800  21.8413470  50.1311870  42.6359940  21.9870650  49.2339690
  43.7071040  21.2818760  50.0385260  48.2788250  26.6382470  48.1267000
  48.2932790  25.7063430  47.9085910  47.5713350  26.7242230  48.7656770
  53.4125320  20.8222290  34.3965610  53.3289040  21.2536510  33.5462050
  54.1319510  21.2820640  34.8292430  54.4899460  23.2789810  47.4735580
  53.7647650  23.8718590  47.2764970  55.0174920  23.2713350  46.6748950
  54.4412570  27.6764550  37.1247740  53.7988730  27.0220170  37.3991460
  54.0543230  28.0819640  36.3488410  50.0199050  25.0049980  40.9719430
  50.3722870  24.4078110  40.3120800  49.1361380  24.6794210  41.1427680
  46.1062330  25.7647670  38.3789840  46.7933460  26.3116880  38.7597430
  45.3194750  26.3088400  38.4139450  38.2454730  21.3820490  33.8706920
  39.1149580  21.6645290  34.1542840  37.7545050  22.1956360  33.7555730
  45.4089540  22.7693700  37.9915200  45.8652320  23.5798950  38.2175390
  45.0577750  22.4516840  38.8233690  41.3101320  13.1131350  38.4637720
  41.1815950  13.1049250  39.4122640  40.4863340  13.4514440  38.1128730
  48.9854230  26.2832390  43.9384950  49.6276460  25.5825550  44.0517120
  49.5103580  27.0630830  43.7581840  52.8309950  26.5681010  33.6624090
  52.6047530  25.8511450  34.2548730  52.4406150  26.3193450  32.8245840
  50.7591850  27.0827290  47.1421010  51.0948090  27.6693980  47.8198930
  49.8392190  26.9520000  47.3718800  38.3095250  14.8722470  47.9244420
  37.5953770  15.0719390  48.5297030  38.7290290  14.0962040  48.2959220
  52.4126200  24.4852950  35.3238250  52.1247900  24.9465640  36.1116130
  53.2078370  24.0250720  35.5922470  40.2301240  23.1993960  35.9988980
  39.6229190  23.9392860  36.0084280  40.7050590  23.2893320  35.1727180
  49.8034030  17.3644780  45.6745870  50.1714850  16.5439990  46.0025440
  48.9432230  17.4246670  46.0901520  53.1696060  16.3201720  36.4833430
  52.5409220  16.4247390  35.7691660  52.6747980  16.5398500  37.2727310
  45.1380090  18.5987670  37.8991310  44.4296240  19.0674010  38.3404920
  45.4224570  17.9409680  38.5336500  46.7636020  20.0184370  45.8983840
  47.2621270  20.4930190  46.5635690  46.9058970  19.0947890  46.1053870
  49.1695520  15.3238330  39.3387100  49.0463300  15.3424460  38.3896610
  50.1180080  15.3717270  39.4585500  43.3415110  16.9072750  35.2742020
  44.1905640  17.3442900  35.2082210  42.9746380  17.2193010  36.1014080
  53.9702880  16.2352330  46.7412230  53.4676480  16.9757730  47.0806040
  54.7859540  16.6236330  46.4249020  52.2624890  21.4785510  40.1873590
  51.3215030  21.4935740  40.3621280  52.5768960  20.6921470  40.6333890
  42.2406530  23.1605110  33.7477550  43.0069800  23.0486470  34.3102980
  42.3181220  22.4643080  33.0954320  40.9353290  20.5930180  34.4310440
  41.0156880  19.6457690  34.5427840  41.8273040  20.9237060  34.5371100
  54.2650470  28.6494360  41.8627850  54.3897890  29.4725530  42.3351660
  55.1316030  28.4385090  41.5152000  49.5790910  26.0351510  50.6705970
  48.9729070  26.0583110  49.9301720  49.2745020  25.3034550  51.2073220
  53.9000480  29.1426010  34.7807290  53.6141990  28.7291150  33.9661470
  53.7020030  30.0713720  34.6607810  45.3647710  25.1359290  33.2212900
  45.2598350  24.5211640  33.9474280  45.1971930  24.6125180  32.4375910
  45.5162030  23.8216090  49.2002130  44.7507700  24.3901090  49.1156800
  45.6977990  23.5292300  48.3070360  48.6050440  24.1979320  33.8254890
  48.0560540  24.6448620  34.4697630  49.2269700  23.6928570  34.3492560
  52.6585380  25.5521420  49.7577150  53.3994850  25.8897180  49.2544610
  51.8958060  25.7213480  49.2046920  40.4947170  20.5574690  50.5616680
  40.5352510  20.2588560  51.4701910  41.3492670  20.9582300  50.4024200
  44.2725560  23.1570240  35.7220190  44.6941980  22.9910110  36.5651580
  44.3976400  22.3470470  35.2275330  42.4352980  19.1366790  48.5291170
  41.9049440  18.6457740  47.9014510  43.1041050  19.5650990  47.9949100
  46.7853200  22.1807850  32.9697290  47.3058860  21.4656870  32.6038440
  47.4321600  22.8193720  33.2697800  51.3331040  23.6036250  48.2932360
  51.7472060  23.7581330  49.1422780  50.3982040  23.7291470  48.4558140
  51.8053210  20.9432410  50.2971510  52.3873980  20.1884730  50.2091990
  51.9814980  21.4739850  49.5202990  42.9225280  16.1029160  48.6088460
  42.8282150  15.4849910  47.8839330  42.3422670  16.8295450  48.3818370
  45.6886720  14.6602400  45.6415850  45.2404020  14.6826660  44.7961400
  45.0551920  14.2621420  46.2386150  46.0946270  23.5556730  46.2628290
  46.5134380  24.3989460  46.0904530  45.1754900  23.6928770  46.0335070
  48.4310170  21.2872910  47.6466130  48.5506380  20.6914050  48.3860970
  49.2904170  21.3242600  47.2267430  50.7698070  21.8410100  46.2228640
  50.2433290  22.3652720  45.6193780  51.1129410  22.4737490  46.8538370
  43.1684460  19.2303470  32.6678350  42.9673520  18.3670830  33.0291690
  42.9976510  19.1436830  31.7299950  45.1978940  17.8294260  48.9041950
  45.7878630  17.5210110  49.5919770  44.3799180  17.3574010  49.0601850
  50.0172370  17.4460070  49.1374970  49.3287890  16.7841610  49.0724960
  50.7378390  16.9998340  49.5823430  50.6472770  14.0411700  35.1965230
  50.9275060  13.1979600  35.5524650  49.8738500  14.2734810  35.7103980
  41.9667260  16.3304090  32.6556230  42.2693160  16.3371520  31.7475380
  42.7061850  15.9801950  33.1523890  45.1852190  15.2738710  33.6412430
  44.8374190  14.5962700  33.0614880  45.3864960  14.8128220  34.4555820
  54.3295580  28.7923130  47.9665230  53.7297570  28.8515690  47.2229150
  54.4589480  27.8528110  48.0962080  55.5697030  26.5340950  33.3034940
  54.7389990  26.6017600  33.7742170  55.7468860  27.4245070  33.0001800
  55.0253490  23.2788430  35.8069140  55.7872400  23.8485080  35.9128830
  55.0407860  22.7115630  36.5777450  38.5257830  21.8026360  40.0376800
  37.8706670  21.5338000  39.3936500  39.3635780  21.6930840  39.5878780
  56.0313460  24.1338530  40.6511070  56.4022290  23.3505850  40.2447040
  56.6715390  24.8227630  40.4728370  53.0147220  25.5175110  46.0641390
  52.2007060  25.9472270  46.3267180  53.4221420  26.1293520  45.4510440
  55.0772660  23.5722800  32.9641660  55.3521500  24.4801680  32.8360880
  54.8883400  23.5085330  33.9003650  51.4748270  16.5967650  34.2595290
  51.8933150  16.4098630  33.4191950  51.1684330  15.7446700  34.5698220
  54.9738000  21.5091790  37.9571090  54.5981600  20.7419720  37.5252380
  54.2441120  21.8914490  38.4446020  39.5633760  22.1878930  44.5780140
  39.9306800  22.1006330  45.4576160  38.9944580  21.4245480  44.4787000
  54.3637620  20.6563310  47.5910610  54.1323710  20.4276060  46.6908560
  54.6242170  21.5762860  47.5455500  39.1149760  19.0988020  48.4838560
  38.2205810  19.0654780  48.8232270  39.6547310  19.2974810  49.2489810
  52.8025690  15.8819740  50.3690310  53.6795870  15.8903140  50.7524310
  52.8146530  15.1450580  49.7582660  37.7395910  19.0125290  35.9802130
  36.8359990  19.2755490  35.8053790  38.2236530  19.2836460  35.2002090
  54.2488960  19.7349280  41.2578330  54.7726440  19.2411930  40.6268500
  54.8348380  19.8699640  42.0025900  54.4278680  19.8189150  44.7797880
  53.4781390  19.7852690  44.8942870  54.6091690  20.7289260  44.5447650
  40.2823120  18.0690830  33.8896510  40.9914820  17.6474050  33.4043790
  39.5663060  18.1366060  33.2579860  39.9297280  14.1230160  32.9299160
  40.6525410  14.6639100  33.2480380  40.2021800  13.8493580  32.0540700
  53.7388930  18.9922630  37.1970740  54.2348050  18.7593500  37.9819620
  53.5405000  18.1534470  36.7808380  39.6189470  13.3736350  42.8321780
  40.2665660  12.8233730  42.3916940  40.0391310  13.6279500  43.6537590
  55.1676090  17.6283580  39.7308420  55.0575370  17.4739620  40.6690690
  55.9283680  17.1004520  39.4883830  53.5141810  13.5677710  46.1891420
  54.1514030  14.1811850  46.5550610  53.6616700  13.6038370  45.2440650
  56.0566360  15.4591500  32.9714560  56.9815670  15.3272680  32.7632850
  56.0342150  15.5384320  33.9251010  56.1304850  16.2302160  35.5971270
  55.3356350  16.1647280  36.1264180  56.3348130  17.1652800  35.5856620
  53.0723270  30.2693710  39.5909660  53.6682340  29.9478280  38.9144080
  53.3301420  29.7965530  40.3822930  39.3721470  13.5292020  45.5747100
  39.0236290  13.9855840  46.3405280  39.0409170  12.6349150  45.6569530
  46.8846290  14.7203900  49.0966520  46.8235180  15.3125730  49.8461930
  47.8246670  14.6129860  48.9516780  49.5220850  14.3773960  48.7358810
  50.1361260  14.6953250  48.0739890  50.0670410  13.8922550  49.3554670
  55.9396030  30.2765590  46.1420650  55.4454310  30.6734460  45.4247780
  55.3309320  29.6514800  46.5357930  40.0442110  13.0568220  48.8497870
  40.5925100  12.8756270  48.0863980  40.1097420  12.2662330  49.3854180
  50.2628890  12.9406100  45.0628100  49.3888730  13.2741210  44.8601030
  50.1539640  12.4679280  45.8879970  51.1700870  15.1476970  46.4469820
  50.8414230  14.3328730  46.0671550  52.1183170  15.1046780  46.3235510
  53.6235480  30.9189010  43.4207390  53.1638450  31.6704820  43.0465410
  52.9947940  30.1995480  43.3622190  48.0103710  13.8575940  44.0021010
  47.2275500  14.3321440  44.2817770  47.7166640  12.9530770  43.8934190
  52.5624780  14.5599040  42.0470100  53.0032870  14.5044140  41.1991700
  52.2932370  15.4757050  42.1180280  54.4263350  14.1914280  40.0578920
  54.3651750  13.2475500  39.9109940  55.2055380  14.2994370  40.6032380
  39.3544120  14.1623420  36.5234730  40.1123480  14.2752300  35.9498760
  38.8921290  14.9992620  36.4778160  45.8957930  16.2762690  39.5137040
  45.0832440  15.9019580  39.1732920  46.3999570  15.5207770  39.8158230
  50.3982910  12.9405140  40.7520110  51.0012280  13.5125350  41.2268630
  49.6575900  13.5044580  40.5294010  53.5417510  13.3426700  36.0260390
  53.7368140  14.2410150  36.2927820  52.7547380  13.1113780  36.5193340
  41.7269270  14.6887470  35.0636700  42.2562030  13.9017270  34.9344650
  42.3597590  15.3678660  35.2972230  43.9207110  14.4262610  38.1182090
  43.2909850  13.7249920  38.2852220  43.3812250  15.1866740  37.9015250
  55.0944120  30.5827410  37.7866950  55.2696310  29.8965150  37.1427870
  54.3965690  31.1074460  37.3943620  44.0462670  13.7046590  50.5534580
  43.7646940  14.2080190  49.7895400  44.4282370  12.9068340  50.1876710
  50.6478130  13.1200170  51.1315050  50.5343580  13.4394780  52.0266570
  51.4647870  13.5212680  50.8352330  49.5536280  21.1392640  21.4949790
  49.4730330  20.2247250  21.2241500  49.1400700  21.6359710  20.7889500
  47.6854320  22.9171660  23.3759060  46.9096420  22.4372100  23.6657630
  48.3367250  22.2377310  23.2015220  41.7020150  23.2291470  24.2534820
  40.8705030  22.9740180  24.6531330  42.3101130  23.3002240  24.9892740
  51.7061750  27.3231850  22.1558190  51.2443280  26.5519090  22.4845360
  52.5187300  27.3497920  22.6610640  41.6821410  27.2631560  24.4492840
  41.9849450  26.3729300  24.2703060  42.4265000  27.8201780  24.2215090
  40.1112100  18.1893360  18.0377210  39.2228800  18.5309330  17.9357090
  40.3953290  17.9893680  17.1458040  38.0745110  20.7899010  23.9216910
  38.6461220  20.0221210  23.9220550  38.0746650  21.0887770  23.0123520
  47.9325060  29.6089860  21.7762180  47.3136500  30.0647360  21.2056620
  48.7876840  29.7641320  21.3751880  47.1263310  25.5928850  23.3829220
  47.0571590  24.6518790  23.2218350  47.8883170  25.6830260  23.9551790
  39.3169980  16.1983370  25.7085840  39.1372820  15.3009120  25.9888600
  38.9150060  16.7455240  26.3832790  48.1568480  18.3999230  23.6098150
  48.5333300  17.5271110  23.4971820  48.0587990  18.7357930  22.7188590
  42.2873490  16.7724860  19.0715590  42.3940240  17.6728590  19.3784350
  41.3765850  16.7242830  18.7810240  51.9392600  15.8949670  20.5426490
  52.7602220  15.4046240  20.5851970  51.9726680  16.4847330  21.2958330
  39.9356650  18.6943870  24.3168180  40.6166760  18.9582240  24.9355580
  39.6204700  17.8544740  24.6506190  44.1281220  19.7411230  23.4040770
  44.6359440  20.2392200  24.0445790  44.6594460  18.9646430  23.2280130
  56.2292150  17.9116420  27.1070120  55.5244320  18.2998130  26.5885230
  56.4950070  18.6066710  27.7091050  42.4117320  14.3809790  27.6704190
  42.4135760  14.8982180  26.8650090  41.5821630  13.9039970  27.6474120
  48.7988410  24.4929100  19.1694090  48.1805680  24.9578550  18.6056810
  49.3111660  25.1856580  19.5863600  43.6620170  24.0204970  25.8477690
  43.3289550  24.6473890  26.4898760  43.8386850  24.5466850  25.0679360
  52.1754080  17.8350050  23.3154030  51.4709650  18.1234940  23.8957140
  52.5366240  18.6450160  22.9553590  42.0932650  16.0919750  25.6774640
  42.4349460  16.9361800  25.3828510  41.1548460  16.2403490  25.7939980
  42.8739270  25.9885770  27.6626870  43.4913270  26.6636850  27.3811320
  42.0132390  26.3973750  27.5714370  38.1671610  25.1785630  16.5433720
  37.7899590  25.6672730  15.8118620  38.4244680  25.8510910  17.1740250
  53.7916860  27.4525180  25.5781510  53.1080380  28.1224290  25.5698180
  54.3311150  27.6505830  24.8126370  55.2441000  17.2804840  23.7063240
  54.2965910  17.3143820  23.8378670  55.5690990  18.0943790  24.0912600
  45.7760540  13.5802020  22.0019230  46.0835520  13.0248910  21.2854730
  44.8461240  13.7146480  21.8192220  51.3275600  29.2969310  24.2926690
  51.3402760  28.8931600  23.4248950  50.7750820  30.0716600  24.1888120
  52.6221020  26.0185530  19.3816860  52.5117350  25.0759860  19.5066280
  52.6189270  26.3801170  20.2679620  50.7261040  24.1999150  25.6209300
  51.1429830  23.9859260  24.7862760  51.4500860  24.4571940  26.1917920
  48.1641300  21.6450850  18.7379350  47.2370580  21.5788230  18.9667820
  48.3166120  22.5830980  18.6234590  48.1510380  17.9167850  15.7346510
  47.2114050  18.0781810  15.8198970  48.4693640  18.6353530  15.1882500
  54.6723140  22.5986370  25.7125540  53.8441770  22.6679460  25.2375670
  55.2673620  23.1840680  25.2441370  52.1938590  23.2071150  19.2414600
  51.5751010  22.8690700  18.5940900  52.1763040  22.5630910  19.9493790
  51.6365150  19.3855690  26.6580410  51.2236330  20.2109400  26.9120400
  50.9041100  18.8000730  26.4656770  43.7697940  22.1715590  21.5199080
  43.3654940  21.4592840  21.0244980  43.8561060  21.8268830  22.4087120
  44.2379640  25.8583150  23.6838290  43.9407930  25.2528620  23.0046070
  45.1879460  25.8960460  23.5727650  42.4826560  18.9458800  25.2998120
  43.0341150  19.0554140  24.5251370  42.9970070  19.3196400  26.0153350
  52.3265250  29.4315020  27.3461390  51.8495810  30.2387210  27.1534000
  51.6427040  28.7793350  27.4987600  43.3298070  25.5964840  30.3346090
  42.4326600  25.8204810  30.5819490  43.3550940  25.7199780  29.3857490
  50.3703290  22.4457960  16.2487350  50.8096570  21.6080390  16.1025170
  51.0831710  23.0787360  16.3351490  42.1569290  22.4678160  28.9103460
  42.0177060  23.3400960  29.2790860  41.2750650  22.1250970  28.7651400
  48.4798670  27.3854030  20.2168590  48.9194580  28.1278360  19.8023980
  48.4185560  27.6280600  21.1407550  53.9520430  13.7000770  14.5628390
  53.6393090  13.7927600  15.4627460  54.7132900  14.2781800  14.5125820
  40.4702570  21.0660570  19.0205730  40.3500170  21.7922660  18.4087000
  40.1603460  20.2963480  18.5433640  55.9064460  29.1926960  32.4152780
  56.3824180  29.6709850  33.0941860  56.5271620  29.1244450  31.6898280
  38.1087940  24.2375710  24.8274370  38.1868360  24.3724480  23.8830090
  38.7229620  23.5291600  25.0202490  39.3535570  25.9375900  21.2380550
  38.9463650  26.0790490  20.3834150  40.2448580  25.6536060  21.0351760
  55.3097710  26.3839810  29.5752790  55.4360770  26.1451690  28.6569970
  55.3519090  25.5524350  30.0474870  51.1468850  30.3723150  17.5731600
  50.9869990  30.0826090  18.4713430  50.9815560  29.5963280  17.0376830
  43.6257230  30.1521680  19.3503220  43.4499710  29.2357220  19.1371020
  42.7712970  30.5108970  19.5901020  50.8494980  27.8810710  16.1329600
  50.1560140  27.8788000  15.4731880  51.5917840  27.4570030  15.7023770
  50.4144910  29.5073420  20.2078090  50.8701860  28.7262800  20.5216710
  50.7537430  30.2180240  20.7519270  55.1621720  18.4372270  30.5402530
  54.5465990  18.9451940  30.0117990  54.8418140  17.5370600  30.4828470
  38.1647460  25.2789880  27.3668830  38.3278500  24.8095240  26.5488200
  38.6299910  24.7713440  28.0317670  42.9366230  14.4095640  22.4029400
  42.4934380  15.1905180  22.0713920  43.4951220  14.7325530  23.1100340
  47.2236040  17.2764160  28.0064720  46.7615410  17.4847180  28.8184660
  46.8214150  16.4623510  27.7035390  52.2240550  18.4973110  29.1361380
  51.3734140  18.1978860  29.4570450  52.0642340  18.7415120  28.2245200
  49.3190260  19.9974860  31.2360170  49.6443670  19.1638610  30.8962400
  50.1070590  20.5203380  31.3838500  46.0525050  14.0306340  17.2835230
  45.4279230  14.0266210  18.0088540  45.9655170  13.1637300  16.8871200
  44.9742130  14.9542970  24.2619000  45.2714460  15.8605800  24.1811020
  45.5227690  14.4661750  23.6478570  42.7280450  19.5329210  20.1310650
  42.5021370  19.3166380  21.0357270  41.9472980  19.9657670  19.7856620
  49.9578210  19.5392580  18.7301300  49.3587100  20.2628380  18.5464920
  50.5057820  19.4769360  17.9477750  45.1679660  20.4314790  30.7970920
  45.0723260  19.4909520  30.6471320  46.0111640  20.6529860  30.4018990
  48.5643080  18.1756120  20.7604580  48.9572650  18.4928320  19.9473270
  48.9259930  17.2968000  20.8749100  40.2990200  16.8428460  28.9504700
  39.9053590  17.6903670  29.1577480  39.6108600  16.2054830  29.1413340
  46.8735250  16.9263430  32.0201440  46.1833570  16.7335630  32.6547530
  47.6167550  17.2098070  32.5525740  37.6007250  14.7656920  22.9834780
  37.3120300  15.3359780  23.6959760  38.3453010  14.2861370  23.3466010
  37.7877480  18.7077040  14.1937500  37.7052150  19.6507800  14.3352490
  37.4360540  18.5651950  13.3149850  49.1498220  20.7661870  24.8555360
  48.4179340  21.2748680  25.2045460  48.7522560  19.9491850  24.5544140
  45.5875610  17.4416070  23.2607850  45.5911670  17.0006020  22.4112390
  46.4826730  17.7633400  23.3679670  41.4377990  17.3242560  22.2202060
  41.0978040  17.8017790  22.9769110  40.6755310  16.8707680  21.8603160
  45.6495760  18.4428150  16.2514610  45.7708580  18.4014630  17.2000430
  45.2644270  19.3052300  16.0961340  49.6124130  16.2195550  24.2678300
  49.6296870  16.6704200  25.1120150  49.3639710  15.3201190  24.4811740
  44.6617260  20.7529290  15.6497910  44.0934160  20.3047540  15.0233820
  45.3706260  21.1122070  15.1163060  53.0394880  13.6327730  30.1064680
  53.3640650  12.9017390  30.6322660  53.0751390  13.3141370  29.2045670
  39.7386440  24.6541310  29.5264640  39.3541230  24.0134980  30.1247600
  40.0498630  25.3577430  30.0959370  45.8883580  21.5017850  25.0073260
  46.2553710  21.0276420  25.7534600  45.6988640  22.3759420  25.3481600
  38.7524070  16.2461540  21.1366730  38.4670990  15.8817210  21.9745350
  38.6902930  15.5142000  20.5229870  43.6782950  20.5426490  27.3257470
  43.3740020  21.4218470  27.5507830  44.6329410  20.6026280  27.3614910
  42.2064740  24.7487480  17.9224320  41.4327000  24.2085100  17.7623040
  42.9359370  24.2294090  17.5842080  52.9652720  23.7452840  23.7150710
  53.6851840  24.2408130  23.3246820  52.7634540  23.0670730  23.0704580
  48.4262660  15.1390800  17.8580100  47.6127270  14.6403970  17.7825410
  48.2324610  15.9789050  17.4416450  48.3471520  23.8161900  29.6019710
  48.2808830  22.8957570  29.3477300  47.7176660  23.9137340  30.3164350
  51.1411050  19.5110450  16.1542260  52.0290670  19.8227680  15.9793600
  51.1116140  18.6382700  15.7622840  42.2502140  24.4167860  21.5603130
  42.7680810  23.6136120  21.5060020  41.7986160  24.3547000  22.4019960
  47.1371640  25.6834140  16.8330430  47.4787340  26.4276370  16.3373750
  46.3084350  25.9965260  17.1955260  39.7346680  21.3829230  28.4728830
  39.3761620  22.0483080  29.0602170  39.4401240  20.5512780  28.8441450
  42.9359800  21.8413470  31.3568380  42.6359940  21.9870650  30.4596200
  43.7071040  21.2818760  31.2641770  48.2788250  26.6382470  29.3523510
  48.2932790  25.7063430  29.1342420  47.5713350  26.7242230  29.9913280
  53.4125320  20.8222290  15.6222120  53.3289040  21.2536510  14.7718560
  54.1319510  21.2820640  16.0548940  54.4899460  23.2789810  28.6992090
  53.7647650  23.8718590  28.5021480  55.0174920  23.2713350  27.9005460
  54.4412570  27.6764550  18.3504250  53.7988730  27.0220170  18.6247970
  54.0543230  28.0819640  17.5744920  50.0199050  25.0049980  22.1975940
  50.3722870  24.4078110  21.5377310  49.1361380  24.6794210  22.3684190
  46.1062330  25.7647670  19.6046350  46.7933460  26.3116880  19.9853940
  45.3194750  26.3088400  19.6395960  38.2454730  21.3820490  15.0963430
  39.1149580  21.6645290  15.3799350  37.7545050  22.1956360  14.9812240
  45.4089540  22.7693700  19.2171710  45.8652320  23.5798950  19.4431900
  45.0577750  22.4516840  20.0490200  41.3101320  13.1131350  19.6894230
  41.1815950  13.1049250  20.6379150  40.4863340  13.4514440  19.3385240
  48.9854230  26.2832390  25.1641460  49.6276460  25.5825550  25.2773630
  49.5103580  27.0630830  24.9838350  52.8309950  26.5681010  14.8880600
  52.6047530  25.8511450  15.4805240  52.4406150  26.3193450  14.0502350
  50.7591850  27.0827290  28.3677520  51.0948090  27.6693980  29.0455440
  49.8392190  26.9520000  28.5975310  38.6125980  30.5947870  15.6625060
  38.9723620  31.1937210  15.0082330  38.4718320  31.1407760  16.4360090
  38.3095250  14.8722470  29.1500930  37.5953770  15.0719390  29.7553540
  38.7290290  14.0962040  29.5215730  52.4126200  24.4852950  16.5494760
  52.1247900  24.9465640  17.3372640  53.2078370  24.0250720  16.8178980
  46.5880430  27.1318620  31.5365580  46.2677300  26.4127860  32.0811270
  45.9138790  27.8073690  31.6101640  44.6294600  27.9779070  16.4798730
  44.6204700  28.7108760  15.8643240  43.7092960  27.7310650  16.5725690
  40.2301240  23.1993960  17.2245490  39.6229190  23.9392860  17.2340790
  40.7050590  23.2893320  16.3983690  49.8034030  17.3644780  26.9002380
  50.1714850  16.5439990  27.2281950  48.9432230  17.4246670  27.3158030
  53.1696060  16.3201720  17.7089940  52.5409220  16.4247390  16.9948170
  52.6747980  16.5398500  18.4983820  47.6154200  28.0407310  15.1423920
  47.7166180  27.8371300  14.2125900  46.7155940  27.7865590  15.3471700
  45.1380090  18.5987670  19.1247820  44.4296240  19.0674010  19.5661430
  45.4224570  17.9409680  19.7593010  46.7636020  20.0184370  27.1240350
  47.2621270  20.4930190  27.7892200  46.9058970  19.0947890  27.3310380
  49.1695520  15.3238330  20.5643610  49.0463300  15.3424460  19.6153120
  50.1180080  15.3717270  20.6842010  46.2572310  30.5593630  19.8371590
  46.5113810  30.5215020  18.9150960  45.3084790  30.4326960  19.8299840
  43.3415110  16.9072750  16.4998530  44.1905640  17.3442900  16.4338720
  42.9746380  17.2193010  17.3270590  53.9702880  16.2352330  27.9668740
  53.4676480  16.9757730  28.3062550  54.7859540  16.6236330  27.6505530
  52.2624890  21.4785510  21.4130100  51.3215030  21.4935740  21.5877790
  52.5768960  20.6921470  21.8590400  42.2406530  23.1605110  14.9734060
  43.0069800  23.0486470  15.5359490  42.3181220  22.4643080  14.3210830
  40.9353290  20.5930180  15.6566950  41.0156880  19.6457690  15.7684350
  41.8273040  20.9237060  15.7627610  54.2650470  28.6494360  23.0884360
  54.3897890  29.4725530  23.5608170  55.1316030  28.4385090  22.7408510
  41.7368000  30.7425570  22.7601490  42.4730480  30.1941030  23.0310060
  42.1208920  31.6081580  22.6207480  38.6213480  26.8099140  18.6343000
  37.6953260  27.0520280  18.6248410  39.0869910  27.6373400  18.5127750
  44.8470310  29.9155880  14.5827060  45.6398920  30.2044710  14.1308850
  44.3274660  29.4848050  13.9039540  49.5790910  26.0351510  31.8962480
  48.9729070  26.0583110  31.1558230  49.2745020  25.3034550  32.4329730
  53.9000480  29.1426010  16.0063800  53.6141990  28.7291150  15.1917980
  53.7020030  30.0713720  15.8864320  38.4624090  22.4145100  30.8923120
  38.9663110  21.8352380  31.4639350  37.7231510  22.6985330  31.4299490
  45.3647710  25.1359290  14.4469410  45.2598350  24.5211640  15.1730790
  45.1971930  24.6125180  13.6632420  45.5162030  23.8216090  30.4258640
  44.7507700  24.3901090  30.3413310  45.6977990  23.5292300  29.5326870
  48.6050440  24.1979320  15.0511400  48.0560540  24.6448620  15.6954140
  49.2269700  23.6928570  15.5749070  52.6585380  25.5521420  30.9833660
  53.3994850  25.8897180  30.4801120  51.8958060  25.7213480  30.4303430
  40.4947170  20.5574690  31.7873190  40.5352510  20.2588560  32.6958420
  41.3492670  20.9582300  31.6280710  44.2725560  23.1570240  16.9476700
  44.6941980  22.9910110  17.7908090  44.3976400  22.3470470  16.4531840
  42.4352980  19.1366790  29.7547680  41.9049440  18.6457740  29.1271020
  43.1041050  19.5650990  29.2205610  46.7853200  22.1807850  14.1953800
  47.3058860  21.4656870  13.8294950  47.4321600  22.8193720  14.4954310
  51.3331040  23.6036250  29.5188870  51.7472060  23.7581330  30.3679290
  50.3982040  23.7291470  29.6814650  51.8053210  20.9432410  31.5228020
  52.3873980  20.1884730  31.4348500  51.9814980  21.4739850  30.7459500
  42.9225280  16.1029160  29.8344970  42.8282150  15.4849910  29.1095840
  42.3422670  16.8295450  29.6074880  45.6886720  14.6602400  26.8672360
  45.2404020  14.6826660  26.0217910  45.0551920  14.2621420  27.4642660
  46.0946270  23.5556730  27.4884800  46.5134380  24.3989460  27.3161040
  45.1754900  23.6928770  27.2591580  48.4310170  21.2872910  28.8722640
  48.5506380  20.6914050  29.6117480  49.2904170  21.3242600  28.4523940
  50.7698070  21.8410100  27.4485150  50.2433290  22.3652720  26.8450290
  51.1129410  22.4737490  28.0794880  43.1684460  19.2303470  13.8934860
  42.9673520  18.3670830  14.2548200  42.9976510  19.1436830  12.9556460
  45.1978940  17.8294260  30.1298460  45.7878630  17.5210110  30.8176280
  44.3799180  17.3574010  30.2858360  50.0172370  17.4460070  30.3631480
  49.3287890  16.7841610  30.2981470  50.7378390  16.9998340  30.8079940
  50.6472770  14.0411700  16.4221740  50.9275060  13.1979600  16.7781160
  49.8738500  14.2734810  16.9360490  41.9667260  16.3304090  13.8812740
  42.2693160  16.3371520  12.9731890  42.7061850  15.9801950  14.3780400
  45.1852190  15.2738710  14.8668940  44.8374190  14.5962700  14.2871390
  45.3864960  14.8128220  15.6812330  47.3501230  30.2619460  16.4855540
  48.2452020  30.6004430  16.5074300  47.3818860  29.5398870  15.8579820
  40.9897390  25.6346510  14.7142540  41.4272260  26.1776180  15.3700120
  41.4745120  24.8093460  14.7238880  38.2043190  28.4235540  22.1662800
  38.5346200  27.5556600  21.9341440  38.6334190  28.6294060  22.9967760
  42.8005110  26.7544550  19.8264770  42.5000650  26.6309520  20.7268680
  42.6942600  25.8953140  19.4180500  54.3295580  28.7923130  29.1921740
  53.7297570  28.8515690  28.4485660  54.4589480  27.8528110  29.3218590
  55.5697030  26.5340950  14.5291450  54.7389990  26.6017600  14.9998680
  55.7468860  27.4245070  14.2258310  55.0253490  23.2788430  17.0325650
  55.7872400  23.8485080  17.1385340  55.0407860  22.7115630  17.8033960
  38.5257830  21.8026360  21.2633310  37.8706670  21.5338000  20.6193010
  39.3635780  21.6930840  20.8135290  56.0313460  24.1338530  21.8767580
  56.4022290  23.3505850  21.4703550  56.6715390  24.8227630  21.6984880
  53.0147220  25.5175110  27.2897900  52.2007060  25.9472270  27.5523690
  53.4221420  26.1293520  26.6766950  55.0772660  23.5722800  14.1898170
  55.3521500  24.4801680  14.0617390  54.8883400  23.5085330  15.1260160
  51.4748270  16.5967650  15.4851800  51.8933150  16.4098630  14.6448460
  51.1684330  15.7446700  15.7954730  54.9738000  21.5091790  19.1827600
  54.5981600  20.7419720  18.7508890  54.2441120  21.8914490  19.6702530
  39.5633760  22.1878930  25.8036650  39.9306800  22.1006330  26.6832670
  38.9944580  21.4245480  25.7043510  54.3637620  20.6563310  28.8167120
  54.1323710  20.4276060  27.9165070  54.6242170  21.5762860  28.7712010
  39.1149760  19.0988020  29.7095070  38.2205810  19.0654780  30.0488780
  39.6547310  19.2974810  30.4746320  52.8025690  15.8819740  31.5946820
  53.6795870  15.8903140  31.9780820  52.8146530  15.1450580  30.9839170
  37.7395910  19.0125290  17.2058640  36.8359990  19.2755490  17.0310300
  38.2236530  19.2836460  16.4258600  54.2488960  19.7349280  22.4834840
  54.7726440  19.2411930  21.8525010  54.8348380  19.8699640  23.2282410
  54.4278680  19.8189150  26.0054390  53.4781390  19.7852690  26.1199380
  54.6091690  20.7289260  25.7704160  40.2823120  18.0690830  15.1153020
  40.9914820  17.6474050  14.6300300  39.5663060  18.1366060  14.4836370
  39.9297280  14.1230160  14.1555670  40.6525410  14.6639100  14.4736890
  40.2021800  13.8493580  13.2797210  53.7388930  18.9922630  18.4227250
  54.2348050  18.7593500  19.2076130  53.5405000  18.1534470  18.0064890
  39.6189470  13.3736350  24.0578290  40.2665660  12.8233730  23.6173450
  40.0391310  13.6279500  24.8794100  55.1676090  17.6283580  20.9564930
  55.0575370  17.4739620  21.8947200  55.9283680  17.1004520  20.7140340
  53.5141810  13.5677710  27.4147930  54.1514030  14.1811850  27.7807120
  53.6616700  13.6038370  26.4697160  56.0566360  15.4591500  14.1971070
  56.9815670  15.3272680  13.9889360  56.0342150  15.5384320  15.1507520
  56.1304850  16.2302160  16.8227780  55.3356350  16.1647280  17.3520690
  56.3348130  17.1652800  16.8113130  53.0723270  30.2693710  20.8166170
  53.6682340  29.9478280  20.1400590  53.3301420  29.7965530  21.6079440
  39.3721470  13.5292020  26.8003610  39.0236290  13.9855840  27.5661790
  39.0409170  12.6349150  26.8826040  46.8846290  14.7203900  30.3223030
  46.8235180  15.3125730  31.0718440  47.8246670  14.6129860  30.1773290
  49.5220850  14.3773960  29.9615320  50.1361260  14.6953250  29.2996400
  50.0670410  13.8922550  30.5811180  55.9396030  30.2765590  27.3677160
  55.4454310  30.6734460  26.6504290  55.3309320  29.6514800  27.7614440
  40.0442110  13.0568220  30.0754380  40.5925100  12.8756270  29.3120490
  40.1097420  12.2662330  30.6110690  50.2628890  12.9406100  26.2884610
  49.3888730  13.2741210  26.0857540  50.1539640  12.4679280  27.1136480
  51.1700870  15.1476970  27.6726330  50.8414230  14.3328730  27.2928060
  52.1183170  15.1046780  27.5492020  53.6235480  30.9189010  24.6463900
  53.1638450  31.6704820  24.2721920  52.9947940  30.1995480  24.5878700
  44.0531200  29.2277250  23.8212030  44.5696220  28.6164610  23.2960290
  44.7028580  29.7306030  24.3123040  48.0103710  13.8575940  25.2277520
  47.2275500  14.3321440  25.5074280  47.7166640  12.9530770  25.1190700
  52.5624780  14.5599040  23.2726610  53.0032870  14.5044140  22.4248210
  52.2932370  15.4757050  23.3436790  54.4263350  14.1914280  21.2835430
  54.3651750  13.2475500  21.1366450  55.2055380  14.2994370  21.8288890
  38.7316100  30.3306640  20.2459380  38.5638140  29.6977320  20.9441270
  37.8650610  30.5366040  19.8953570  39.3544120  14.1623420  17.7491240
  40.1123480  14.2752300  17.1755270  38.8921290  14.9992620  17.7034670
  45.8957930  16.2762690  20.7393550  45.0832440  15.9019580  20.3989430
  46.3999570  15.5207770  21.0414740  50.3982910  12.9405140  21.9776620
  51.0012280  13.5125350  22.4525140  49.6575900  13.5044580  21.7550520
  53.5417510  13.3426700  17.2516900  53.7368140  14.2410150  17.5184330
  52.7547380  13.1113780  17.7449850  40.3378800  29.0239870  17.6909520
  39.8126420  29.4047900  16.9871480  40.2623380  29.6490640  18.4119230
  41.7269270  14.6887470  16.2893210  42.2562030  13.9017270  16.1601160
  42.3597590  15.3678660  16.5228740  43.9207110  14.4262610  19.3438600
  43.2909850  13.7249920  19.5108730  43.3812250  15.1866740  19.1271760
  55.0944120  30.5827410  19.0123460  55.2696310  29.8965150  18.3684380
  54.3965690  31.1074460  18.6200130  44.0462670  13.7046590  31.7791090
  43.7646940  14.2080190  31.0151910  44.4282370  12.9068340  31.4133220
  42.9371770  30.9722250  16.5658770  43.6690590  30.6881530  16.0182660
  43.1965440  30.7335530  17.4558150  42.0986560  27.0886980  16.5705100
  41.4695440  27.5572080  17.1190930  42.2134390  26.2436200  17.0051290
  50.6478130  13.1200170  32.3571560  50.5343580  13.4394780  33.2523080
  51.4647870  13.5212680  32.0608840  53.4276620  30.2671700  31.8390250
  54.2201940  29.7720930  31.6316210  53.7209770  30.9461840  32.4465860
  49.5536280  21.1392640   2.7206300  49.4730330  20.2247250   2.4498010
  49.1400700  21.6359710   2.0146010  47.6854320  22.9171660   4.6015570
  46.9096420  22.4372100   4.8914140  48.3367250  22.2377310   4.4271730
  41.7020150  23.2291470   5.4791330  40.8705030  22.9740180   5.8787840
  42.3101130  23.3002240   6.2149250  51.7061750  27.3231850   3.3814700
  51.2443280  26.5519090   3.7101870  52.5187300  27.3497920   3.8867150
  41.6821410  27.2631560   5.6749350  41.9849450  26.3729300   5.4959570
  42.4265000  27.8201780   5.4471600  38.0745110  20.7899010   5.1473420
  38.6461220  20.0221210   5.1477060  38.0746650  21.0887770   4.2380030
  47.9325060  29.6089860   3.0018690  47.3136500  30.0647360   2.4313130
  48.7876840  29.7641320   2.6008390  47.1263310  25.5928850   4.6085730
  47.0571590  24.6518790   4.4474860  47.8883170  25.6830260   5.1808300
  39.3169980  16.1983370   6.9342350  39.1372820  15.3009120   7.2145110
  38.9150060  16.7455240   7.6089300  48.1568480  18.3999230   4.8354660
  48.5333300  17.5271110   4.7228330  48.0587990  18.7357930   3.9445100
  51.9392600  15.8949670   1.7683000  52.7602220  15.4046240   1.8108480
  51.9726680  16.4847330   2.5214840  39.9356650  18.6943870   5.5424690
  40.6166760  18.9582240   6.1612090  39.6204700  17.8544740   5.8762700
  44.1281220  19.7411230   4.6297280  44.6359440  20.2392200   5.2702300
  44.6594460  18.9646430   4.4536640  56.2292150  17.9116420   8.3326630
  55.5244320  18.2998130   7.8141740  56.4950070  18.6066710   8.9347560
  42.4117320  14.3809790   8.8960700  42.4135760  14.8982180   8.0906600
  41.5821630  13.9039970   8.8730630  43.6620170  24.0204970   7.0734200
  43.3289550  24.6473890   7.7155270  43.8386850  24.5466850   6.2935870
  52.1754080  17.8350050   4.5410540  51.4709650  18.1234940   5.1213650
  52.5366240  18.6450160   4.1810100  42.0932650  16.0919750   6.9031150
  42.4349460  16.9361800   6.6085020  41.1548460  16.2403490   7.0196490
  42.8739270  25.9885770   8.8883380  43.4913270  26.6636850   8.6067830
  42.0132390  26.3973750   8.7970880  53.7916860  27.4525180   6.8038020
  53.1080380  28.1224290   6.7954690  54.3311150  27.6505830   6.0382880
  55.2441000  17.2804840   4.9319750  54.2965910  17.3143820   5.0635180
  55.5690990  18.0943790   5.3169110  45.7760540  13.5802020   3.2275740
  46.0835520  13.0248910   2.5111240  44.8461240  13.7146480   3.0448730
  51.3275600  29.2969310   5.5183200  51.3402760  28.8931600   4.6505460
  50.7750820  30.0716600   5.4144630  50.7261040  24.1999150   6.8465810
  51.1429830  23.9859260   6.0119270  51.4500860  24.4571940   7.4174430
  54.6723140  22.5986370   6.9382050  53.8441770  22.6679460   6.4632180
  55.2673620  23.1840680   6.4697880  51.6365150  19.3855690   7.8836920
  51.2236330  20.2109400   8.1376910  50.9041100  18.8000730   7.6913280
  43.7697940  22.1715590   2.7455590  43.3654940  21.4592840   2.2501490
  43.8561060  21.8268830   3.6343630  44.2379640  25.8583150   4.9094800
  43.9407930  25.2528620   4.2302580  45.1879460  25.8960460   4.7984160
  42.4826560  18.9458800   6.5254630  43.0341150  19.0554140   5.7507880
  42.9970070  19.3196400   7.2409860  52.3265250  29.4315020   8.5717900
  51.8495810  30.2387210   8.3790510  51.6427040  28.7793350   8.7244110
  43.3298070  25.5964840  11.5602600  42.4326600  25.8204810  11.8076000
  43.3550940  25.7199780  10.6114000  42.1569290  22.4678160  10.1359970
  42.0177060  23.3400960  10.5047370  41.2750650  22.1250970   9.9907910
  43.9549640  28.4099860  12.3445120  43.9265070  28.8142810  11.4773550
  43.7914610  27.4810220  12.1816720  55.9064460  29.1926960  13.6409290
  56.3824180  29.6709850  14.3198370  56.5271620  29.1244450  12.9154790
  38.1087940  24.2375710   6.0530880  38.1868360  24.3724480   5.1086600
  38.7229620  23.5291600   6.2459000  39.3535570  25.9375900   2.4637060
  38.9463650  26.0790490   1.6090660  40.2448580  25.6536060   2.2608270
  55.3097710  26.3839810  10.8009300  55.4360770  26.1451690   9.8826480
  55.3519090  25.5524350  11.2731380  49.1714450  30.0867810   9.3704110
  49.6859120  29.9975820  10.1726540  48.3283530  30.4327510   9.6632020
  55.1621720  18.4372270  11.7659040  54.5465990  18.9451940  11.2374500
  54.8418140  17.5370600  11.7084980  38.1647460  25.2789880   8.5925340
  38.3278500  24.8095240   7.7744710  38.6299910  24.7713440   9.2574180
  42.9366230  14.4095640   3.6285910  42.4934380  15.1905180   3.2970430
  43.4951220  14.7325530   4.3356850  47.2236040  17.2764160   9.2321230
  46.7615410  17.4847180  10.0441170  46.8214150  16.4623510   8.9291900
  52.2240550  18.4973110  10.3617890  51.3734140  18.1978860  10.6826960
  52.0642340  18.7415120   9.4501710  49.3190260  19.9974860  12.4616680
  49.6443670  19.1638610  12.1218910  50.1070590  20.5203380  12.6095010
  44.9742130  14.9542970   5.4875510  45.2714460  15.8605800   5.4067530
  45.5227690  14.4661750   4.8735080  45.1679660  20.4314790  12.0227430
  45.0723260  19.4909520  11.8727830  46.0111640  20.6529860  11.6275500
  40.2990200  16.8428460  10.1761210  39.9053590  17.6903670  10.3833990
  39.6108600  16.2054830  10.3669850  46.8735250  16.9263430  13.2457950
  46.1833570  16.7335630  13.8804040  47.6167550  17.2098070  13.7782250
  37.6007250  14.7656920   4.2091290  37.3120300  15.3359780   4.9216270
  38.3453010  14.2861370   4.5722520  49.1498220  20.7661870   6.0811870
  48.4179340  21.2748680   6.4301970  48.7522560  19.9491850   5.7800650
  45.5875610  17.4416070   4.4864360  45.5911670  17.0006020   3.6368900
  46.4826730  17.7633400   4.5936180  41.4377990  17.3242560   3.4458570
  41.0978040  17.8017790   4.2025620  40.6755310  16.8707680   3.0859670
  49.6124130  16.2195550   5.4934810  49.6296870  16.6704200   6.3376660
  49.3639710  15.3201190   5.7068250  53.0394880  13.6327730  11.3321190
  53.3640650  12.9017390  11.8579170  53.0751390  13.3141370  10.4302180
  39.7386440  24.6541310  10.7521150  39.3541230  24.0134980  11.3504110
  40.0498630  25.3577430  11.3215880  45.8883580  21.5017850   6.2329770
  46.2553710  21.0276420   6.9791110  45.6988640  22.3759420   6.5738110
  38.7524070  16.2461540   2.3623240  38.4670990  15.8817210   3.2001860
  38.6902930  15.5142000   1.7486380  43.6782950  20.5426490   8.5513980
  43.3740020  21.4218470   8.7764340  44.6329410  20.6026280   8.5871420
  52.9652720  23.7452840   4.9407220  53.6851840  24.2408130   4.5503330
  52.7634540  23.0670730   4.2961090  48.3471520  23.8161900  10.8276220
  48.2808830  22.8957570  10.5733810  47.7176660  23.9137340  11.5420860
  42.2502140  24.4167860   2.7859640  42.7680810  23.6136120   2.7316530
  41.7986160  24.3547000   3.6276470  39.7346680  21.3829230   9.6985340
  39.3761620  22.0483080  10.2858680  39.4401240  20.5512780  10.0697960
  42.9359800  21.8413470  12.5824890  42.6359940  21.9870650  11.6852710
  43.7071040  21.2818760  12.4898280  48.2788250  26.6382470  10.5780020
  48.2932790  25.7063430  10.3598930  47.5713350  26.7242230  11.2169790
  54.4899460  23.2789810   9.9248600  53.7647650  23.8718590   9.7277990
  55.0174920  23.2713350   9.1261970  50.0199050  25.0049980   3.4232450
  50.3722870  24.4078110   2.7633820  49.1361380  24.6794210   3.5940700
  47.7122150  28.2800040   7.6720520  48.3564370  28.4859420   8.3493940
  48.0751590  27.5188440   7.2191370  48.9854230  26.2832390   6.3897970
  49.6276460  25.5825550   6.5030140  49.5103580  27.0630830   6.2094860
  50.7591850  27.0827290   9.5934030  51.0948090  27.6693980  10.2711950
  49.8392190  26.9520000   9.8231820  38.3095250  14.8722470  10.3757440
  37.5953770  15.0719390  10.9810050  38.7290290  14.0962040  10.7472240
  38.5967840  28.8602730  11.3623970  38.7058960  27.9197470  11.2219360
  37.9448400  29.1257480  10.7137700  46.5880430  27.1318620  12.7622090
  46.2677300  26.4127860  13.3067780  45.9138790  27.8073690  12.8358150
  49.8034030  17.3644780   8.1258890  50.1714850  16.5439990   8.4538460
  48.9432230  17.4246670   8.5414540  46.7636020  20.0184370   8.3496860
  47.2621270  20.4930190   9.0148710  46.9058970  19.0947890   8.5566890
  53.9702880  16.2352330   9.1925250  53.4676480  16.9757730   9.5319060
  54.7859540  16.6236330   8.8762040  52.2624890  21.4785510   2.6386610
  51.3215030  21.4935740   2.8134300  52.5768960  20.6921470   3.0846910
  54.2650470  28.6494360   4.3140870  54.3897890  29.4725530   4.7864680
  55.1316030  28.4385090   3.9665020  41.7368000  30.7425570   3.9858000
  42.4730480  30.1941030   4.2566570  42.1208920  31.6081580   3.8463990
  40.7426280  29.9271640  13.1743580  41.5439010  30.2483690  13.5878980
  40.2278100  29.5667220  13.8963490  49.5790910  26.0351510  13.1218990
  48.9729070  26.0583110  12.3814740  49.2745020  25.3034550  13.6586240
  51.0091280  29.7631800  11.7328400  51.9613030  29.6789820  11.6828640
  50.8619500  30.4273510  12.4062190  38.4624090  22.4145100  12.1179630
  38.9663110  21.8352380  12.6895860  37.7231510  22.6985330  12.6556000
  45.5162030  23.8216090  11.6515150  44.7507700  24.3901090  11.5669820
  45.6977990  23.5292300  10.7583380  52.6585380  25.5521420  12.2090170
  53.3994850  25.8897180  11.7057630  51.8958060  25.7213480  11.6559940
  40.4947170  20.5574690  13.0129700  40.5352510  20.2588560  13.9214930
  41.3492670  20.9582300  12.8537220  42.4352980  19.1366790  10.9804190
  41.9049440  18.6457740  10.3527530  43.1041050  19.5650990  10.4462120
  51.3331040  23.6036250  10.7445380  51.7472060  23.7581330  11.5935800
  50.3982040  23.7291470  10.9071160  51.8053210  20.9432410  12.7484530
  52.3873980  20.1884730  12.6605010  51.9814980  21.4739850  11.9716010
  42.9225280  16.1029160  11.0601480  42.8282150  15.4849910  10.3352350
  42.3422670  16.8295450  10.8331390  45.6886720  14.6602400   8.0928870
  45.2404020  14.6826660   7.2474420  45.0551920  14.2621420   8.6899170
  46.0946270  23.5556730   8.7141310  46.5134380  24.3989460   8.5417550
  45.1754900  23.6928770   8.4848090  48.4310170  21.2872910  10.0979150
  48.5506380  20.6914050  10.8373990  49.2904170  21.3242600   9.6780450
  50.7698070  21.8410100   8.6741660  50.2433290  22.3652720   8.0706800
  51.1129410  22.4737490   9.3051390  43.9453690  29.8609740   9.8299040
  43.4074780  30.5855800   9.5107740  44.1987650  29.3840080   9.0396380
  45.1978940  17.8294260  11.3554970  45.7878630  17.5210110  12.0432790
  44.3799180  17.3574010  11.5114870  50.0172370  17.4460070  11.5887990
  49.3287890  16.7841610  11.5237980  50.7378390  16.9998340  12.0336450
  46.8015900  31.0960950  10.0885690  46.7274600  31.9996090  10.3958060
  45.8994740  30.7772850  10.0607760  38.2043190  28.4235540   3.3919310
  38.5346200  27.5556600   3.1597950  38.6334190  28.6294060   4.2224270
  38.6933400  29.2906130   6.1300940  38.2564390  29.4706930   6.9625090
  39.2611080  30.0480750   5.9882660  54.3295580  28.7923130  10.4178250
  53.7297570  28.8515690   9.6742170  54.4589480  27.8528110  10.5475100
  38.5257830  21.8026360   2.4889820  37.8706670  21.5338000   1.8449520
  39.3635780  21.6930840   2.0391800  56.0313460  24.1338530   3.1024090
  56.4022290  23.3505850   2.6960060  56.6715390  24.8227630   2.9241390
  53.0147220  25.5175110   8.5154410  52.2007060  25.9472270   8.7780200
  53.4221420  26.1293520   7.9023460  39.5633760  22.1878930   7.0293160
  39.9306800  22.1006330   7.9089180  38.9944580  21.4245480   6.9300020
  54.3637620  20.6563310  10.0423630  54.1323710  20.4276060   9.1421580
  54.6242170  21.5762860   9.9968520  39.1149760  19.0988020  10.9351580
  38.2205810  19.0654780  11.2745290  39.6547310  19.2974810  11.7002830
  52.8025690  15.8819740  12.8203330  53.6795870  15.8903140  13.2037330
  52.8146530  15.1450580  12.2095680  54.2488960  19.7349280   3.7091350
  54.7726440  19.2411930   3.0781520  54.8348380  19.8699640   4.4538920
  54.4278680  19.8189150   7.2310900  53.4781390  19.7852690   7.3455890
  54.6091690  20.7289260   6.9960670  39.6189470  13.3736350   5.2834800
  40.2665660  12.8233730   4.8429960  40.0391310  13.6279500   6.1050610
  55.1676090  17.6283580   2.1821440  55.0575370  17.4739620   3.1203710
  55.9283680  17.1004520   1.9396850  53.5141810  13.5677710   8.6404440
  54.1514030  14.1811850   9.0063630  53.6616700  13.6038370   7.6953670
  39.3721470  13.5292020   8.0260120  39.0236290  13.9855840   8.7918300
  39.0409170  12.6349150   8.1082550  40.9785840  26.7011620  12.1913310
  40.9355470  26.3304530  13.0727770  41.1096850  27.6389190  12.3315130
  44.6791870  28.2571210   7.7923030  44.4383230  28.5245770   6.9053550
  45.6194510  28.4276940   7.8473890  46.8846290  14.7203900  11.5479540
  46.8235180  15.3125730  12.2974950  47.8246670  14.6129860  11.4029800
  49.5220850  14.3773960  11.1871830  50.1361260  14.6953250  10.5252910
  50.0670410  13.8922550  11.8067690  55.9396030  30.2765590   8.5933670
  55.4454310  30.6734460   7.8760800  55.3309320  29.6514800   8.9870950
  40.0442110  13.0568220  11.3010890  40.5925100  12.8756270  10.5377000
  40.1097420  12.2662330  11.8367200  40.8173870  29.6473870   9.3111090
  40.2234190  29.5158570  10.0501130  40.8097710  28.8112010   8.8453190
  50.2628890  12.9406100   7.5141120  49.3888730  13.2741210   7.3114050
  50.1539640  12.4679280   8.3392990  51.1700870  15.1476970   8.8982840
  50.8414230  14.3328730   8.5184570  52.1183170  15.1046780   8.7748530
  53.6235480  30.9189010   5.8720410  53.1638450  31.6704820   5.4978430
  52.9947940  30.1995480   5.8135210  40.4486100  27.0132250   8.2619130
  39.7220160  26.3937540   8.1945080  40.5095250  27.4072860   7.3917210
  44.0531200  29.2277250   5.0468540  44.5696220  28.6164610   4.5216800
  44.7028580  29.7306030   5.5379550  46.7926700  30.1185740   5.8737520
  47.0804510  29.8640040   4.9970530  47.3049920  29.5663100   6.4643090
  48.0103710  13.8575940   6.4534030  47.2275500  14.3321440   6.7330790
  47.7166640  12.9530770   6.3447210  52.5624780  14.5599040   4.4983120
  53.0032870  14.5044140   3.6504720  52.2932370  15.4757050   4.5693300
  54.4263350  14.1914280   2.5091940  54.3651750  13.2475500   2.3622960
  55.2055380  14.2994370   3.0545400  45.8957930  16.2762690   1.9650060
  45.0832440  15.9019580   1.6245940  46.3999570  15.5207770   2.2671250
  50.3982910  12.9405140   3.2033130  51.0012280  13.5125350   3.6781650
  49.6575900  13.5044580   2.9807030  46.8599060  31.0401840  13.2405720
  47.7866370  30.8046110  13.2841680  46.8449490  31.8673840  12.7591750
  44.0462670  13.7046590  13.0047600  43.7646940  14.2080190  12.2408420
  44.4282370  12.9068340  12.6389730  50.6478130  13.1200170  13.5828070
  50.5343580  13.4394780  14.4779590  51.4647870  13.5212680  13.2865350
  53.4276620  30.2671700  13.0646760  54.2201940  29.7720930  12.8572720
  53.7209770  30.9461840  13.6722370  47.6854320   4.1428170  79.6989530
  46.9096420   3.6628610  79.9888100  48.3367250   3.4633820  79.5245690
  41.7020150   4.4547980  80.5765290  40.8705030   4.1996690  80.9761800
  42.3101130   4.5258750  81.3123210  51.7061750   8.5488360  78.4788660
  51.2443280   7.7775600  78.8075830  52.5187300   8.5754430  78.9841110
  41.6821410   8.4888070  80.7723310  41.9849450   7.5985810  80.5933530
  42.4265000   9.0458290  80.5445560  47.9325060  10.8346370  78.0992650
  47.3136500  11.2903870  77.5287090  48.7876840  10.9897830  77.6982350
  47.1263310   6.8185360  79.7059690  47.0571590   5.8775300  79.5448820
  47.8883170   6.9086770  80.2782260  48.7988410   5.7185610  75.4924560
  48.1805680   6.1835060  74.9287280  49.3111660   6.4113090  75.9094070
  38.1671610   6.4042140  72.8664190  37.7899590   6.8929240  72.1349090
  38.4244680   7.0767420  73.4970720  53.7916860   8.6781690  81.9011980
  53.1080380   9.3480800  81.8928650  54.3311150   8.8762340  81.1356840
  51.3275600  10.5225820  80.6157160  51.3402760  10.1188110  79.7479420
  50.7750820  11.2973110  80.5118590  52.6221020   7.2442040  75.7047330
  52.5117350   6.3016370  75.8296750  52.6189270   7.6057680  76.5910090
  48.1641300   2.8707360  75.0609820  47.2370580   2.8044740  75.2898290
  48.3166120   3.8087490  74.9465060  54.6723140   3.8242880  82.0356010
  53.8441770   3.8935970  81.5606140  55.2673620   4.4097190  81.5671840
  52.1938590   4.4327660  75.5645070  51.5751010   4.0947210  74.9171370
  52.1763040   3.7887420  76.2724260  43.7697940   3.3972100  77.8429550
  43.3654940   2.6849350  77.3475450  43.8561060   3.0525340  78.7317590
  44.2379640   7.0839660  80.0068760  43.9407930   6.4785130  79.3276540
  45.1879460   7.1216970  79.8958120  50.3703290   3.6714470  72.5717820
  50.8096570   2.8336900  72.4255640  51.0831710   4.3043870  72.6581960
  48.4798670   8.6110540  76.5399060  48.9194580   9.3534870  76.1254450
  48.4185560   8.8537110  77.4638020  38.1087940   5.4632220  81.1504840
  38.1868360   5.5980990  80.2060560  38.7229620   4.7548110  81.3432960
  39.3535570   7.1632410  77.5611020  38.9463650   7.3047000  76.7064620
  40.2448580   6.8792570  77.3582230  51.1468850  11.5979660  73.8962070
  50.9869990  11.3082600  74.7943900  50.9815560  10.8219790  73.3607300
  43.6257230  11.3778190  75.6733690  43.4499710  10.4613730  75.4601490
  42.7712970  11.7365480  75.9131490  50.8494980   9.1067220  72.4560070
  50.1560140   9.1044510  71.7962350  51.5917840   8.6826540  72.0254240
  50.4144910  10.7329930  76.5308560  50.8701860   9.9519310  76.8447180
  50.7537430  11.4436750  77.0749740  45.8883580   2.7274360  81.3303730
  46.2553710   2.2532930  82.0765070  45.6988640   3.6015930  81.6712070
  42.2064740   5.9743990  74.2454790  41.4327000   5.4341610  74.0853510
  42.9359370   5.4550600  73.9072550  52.9652720   4.9709350  80.0381180
  53.6851840   5.4664640  79.6477290  52.7634540   4.2927240  79.3935050
  42.2502140   5.6424370  77.8833600  42.7680810   4.8392630  77.8290490
  41.7986160   5.5803510  78.7250430  47.1371640   6.9090650  73.1560900
  47.4787340   7.6532880  72.6604220  46.3084350   7.2221770  73.5185730
  53.4125320   2.0478800  71.9452590  53.3289040   2.4793020  71.0949030
  54.1319510   2.5077150  72.3779410  54.4412570   8.9021060  74.6734720
  53.7988730   8.2476680  74.9478440  54.0543230   9.3076150  73.8975390
  50.0199050   6.2306490  78.5206410  50.3722870   5.6334620  77.8607780
  49.1361380   5.9050720  78.6914660  46.1062330   6.9904180  75.9276820
  46.7933460   7.5373390  76.3084410  45.3194750   7.5344910  75.9626430
  38.2454730   2.6077000  71.4193900  39.1149580   2.8901800  71.7029820
  37.7545050   3.4212870  71.3042710  45.4089540   3.9950210  75.5402180
  45.8652320   4.8055460  75.7662370  45.0577750   3.6773350  76.3720670
  48.9854230   7.5088900  81.4871930  49.6276460   6.8082060  81.6004100
  49.5103580   8.2887340  81.3068820  52.8309950   7.7937520  71.2111070
  52.6047530   7.0767960  71.8035710  52.4406150   7.5449960  70.3732820
  38.6125980  11.8204380  71.9855530  38.9723620  12.4193720  71.3312800
  38.4718320  12.3664270  72.7590560  52.4126200   5.7109460  72.8725230
  52.1247900   6.1722150  73.6603110  53.2078370   5.2507230  73.1409450
  44.6294600   9.2035580  72.8029200  44.6204700   9.9365270  72.1873710
  43.7092960   8.9567160  72.8956160  40.2301240   4.4250470  73.5475960
  39.6229190   5.1649370  73.5571260  40.7050590   4.5149830  72.7214160
  47.6154200   9.2663820  71.4654390  47.7166180   9.0627810  70.5356370
  46.7155940   9.0122100  71.6702170  46.2572310  11.7850140  76.1602060
  46.5113810  11.7471530  75.2381430  45.3084790  11.6583470  76.1530310
  52.2624890   2.7042020  77.7360570  51.3215030   2.7192250  77.9108260
  52.5768960   1.9177980  78.1820870  42.2406530   4.3861620  71.2964530
  43.0069800   4.2742980  71.8589960  42.3181220   3.6899590  70.6441300
  54.2650470   9.8750870  79.4114830  54.3897890  10.6982040  79.8838640
  55.1316030   9.6641600  79.0638980  41.7368000  11.9682080  79.0831960
  42.4730480  11.4197540  79.3540530  42.1208920  12.8338090  78.9437950
  38.6213480   8.0355650  74.9573470  37.6953260   8.2776790  74.9478880
  39.0869910   8.8629910  74.8358220  44.8470310  11.1412390  70.9057530
  45.6398920  11.4301220  70.4539320  44.3274660  10.7104560  70.2270010
  53.9000480  10.3682520  72.3294270  53.6141990   9.9547660  71.5148450
  53.7020030  11.2970230  72.2094790  45.3647710   6.3615800  70.7699880
  45.2598350   5.7468150  71.4961260  45.1971930   5.8381690  69.9862890
  48.6050440   5.4235830  71.3741870  48.0560540   5.8705130  72.0184610
  49.2269700   4.9185080  71.8979540  44.2725560   4.3826750  73.2707170
  44.6941980   4.2166620  74.1138560  44.3976400   3.5726980  72.7762310
  46.7853200   3.4064360  70.5184270  47.3058860   2.6913380  70.1525420
  47.4321600   4.0450230  70.8184780  47.3501230  11.4875970  72.8086010
  48.2452020  11.8260940  72.8304770  47.3818860  10.7655380  72.1810290
  40.9897390   6.8603020  71.0373010  41.4272260   7.4032690  71.6930590
  41.4745120   6.0349970  71.0469350  38.2043190   9.6492050  78.4893270
  38.5346200   8.7813110  78.2571910  38.6334190   9.8550570  79.3198230
  42.8005110   7.9801060  76.1495240  42.5000650   7.8566030  77.0499150
  42.6942600   7.1209650  75.7410970  38.6933400  10.5162640  81.2274900
  38.2564390  10.6963440  82.0599050  39.2611080  11.2737260  81.0856620
  55.5697030   7.7597460  70.8521920  54.7389990   7.8274110  71.3229150
  55.7468860   8.6501580  70.5488780  55.0253490   4.5044940  73.3556120
  55.7872400   5.0741590  73.4615810  55.0407860   3.9372140  74.1264430
  38.5257830   3.0282870  77.5863780  37.8706670   2.7594510  76.9423480
  39.3635780   2.9187350  77.1365760  56.0313460   5.3595040  78.1998050
  56.4022290   4.5762360  77.7934020  56.6715390   6.0484140  78.0215350
  55.0772660   4.7979310  70.5128640  55.3521500   5.7058190  70.3847860
  54.8883400   4.7341840  71.4490630  54.9738000   2.7348300  75.5058070
  54.5981600   1.9676230  75.0739360  54.2441120   3.1171000  75.9933000
  53.0723270  11.4950220  77.1396640  53.6682340  11.1734790  76.4631060
  53.3301420  11.0222040  77.9309910  53.6235480  12.1445520  80.9694370
  53.1638450  12.8961330  80.5952390  52.9947940  11.4251990  80.9109170
  44.0531200  10.4533760  80.1442500  44.5696220   9.8421120  79.6190760
  44.7028580  10.9562540  80.6353510  46.7926700  11.3442250  80.9711480
  47.0804510  11.0896550  80.0944490  47.3049920  10.7919610  81.5617050
  38.7316100  11.5563150  76.5689850  38.5638140  10.9233830  77.2671740
  37.8650610  11.7622550  76.2184040  40.3378800  10.2496380  74.0139990
  39.8126420  10.6304410  73.3101950  40.2623380  10.8747150  74.7349700
  55.0944120  11.8083920  75.3353930  55.2696310  11.1221660  74.6914850
  54.3965690  12.3330970  74.9430600  42.9371770  12.1978760  72.8889240
  43.6690590  11.9138040  72.3413130  43.1965440  11.9592040  73.7788620
  42.0986560   8.3143490  72.8935570  41.4695440   8.7828590  73.4421400
  42.2134390   7.4692710  73.3281760  47.6854320   4.1428170  60.9246040
  46.9096420   3.6628610  61.2144610  48.3367250   3.4633820  60.7502200
  41.7020150   4.4547980  61.8021800  40.8705030   4.1996690  62.2018310
  42.3101130   4.5258750  62.5379720  51.7061750   8.5488360  59.7045170
  51.2443280   7.7775600  60.0332340  52.5187300   8.5754430  60.2097620
  41.6821410   8.4888070  61.9979820  41.9849450   7.5985810  61.8190040
  42.4265000   9.0458290  61.7702070  47.9325060  10.8346370  59.3249160
  47.3136500  11.2903870  58.7543600  48.7876840  10.9897830  58.9238860
  47.1263310   6.8185360  60.9316200  47.0571590   5.8775300  60.7705330
  47.8883170   6.9086770  61.5038770  48.7988410   5.7185610  56.7181070
  48.1805680   6.1835060  56.1543790  49.3111660   6.4113090  57.1350580
  43.6620170   5.2461480  63.3964670  43.3289550   5.8730400  64.0385740
  43.8386850   5.7723360  62.6166340  42.8739270   7.2142280  65.2113850
  43.4913270   7.8893360  64.9298300  42.0132390   7.6230260  65.1201350
  38.1671610   6.4042140  54.0920700  37.7899590   6.8929240  53.3605600
  38.4244680   7.0767420  54.7227230  53.7916860   8.6781690  63.1268490
  53.1080380   9.3480800  63.1185160  54.3311150   8.8762340  62.3613350
  51.3275600  10.5225820  61.8413670  51.3402760  10.1188110  60.9735930
  50.7750820  11.2973110  61.7375100  52.6221020   7.2442040  56.9303840
  52.5117350   6.3016370  57.0553260  52.6189270   7.6057680  57.8166600
  50.7261040   5.4255660  63.1696280  51.1429830   5.2115770  62.3349740
  51.4500860   5.6828450  63.7404900  48.1641300   2.8707360  56.2866330
  47.2370580   2.8044740  56.5154800  48.3166120   3.8087490  56.1721570
  54.6723140   3.8242880  63.2612520  53.8441770   3.8935970  62.7862650
  55.2673620   4.4097190  62.7928350  52.1938590   4.4327660  56.7901580
  51.5751010   4.0947210  56.1427880  52.1763040   3.7887420  57.4980770
  43.7697940   3.3972100  59.0686060  43.3654940   2.6849350  58.5731960
  43.8561060   3.0525340  59.9574100  44.2379640   7.0839660  61.2325270
  43.9407930   6.4785130  60.5533050  45.1879460   7.1216970  61.1214630
  52.3265250  10.6571530  64.8948370  51.8495810  11.4643720  64.7020980
  51.6427040  10.0049860  65.0474580  43.3298070   6.8221350  67.8833070
  42.4326600   7.0461320  68.1306470  43.3550940   6.9456290  66.9344470
  50.3703290   3.6714470  53.7974330  50.8096570   2.8336900  53.6512150
  51.0831710   4.3043870  53.8838470  42.1569290   3.6934670  66.4590440
  42.0177060   4.5657470  66.8277840  41.2750650   3.3507480  66.3138380
  48.4798670   8.6110540  57.7655570  48.9194580   9.3534870  57.3510960
  48.4185560   8.8537110  58.6894530  43.9549640   9.6356370  68.6675590
  43.9265070  10.0399320  67.8004020  43.7914610   8.7066730  68.5047190
  55.9064460  10.4183470  69.9639760  56.3824180  10.8966360  70.6428840
  56.5271620  10.3500960  69.2385260  38.1087940   5.4632220  62.3761350
  38.1868360   5.5980990  61.4317070  38.7229620   4.7548110  62.5689470
  39.3535570   7.1632410  58.7867530  38.9463650   7.3047000  57.9321130
  40.2448580   6.8792570  58.5838740  55.3097710   7.6096320  67.1239770
  55.4360770   7.3708200  66.2056950  55.3519090   6.7780860  67.5961850
  49.1714450  11.3124320  65.6934580  49.6859120  11.2232330  66.4957010
  48.3283530  11.6584020  65.9862490  51.1468850  11.5979660  55.1218580
  50.9869990  11.3082600  56.0200410  50.9815560  10.8219790  54.5863810
  43.6257230  11.3778190  56.8990200  43.4499710  10.4613730  56.6858000
  42.7712970  11.7365480  57.1388000  50.8494980   9.1067220  53.6816580
  50.1560140   9.1044510  53.0218860  51.5917840   8.6826540  53.2510750
  50.4144910  10.7329930  57.7565070  50.8701860   9.9519310  58.0703690
  50.7537430  11.4436750  58.3006250  38.1647460   6.5046390  64.9155810
  38.3278500   6.0351750  64.0975180  38.6299910   5.9969950  65.5804650
  39.7386440   5.8797820  67.0751620  39.3541230   5.2391490  67.6734580
  40.0498630   6.5833940  67.6446350  45.8883580   2.7274360  62.5560240
  46.2553710   2.2532930  63.3021580  45.6988640   3.6015930  62.8968580
  43.6782950   1.7683000  64.8744450  43.3740020   2.6474980  65.0994810
  44.6329410   1.8282790  64.9101890  42.2064740   5.9743990  55.4711300
  41.4327000   5.4341610  55.3110020  42.9359370   5.4550600  55.1329060
  52.9652720   4.9709350  61.2637690  53.6851840   5.4664640  60.8733800
  52.7634540   4.2927240  60.6191560  48.3471520   5.0418410  67.1506690
  48.2808830   4.1214080  66.8964280  47.7176660   5.1393850  67.8651330
  42.2502140   5.6424370  59.1090110  42.7680810   4.8392630  59.0547000
  41.7986160   5.5803510  59.9506940  47.1371640   6.9090650  54.3817410
  47.4787340   7.6532880  53.8860730  46.3084350   7.2221770  54.7442240
  39.7346680   2.6085740  66.0215810  39.3761620   3.2739590  66.6089150
  39.4401240   1.7769290  66.3928430  42.9359800   3.0669980  68.9055360
  42.6359940   3.2127160  68.0083180  43.7071040   2.5075270  68.8128750
  48.2788250   7.8638980  66.9010490  48.2932790   6.9319940  66.6829400
  47.5713350   7.9498740  67.5400260  53.4125320   2.0478800  53.1709100
  53.3289040   2.4793020  52.3205540  54.1319510   2.5077150  53.6035920
  54.4899460   4.5046320  66.2479070  53.7647650   5.0975100  66.0508460
  55.0174920   4.4969860  65.4492440  54.4412570   8.9021060  55.8991230
  53.7988730   8.2476680  56.1734950  54.0543230   9.3076150  55.1231900
  50.0199050   6.2306490  59.7462920  50.3722870   5.6334620  59.0864290
  49.1361380   5.9050720  59.9171170  46.1062330   6.9904180  57.1533330
  46.7933460   7.5373390  57.5340920  45.3194750   7.5344910  57.1882940
  38.2454730   2.6077000  52.6450410  39.1149580   2.8901800  52.9286330
  37.7545050   3.4212870  52.5299220  45.4089540   3.9950210  56.7658690
  45.8652320   4.8055460  56.9918880  45.0577750   3.6773350  57.5977180
  47.7122150   9.5056550  63.9950990  48.3564370   9.7115930  64.6724410
  48.0751590   8.7444950  63.5421840  48.9854230   7.5088900  62.7128440
  49.6276460   6.8082060  62.8260610  49.5103580   8.2887340  62.5325330
  52.8309950   7.7937520  52.4367580  52.6047530   7.0767960  53.0292220
  52.4406150   7.5449960  51.5989330  50.7591850   8.3083800  65.9164500
  51.0948090   8.8950490  66.5942420  49.8392190   8.1776510  66.1462290
  38.6125980  11.8204380  53.2112040  38.9723620  12.4193720  52.5569310
  38.4718320  12.3664270  53.9847070  52.4126200   5.7109460  54.0981740
  52.1247900   6.1722150  54.8859620  53.2078370   5.2507230  54.3665960
  38.5967840  10.0859240  67.6854440  38.7058960   9.1453980  67.5449830
  37.9448400  10.3513990  67.0368170  46.5880430   8.3575130  69.0852560
  46.2677300   7.6384370  69.6298250  45.9138790   9.0330200  69.1588620
  44.6294600   9.2035580  54.0285710  44.6204700   9.9365270  53.4130220
  43.7092960   8.9567160  54.1212670  40.2301240   4.4250470  54.7732470
  39.6229190   5.1649370  54.7827770  40.7050590   4.5149830  53.9470670
  47.6154200   9.2663820  52.6910900  47.7166180   9.0627810  51.7612880
  46.7155940   9.0122100  52.8958680  46.2572310  11.7850140  57.3858570
  46.5113810  11.7471530  56.4637940  45.3084790  11.6583470  57.3786820
  52.2624890   2.7042020  58.9617080  51.3215030   2.7192250  59.1364770
  52.5768960   1.9177980  59.4077380  42.2406530   4.3861620  52.5221040
  43.0069800   4.2742980  53.0846470  42.3181220   3.6899590  51.8697810
  54.2650470   9.8750870  60.6371340  54.3897890  10.6982040  61.1095150
  55.1316030   9.6641600  60.2895490  41.7368000  11.9682080  60.3088470
  42.4730480  11.4197540  60.5797040  42.1208920  12.8338090  60.1694460
  38.6213480   8.0355650  56.1829980  37.6953260   8.2776790  56.1735390
  39.0869910   8.8629910  56.0614730  40.7426280  11.1528150  69.4974050
  41.5439010  11.4740200  69.9109450  40.2278100  10.7923730  70.2193960
  44.8470310  11.1412390  52.1314040  45.6398920  11.4301220  51.6795830
  44.3274660  10.7104560  51.4526520  49.5790910   7.2608020  69.4449460
  48.9729070   7.2839620  68.7045210  49.2745020   6.5291060  69.9816710
  51.0091280  10.9888310  68.0558870  51.9613030  10.9046330  68.0059110
  50.8619500  11.6530020  68.7292660  53.9000480  10.3682520  53.5550780
  53.6141990   9.9547660  52.7404960  53.7020030  11.2970230  53.4351300
  38.4624090   3.6401610  68.4410100  38.9663110   3.0608890  69.0126330
  37.7231510   3.9241840  68.9786470  45.3647710   6.3615800  51.9956390
  45.2598350   5.7468150  52.7217770  45.1971930   5.8381690  51.2119400
  45.5162030   5.0472600  67.9745620  44.7507700   5.6157600  67.8900290
  45.6977990   4.7548810  67.0813850  48.6050440   5.4235830  52.5998380
  48.0560540   5.8705130  53.2441120  49.2269700   4.9185080  53.1236050
  52.6585380   6.7777930  68.5320640  53.3994850   7.1153690  68.0288100
  51.8958060   6.9469990  67.9790410  44.2725560   4.3826750  54.4963680
  44.6941980   4.2166620  55.3395070  44.3976400   3.5726980  54.0018820
  46.7853200   3.4064360  51.7440780  47.3058860   2.6913380  51.3781930
  47.4321600   4.0450230  52.0441290  51.3331040   4.8292760  67.0675850
  51.7472060   4.9837840  67.9166270  50.3982040   4.9547980  67.2301630
  46.0946270   4.7813240  65.0371780  46.5134380   5.6245970  64.8648020
  45.1754900   4.9185280  64.8078560  48.4310170   2.5129420  66.4209620
  48.5506380   1.9170560  67.1604460  49.2904170   2.5499110  66.0010920
  50.7698070   3.0666610  64.9972130  50.2433290   3.5909230  64.3937270
  51.1129410   3.6994000  65.6281860  43.9453690  11.0866250  66.1529510
  43.4074780  11.8112310  65.8338210  44.1987650  10.6096590  65.3626850
  46.8015900  12.3217460  66.4116160  46.7274600  13.2252600  66.7188530
  45.8994740  12.0029360  66.3838230  47.3501230  11.4875970  54.0342520
  48.2452020  11.8260940  54.0561280  47.3818860  10.7655380  53.4066800
  40.9897390   6.8603020  52.2629520  41.4272260   7.4032690  52.9187100
  41.4745120   6.0349970  52.2725860  38.2043190   9.6492050  59.7149780
  38.5346200   8.7813110  59.4828420  38.6334190   9.8550570  60.5454740
  42.8005110   7.9801060  57.3751750  42.5000650   7.8566030  58.2755660
  42.6942600   7.1209650  56.9667480  38.6933400  10.5162640  62.4531410
  38.2564390  10.6963440  63.2855560  39.2611080  11.2737260  62.3113130
  54.3295580  10.0179640  66.7408720  53.7297570  10.0772200  65.9972640
  54.4589480   9.0784620  66.8705570  55.5697030   7.7597460  52.0778430
  54.7389990   7.8274110  52.5485660  55.7468860   8.6501580  51.7745290
  55.0253490   4.5044940  54.5812630  55.7872400   5.0741590  54.6872320
  55.0407860   3.9372140  55.3520940  38.5257830   3.0282870  58.8120290
  37.8706670   2.7594510  58.1679990  39.3635780   2.9187350  58.3622270
  56.0313460   5.3595040  59.4254560  56.4022290   4.5762360  59.0190530
  56.6715390   6.0484140  59.2471860  53.0147220   6.7431620  64.8384880
  52.2007060   7.1728780  65.1010670  53.4221420   7.3550030  64.2253930
  55.0772660   4.7979310  51.7385150  55.3521500   5.7058190  51.6104370
  54.8883400   4.7341840  52.6747140  54.9738000   2.7348300  56.7314580
  54.5981600   1.9676230  56.2995870  54.2441120   3.1171000  57.2189510
  39.5633760   3.4135440  63.3523630  39.9306800   3.3262840  64.2319650
  38.9944580   2.6501990  63.2530490  53.0723270  11.4950220  58.3653150
  53.6682340  11.1734790  57.6887570  53.3301420  11.0222040  59.1566420
  40.9785840   7.9268130  68.5143780  40.9355470   7.5561040  69.3958240
  41.1096850   8.8645700  68.6545600  44.6791870   9.4827720  64.1153500
  44.4383230   9.7502280  63.2284020  45.6194510   9.6533450  64.1704360
  55.9396030  11.5022100  64.9164140  55.4454310  11.8990970  64.1991270
  55.3309320  10.8771310  65.3101420  40.8173870  10.8730380  65.6341560
  40.2234190  10.7415080  66.3731600  40.8097710  10.0368520  65.1683660
  53.6235480  12.1445520  62.1950880  53.1638450  12.8961330  61.8208900
  52.9947940  11.4251990  62.1365680  40.4486100   8.2388760  64.5849600
  39.7220160   7.6194050  64.5175550  40.5095250   8.6329370  63.7147680
  44.0531200  10.4533760  61.3699010  44.5696220   9.8421120  60.8447270
  44.7028580  10.9562540  61.8610020  46.7926700  11.3442250  62.1967990
  47.0804510  11.0896550  61.3201000  47.3049920  10.7919610  62.7873560
  38.7316100  11.5563150  57.7946360  38.5638140  10.9233830  58.4928250
  37.8650610  11.7622550  57.4440550  40.3378800  10.2496380  55.2396500
  39.8126420  10.6304410  54.5358460  40.2623380  10.8747150  55.9606210
  46.8599060  12.2658350  69.5636190  47.7866370  12.0302620  69.6072150
  46.8449490  13.0930350  69.0822220  55.0944120  11.8083920  56.5610440
  55.2696310  11.1221660  55.9171360  54.3965690  12.3330970  56.1687110
  42.9371770  12.1978760  54.1145750  43.6690590  11.9138040  53.5669640
  43.1965440  11.9592040  55.0045130  42.0986560   8.3143490  54.1192080
  41.4695440   8.7828590  54.6677910  42.2134390   7.4692710  54.5538270
  53.4276620  11.4928210  69.3877230  54.2201940  10.9977440  69.1803190
  53.7209770  12.1718350  69.9952840  47.6854320   4.1428170  42.1502550
  46.9096420   3.6628610  42.4401120  48.3367250   3.4633820  41.9758710
  41.7020150   4.4547980  43.0278310  40.8705030   4.1996690  43.4274820
  42.3101130   4.5258750  43.7636230  51.7061750   8.5488360  40.9301680
  51.2443280   7.7775600  41.2588850  52.5187300   8.5754430  41.4354130
  41.6821410   8.4888070  43.2236330  41.9849450   7.5985810  43.0446550
  42.4265000   9.0458290  42.9958580  47.9325060  10.8346370  40.5505670
  47.3136500  11.2903870  39.9800110  48.7876840  10.9897830  40.1495370
  47.1263310   6.8185360  42.1572710  47.0571590   5.8775300  41.9961840
  47.8883170   6.9086770  42.7295280  48.7988410   5.7185610  37.9437580
  48.1805680   6.1835060  37.3800300  49.3111660   6.4113090  38.3607090
  43.6620170   5.2461480  44.6221180  43.3289550   5.8730400  45.2642250
  43.8386850   5.7723360  43.8422850  42.8739270   7.2142280  46.4370360
  43.4913270   7.8893360  46.1554810  42.0132390   7.6230260  46.3457860
  38.1671610   6.4042140  35.3177210  37.7899590   6.8929240  34.5862110
  38.4244680   7.0767420  35.9483740  53.7916860   8.6781690  44.3525000
  53.1080380   9.3480800  44.3441670  54.3311150   8.8762340  43.5869860
  51.3275600  10.5225820  43.0670180  51.3402760  10.1188110  42.1992440
  50.7750820  11.2973110  42.9631610  52.6221020   7.2442040  38.1560350
  52.5117350   6.3016370  38.2809770  52.6189270   7.6057680  39.0423110
  50.7261040   5.4255660  44.3952790  51.1429830   5.2115770  43.5606250
  51.4500860   5.6828450  44.9661410  48.1641300   2.8707360  37.5122840
  47.2370580   2.8044740  37.7411310  48.3166120   3.8087490  37.3978080
  54.6723140   3.8242880  44.4869030  53.8441770   3.8935970  44.0119160
  55.2673620   4.4097190  44.0184860  52.1938590   4.4327660  38.0158090
  51.5751010   4.0947210  37.3684390  52.1763040   3.7887420  38.7237280
  43.7697940   3.3972100  40.2942570  43.3654940   2.6849350  39.7988470
  43.8561060   3.0525340  41.1830610  44.2379640   7.0839660  42.4581780
  43.9407930   6.4785130  41.7789560  45.1879460   7.1216970  42.3471140
  52.3265250  10.6571530  46.1204880  51.8495810  11.4643720  45.9277490
  51.6427040  10.0049860  46.2731090  43.3298070   6.8221350  49.1089580
  42.4326600   7.0461320  49.3562980  43.3550940   6.9456290  48.1600980
  50.3703290   3.6714470  35.0230840  50.8096570   2.8336900  34.8768660
  51.0831710   4.3043870  35.1094980  42.1569290   3.6934670  47.6846950
  42.0177060   4.5657470  48.0534350  41.2750650   3.3507480  47.5394890
  48.4798670   8.6110540  38.9912080  48.9194580   9.3534870  38.5767470
  48.4185560   8.8537110  39.9151040  43.9549640   9.6356370  49.8932100
  43.9265070  10.0399320  49.0260530  43.7914610   8.7066730  49.7303700
  55.9064460  10.4183470  51.1896270  56.3824180  10.8966360  51.8685350
  56.5271620  10.3500960  50.4641770  38.1087940   5.4632220  43.6017860
  38.1868360   5.5980990  42.6573580  38.7229620   4.7548110  43.7945980
  39.3535570   7.1632410  40.0124040  38.9463650   7.3047000  39.1577640
  40.2448580   6.8792570  39.8095250  55.3097710   7.6096320  48.3496280
  55.4360770   7.3708200  47.4313460  55.3519090   6.7780860  48.8218360
  49.1714450  11.3124320  46.9191090  49.6859120  11.2232330  47.7213520
  48.3283530  11.6584020  47.2119000  51.1468850  11.5979660  36.3475090
  50.9869990  11.3082600  37.2456920  50.9815560  10.8219790  35.8120320
  43.6257230  11.3778190  38.1246710  43.4499710  10.4613730  37.9114510
  42.7712970  11.7365480  38.3644510  50.8494980   9.1067220  34.9073090
  50.1560140   9.1044510  34.2475370  51.5917840   8.6826540  34.4767260
  50.4144910  10.7329930  38.9821580  50.8701860   9.9519310  39.2960200
  50.7537430  11.4436750  39.5262760  38.1647460   6.5046390  46.1412320
  38.3278500   6.0351750  45.3231690  38.6299910   5.9969950  46.8061160
  39.7386440   5.8797820  48.3008130  39.3541230   5.2391490  48.8991090
  40.0498630   6.5833940  48.8702860  45.8883580   2.7274360  43.7816750
  46.2553710   2.2532930  44.5278090  45.6988640   3.6015930  44.1225090
  43.6782950   1.7683000  46.1000960  43.3740020   2.6474980  46.3251320
  44.6329410   1.8282790  46.1358400  42.2064740   5.9743990  36.6967810
  41.4327000   5.4341610  36.5366530  42.9359370   5.4550600  36.3585570
  52.9652720   4.9709350  42.4894200  53.6851840   5.4664640  42.0990310
  52.7634540   4.2927240  41.8448070  48.3471520   5.0418410  48.3763200
  48.2808830   4.1214080  48.1220790  47.7176660   5.1393850  49.0907840
  42.2502140   5.6424370  40.3346620  42.7680810   4.8392630  40.2803510
  41.7986160   5.5803510  41.1763450  47.1371640   6.9090650  35.6073920
  47.4787340   7.6532880  35.1117240  46.3084350   7.2221770  35.9698750
  39.7346680   2.6085740  47.2472320  39.3761620   3.2739590  47.8345660
  39.4401240   1.7769290  47.6184940  42.9359800   3.0669980  50.1311870
  42.6359940   3.2127160  49.2339690  43.7071040   2.5075270  50.0385260
  48.2788250   7.8638980  48.1267000  48.2932790   6.9319940  47.9085910
  47.5713350   7.9498740  48.7656770  53.4125320   2.0478800  34.3965610
  53.3289040   2.4793020  33.5462050  54.1319510   2.5077150  34.8292430
  54.4899460   4.5046320  47.4735580  53.7647650   5.0975100  47.2764970
  55.0174920   4.4969860  46.6748950  54.4412570   8.9021060  37.1247740
  53.7988730   8.2476680  37.3991460  54.0543230   9.3076150  36.3488410
  50.0199050   6.2306490  40.9719430  50.3722870   5.6334620  40.3120800
  49.1361380   5.9050720  41.1427680  46.1062330   6.9904180  38.3789840
  46.7933460   7.5373390  38.7597430  45.3194750   7.5344910  38.4139450
  38.2454730   2.6077000  33.8706920  39.1149580   2.8901800  34.1542840
  37.7545050   3.4212870  33.7555730  45.4089540   3.9950210  37.9915200
  45.8652320   4.8055460  38.2175390  45.0577750   3.6773350  38.8233690
  47.7122150   9.5056550  45.2207500  48.3564370   9.7115930  45.8980920
  48.0751590   8.7444950  44.7678350  48.9854230   7.5088900  43.9384950
  49.6276460   6.8082060  44.0517120  49.5103580   8.2887340  43.7581840
  52.8309950   7.7937520  33.6624090  52.6047530   7.0767960  34.2548730
  52.4406150   7.5449960  32.8245840  50.7591850   8.3083800  47.1421010
  51.0948090   8.8950490  47.8198930  49.8392190   8.1776510  47.3718800
  38.6125980  11.8204380  34.4368550  38.9723620  12.4193720  33.7825820
  38.4718320  12.3664270  35.2103580  52.4126200   5.7109460  35.3238250
  52.1247900   6.1722150  36.1116130  53.2078370   5.2507230  35.5922470
  38.5967840  10.0859240  48.9110950  38.7058960   9.1453980  48.7706340
  37.9448400  10.3513990  48.2624680  46.5880430   8.3575130  50.3109070
  46.2677300   7.6384370  50.8554760  45.9138790   9.0330200  50.3845130
  44.6294600   9.2035580  35.2542220  44.6204700   9.9365270  34.6386730
  43.7092960   8.9567160  35.3469180  40.2301240   4.4250470  35.9988980
  39.6229190   5.1649370  36.0084280  40.7050590   4.5149830  35.1727180
  47.6154200   9.2663820  33.9167410  47.7166180   9.0627810  32.9869390
  46.7155940   9.0122100  34.1215190  46.2572310  11.7850140  38.6115080
  46.5113810  11.7471530  37.6894450  45.3084790  11.6583470  38.6043330
  52.2624890   2.7042020  40.1873590  51.3215030   2.7192250  40.3621280
  52.5768960   1.9177980  40.6333890  42.2406530   4.3861620  33.7477550
  43.0069800   4.2742980  34.3102980  42.3181220   3.6899590  33.0954320
  54.2650470   9.8750870  41.8627850  54.3897890  10.6982040  42.3351660
  55.1316030   9.6641600  41.5152000  41.7368000  11.9682080  41.5344980
  42.4730480  11.4197540  41.8053550  42.1208920  12.8338090  41.3950970
  38.6213480   8.0355650  37.4086490  37.6953260   8.2776790  37.3991900
  39.0869910   8.8629910  37.2871240  40.7426280  11.1528150  50.7230560
  41.5439010  11.4740200  51.1365960  40.2278100  10.7923730  51.4450470
  44.8470310  11.1412390  33.3570550  45.6398920  11.4301220  32.9052340
  44.3274660  10.7104560  32.6783030  49.5790910   7.2608020  50.6705970
  48.9729070   7.2839620  49.9301720  49.2745020   6.5291060  51.2073220
  51.0091280  10.9888310  49.2815380  51.9613030  10.9046330  49.2315620
  50.8619500  11.6530020  49.9549170  53.9000480  10.3682520  34.7807290
  53.6141990   9.9547660  33.9661470  53.7020030  11.2970230  34.6607810
  38.4624090   3.6401610  49.6666610  38.9663110   3.0608890  50.2382840
  37.7231510   3.9241840  50.2042980  45.3647710   6.3615800  33.2212900
  45.2598350   5.7468150  33.9474280  45.1971930   5.8381690  32.4375910
  45.5162030   5.0472600  49.2002130  44.7507700   5.6157600  49.1156800
  45.6977990   4.7548810  48.3070360  48.6050440   5.4235830  33.8254890
  48.0560540   5.8705130  34.4697630  49.2269700   4.9185080  34.3492560
  52.6585380   6.7777930  49.7577150  53.3994850   7.1153690  49.2544610
  51.8958060   6.9469990  49.2046920  44.2725560   4.3826750  35.7220190
  44.6941980   4.2166620  36.5651580  44.3976400   3.5726980  35.2275330
  46.7853200   3.4064360  32.9697290  47.3058860   2.6913380  32.6038440
  47.4321600   4.0450230  33.2697800  51.3331040   4.8292760  48.2932360
  51.7472060   4.9837840  49.1422780  50.3982040   4.9547980  48.4558140
  46.0946270   4.7813240  46.2628290  46.5134380   5.6245970  46.0904530
  45.1754900   4.9185280  46.0335070  48.4310170   2.5129420  47.6466130
  48.5506380   1.9170560  48.3860970  49.2904170   2.5499110  47.2267430
  50.7698070   3.0666610  46.2228640  50.2433290   3.5909230  45.6193780
  51.1129410   3.6994000  46.8538370  43.9453690  11.0866250  47.3786020
  43.4074780  11.8112310  47.0594720  44.1987650  10.6096590  46.5883360
  46.8015900  12.3217460  47.6372670  46.7274600  13.2252600  47.9445040
  45.8994740  12.0029360  47.6094740  47.3501230  11.4875970  35.2599030
  48.2452020  11.8260940  35.2817790  47.3818860  10.7655380  34.6323310
  40.9897390   6.8603020  33.4886030  41.4272260   7.4032690  34.1443610
  41.4745120   6.0349970  33.4982370  38.2043190   9.6492050  40.9406290
  38.5346200   8.7813110  40.7084930  38.6334190   9.8550570  41.7711250
  42.8005110   7.9801060  38.6008260  42.5000650   7.8566030  39.5012170
  42.6942600   7.1209650  38.1923990  38.6933400  10.5162640  43.6787920
  38.2564390  10.6963440  44.5112070  39.2611080  11.2737260  43.5369640
  54.3295580  10.0179640  47.9665230  53.7297570  10.0772200  47.2229150
  54.4589480   9.0784620  48.0962080  55.5697030   7.7597460  33.3034940
  54.7389990   7.8274110  33.7742170  55.7468860   8.6501580  33.0001800
  55.0253490   4.5044940  35.8069140  55.7872400   5.0741590  35.9128830
  55.0407860   3.9372140  36.5777450  38.5257830   3.0282870  40.0376800
  37.8706670   2.7594510  39.3936500  39.3635780   2.9187350  39.5878780
  56.0313460   5.3595040  40.6511070  56.4022290   4.5762360  40.2447040
  56.6715390   6.0484140  40.4728370  53.0147220   6.7431620  46.0641390
  52.2007060   7.1728780  46.3267180  53.4221420   7.3550030  45.4510440
  55.0772660   4.7979310  32.9641660  55.3521500   5.7058190  32.8360880
  54.8883400   4.7341840  33.9003650  54.9738000   2.7348300  37.9571090
  54.5981600   1.9676230  37.5252380  54.2441120   3.1171000  38.4446020
  39.5633760   3.4135440  44.5780140  39.9306800   3.3262840  45.4576160
  38.9944580   2.6501990  44.4787000  53.0723270  11.4950220  39.5909660
  53.6682340  11.1734790  38.9144080  53.3301420  11.0222040  40.3822930
  40.9785840   7.9268130  49.7400290  40.9355470   7.5561040  50.6214750
  41.1096850   8.8645700  49.8802110  44.6791870   9.4827720  45.3410010
  44.4383230   9.7502280  44.4540530  45.6194510   9.6533450  45.3960870
  55.9396030  11.5022100  46.1420650  55.4454310  11.8990970  45.4247780
  55.3309320  10.8771310  46.5357930  40.8173870  10.8730380  46.8598070
  40.2234190  10.7415080  47.5988110  40.8097710  10.0368520  46.3940170
  53.6235480  12.1445520  43.4207390  53.1638450  12.8961330  43.0465410
  52.9947940  11.4251990  43.3622190  40.4486100   8.2388760  45.8106110
  39.7220160   7.6194050  45.7432060  40.5095250   8.6329370  44.9404190
  44.0531200  10.4533760  42.5955520  44.5696220   9.8421120  42.0703780
  44.7028580  10.9562540  43.0866530  46.7926700  11.3442250  43.4224500
  47.0804510  11.0896550  42.5457510  47.3049920  10.7919610  44.0130070
  38.7316100  11.5563150  39.0202870  38.5638140  10.9233830  39.7184760
  37.8650610  11.7622550  38.6697060  40.3378800  10.2496380  36.4653010
  39.8126420  10.6304410  35.7614970  40.2623380  10.8747150  37.1862720
  46.8599060  12.2658350  50.7892700  47.7866370  12.0302620  50.8328660
  46.8449490  13.0930350  50.3078730  55.0944120  11.8083920  37.7866950
  55.2696310  11.1221660  37.1427870  54.3965690  12.3330970  37.3943620
  42.9371770  12.1978760  35.3402260  43.6690590  11.9138040  34.7926150
  43.1965440  11.9592040  36.2301640  42.0986560   8.3143490  35.3448590
  41.4695440   8.7828590  35.8934420  42.2134390   7.4692710  35.7794780
  53.4276620  11.4928210  50.6133740  54.2201940  10.9977440  50.4059700
  53.7209770  12.1718350  51.2209350  47.6854320   4.1428170  23.3759060
  46.9096420   3.6628610  23.6657630  48.3367250   3.4633820  23.2015220
  41.7020150   4.4547980  24.2534820  40.8705030   4.1996690  24.6531330
  42.3101130   4.5258750  24.9892740  51.7061750   8.5488360  22.1558190
  51.2443280   7.7775600  22.4845360  52.5187300   8.5754430  22.6610640
  41.6821410   8.4888070  24.4492840  41.9849450   7.5985810  24.2703060
  42.4265000   9.0458290  24.2215090  47.9325060  10.8346370  21.7762180
  47.3136500  11.2903870  21.2056620  48.7876840  10.9897830  21.3751880
  47.1263310   6.8185360  23.3829220  47.0571590   5.8775300  23.2218350
  47.8883170   6.9086770  23.9551790  48.7988410   5.7185610  19.1694090
  48.1805680   6.1835060  18.6056810  49.3111660   6.4113090  19.5863600
  43.6620170   5.2461480  25.8477690  43.3289550   5.8730400  26.4898760
  43.8386850   5.7723360  25.0679360  42.8739270   7.2142280  27.6626870
  43.4913270   7.8893360  27.3811320  42.0132390   7.6230260  27.5714370
  38.1671610   6.4042140  16.5433720  37.7899590   6.8929240  15.8118620
  38.4244680   7.0767420  17.1740250  53.7916860   8.6781690  25.5781510
  53.1080380   9.3480800  25.5698180  54.3311150   8.8762340  24.8126370
  51.3275600  10.5225820  24.2926690  51.3402760  10.1188110  23.4248950
  50.7750820  11.2973110  24.1888120  52.6221020   7.2442040  19.3816860
  52.5117350   6.3016370  19.5066280  52.6189270   7.6057680  20.2679620
  50.7261040   5.4255660  25.6209300  51.1429830   5.2115770  24.7862760
  51.4500860   5.6828450  26.1917920  48.1641300   2.8707360  18.7379350
  47.2370580   2.8044740  18.9667820  48.3166120   3.8087490  18.6234590
  54.6723140   3.8242880  25.7125540  53.8441770   3.8935970  25.2375670
  55.2673620   4.4097190  25.2441370  52.1938590   4.4327660  19.2414600
  51.5751010   4.0947210  18.5940900  52.1763040   3.7887420  19.9493790
  43.7697940   3.3972100  21.5199080  43.3654940   2.6849350  21.0244980
  43.8561060   3.0525340  22.4087120  44.2379640   7.0839660  23.6838290
  43.9407930   6.4785130  23.0046070  45.1879460   7.1216970  23.5727650
  52.3265250  10.6571530  27.3461390  51.8495810  11.4643720  27.1534000
  51.6427040  10.0049860  27.4987600  43.3298070   6.8221350  30.3346090
  42.4326600   7.0461320  30.5819490  43.3550940   6.9456290  29.3857490
  50.3703290   3.6714470  16.2487350  50.8096570   2.8336900  16.1025170
  51.0831710   4.3043870  16.3351490  42.1569290   3.6934670  28.9103460
  42.0177060   4.5657470  29.2790860  41.2750650   3.3507480  28.7651400
  48.4798670   8.6110540  20.2168590  48.9194580   9.3534870  19.8023980
  48.4185560   8.8537110  21.1407550  43.9549640   9.6356370  31.1188610
  43.9265070  10.0399320  30.2517040  43.7914610   8.7066730  30.9560210
  55.9064460  10.4183470  32.4152780  56.3824180  10.8966360  33.0941860
  56.5271620  10.3500960  31.6898280  38.1087940   5.4632220  24.8274370
  38.1868360   5.5980990  23.8830090  38.7229620   4.7548110  25.0202490
  39.3535570   7.1632410  21.2380550  38.9463650   7.3047000  20.3834150
  40.2448580   6.8792570  21.0351760  55.3097710   7.6096320  29.5752790
  55.4360770   7.3708200  28.6569970  55.3519090   6.7780860  30.0474870
  49.1714450  11.3124320  28.1447600  49.6859120  11.2232330  28.9470030
  48.3283530  11.6584020  28.4375510  51.1468850  11.5979660  17.5731600
  50.9869990  11.3082600  18.4713430  50.9815560  10.8219790  17.0376830
  43.6257230  11.3778190  19.3503220  43.4499710  10.4613730  19.1371020
  42.7712970  11.7365480  19.5901020  50.8494980   9.1067220  16.1329600
  50.1560140   9.1044510  15.4731880  51.5917840   8.6826540  15.7023770
  50.4144910  10.7329930  20.2078090  50.8701860   9.9519310  20.5216710
  50.7537430  11.4436750  20.7519270  38.1647460   6.5046390  27.3668830
  38.3278500   6.0351750  26.5488200  38.6299910   5.9969950  28.0317670
  39.7386440   5.8797820  29.5264640  39.3541230   5.2391490  30.1247600
  40.0498630   6.5833940  30.0959370  45.8883580   2.7274360  25.0073260
  46.2553710   2.2532930  25.7534600  45.6988640   3.6015930  25.3481600
  43.6782950   1.7683000  27.3257470  43.3740020   2.6474980  27.5507830
  44.6329410   1.8282790  27.3614910  42.2064740   5.9743990  17.9224320
  41.4327000   5.4341610  17.7623040  42.9359370   5.4550600  17.5842080
  52.9652720   4.9709350  23.7150710  53.6851840   5.4664640  23.3246820
  52.7634540   4.2927240  23.0704580  48.3471520   5.0418410  29.6019710
  48.2808830   4.1214080  29.3477300  47.7176660   5.1393850  30.3164350
  42.2502140   5.6424370  21.5603130  42.7680810   4.8392630  21.5060020
  41.7986160   5.5803510  22.4019960  47.1371640   6.9090650  16.8330430
  47.4787340   7.6532880  16.3373750  46.3084350   7.2221770  17.1955260
  39.7346680   2.6085740  28.4728830  39.3761620   3.2739590  29.0602170
  39.4401240   1.7769290  28.8441450  42.9359800   3.0669980  31.3568380
  42.6359940   3.2127160  30.4596200  43.7071040   2.5075270  31.2641770
  48.2788250   7.8638980  29.3523510  48.2932790   6.9319940  29.1342420
  47.5713350   7.9498740  29.9913280  53.4125320   2.0478800  15.6222120
  53.3289040   2.4793020  14.7718560  54.1319510   2.5077150  16.0548940
  54.4899460   4.5046320  28.6992090  53.7647650   5.0975100  28.5021480
  55.0174920   4.4969860  27.9005460  54.4412570   8.9021060  18.3504250
  53.7988730   8.2476680  18.6247970  54.0543230   9.3076150  17.5744920
  50.0199050   6.2306490  22.1975940  50.3722870   5.6334620  21.5377310
  49.1361380   5.9050720  22.3684190  46.1062330   6.9904180  19.6046350
  46.7933460   7.5373390  19.9853940  45.3194750   7.5344910  19.6395960
  38.2454730   2.6077000  15.0963430  39.1149580   2.8901800  15.3799350
  37.7545050   3.4212870  14.9812240  45.4089540   3.9950210  19.2171710
  45.8652320   4.8055460  19.4431900  45.0577750   3.6773350  20.0490200
  47.7122150   9.5056550  26.4464010  48.3564370   9.7115930  27.1237430
  48.0751590   8.7444950  25.9934860  48.9854230   7.5088900  25.1641460
  49.6276460   6.8082060  25.2773630  49.5103580   8.2887340  24.9838350
  52.8309950   7.7937520  14.8880600  52.6047530   7.0767960  15.4805240
  52.4406150   7.5449960  14.0502350  50.7591850   8.3083800  28.3677520
  51.0948090   8.8950490  29.0455440  49.8392190   8.1776510  28.5975310
  38.6125980  11.8204380  15.6625060  38.9723620  12.4193720  15.0082330
  38.4718320  12.3664270  16.4360090  52.4126200   5.7109460  16.5494760
  52.1247900   6.1722150  17.3372640  53.2078370   5.2507230  16.8178980
  38.5967840  10.0859240  30.1367460  38.7058960   9.1453980  29.9962850
  37.9448400  10.3513990  29.4881190  46.5880430   8.3575130  31.5365580
  46.2677300   7.6384370  32.0811270  45.9138790   9.0330200  31.6101640
  44.6294600   9.2035580  16.4798730  44.6204700   9.9365270  15.8643240
  43.7092960   8.9567160  16.5725690  40.2301240   4.4250470  17.2245490
  39.6229190   5.1649370  17.2340790  40.7050590   4.5149830  16.3983690
  47.6154200   9.2663820  15.1423920  47.7166180   9.0627810  14.2125900
  46.7155940   9.0122100  15.3471700  46.2572310  11.7850140  19.8371590
  46.5113810  11.7471530  18.9150960  45.3084790  11.6583470  19.8299840
  52.2624890   2.7042020  21.4130100  51.3215030   2.7192250  21.5877790
  52.5768960   1.9177980  21.8590400  42.2406530   4.3861620  14.9734060
  43.0069800   4.2742980  15.5359490  42.3181220   3.6899590  14.3210830
  54.2650470   9.8750870  23.0884360  54.3897890  10.6982040  23.5608170
  55.1316030   9.6641600  22.7408510  41.7368000  11.9682080  22.7601490
  42.4730480  11.4197540  23.0310060  42.1208920  12.8338090  22.6207480
  38.6213480   8.0355650  18.6343000  37.6953260   8.2776790  18.6248410
  39.0869910   8.8629910  18.5127750  40.7426280  11.1528150  31.9487070
  41.5439010  11.4740200  32.3622470  40.2278100  10.7923730  32.6706980
  44.8470310  11.1412390  14.5827060  45.6398920  11.4301220  14.1308850
  44.3274660  10.7104560  13.9039540  49.5790910   7.2608020  31.8962480
  48.9729070   7.2839620  31.1558230  49.2745020   6.5291060  32.4329730
  51.0091280  10.9888310  30.5071890  51.9613030  10.9046330  30.4572130
  50.8619500  11.6530020  31.1805680  53.9000480  10.3682520  16.0063800
  53.6141990   9.9547660  15.1917980  53.7020030  11.2970230  15.8864320
  38.4624090   3.6401610  30.8923120  38.9663110   3.0608890  31.4639350
  37.7231510   3.9241840  31.4299490  45.3647710   6.3615800  14.4469410
  45.2598350   5.7468150  15.1730790  45.1971930   5.8381690  13.6632420
  45.5162030   5.0472600  30.4258640  44.7507700   5.6157600  30.3413310
  45.6977990   4.7548810  29.5326870  48.6050440   5.4235830  15.0511400
  48.0560540   5.8705130  15.6954140  49.2269700   4.9185080  15.5749070
  52.6585380   6.7777930  30.9833660  53.3994850   7.1153690  30.4801120
  51.8958060   6.9469990  30.4303430  44.2725560   4.3826750  16.9476700
  44.6941980   4.2166620  17.7908090  44.3976400   3.5726980  16.4531840
  46.7853200   3.4064360  14.1953800  47.3058860   2.6913380  13.8294950
  47.4321600   4.0450230  14.4954310  51.3331040   4.8292760  29.5188870
  51.7472060   4.9837840  30.3679290  50.3982040   4.9547980  29.6814650
  46.0946270   4.7813240  27.4884800  46.5134380   5.6245970  27.3161040
  45.1754900   4.9185280  27.2591580  48.4310170   2.5129420  28.8722640
  48.5506380   1.9170560  29.6117480  49.2904170   2.5499110  28.4523940
  50.7698070   3.0666610  27.4485150  50.2433290   3.5909230  26.8450290
  51.1129410   3.6994000  28.0794880  43.9453690  11.0866250  28.6042530
  43.4074780  11.8112310  28.2851230  44.1987650  10.6096590  27.8139870
  46.8015900  12.3217460  28.8629180  46.7274600  13.2252600  29.1701550
  45.8994740  12.0029360  28.8351250  47.3501230  11.4875970  16.4855540
  48.2452020  11.8260940  16.5074300  47.3818860  10.7655380  15.8579820
  40.9897390   6.8603020  14.7142540  41.4272260   7.4032690  15.3700120
  41.4745120   6.0349970  14.7238880  38.2043190   9.6492050  22.1662800
  38.5346200   8.7813110  21.9341440  38.6334190   9.8550570  22.9967760
  42.8005110   7.9801060  19.8264770  42.5000650   7.8566030  20.7268680
  42.6942600   7.1209650  19.4180500  38.6933400  10.5162640  24.9044430
  38.2564390  10.6963440  25.7368580  39.2611080  11.2737260  24.7626150
  54.3295580  10.0179640  29.1921740  53.7297570  10.0772200  28.4485660
  54.4589480   9.0784620  29.3218590  55.5697030   7.7597460  14.5291450
  54.7389990   7.8274110  14.9998680  55.7468860   8.6501580  14.2258310
  55.0253490   4.5044940  17.0325650  55.7872400   5.0741590  17.1385340
  55.0407860   3.9372140  17.8033960  38.5257830   3.0282870  21.2633310
  37.8706670   2.7594510  20.6193010  39.3635780   2.9187350  20.8135290
  56.0313460   5.3595040  21.8767580  56.4022290   4.5762360  21.4703550
  56.6715390   6.0484140  21.6984880  53.0147220   6.7431620  27.2897900
  52.2007060   7.1728780  27.5523690  53.4221420   7.3550030  26.6766950
  55.0772660   4.7979310  14.1898170  55.3521500   5.7058190  14.0617390
  54.8883400   4.7341840  15.1260160  54.9738000   2.7348300  19.1827600
  54.5981600   1.9676230  18.7508890  54.2441120   3.1171000  19.6702530
  39.5633760   3.4135440  25.8036650  39.9306800   3.3262840  26.6832670
  38.9944580   2.6501990  25.7043510  53.0723270  11.4950220  20.8166170
  53.6682340  11.1734790  20.1400590  53.3301420  11.0222040  21.6079440
  40.9785840   7.9268130  30.9656800  40.9355470   7.5561040  31.8471260
  41.1096850   8.8645700  31.1058620  44.6791870   9.4827720  26.5666520
  44.4383230   9.7502280  25.6797040  45.6194510   9.6533450  26.6217380
  55.9396030  11.5022100  27.3677160  55.4454310  11.8990970  26.6504290
  55.3309320  10.8771310  27.7614440  40.8173870  10.8730380  28.0854580
  40.2234190  10.7415080  28.8244620  40.8097710  10.0368520  27.6196680
  53.6235480  12.1445520  24.6463900  53.1638450  12.8961330  24.2721920
  52.9947940  11.4251990  24.5878700  40.4486100   8.2388760  27.0362620
  39.7220160   7.6194050  26.9688570  40.5095250   8.6329370  26.1660700
  44.0531200  10.4533760  23.8212030  44.5696220   9.8421120  23.2960290
  44.7028580  10.9562540  24.3123040  46.7926700  11.3442250  24.6481010
  47.0804510  11.0896550  23.7714020  47.3049920  10.7919610  25.2386580
  38.7316100  11.5563150  20.2459380  38.5638140  10.9233830  20.9441270
  37.8650610  11.7622550  19.8953570  40.3378800  10.2496380  17.6909520
  39.8126420  10.6304410  16.9871480  40.2623380  10.8747150  18.4119230
  46.8599060  12.2658350  32.0149210  47.7866370  12.0302620  32.0585170
  46.8449490  13.0930350  31.5335240  55.0944120  11.8083920  19.0123460
  55.2696310  11.1221660  18.3684380  54.3965690  12.3330970  18.6200130
  42.9371770  12.1978760  16.5658770  43.6690590  11.9138040  16.0182660
  43.1965440  11.9592040  17.4558150  42.0986560   8.3143490  16.5705100
  41.4695440   8.7828590  17.1190930  42.2134390   7.4692710  17.0051290
  53.4276620  11.4928210  31.8390250  54.2201940  10.9977440  31.6316210
  53.7209770  12.1718350  32.4465860  47.6854320   4.1428170   4.6015570
  46.9096420   3.6628610   4.8914140  48.3367250   3.4633820   4.4271730
  41.7020150   4.4547980   5.4791330  40.8705030   4.1996690   5.8787840
  42.3101130   4.5258750   6.2149250  51.7061750   8.5488360   3.3814700
  51.2443280   7.7775600   3.7101870  52.5187300   8.5754430   3.8867150
  41.6821410   8.4888070   5.6749350  41.9849450   7.5985810   5.4959570
  42.4265000   9.0458290   5.4471600  47.9325060  10.8346370   3.0018690
  47.3136500  11.2903870   2.4313130  48.7876840  10.9897830   2.6008390
  47.1263310   6.8185360   4.6085730  47.0571590   5.8775300   4.4474860
  47.8883170   6.9086770   5.1808300  43.6620170   5.2461480   7.0734200
  43.3289550   5.8730400   7.7155270  43.8386850   5.7723360   6.2935870
  42.8739270   7.2142280   8.8883380  43.4913270   7.8893360   8.6067830
  42.0132390   7.6230260   8.7970880  53.7916860   8.6781690   6.8038020
  53.1080380   9.3480800   6.7954690  54.3311150   8.8762340   6.0382880
  51.3275600  10.5225820   5.5183200  51.3402760  10.1188110   4.6505460
  50.7750820  11.2973110   5.4144630  50.7261040   5.4255660   6.8465810
  51.1429830   5.2115770   6.0119270  51.4500860   5.6828450   7.4174430
  54.6723140   3.8242880   6.9382050  53.8441770   3.8935970   6.4632180
  55.2673620   4.4097190   6.4697880  43.7697940   3.3972100   2.7455590
  43.3654940   2.6849350   2.2501490  43.8561060   3.0525340   3.6343630
  44.2379640   7.0839660   4.9094800  43.9407930   6.4785130   4.2302580
  45.1879460   7.1216970   4.7984160  52.3265250  10.6571530   8.5717900
  51.8495810  11.4643720   8.3790510  51.6427040  10.0049860   8.7244110
  43.3298070   6.8221350  11.5602600  42.4326600   7.0461320  11.8076000
  43.3550940   6.9456290  10.6114000  42.1569290   3.6934670  10.1359970
  42.0177060   4.5657470  10.5047370  41.2750650   3.3507480   9.9907910
  43.9549640   9.6356370  12.3445120  43.9265070  10.0399320  11.4773550
  43.7914610   8.7066730  12.1816720  55.9064460  10.4183470  13.6409290
  56.3824180  10.8966360  14.3198370  56.5271620  10.3500960  12.9154790
  38.1087940   5.4632220   6.0530880  38.1868360   5.5980990   5.1086600
  38.7229620   4.7548110   6.2459000  39.3535570   7.1632410   2.4637060
  38.9463650   7.3047000   1.6090660  40.2448580   6.8792570   2.2608270
  55.3097710   7.6096320  10.8009300  55.4360770   7.3708200   9.8826480
  55.3519090   6.7780860  11.2731380  49.1714450  11.3124320   9.3704110
  49.6859120  11.2232330  10.1726540  48.3283530  11.6584020   9.6632020
  38.1647460   6.5046390   8.5925340  38.3278500   6.0351750   7.7744710
  38.6299910   5.9969950   9.2574180  39.7386440   5.8797820  10.7521150
  39.3541230   5.2391490  11.3504110  40.0498630   6.5833940  11.3215880
  45.8883580   2.7274360   6.2329770  46.2553710   2.2532930   6.9791110
  45.6988640   3.6015930   6.5738110  43.6782950   1.7683000   8.5513980
  43.3740020   2.6474980   8.7764340  44.6329410   1.8282790   8.5871420
  52.9652720   4.9709350   4.9407220  53.6851840   5.4664640   4.5503330
  52.7634540   4.2927240   4.2961090  48.3471520   5.0418410  10.8276220
  48.2808830   4.1214080  10.5733810  47.7176660   5.1393850  11.5420860
  42.2502140   5.6424370   2.7859640  42.7680810   4.8392630   2.7316530
  41.7986160   5.5803510   3.6276470  39.7346680   2.6085740   9.6985340
  39.3761620   3.2739590  10.2858680  39.4401240   1.7769290  10.0697960
  42.9359800   3.0669980  12.5824890  42.6359940   3.2127160  11.6852710
  43.7071040   2.5075270  12.4898280  48.2788250   7.8638980  10.5780020
  48.2932790   6.9319940  10.3598930  47.5713350   7.9498740  11.2169790
  54.4899460   4.5046320   9.9248600  53.7647650   5.0975100   9.7277990
  55.0174920   4.4969860   9.1261970  50.0199050   6.2306490   3.4232450
  50.3722870   5.6334620   2.7633820  49.1361380   5.9050720   3.5940700
  47.7122150   9.5056550   7.6720520  48.3564370   9.7115930   8.3493940
  48.0751590   8.7444950   7.2191370  48.9854230   7.5088900   6.3897970
  49.6276460   6.8082060   6.5030140  49.5103580   8.2887340   6.2094860
  50.7591850   8.3083800   9.5934030  51.0948090   8.8950490  10.2711950
  49.8392190   8.1776510   9.8231820  38.5967840  10.0859240  11.3623970
  38.7058960   9.1453980  11.2219360  37.9448400  10.3513990  10.7137700
  46.5880430   8.3575130  12.7622090  46.2677300   7.6384370  13.3067780
  45.9138790   9.0330200  12.8358150  52.2624890   2.7042020   2.6386610
  51.3215030   2.7192250   2.8134300  52.5768960   1.9177980   3.0846910
  54.2650470   9.8750870   4.3140870  54.3897890  10.6982040   4.7864680
  55.1316030   9.6641600   3.9665020  41.7368000  11.9682080   3.9858000
  42.4730480  11.4197540   4.2566570  42.1208920  12.8338090   3.8463990
  40.7426280  11.1528150  13.1743580  41.5439010  11.4740200  13.5878980
  40.2278100  10.7923730  13.8963490  49.5790910   7.2608020  13.1218990
  48.9729070   7.2839620  12.3814740  49.2745020   6.5291060  13.6586240
  51.0091280  10.9888310  11.7328400  51.9613030  10.9046330  11.6828640
  50.8619500  11.6530020  12.4062190  38.4624090   3.6401610  12.1179630
  38.9663110   3.0608890  12.6895860  37.7231510   3.9241840  12.6556000
  45.5162030   5.0472600  11.6515150  44.7507700   5.6157600  11.5669820
  45.6977990   4.7548810  10.7583380  52.6585380   6.7777930  12.2090170
  53.3994850   7.1153690  11.7057630  51.8958060   6.9469990  11.6559940
  51.3331040   4.8292760  10.7445380  51.7472060   4.9837840  11.5935800
  50.3982040   4.9547980  10.9071160  46.0946270   4.7813240   8.7141310
  46.5134380   5.6245970   8.5417550  45.1754900   4.9185280   8.4848090
  48.4310170   2.5129420  10.0979150  48.5506380   1.9170560  10.8373990
  49.2904170   2.5499110   9.6780450  50.7698070   3.0666610   8.6741660
  50.2433290   3.5909230   8.0706800  51.1129410   3.6994000   9.3051390
  43.9453690  11.0866250   9.8299040  43.4074780  11.8112310   9.5107740
  44.1987650  10.6096590   9.0396380  46.8015900  12.3217460  10.0885690
  46.7274600  13.2252600  10.3958060  45.8994740  12.0029360  10.0607760
  38.2043190   9.6492050   3.3919310  38.5346200   8.7813110   3.1597950
  38.6334190   9.8550570   4.2224270  38.6933400  10.5162640   6.1300940
  38.2564390  10.6963440   6.9625090  39.2611080  11.2737260   5.9882660
  54.3295580  10.0179640  10.4178250  53.7297570  10.0772200   9.6742170
  54.4589480   9.0784620  10.5475100  38.5257830   3.0282870   2.4889820
  37.8706670   2.7594510   1.8449520  39.3635780   2.9187350   2.0391800
  56.0313460   5.3595040   3.1024090  56.4022290   4.5762360   2.6960060
  56.6715390   6.0484140   2.9241390  53.0147220   6.7431620   8.5154410
  52.2007060   7.1728780   8.7780200  53.4221420   7.3550030   7.9023460
  39.5633760   3.4135440   7.0293160  39.9306800   3.3262840   7.9089180
  38.9944580   2.6501990   6.9300020  40.9785840   7.9268130  12.1913310
  40.9355470   7.5561040  13.0727770  41.1096850   8.8645700  12.3315130
  44.6791870   9.4827720   7.7923030  44.4383230   9.7502280   6.9053550
  45.6194510   9.6533450   7.8473890  55.9396030  11.5022100   8.5933670
  55.4454310  11.8990970   7.8760800  55.3309320  10.8771310   8.9870950
  40.8173870  10.8730380   9.3111090  40.2234190  10.7415080  10.0501130
  40.8097710  10.0368520   8.8453190  53.6235480  12.1445520   5.8720410
  53.1638450  12.8961330   5.4978430  52.9947940  11.4251990   5.8135210
  40.4486100   8.2388760   8.2619130  39.7220160   7.6194050   8.1945080
  40.5095250   8.6329370   7.3917210  44.0531200  10.4533760   5.0468540
  44.5696220   9.8421120   4.5216800  44.7028580  10.9562540   5.5379550
  46.7926700  11.3442250   5.8737520  47.0804510  11.0896550   4.9970530
  47.3049920  10.7919610   6.4643090  46.8599060  12.2658350  13.2405720
  47.7866370  12.0302620  13.2841680  46.8449490  13.0930350  12.7591750
  53.4276620  11.4928210  13.0646760  54.2201940  10.9977440  12.8572720
  53.7209770  12.1718350  13.6722370  30.7792790  96.2366600  77.8180260
  30.6986840  95.3221210  77.5471970  30.3657210  96.7333670  77.1119970
  28.9110830  98.0145620  79.6989530  28.1352930  97.5346060  79.9888100
  29.5623760  97.3351270  79.5245690  22.9276660  98.3265430  80.5765290
  22.0961540  98.0714140  80.9761800  23.5357640  98.3976200  81.3123210
  21.3368610  93.2867320  74.3607680  20.4485310  93.6283290  74.2587560
  21.6209800  93.0867640  73.4688510  19.3001620  95.8872970  80.2447380
  19.8717730  95.1195170  80.2451020  19.3003160  96.1861730  79.3353990
  29.3824990  93.4973190  79.9328620  29.7589810  92.6245070  79.8202290
  29.2844500  93.8331890  79.0419060  23.5130000  91.8698820  75.3946060
  23.6196750  92.7702550  75.7014820  22.6022360  91.8216790  75.1040710
  33.1649110  90.9923630  76.8656960  33.9858730  90.5020200  76.9082440
  33.1983190  91.5821290  77.6188800  21.1613160  93.7917830  80.6398650
  21.8423270  94.0556200  81.2586050  20.8461210  92.9518700  80.9736660
  25.3537730  94.8385190  79.7271240  25.8615950  95.3366160  80.3676260
  25.8850970  94.0620390  79.5510600  33.4010590  92.9324010  79.6384500
  32.6966160  93.2208900  80.2187610  33.7622750  93.7424120  79.2784060
  23.3189160  91.1893710  82.0005110  23.6605970  92.0335760  81.7058980
  22.3804970  91.3377450  82.1170450  36.4697510  92.3778800  80.0293710
  35.5222420  92.4117780  80.1609140  36.7947500  93.1917750  80.4143070
  27.0017050  88.6775980  78.3249700  27.3092030  88.1222870  77.6085200
  26.0717750  88.8120440  78.1422690  29.3897810  96.7424810  75.0609820
  28.4627090  96.6762190  75.2898290  29.5422630  97.6804940  74.9465060
  29.3766890  93.0141810  72.0576980  28.4370560  93.1755770  72.1429440
  29.6950150  93.7327490  71.5112970  35.8979650  97.6960330  82.0356010
  35.0698280  97.7653420  81.5606140  36.4930130  98.2814640  81.5671840
  33.4195100  98.3045110  75.5645070  32.8007520  97.9664660  74.9171370
  33.4019550  97.6604870  76.2724260  24.9954450  97.2689550  77.8429550
  24.5911450  96.5566800  77.3475450  25.0817570  96.9242790  78.7317590
  31.5959800  97.5431920  72.5717820  32.0353080  96.7054350  72.4255640
  32.3088220  98.1761320  72.6581960  35.1776940  88.7974730  70.8858860
  34.8649600  88.8901560  71.7857930  35.9389410  89.3755760  70.8356290
  21.6959080  96.1634530  75.3436200  21.5756680  96.8896620  74.7317470
  21.3859970  95.3937440  74.8664110  24.1622740  89.5069600  78.7259870
  23.7190890  90.2879140  78.3944390  24.7207730  89.8299490  79.4330810
  27.2781560  89.1280300  73.6065700  26.6535740  89.1240170  74.3319010
  27.1911680  88.2611260  73.2101670  26.1998640  90.0516930  80.5849470
  26.4970970  90.9579760  80.5041490  26.7484200  89.5635710  79.9709040
  23.9536960  94.6303170  76.4541120  23.7277880  94.4140340  77.3587740
  23.1729490  95.0631630  76.1087090  31.1834720  94.6366540  75.0531770
  30.5843610  95.3602340  74.8695390  31.7314330  94.5743320  74.2708220
  29.7899590  93.2730080  77.0835050  30.1829160  93.5902280  76.2703740
  30.1516440  92.3941960  77.1979570  18.8263760  89.8630880  79.3065250
  18.5376810  90.4333740  80.0190230  19.5709520  89.3835330  79.6696480
  19.0133990  93.8051000  70.5167970  18.9308660  94.7481760  70.6582960
  18.6617050  93.6625910  69.6380320  30.3754730  95.8635830  81.1785830
  29.6435850  96.3722640  81.5275930  29.9779070  95.0465810  80.8774610
  26.8132120  92.5390030  79.5838320  26.8168180  92.0979980  78.7342860
  27.7083240  92.8607360  79.6910140  22.6634500  92.4216520  78.5432530
  22.3234550  92.8991750  79.2999580  21.9011820  91.9681640  78.1833630
  26.8752270  93.5402110  72.5745080  26.9965090  93.4988590  73.5230900
  26.4900780  94.4026260  72.4191810  30.8380640  91.3169510  80.5908770
  30.8553380  91.7678160  81.4350620  30.5896220  90.4175150  80.8042210
  25.8873770  95.8503250  71.9728380  25.3190670  95.4021500  71.3464290
  26.5962770  96.2096030  71.4393530  27.1140090  96.5991810  81.3303730
  27.4810220  96.1250380  82.0765070  26.9245150  97.4733380  81.6712070
  19.9780580  91.3435500  77.4597200  19.6927500  90.9791170  78.2975820
  19.9159440  90.6115960  76.8460340  29.6519170  90.2364760  74.1810570
  28.8383780  89.7377930  74.1055880  29.4581120  91.0763010  73.7646920
  32.3667560  94.6084410  72.4772730  33.2547180  94.9201640  72.3024070
  32.3372650  93.7356660  72.0853310  34.6381830  95.9196250  71.9452590
  34.5545550  96.3510470  71.0949030  35.3576020  96.3794600  72.3779410
  19.4711240  96.4794450  71.4193900  20.3406090  96.7619250  71.7029820
  18.9801560  97.2930320  71.3042710  22.5357830  88.2105310  76.0124700
  22.4072460  88.2023210  76.9609620  21.7119850  88.5488400  75.6615710
  34.3952570  91.4175680  74.0320410  33.7665730  91.5221350  73.3178640
  33.9004490  91.6372460  74.8214290  26.3636600  93.6961630  75.4478290
  25.6552750  94.1647970  75.8891900  26.6481080  93.0383640  76.0823480
  30.3952030  90.4212290  76.8874080  30.2719810  90.4398420  75.9383590
  31.3436590  90.4691230  77.0072480  24.5671620  92.0046710  72.8229000
  25.4162150  92.4416860  72.7569190  24.2002890  92.3166970  73.6501060
  33.4881400  96.5759470  77.7360570  32.5471540  96.5909700  77.9108260
  33.8025470  95.7895430  78.1820870  23.4663040  98.2579070  71.2964530
  24.2326310  98.1460430  71.8589960  23.5437730  97.5617040  70.6441300
  22.1609800  95.6904140  71.9797420  22.2413390  94.7431650  72.0914820
  23.0529550  96.0211020  72.0858080  25.4982070  98.2544200  73.2707170
  25.9198490  98.0884070  74.1138560  25.6232910  97.4444430  72.7762310
  28.0109710  97.2781810  70.5184270  28.5315370  96.5630830  70.1525420
  28.6578110  97.9167680  70.8184780  24.3940970  94.3277430  70.2165330
  24.1930030  93.4644790  70.5778670  24.2233020  94.2410790  69.2786930
  31.8729280  89.1385660  72.7452210  32.1531570  88.2953560  73.1011630
  31.0995010  89.3708770  73.2590960  23.1923770  91.4278050  70.2043210
  23.4949670  91.4345480  69.2962360  23.9318360  91.0775910  70.7010870
  26.4108700  90.3712670  71.1899410  26.0630700  89.6936660  70.6101860
  26.6121470  89.9102180  72.0042800  19.7514340  96.9000320  77.5863780
  19.0963180  96.6311960  76.9423480  20.5892290  96.7904800  77.1365760
  32.7004780  91.6941610  71.8082270  33.1189660  91.5072590  70.9678930
  32.3940840  90.8420660  72.1185200  36.1994510  96.6065750  75.5058070
  35.8238110  95.8393680  75.0739360  35.4697630  96.9888450  75.9933000
  18.9652420  94.1099250  73.5289110  18.0616500  94.3729450  73.3540770
  19.4493040  94.3810420  72.7489070  35.4745470  94.8323240  78.8065310
  35.9982950  94.3385890  78.1755480  36.0604890  94.9673600  79.5512880
  21.5079630  93.1664790  71.4383490  22.2171330  92.7448010  70.9530770
  20.7919570  93.2340020  70.8066840  21.1553790  89.2204120  70.4786140
  21.8781920  89.7613060  70.7967360  21.4278310  88.9467540  69.6027680
  34.9645440  94.0896590  74.7457720  35.4604560  93.8567460  75.5306600
  34.7661510  93.2508430  74.3295360  20.8445980  88.4710310  80.3808760
  21.4922170  87.9207690  79.9403920  21.2647820  88.7253460  81.2024570
  36.3932600  92.7257540  77.2795400  36.2831880  92.5713580  78.2177670
  37.1540190  92.1978480  77.0370810  37.2822870  90.5565460  70.5201540
  38.2072180  90.4246640  70.3119830  37.2598660  90.6358280  71.4737990
  37.3561360  91.3276120  73.1458250  36.5612860  91.2621240  73.6751160
  37.5604640  92.2626760  73.1343600  29.2360220  88.9549900  81.5507990
  28.4532010  89.4295400  81.8304750  28.9423150  88.0504730  81.4421170
  33.7881290  89.6573000  79.5957080  34.2289380  89.6018100  78.7478680
  33.5188880  90.5731010  79.6667260  35.6519860  89.2888240  77.6065900
  35.5908260  88.3449460  77.4596920  36.4311890  89.3968330  78.1519360
  20.5800630  89.2597380  74.0721710  21.3379990  89.3726260  73.4985740
  20.1177800  90.0966580  74.0265140  27.1214440  91.3736650  77.0624020
  26.3088950  90.9993540  76.7219900  27.6256080  90.6181730  77.3645210
  31.6239420  88.0379100  78.3007090  32.2268790  88.6099310  78.7755610
  30.8832410  88.6018540  78.0780990  34.7674020  88.4400660  73.5747370
  34.9624650  89.3384110  73.8414800  33.9803890  88.2087740  74.0680320
  22.9525780  89.7861430  72.6123680  23.4818540  88.9991230  72.4831630
  23.5854100  90.4652620  72.8459210  25.1463620  89.5236570  75.6669070
  24.5166360  88.8223880  75.8339200  24.6068760  90.2840700  75.4502230
  30.7792790  96.2366600  59.0436770  30.6986840  95.3221210  58.7728480
  30.3657210  96.7333670  58.3376480  28.9110830  98.0145620  60.9246040
  28.1352930  97.5346060  61.2144610  29.5623760  97.3351270  60.7502200
  22.9276660  98.3265430  61.8021800  22.0961540  98.0714140  62.2018310
  23.5357640  98.3976200  62.5379720  21.3368610  93.2867320  55.5864190
  20.4485310  93.6283290  55.4844070  21.6209800  93.0867640  54.6945020
  19.3001620  95.8872970  61.4703890  19.8717730  95.1195170  61.4707530
  19.3003160  96.1861730  60.5610500  20.5426490  91.2957330  63.2572820
  20.3629330  90.3983080  63.5375580  20.1406570  91.8429200  63.9319770
  29.3824990  93.4973190  61.1585130  29.7589810  92.6245070  61.0458800
  29.2844500  93.8331890  60.2675570  23.5130000  91.8698820  56.6202570
  23.6196750  92.7702550  56.9271330  22.6022360  91.8216790  56.3297220
  33.1649110  90.9923630  58.0913470  33.9858730  90.5020200  58.1338950
  33.1983190  91.5821290  58.8445310  21.1613160  93.7917830  61.8655160
  21.8423270  94.0556200  62.4842560  20.8461210  92.9518700  62.1993170
  25.3537730  94.8385190  60.9527750  25.8615950  95.3366160  61.5932770
  25.8850970  94.0620390  60.7767110  37.4548660  93.0090380  64.6557100
  36.7500830  93.3972090  64.1372210  37.7206580  93.7040670  65.2578030
  23.6373830  89.4783750  65.2191170  23.6392270  89.9956140  64.4137070
  22.8078140  89.0013930  65.1961100  33.4010590  92.9324010  60.8641010
  32.6966160  93.2208900  61.4444120  33.7622750  93.7424120  60.5040570
  23.3189160  91.1893710  63.2261620  23.6605970  92.0335760  62.9315490
  22.3804970  91.3377450  63.3426960  36.4697510  92.3778800  61.2550220
  35.5222420  92.4117780  61.3865650  36.7947500  93.1917750  61.6399580
  27.0017050  88.6775980  59.5506210  27.3092030  88.1222870  58.8341710
  26.0717750  88.8120440  59.3679200  29.3897810  96.7424810  56.2866330
  28.4627090  96.6762190  56.5154800  29.5422630  97.6804940  56.1721570
  29.3766890  93.0141810  53.2833490  28.4370560  93.1755770  53.3685950
  29.6950150  93.7327490  52.7369480  35.8979650  97.6960330  63.2612520
  35.0698280  97.7653420  62.7862650  36.4930130  98.2814640  62.7928350
  33.4195100  98.3045110  56.7901580  32.8007520  97.9664660  56.1427880
  33.4019550  97.6604870  57.4980770  32.8621660  94.4829650  64.2067390
  32.4492840  95.3083360  64.4607380  32.1297610  93.8974690  64.0143750
  24.9954450  97.2689550  59.0686060  24.5911450  96.5566800  58.5731960
  25.0817570  96.9242790  59.9574100  23.7083070  94.0432760  62.8485100
  24.2597660  94.1528100  62.0738350  24.2226580  94.4170360  63.5640330
  31.5959800  97.5431920  53.7974330  32.0353080  96.7054350  53.6512150
  32.3088220  98.1761320  53.8838470  23.3825800  97.5652120  66.4590440
  23.2433570  98.4374920  66.8277840  22.5007160  97.2224930  66.3138380
  35.1776940  88.7974730  52.1115370  34.8649600  88.8901560  53.0114440
  35.9389410  89.3755760  52.0612800  21.6959080  96.1634530  56.5692710
  21.5756680  96.8896620  55.9573980  21.3859970  95.3937440  56.0920620
  36.3878230  93.5346230  68.0889510  35.7722500  94.0425900  67.5604970
  36.0674650  92.6344560  68.0315450  24.1622740  89.5069600  59.9516380
  23.7190890  90.2879140  59.6200900  24.7207730  89.8299490  60.6587320
  28.4492550  92.3738120  65.5551700  27.9871920  92.5821140  66.3671640
  28.0470660  91.5597470  65.2522370  33.4497060  93.5947070  66.6848360
  32.5990650  93.2952820  67.0057430  33.2898850  93.8389080  65.7732180
  30.5446770  95.0948820  68.7847150  30.8700180  94.2612570  68.4449380
  31.3327100  95.6177340  68.9325480  27.2781560  89.1280300  54.8322210
  26.6535740  89.1240170  55.5575520  27.1911680  88.2611260  54.4358180
  26.1998640  90.0516930  61.8105980  26.4970970  90.9579760  61.7298000
  26.7484200  89.5635710  61.1965550  23.9536960  94.6303170  57.6797630
  23.7277880  94.4140340  58.5844250  23.1729490  95.0631630  57.3343600
  31.1834720  94.6366540  56.2788280  30.5843610  95.3602340  56.0951900
  31.7314330  94.5743320  55.4964730  26.3936170  95.5288750  68.3457900
  26.2979770  94.5883480  68.1958300  27.2368150  95.7503820  67.9505970
  29.7899590  93.2730080  58.3091560  30.1829160  93.5902280  57.4960250
  30.1516440  92.3941960  58.4236080  21.5246710  91.9402420  66.4991680
  21.1310100  92.7877630  66.7064460  20.8365110  91.3028790  66.6900320
  28.0991760  92.0237390  69.5688420  27.4090080  91.8309590  70.2034510
  28.8424060  92.3072030  70.1012720  18.8263760  89.8630880  60.5321760
  18.5376810  90.4333740  61.2446740  19.5709520  89.3835330  60.8952990
  19.0133990  93.8051000  51.7424480  18.9308660  94.7481760  51.8839470
  18.6617050  93.6625910  50.8636830  30.3754730  95.8635830  62.4042340
  29.6435850  96.3722640  62.7532440  29.9779070  95.0465810  62.1031120
  26.8132120  92.5390030  60.8094830  26.8168180  92.0979980  59.9599370
  27.7083240  92.8607360  60.9166650  22.6634500  92.4216520  59.7689040
  22.3234550  92.8991750  60.5256090  21.9011820  91.9681640  59.4090140
  26.8752270  93.5402110  53.8001590  26.9965090  93.4988590  54.7487410
  26.4900780  94.4026260  53.6448320  30.8380640  91.3169510  61.8165280
  30.8553380  91.7678160  62.6607130  30.5896220  90.4175150  62.0298720
  25.8873770  95.8503250  53.1984890  25.3190670  95.4021500  52.5720800
  26.5962770  96.2096030  52.6650040  34.2651390  88.7301690  67.6551660
  34.5897160  87.9991350  68.1809640  34.3007900  88.4115330  66.7532650
  27.1140090  96.5991810  62.5560240  27.4810220  96.1250380  63.3021580
  26.9245150  97.4733380  62.8968580  19.9780580  91.3435500  58.6853710
  19.6927500  90.9791170  59.5232330  19.9159440  90.6115960  58.0716850
  24.9039460  95.6400450  64.8744450  24.5996530  96.5192430  65.0994810
  25.8585920  95.7000240  64.9101890  29.6519170  90.2364760  55.4067080
  28.8383780  89.7377930  55.3312390  29.4581120  91.0763010  54.9903430
  32.3667560  94.6084410  53.7029240  33.2547180  94.9201640  53.5280580
  32.3372650  93.7356660  53.3109820  20.9603190  96.4803190  66.0215810
  20.6018130  97.1457040  66.6089150  20.6657750  95.6486740  66.3928430
  24.1616310  96.9387430  68.9055360  23.8616450  97.0844610  68.0083180
  24.9327550  96.3792720  68.8128750  34.6381830  95.9196250  53.1709100
  34.5545550  96.3510470  52.3205540  35.3576020  96.3794600  53.6035920
  19.4711240  96.4794450  52.6450410  20.3406090  96.7619250  52.9286330
  18.9801560  97.2930320  52.5299220  22.5357830  88.2105310  57.2381210
  22.4072460  88.2023210  58.1866130  21.7119850  88.5488400  56.8872220
  19.5351760  89.9696430  66.6987910  18.8210280  90.1693350  67.3040520
  19.9546800  89.1936000  67.0702710  31.0290540  92.4618740  64.4489360
  31.3971360  91.6413950  64.7768930  30.1688740  92.5220630  64.8645010
  34.3952570  91.4175680  55.2576920  33.7665730  91.5221350  54.5435150
  33.9004490  91.6372460  56.0470800  26.3636600  93.6961630  56.6734800
  25.6552750  94.1647970  57.1148410  26.6481080  93.0383640  57.3079990
  27.9892530  95.1158330  64.6727330  28.4877780  95.5904150  65.3379180
  28.1315480  94.1921850  64.8797360  30.3952030  90.4212290  58.1130590
  30.2719810  90.4398420  57.1640100  31.3436590  90.4691230  58.2328990
  24.5671620  92.0046710  54.0485510  25.4162150  92.4416860  53.9825700
  24.2002890  92.3166970  54.8757570  35.1959390  91.3326290  65.5155720
  34.6932990  92.0731690  65.8549530  36.0116050  91.7210290  65.1992510
  33.4881400  96.5759470  58.9617080  32.5471540  96.5909700  59.1364770
  33.8025470  95.7895430  59.4077380  23.4663040  98.2579070  52.5221040
  24.2326310  98.1460430  53.0846470  23.5437730  97.5617040  51.8697810
  22.1609800  95.6904140  53.2053930  22.2413390  94.7431650  53.3171330
  23.0529550  96.0211020  53.3114590  19.6880600  97.5119060  68.4410100
  20.1919620  96.9326340  69.0126330  18.9488020  97.7959290  68.9786470
  21.7203680  95.6548650  69.3360170  21.7609020  95.3562520  70.2445400
  22.5749180  96.0556260  69.1767690  25.4982070  98.2544200  54.4963680
  25.9198490  98.0884070  55.3395070  25.6232910  97.4444430  54.0018820
  23.6609490  94.2340750  67.3034660  23.1305950  93.7431700  66.6758000
  24.3297560  94.6624950  66.7692590  28.0109710  97.2781810  51.7440780
  28.5315370  96.5630830  51.3781930  28.6578110  97.9167680  52.0441290
  33.0309720  96.0406370  69.0715000  33.6130490  95.2858690  68.9835480
  33.2071490  96.5713810  68.2946480  24.1481790  91.2003120  67.3831950
  24.0538660  90.5823870  66.6582820  23.5679180  91.9269410  67.1561860
  26.9143230  89.7576360  64.4159340  26.4660530  89.7800620  63.5704890
  26.2808430  89.3595380  65.0129640  29.6566680  96.3846870  66.4209620
  29.7762890  95.7888010  67.1604460  30.5160680  96.4216560  66.0010920
  31.9954580  96.9384060  64.9972130  31.4689800  97.4626680  64.3937270
  32.3385920  97.5711450  65.6281860  24.3940970  94.3277430  51.4421840
  24.1930030  93.4644790  51.8035180  24.2233020  94.2410790  50.5043440
  26.4235450  92.9268220  67.6785440  27.0135140  92.6184070  68.3663260
  25.6055690  92.4547970  67.8345340  31.2428880  92.5434030  67.9118460
  30.5544400  91.8815570  67.8468450  31.9634900  92.0972300  68.3566920
  31.8729280  89.1385660  53.9708720  32.1531570  88.2953560  54.3268140
  31.0995010  89.3708770  54.4847470  23.1923770  91.4278050  51.4299720
  23.4949670  91.4345480  50.5218870  23.9318360  91.0775910  51.9267380
  26.4108700  90.3712670  52.4155920  26.0630700  89.6936660  51.8358370
  26.6121470  89.9102180  53.2299310  19.7514340  96.9000320  58.8120290
  19.0963180  96.6311960  58.1679990  20.5892290  96.7904800  58.3622270
  32.7004780  91.6941610  53.0338780  33.1189660  91.5072590  52.1935440
  32.3940840  90.8420660  53.3441710  36.1994510  96.6065750  56.7314580
  35.8238110  95.8393680  56.2995870  35.4697630  96.9888450  57.2189510
  20.7890270  97.2852890  63.3523630  21.1563310  97.1980290  64.2319650
  20.2201090  96.5219440  63.2530490  35.5894130  95.7537270  66.3654100
  35.3580220  95.5250020  65.4652050  35.8498680  96.6736820  66.3198990
  20.3406270  94.1961980  67.2582050  19.4462320  94.1628740  67.5975760
  20.8803820  94.3948770  68.0233300  34.0282200  90.9793700  69.1433800
  34.9052380  90.9877100  69.5267800  34.0403040  90.2424540  68.5326150
  18.9652420  94.1099250  54.7545620  18.0616500  94.3729450  54.5797280
  19.4493040  94.3810420  53.9745580  35.4745470  94.8323240  60.0321820
  35.9982950  94.3385890  59.4011990  36.0604890  94.9673600  60.7769390
  35.6535190  94.9163110  63.5541370  34.7037900  94.8826650  63.6686360
  35.8348200  95.8263220  63.3191140  21.5079630  93.1664790  52.6640000
  22.2171330  92.7448010  52.1787280  20.7919570  93.2340020  52.0323350
  21.1553790  89.2204120  51.7042650  21.8781920  89.7613060  52.0223870
  21.4278310  88.9467540  50.8284190  34.9645440  94.0896590  55.9714230
  35.4604560  93.8567460  56.7563110  34.7661510  93.2508430  55.5551870
  20.8445980  88.4710310  61.6065270  21.4922170  87.9207690  61.1660430
  21.2647820  88.7253460  62.4281080  36.3932600  92.7257540  58.5051910
  36.2831880  92.5713580  59.4434180  37.1540190  92.1978480  58.2627320
  34.7398320  88.6651670  64.9634910  35.3770540  89.2785810  65.3294100
  34.8873210  88.7012330  64.0184140  37.2822870  90.5565460  51.7458050
  38.2072180  90.4246640  51.5376340  37.2598660  90.6358280  52.6994500
  37.3561360  91.3276120  54.3714760  36.5612860  91.2621240  54.9007670
  37.5604640  92.2626760  54.3600110  20.5977980  88.6265980  64.3490590
  20.2492800  89.0829800  65.1148770  20.2665680  87.7323110  64.4313020
  28.1102800  89.8177860  67.8710010  28.0491690  90.4099690  68.6205420
  29.0503180  89.7103820  67.7260270  30.7477360  89.4747920  67.5102300
  31.3617770  89.7927210  66.8483380  31.2926920  88.9896510  68.1298160
  21.2698620  88.1542180  67.6241360  21.8181610  87.9730230  66.8607470
  21.3353930  87.3636290  68.1597670  31.4885400  88.0380060  63.8371590
  30.6145240  88.3715170  63.6344520  31.3796150  87.5653240  64.6623460
  32.3957380  90.2450930  65.2213310  32.0670740  89.4302690  64.8415040
  33.3439680  90.2020740  65.0979000  29.2360220  88.9549900  62.7764500
  28.4532010  89.4295400  63.0561260  28.9423150  88.0504730  62.6677680
  33.7881290  89.6573000  60.8213590  34.2289380  89.6018100  59.9735190
  33.5188880  90.5731010  60.8923770  35.6519860  89.2888240  58.8322410
  35.5908260  88.3449460  58.6853430  36.4311890  89.3968330  59.3775870
  20.5800630  89.2597380  55.2978220  21.3379990  89.3726260  54.7242250
  20.1177800  90.0966580  55.2521650  27.1214440  91.3736650  58.2880530
  26.3088950  90.9993540  57.9476410  27.6256080  90.6181730  58.5901720
  31.6239420  88.0379100  59.5263600  32.2268790  88.6099310  60.0012120
  30.8832410  88.6018540  59.3037500  34.7674020  88.4400660  54.8003880
  34.9624650  89.3384110  55.0671310  33.9803890  88.2087740  55.2936830
  22.9525780  89.7861430  53.8380190  23.4818540  88.9991230  53.7088140
  23.5854100  90.4652620  54.0715720  25.1463620  89.5236570  56.8925580
  24.5166360  88.8223880  57.0595710  24.6068760  90.2840700  56.6758740
  25.2719180  88.8020550  69.3278070  24.9903450  89.3054150  68.5638890
  25.6538880  88.0042300  68.9620200  31.8734640  88.2174130  69.9058540
  31.7600090  88.5368740  70.8010060  32.6904380  88.6186640  69.6095820
  30.7792790  96.2366600  40.2693280  30.6986840  95.3221210  39.9984990
  30.3657210  96.7333670  39.5632990  28.9110830  98.0145620  42.1502550
  28.1352930  97.5346060  42.4401120  29.5623760  97.3351270  41.9758710
  22.9276660  98.3265430  43.0278310  22.0961540  98.0714140  43.4274820
  23.5357640  98.3976200  43.7636230  21.3368610  93.2867320  36.8120700
  20.4485310  93.6283290  36.7100580  21.6209800  93.0867640  35.9201530
  19.3001620  95.8872970  42.6960400  19.8717730  95.1195170  42.6964040
  19.3003160  96.1861730  41.7867010  20.5426490  91.2957330  44.4829330
  20.3629330  90.3983080  44.7632090  20.1406570  91.8429200  45.1576280
  29.3824990  93.4973190  42.3841640  29.7589810  92.6245070  42.2715310
  29.2844500  93.8331890  41.4932080  23.5130000  91.8698820  37.8459080
  23.6196750  92.7702550  38.1527840  22.6022360  91.8216790  37.5553730
  33.1649110  90.9923630  39.3169980  33.9858730  90.5020200  39.3595460
  33.1983190  91.5821290  40.0701820  21.1613160  93.7917830  43.0911670
  21.8423270  94.0556200  43.7099070  20.8461210  92.9518700  43.4249680
  25.3537730  94.8385190  42.1784260  25.8615950  95.3366160  42.8189280
  25.8850970  94.0620390  42.0023620  37.4548660  93.0090380  45.8813610
  36.7500830  93.3972090  45.3628720  37.7206580  93.7040670  46.4834540
  23.6373830  89.4783750  46.4447680  23.6392270  89.9956140  45.6393580
  22.8078140  89.0013930  46.4217610  33.4010590  92.9324010  42.0897520
  32.6966160  93.2208900  42.6700630  33.7622750  93.7424120  41.7297080
  23.3189160  91.1893710  44.4518130  23.6605970  92.0335760  44.1572000
  22.3804970  91.3377450  44.5683470  36.4697510  92.3778800  42.4806730
  35.5222420  92.4117780  42.6122160  36.7947500  93.1917750  42.8656090
  27.0017050  88.6775980  40.7762720  27.3092030  88.1222870  40.0598220
  26.0717750  88.8120440  40.5935710  29.3897810  96.7424810  37.5122840
  28.4627090  96.6762190  37.7411310  29.5422630  97.6804940  37.3978080
  29.3766890  93.0141810  34.5090000  28.4370560  93.1755770  34.5942460
  29.6950150  93.7327490  33.9625990  35.8979650  97.6960330  44.4869030
  35.0698280  97.7653420  44.0119160  36.4930130  98.2814640  44.0184860
  33.4195100  98.3045110  38.0158090  32.8007520  97.9664660  37.3684390
  33.4019550  97.6604870  38.7237280  32.8621660  94.4829650  45.4323900
  32.4492840  95.3083360  45.6863890  32.1297610  93.8974690  45.2400260
  24.9954450  97.2689550  40.2942570  24.5911450  96.5566800  39.7988470
  25.0817570  96.9242790  41.1830610  23.7083070  94.0432760  44.0741610
  24.2597660  94.1528100  43.2994860  24.2226580  94.4170360  44.7896840
  31.5959800  97.5431920  35.0230840  32.0353080  96.7054350  34.8768660
  32.3088220  98.1761320  35.1094980  23.3825800  97.5652120  47.6846950
  23.2433570  98.4374920  48.0534350  22.5007160  97.2224930  47.5394890
  35.1776940  88.7974730  33.3371880  34.8649600  88.8901560  34.2370950
  35.9389410  89.3755760  33.2869310  21.6959080  96.1634530  37.7949220
  21.5756680  96.8896620  37.1830490  21.3859970  95.3937440  37.3177130
  36.3878230  93.5346230  49.3146020  35.7722500  94.0425900  48.7861480
  36.0674650  92.6344560  49.2571960  24.1622740  89.5069600  41.1772890
  23.7190890  90.2879140  40.8457410  24.7207730  89.8299490  41.8843830
  28.4492550  92.3738120  46.7808210  27.9871920  92.5821140  47.5928150
  28.0470660  91.5597470  46.4778880  33.4497060  93.5947070  47.9104870
  32.5990650  93.2952820  48.2313940  33.2898850  93.8389080  46.9988690
  30.5446770  95.0948820  50.0103660  30.8700180  94.2612570  49.6705890
  31.3327100  95.6177340  50.1581990  27.2781560  89.1280300  36.0578720
  26.6535740  89.1240170  36.7832030  27.1911680  88.2611260  35.6614690
  26.1998640  90.0516930  43.0362490  26.4970970  90.9579760  42.9554510
  26.7484200  89.5635710  42.4222060  23.9536960  94.6303170  38.9054140
  23.7277880  94.4140340  39.8100760  23.1729490  95.0631630  38.5600110
  31.1834720  94.6366540  37.5044790  30.5843610  95.3602340  37.3208410
  31.7314330  94.5743320  36.7221240  26.3936170  95.5288750  49.5714410
  26.2979770  94.5883480  49.4214810  27.2368150  95.7503820  49.1762480
  29.7899590  93.2730080  39.5348070  30.1829160  93.5902280  38.7216760
  30.1516440  92.3941960  39.6492590  21.5246710  91.9402420  47.7248190
  21.1310100  92.7877630  47.9320970  20.8365110  91.3028790  47.9156830
  28.0991760  92.0237390  50.7944930  27.4090080  91.8309590  51.4291020
  28.8424060  92.3072030  51.3269230  18.8263760  89.8630880  41.7578270
  18.5376810  90.4333740  42.4703250  19.5709520  89.3835330  42.1209500
  19.0133990  93.8051000  32.9680990  18.9308660  94.7481760  33.1095980
  18.6617050  93.6625910  32.0893340  30.3754730  95.8635830  43.6298850
  29.6435850  96.3722640  43.9788950  29.9779070  95.0465810  43.3287630
  26.8132120  92.5390030  42.0351340  26.8168180  92.0979980  41.1855880
  27.7083240  92.8607360  42.1423160  22.6634500  92.4216520  40.9945550
  22.3234550  92.8991750  41.7512600  21.9011820  91.9681640  40.6346650
  26.8752270  93.5402110  35.0258100  26.9965090  93.4988590  35.9743920
  26.4900780  94.4026260  34.8704830  30.8380640  91.3169510  43.0421790
  30.8553380  91.7678160  43.8863640  30.5896220  90.4175150  43.2555230
  25.8873770  95.8503250  34.4241400  25.3190670  95.4021500  33.7977310
  26.5962770  96.2096030  33.8906550  34.2651390  88.7301690  48.8808170
  34.5897160  87.9991350  49.4066150  34.3007900  88.4115330  47.9789160
  27.1140090  96.5991810  43.7816750  27.4810220  96.1250380  44.5278090
  26.9245150  97.4733380  44.1225090  19.9780580  91.3435500  39.9110220
  19.6927500  90.9791170  40.7488840  19.9159440  90.6115960  39.2973360
  24.9039460  95.6400450  46.1000960  24.5996530  96.5192430  46.3251320
  25.8585920  95.7000240  46.1358400  29.6519170  90.2364760  36.6323590
  28.8383780  89.7377930  36.5568900  29.4581120  91.0763010  36.2159940
  32.3667560  94.6084410  34.9285750  33.2547180  94.9201640  34.7537090
  32.3372650  93.7356660  34.5366330  20.9603190  96.4803190  47.2472320
  20.6018130  97.1457040  47.8345660  20.6657750  95.6486740  47.6184940
  24.1616310  96.9387430  50.1311870  23.8616450  97.0844610  49.2339690
  24.9327550  96.3792720  50.0385260  34.6381830  95.9196250  34.3965610
  34.5545550  96.3510470  33.5462050  35.3576020  96.3794600  34.8292430
  19.4711240  96.4794450  33.8706920  20.3406090  96.7619250  34.1542840
  18.9801560  97.2930320  33.7555730  22.5357830  88.2105310  38.4637720
  22.4072460  88.2023210  39.4122640  21.7119850  88.5488400  38.1128730
  19.5351760  89.9696430  47.9244420  18.8210280  90.1693350  48.5297030
  19.9546800  89.1936000  48.2959220  31.0290540  92.4618740  45.6745870
  31.3971360  91.6413950  46.0025440  30.1688740  92.5220630  46.0901520
  34.3952570  91.4175680  36.4833430  33.7665730  91.5221350  35.7691660
  33.9004490  91.6372460  37.2727310  26.3636600  93.6961630  37.8991310
  25.6552750  94.1647970  38.3404920  26.6481080  93.0383640  38.5336500
  27.9892530  95.1158330  45.8983840  28.4877780  95.5904150  46.5635690
  28.1315480  94.1921850  46.1053870  30.3952030  90.4212290  39.3387100
  30.2719810  90.4398420  38.3896610  31.3436590  90.4691230  39.4585500
  24.5671620  92.0046710  35.2742020  25.4162150  92.4416860  35.2082210
  24.2002890  92.3166970  36.1014080  35.1959390  91.3326290  46.7412230
  34.6932990  92.0731690  47.0806040  36.0116050  91.7210290  46.4249020
  33.4881400  96.5759470  40.1873590  32.5471540  96.5909700  40.3621280
  33.8025470  95.7895430  40.6333890  23.4663040  98.2579070  33.7477550
  24.2326310  98.1460430  34.3102980  23.5437730  97.5617040  33.0954320
  22.1609800  95.6904140  34.4310440  22.2413390  94.7431650  34.5427840
  23.0529550  96.0211020  34.5371100  19.6880600  97.5119060  49.6666610
  20.1919620  96.9326340  50.2382840  18.9488020  97.7959290  50.2042980
  21.7203680  95.6548650  50.5616680  21.7609020  95.3562520  51.4701910
  22.5749180  96.0556260  50.4024200  25.4982070  98.2544200  35.7220190
  25.9198490  98.0884070  36.5651580  25.6232910  97.4444430  35.2275330
  23.6609490  94.2340750  48.5291170  23.1305950  93.7431700  47.9014510
  24.3297560  94.6624950  47.9949100  28.0109710  97.2781810  32.9697290
  28.5315370  96.5630830  32.6038440  28.6578110  97.9167680  33.2697800
  33.0309720  96.0406370  50.2971510  33.6130490  95.2858690  50.2091990
  33.2071490  96.5713810  49.5202990  24.1481790  91.2003120  48.6088460
  24.0538660  90.5823870  47.8839330  23.5679180  91.9269410  48.3818370
  26.9143230  89.7576360  45.6415850  26.4660530  89.7800620  44.7961400
  26.2808430  89.3595380  46.2386150  29.6566680  96.3846870  47.6466130
  29.7762890  95.7888010  48.3860970  30.5160680  96.4216560  47.2267430
  31.9954580  96.9384060  46.2228640  31.4689800  97.4626680  45.6193780
  32.3385920  97.5711450  46.8538370  24.3940970  94.3277430  32.6678350
  24.1930030  93.4644790  33.0291690  24.2233020  94.2410790  31.7299950
  26.4235450  92.9268220  48.9041950  27.0135140  92.6184070  49.5919770
  25.6055690  92.4547970  49.0601850  31.2428880  92.5434030  49.1374970
  30.5544400  91.8815570  49.0724960  31.9634900  92.0972300  49.5823430
  31.8729280  89.1385660  35.1965230  32.1531570  88.2953560  35.5524650
  31.0995010  89.3708770  35.7103980  23.1923770  91.4278050  32.6556230
  23.4949670  91.4345480  31.7475380  23.9318360  91.0775910  33.1523890
  26.4108700  90.3712670  33.6412430  26.0630700  89.6936660  33.0614880
  26.6121470  89.9102180  34.4555820  19.7514340  96.9000320  40.0376800
  19.0963180  96.6311960  39.3936500  20.5892290  96.7904800  39.5878780
  32.7004780  91.6941610  34.2595290  33.1189660  91.5072590  33.4191950
  32.3940840  90.8420660  34.5698220  36.1994510  96.6065750  37.9571090
  35.8238110  95.8393680  37.5252380  35.4697630  96.9888450  38.4446020
  20.7890270  97.2852890  44.5780140  21.1563310  97.1980290  45.4576160
  20.2201090  96.5219440  44.4787000  35.5894130  95.7537270  47.5910610
  35.3580220  95.5250020  46.6908560  35.8498680  96.6736820  47.5455500
  20.3406270  94.1961980  48.4838560  19.4462320  94.1628740  48.8232270
  20.8803820  94.3948770  49.2489810  34.0282200  90.9793700  50.3690310
  34.9052380  90.9877100  50.7524310  34.0403040  90.2424540  49.7582660
  18.9652420  94.1099250  35.9802130  18.0616500  94.3729450  35.8053790
  19.4493040  94.3810420  35.2002090  35.4745470  94.8323240  41.2578330
  35.9982950  94.3385890  40.6268500  36.0604890  94.9673600  42.0025900
  35.6535190  94.9163110  44.7797880  34.7037900  94.8826650  44.8942870
  35.8348200  95.8263220  44.5447650  21.5079630  93.1664790  33.8896510
  22.2171330  92.7448010  33.4043790  20.7919570  93.2340020  33.2579860
  21.1553790  89.2204120  32.9299160  21.8781920  89.7613060  33.2480380
  21.4278310  88.9467540  32.0540700  34.9645440  94.0896590  37.1970740
  35.4604560  93.8567460  37.9819620  34.7661510  93.2508430  36.7808380
  20.8445980  88.4710310  42.8321780  21.4922170  87.9207690  42.3916940
  21.2647820  88.7253460  43.6537590  36.3932600  92.7257540  39.7308420
  36.2831880  92.5713580  40.6690690  37.1540190  92.1978480  39.4883830
  34.7398320  88.6651670  46.1891420  35.3770540  89.2785810  46.5550610
  34.8873210  88.7012330  45.2440650  37.2822870  90.5565460  32.9714560
  38.2072180  90.4246640  32.7632850  37.2598660  90.6358280  33.9251010
  37.3561360  91.3276120  35.5971270  36.5612860  91.2621240  36.1264180
  37.5604640  92.2626760  35.5856620  20.5977980  88.6265980  45.5747100
  20.2492800  89.0829800  46.3405280  20.2665680  87.7323110  45.6569530
  28.1102800  89.8177860  49.0966520  28.0491690  90.4099690  49.8461930
  29.0503180  89.7103820  48.9516780  30.7477360  89.4747920  48.7358810
  31.3617770  89.7927210  48.0739890  31.2926920  88.9896510  49.3554670
  21.2698620  88.1542180  48.8497870  21.8181610  87.9730230  48.0863980
  21.3353930  87.3636290  49.3854180  31.4885400  88.0380060  45.0628100
  30.6145240  88.3715170  44.8601030  31.3796150  87.5653240  45.8879970
  32.3957380  90.2450930  46.4469820  32.0670740  89.4302690  46.0671550
  33.3439680  90.2020740  46.3235510  29.2360220  88.9549900  44.0021010
  28.4532010  89.4295400  44.2817770  28.9423150  88.0504730  43.8934190
  33.7881290  89.6573000  42.0470100  34.2289380  89.6018100  41.1991700
  33.5188880  90.5731010  42.1180280  35.6519860  89.2888240  40.0578920
  35.5908260  88.3449460  39.9109940  36.4311890  89.3968330  40.6032380
  20.5800630  89.2597380  36.5234730  21.3379990  89.3726260  35.9498760
  20.1177800  90.0966580  36.4778160  27.1214440  91.3736650  39.5137040
  26.3088950  90.9993540  39.1732920  27.6256080  90.6181730  39.8158230
  31.6239420  88.0379100  40.7520110  32.2268790  88.6099310  41.2268630
  30.8832410  88.6018540  40.5294010  34.7674020  88.4400660  36.0260390
  34.9624650  89.3384110  36.2927820  33.9803890  88.2087740  36.5193340
  22.9525780  89.7861430  35.0636700  23.4818540  88.9991230  34.9344650
  23.5854100  90.4652620  35.2972230  25.1463620  89.5236570  38.1182090
  24.5166360  88.8223880  38.2852220  24.6068760  90.2840700  37.9015250
  25.2719180  88.8020550  50.5534580  24.9903450  89.3054150  49.7895400
  25.6538880  88.0042300  50.1876710  31.8734640  88.2174130  51.1315050
  31.7600090  88.5368740  52.0266570  32.6904380  88.6186640  50.8352330
  30.7792790  96.2366600  21.4949790  30.6986840  95.3221210  21.2241500
  30.3657210  96.7333670  20.7889500  28.9110830  98.0145620  23.3759060
  28.1352930  97.5346060  23.6657630  29.5623760  97.3351270  23.2015220
  22.9276660  98.3265430  24.2534820  22.0961540  98.0714140  24.6531330
  23.5357640  98.3976200  24.9892740  21.3368610  93.2867320  18.0377210
  20.4485310  93.6283290  17.9357090  21.6209800  93.0867640  17.1458040
  19.3001620  95.8872970  23.9216910  19.8717730  95.1195170  23.9220550
  19.3003160  96.1861730  23.0123520  20.5426490  91.2957330  25.7085840
  20.3629330  90.3983080  25.9888600  20.1406570  91.8429200  26.3832790
  29.3824990  93.4973190  23.6098150  29.7589810  92.6245070  23.4971820
  29.2844500  93.8331890  22.7188590  23.5130000  91.8698820  19.0715590
  23.6196750  92.7702550  19.3784350  22.6022360  91.8216790  18.7810240
  33.1649110  90.9923630  20.5426490  33.9858730  90.5020200  20.5851970
  33.1983190  91.5821290  21.2958330  21.1613160  93.7917830  24.3168180
  21.8423270  94.0556200  24.9355580  20.8461210  92.9518700  24.6506190
  25.3537730  94.8385190  23.4040770  25.8615950  95.3366160  24.0445790
  25.8850970  94.0620390  23.2280130  37.4548660  93.0090380  27.1070120
  36.7500830  93.3972090  26.5885230  37.7206580  93.7040670  27.7091050
  23.6373830  89.4783750  27.6704190  23.6392270  89.9956140  26.8650090
  22.8078140  89.0013930  27.6474120  33.4010590  92.9324010  23.3154030
  32.6966160  93.2208900  23.8957140  33.7622750  93.7424120  22.9553590
  23.3189160  91.1893710  25.6774640  23.6605970  92.0335760  25.3828510
  22.3804970  91.3377450  25.7939980  36.4697510  92.3778800  23.7063240
  35.5222420  92.4117780  23.8378670  36.7947500  93.1917750  24.0912600
  27.0017050  88.6775980  22.0019230  27.3092030  88.1222870  21.2854730
  26.0717750  88.8120440  21.8192220  29.3897810  96.7424810  18.7379350
  28.4627090  96.6762190  18.9667820  29.5422630  97.6804940  18.6234590
  29.3766890  93.0141810  15.7346510  28.4370560  93.1755770  15.8198970
  29.6950150  93.7327490  15.1882500  35.8979650  97.6960330  25.7125540
  35.0698280  97.7653420  25.2375670  36.4930130  98.2814640  25.2441370
  33.4195100  98.3045110  19.2414600  32.8007520  97.9664660  18.5940900
  33.4019550  97.6604870  19.9493790  32.8621660  94.4829650  26.6580410
  32.4492840  95.3083360  26.9120400  32.1297610  93.8974690  26.4656770
  24.9954450  97.2689550  21.5199080  24.5911450  96.5566800  21.0244980
  25.0817570  96.9242790  22.4087120  23.7083070  94.0432760  25.2998120
  24.2597660  94.1528100  24.5251370  24.2226580  94.4170360  26.0153350
  31.5959800  97.5431920  16.2487350  32.0353080  96.7054350  16.1025170
  32.3088220  98.1761320  16.3351490  23.3825800  97.5652120  28.9103460
  23.2433570  98.4374920  29.2790860  22.5007160  97.2224930  28.7651400
  35.1776940  88.7974730  14.5628390  34.8649600  88.8901560  15.4627460
  35.9389410  89.3755760  14.5125820  21.6959080  96.1634530  19.0205730
  21.5756680  96.8896620  18.4087000  21.3859970  95.3937440  18.5433640
  36.3878230  93.5346230  30.5402530  35.7722500  94.0425900  30.0117990
  36.0674650  92.6344560  30.4828470  24.1622740  89.5069600  22.4029400
  23.7190890  90.2879140  22.0713920  24.7207730  89.8299490  23.1100340
  28.4492550  92.3738120  28.0064720  27.9871920  92.5821140  28.8184660
  28.0470660  91.5597470  27.7035390  33.4497060  93.5947070  29.1361380
  32.5990650  93.2952820  29.4570450  33.2898850  93.8389080  28.2245200
  30.5446770  95.0948820  31.2360170  30.8700180  94.2612570  30.8962400
  31.3327100  95.6177340  31.3838500  27.2781560  89.1280300  17.2835230
  26.6535740  89.1240170  18.0088540  27.1911680  88.2611260  16.8871200
  26.1998640  90.0516930  24.2619000  26.4970970  90.9579760  24.1811020
  26.7484200  89.5635710  23.6478570  23.9536960  94.6303170  20.1310650
  23.7277880  94.4140340  21.0357270  23.1729490  95.0631630  19.7856620
  31.1834720  94.6366540  18.7301300  30.5843610  95.3602340  18.5464920
  31.7314330  94.5743320  17.9477750  26.3936170  95.5288750  30.7970920
  26.2979770  94.5883480  30.6471320  27.2368150  95.7503820  30.4018990
  29.7899590  93.2730080  20.7604580  30.1829160  93.5902280  19.9473270
  30.1516440  92.3941960  20.8749100  21.5246710  91.9402420  28.9504700
  21.1310100  92.7877630  29.1577480  20.8365110  91.3028790  29.1413340
  28.0991760  92.0237390  32.0201440  27.4090080  91.8309590  32.6547530
  28.8424060  92.3072030  32.5525740  18.8263760  89.8630880  22.9834780
  18.5376810  90.4333740  23.6959760  19.5709520  89.3835330  23.3466010
  19.0133990  93.8051000  14.1937500  18.9308660  94.7481760  14.3352490
  18.6617050  93.6625910  13.3149850  30.3754730  95.8635830  24.8555360
  29.6435850  96.3722640  25.2045460  29.9779070  95.0465810  24.5544140
  26.8132120  92.5390030  23.2607850  26.8168180  92.0979980  22.4112390
  27.7083240  92.8607360  23.3679670  22.6634500  92.4216520  22.2202060
  22.3234550  92.8991750  22.9769110  21.9011820  91.9681640  21.8603160
  26.8752270  93.5402110  16.2514610  26.9965090  93.4988590  17.2000430
  26.4900780  94.4026260  16.0961340  30.8380640  91.3169510  24.2678300
  30.8553380  91.7678160  25.1120150  30.5896220  90.4175150  24.4811740
  25.8873770  95.8503250  15.6497910  25.3190670  95.4021500  15.0233820
  26.5962770  96.2096030  15.1163060  34.2651390  88.7301690  30.1064680
  34.5897160  87.9991350  30.6322660  34.3007900  88.4115330  29.2045670
  27.1140090  96.5991810  25.0073260  27.4810220  96.1250380  25.7534600
  26.9245150  97.4733380  25.3481600  19.9780580  91.3435500  21.1366730
  19.6927500  90.9791170  21.9745350  19.9159440  90.6115960  20.5229870
  24.9039460  95.6400450  27.3257470  24.5996530  96.5192430  27.5507830
  25.8585920  95.7000240  27.3614910  29.6519170  90.2364760  17.8580100
  28.8383780  89.7377930  17.7825410  29.4581120  91.0763010  17.4416450
  32.3667560  94.6084410  16.1542260  33.2547180  94.9201640  15.9793600
  32.3372650  93.7356660  15.7622840  20.9603190  96.4803190  28.4728830
  20.6018130  97.1457040  29.0602170  20.6657750  95.6486740  28.8441450
  24.1616310  96.9387430  31.3568380  23.8616450  97.0844610  30.4596200
  24.9327550  96.3792720  31.2641770  34.6381830  95.9196250  15.6222120
  34.5545550  96.3510470  14.7718560  35.3576020  96.3794600  16.0548940
  19.4711240  96.4794450  15.0963430  20.3406090  96.7619250  15.3799350
  18.9801560  97.2930320  14.9812240  22.5357830  88.2105310  19.6894230
  22.4072460  88.2023210  20.6379150  21.7119850  88.5488400  19.3385240
  19.5351760  89.9696430  29.1500930  18.8210280  90.1693350  29.7553540
  19.9546800  89.1936000  29.5215730  31.0290540  92.4618740  26.9002380
  31.3971360  91.6413950  27.2281950  30.1688740  92.5220630  27.3158030
  34.3952570  91.4175680  17.7089940  33.7665730  91.5221350  16.9948170
  33.9004490  91.6372460  18.4983820  26.3636600  93.6961630  19.1247820
  25.6552750  94.1647970  19.5661430  26.6481080  93.0383640  19.7593010
  27.9892530  95.1158330  27.1240350  28.4877780  95.5904150  27.7892200
  28.1315480  94.1921850  27.3310380  30.3952030  90.4212290  20.5643610
  30.2719810  90.4398420  19.6153120  31.3436590  90.4691230  20.6842010
  24.5671620  92.0046710  16.4998530  25.4162150  92.4416860  16.4338720
  24.2002890  92.3166970  17.3270590  35.1959390  91.3326290  27.9668740
  34.6932990  92.0731690  28.3062550  36.0116050  91.7210290  27.6505530
  33.4881400  96.5759470  21.4130100  32.5471540  96.5909700  21.5877790
  33.8025470  95.7895430  21.8590400  23.4663040  98.2579070  14.9734060
  24.2326310  98.1460430  15.5359490  23.5437730  97.5617040  14.3210830
  22.1609800  95.6904140  15.6566950  22.2413390  94.7431650  15.7684350
  23.0529550  96.0211020  15.7627610  19.6880600  97.5119060  30.8923120
  20.1919620  96.9326340  31.4639350  18.9488020  97.7959290  31.4299490
  21.7203680  95.6548650  31.7873190  21.7609020  95.3562520  32.6958420
  22.5749180  96.0556260  31.6280710  25.4982070  98.2544200  16.9476700
  25.9198490  98.0884070  17.7908090  25.6232910  97.4444430  16.4531840
  23.6609490  94.2340750  29.7547680  23.1305950  93.7431700  29.1271020
  24.3297560  94.6624950  29.2205610  28.0109710  97.2781810  14.1953800
  28.5315370  96.5630830  13.8294950  28.6578110  97.9167680  14.4954310
  33.0309720  96.0406370  31.5228020  33.6130490  95.2858690  31.4348500
  33.2071490  96.5713810  30.7459500  24.1481790  91.2003120  29.8344970
  24.0538660  90.5823870  29.1095840  23.5679180  91.9269410  29.6074880
  26.9143230  89.7576360  26.8672360  26.4660530  89.7800620  26.0217910
  26.2808430  89.3595380  27.4642660  29.6566680  96.3846870  28.8722640
  29.7762890  95.7888010  29.6117480  30.5160680  96.4216560  28.4523940
  31.9954580  96.9384060  27.4485150  31.4689800  97.4626680  26.8450290
  32.3385920  97.5711450  28.0794880  24.3940970  94.3277430  13.8934860
  24.1930030  93.4644790  14.2548200  24.2233020  94.2410790  12.9556460
  26.4235450  92.9268220  30.1298460  27.0135140  92.6184070  30.8176280
  25.6055690  92.4547970  30.2858360  31.2428880  92.5434030  30.3631480
  30.5544400  91.8815570  30.2981470  31.9634900  92.0972300  30.8079940
  31.8729280  89.1385660  16.4221740  32.1531570  88.2953560  16.7781160
  31.0995010  89.3708770  16.9360490  23.1923770  91.4278050  13.8812740
  23.4949670  91.4345480  12.9731890  23.9318360  91.0775910  14.3780400
  26.4108700  90.3712670  14.8668940  26.0630700  89.6936660  14.2871390
  26.6121470  89.9102180  15.6812330  19.7514340  96.9000320  21.2633310
  19.0963180  96.6311960  20.6193010  20.5892290  96.7904800  20.8135290
  32.7004780  91.6941610  15.4851800  33.1189660  91.5072590  14.6448460
  32.3940840  90.8420660  15.7954730  36.1994510  96.6065750  19.1827600
  35.8238110  95.8393680  18.7508890  35.4697630  96.9888450  19.6702530
  20.7890270  97.2852890  25.8036650  21.1563310  97.1980290  26.6832670
  20.2201090  96.5219440  25.7043510  35.5894130  95.7537270  28.8167120
  35.3580220  95.5250020  27.9165070  35.8498680  96.6736820  28.7712010
  20.3406270  94.1961980  29.7095070  19.4462320  94.1628740  30.0488780
  20.8803820  94.3948770  30.4746320  34.0282200  90.9793700  31.5946820
  34.9052380  90.9877100  31.9780820  34.0403040  90.2424540  30.9839170
  18.9652420  94.1099250  17.2058640  18.0616500  94.3729450  17.0310300
  19.4493040  94.3810420  16.4258600  35.4745470  94.8323240  22.4834840
  35.9982950  94.3385890  21.8525010  36.0604890  94.9673600  23.2282410
  35.6535190  94.9163110  26.0054390  34.7037900  94.8826650  26.1199380
  35.8348200  95.8263220  25.7704160  21.5079630  93.1664790  15.1153020
  22.2171330  92.7448010  14.6300300  20.7919570  93.2340020  14.4836370
  21.1553790  89.2204120  14.1555670  21.8781920  89.7613060  14.4736890
  21.4278310  88.9467540  13.2797210  34.9645440  94.0896590  18.4227250
  35.4604560  93.8567460  19.2076130  34.7661510  93.2508430  18.0064890
  20.8445980  88.4710310  24.0578290  21.4922170  87.9207690  23.6173450
  21.2647820  88.7253460  24.8794100  36.3932600  92.7257540  20.9564930
  36.2831880  92.5713580  21.8947200  37.1540190  92.1978480  20.7140340
  34.7398320  88.6651670  27.4147930  35.3770540  89.2785810  27.7807120
  34.8873210  88.7012330  26.4697160  37.2822870  90.5565460  14.1971070
  38.2072180  90.4246640  13.9889360  37.2598660  90.6358280  15.1507520
  37.3561360  91.3276120  16.8227780  36.5612860  91.2621240  17.3520690
  37.5604640  92.2626760  16.8113130  20.5977980  88.6265980  26.8003610
  20.2492800  89.0829800  27.5661790  20.2665680  87.7323110  26.8826040
  28.1102800  89.8177860  30.3223030  28.0491690  90.4099690  31.0718440
  29.0503180  89.7103820  30.1773290  30.7477360  89.4747920  29.9615320
  31.3617770  89.7927210  29.2996400  31.2926920  88.9896510  30.5811180
  21.2698620  88.1542180  30.0754380  21.8181610  87.9730230  29.3120490
  21.3353930  87.3636290  30.6110690  31.4885400  88.0380060  26.2884610
  30.6145240  88.3715170  26.0857540  31.3796150  87.5653240  27.1136480
  32.3957380  90.2450930  27.6726330  32.0670740  89.4302690  27.2928060
  33.3439680  90.2020740  27.5492020  29.2360220  88.9549900  25.2277520
  28.4532010  89.4295400  25.5074280  28.9423150  88.0504730  25.1190700
  33.7881290  89.6573000  23.2726610  34.2289380  89.6018100  22.4248210
  33.5188880  90.5731010  23.3436790  35.6519860  89.2888240  21.2835430
  35.5908260  88.3449460  21.1366450  36.4311890  89.3968330  21.8288890
  20.5800630  89.2597380  17.7491240  21.3379990  89.3726260  17.1755270
  20.1177800  90.0966580  17.7034670  27.1214440  91.3736650  20.7393550
  26.3088950  90.9993540  20.3989430  27.6256080  90.6181730  21.0414740
  31.6239420  88.0379100  21.9776620  32.2268790  88.6099310  22.4525140
  30.8832410  88.6018540  21.7550520  34.7674020  88.4400660  17.2516900
  34.9624650  89.3384110  17.5184330  33.9803890  88.2087740  17.7449850
  22.9525780  89.7861430  16.2893210  23.4818540  88.9991230  16.1601160
  23.5854100  90.4652620  16.5228740  25.1463620  89.5236570  19.3438600
  24.5166360  88.8223880  19.5108730  24.6068760  90.2840700  19.1271760
  25.2719180  88.8020550  31.7791090  24.9903450  89.3054150  31.0151910
  25.6538880  88.0042300  31.4133220  31.8734640  88.2174130  32.3571560
  31.7600090  88.5368740  33.2523080  32.6904380  88.6186640  32.0608840
  30.7792790  96.2366600   2.7206300  30.6986840  95.3221210   2.4498010
  30.3657210  96.7333670   2.0146010  28.9110830  98.0145620   4.6015570
  28.1352930  97.5346060   4.8914140  29.5623760  97.3351270   4.4271730
  22.9276660  98.3265430   5.4791330  22.0961540  98.0714140   5.8787840
  23.5357640  98.3976200   6.2149250  19.3001620  95.8872970   5.1473420
  19.8717730  95.1195170   5.1477060  19.3003160  96.1861730   4.2380030
  20.5426490  91.2957330   6.9342350  20.3629330  90.3983080   7.2145110
  20.1406570  91.8429200   7.6089300  29.3824990  93.4973190   4.8354660
  29.7589810  92.6245070   4.7228330  29.2844500  93.8331890   3.9445100
  33.1649110  90.9923630   1.7683000  33.9858730  90.5020200   1.8108480
  33.1983190  91.5821290   2.5214840  21.1613160  93.7917830   5.5424690
  21.8423270  94.0556200   6.1612090  20.8461210  92.9518700   5.8762700
  25.3537730  94.8385190   4.6297280  25.8615950  95.3366160   5.2702300
  25.8850970  94.0620390   4.4536640  37.4548660  93.0090380   8.3326630
  36.7500830  93.3972090   7.8141740  37.7206580  93.7040670   8.9347560
  23.6373830  89.4783750   8.8960700  23.6392270  89.9956140   8.0906600
  22.8078140  89.0013930   8.8730630  33.4010590  92.9324010   4.5410540
  32.6966160  93.2208900   5.1213650  33.7622750  93.7424120   4.1810100
  23.3189160  91.1893710   6.9031150  23.6605970  92.0335760   6.6085020
  22.3804970  91.3377450   7.0196490  36.4697510  92.3778800   4.9319750
  35.5222420  92.4117780   5.0635180  36.7947500  93.1917750   5.3169110
  27.0017050  88.6775980   3.2275740  27.3092030  88.1222870   2.5111240
  26.0717750  88.8120440   3.0448730  35.8979650  97.6960330   6.9382050
  35.0698280  97.7653420   6.4632180  36.4930130  98.2814640   6.4697880
  32.8621660  94.4829650   7.8836920  32.4492840  95.3083360   8.1376910
  32.1297610  93.8974690   7.6913280  24.9954450  97.2689550   2.7455590
  24.5911450  96.5566800   2.2501490  25.0817570  96.9242790   3.6343630
  23.7083070  94.0432760   6.5254630  24.2597660  94.1528100   5.7507880
  24.2226580  94.4170360   7.2409860  23.3825800  97.5652120  10.1359970
  23.2433570  98.4374920  10.5047370  22.5007160  97.2224930   9.9907910
  36.3878230  93.5346230  11.7659040  35.7722500  94.0425900  11.2374500
  36.0674650  92.6344560  11.7084980  24.1622740  89.5069600   3.6285910
  23.7190890  90.2879140   3.2970430  24.7207730  89.8299490   4.3356850
  28.4492550  92.3738120   9.2321230  27.9871920  92.5821140  10.0441170
  28.0470660  91.5597470   8.9291900  33.4497060  93.5947070  10.3617890
  32.5990650  93.2952820  10.6826960  33.2898850  93.8389080   9.4501710
  30.5446770  95.0948820  12.4616680  30.8700180  94.2612570  12.1218910
  31.3327100  95.6177340  12.6095010  26.1998640  90.0516930   5.4875510
  26.4970970  90.9579760   5.4067530  26.7484200  89.5635710   4.8735080
  26.3936170  95.5288750  12.0227430  26.2979770  94.5883480  11.8727830
  27.2368150  95.7503820  11.6275500  21.5246710  91.9402420  10.1761210
  21.1310100  92.7877630  10.3833990  20.8365110  91.3028790  10.3669850
  28.0991760  92.0237390  13.2457950  27.4090080  91.8309590  13.8804040
  28.8424060  92.3072030  13.7782250  18.8263760  89.8630880   4.2091290
  18.5376810  90.4333740   4.9216270  19.5709520  89.3835330   4.5722520
  30.3754730  95.8635830   6.0811870  29.6435850  96.3722640   6.4301970
  29.9779070  95.0465810   5.7800650  26.8132120  92.5390030   4.4864360
  26.8168180  92.0979980   3.6368900  27.7083240  92.8607360   4.5936180
  22.6634500  92.4216520   3.4458570  22.3234550  92.8991750   4.2025620
  21.9011820  91.9681640   3.0859670  30.8380640  91.3169510   5.4934810
  30.8553380  91.7678160   6.3376660  30.5896220  90.4175150   5.7068250
  34.2651390  88.7301690  11.3321190  34.5897160  87.9991350  11.8579170
  34.3007900  88.4115330  10.4302180  27.1140090  96.5991810   6.2329770
  27.4810220  96.1250380   6.9791110  26.9245150  97.4733380   6.5738110
  19.9780580  91.3435500   2.3623240  19.6927500  90.9791170   3.2001860
  19.9159440  90.6115960   1.7486380  24.9039460  95.6400450   8.5513980
  24.5996530  96.5192430   8.7764340  25.8585920  95.7000240   8.5871420
  20.9603190  96.4803190   9.6985340  20.6018130  97.1457040  10.2858680
  20.6657750  95.6486740  10.0697960  24.1616310  96.9387430  12.5824890
  23.8616450  97.0844610  11.6852710  24.9327550  96.3792720  12.4898280
  19.5351760  89.9696430  10.3757440  18.8210280  90.1693350  10.9810050
  19.9546800  89.1936000  10.7472240  31.0290540  92.4618740   8.1258890
  31.3971360  91.6413950   8.4538460  30.1688740  92.5220630   8.5414540
  27.9892530  95.1158330   8.3496860  28.4877780  95.5904150   9.0148710
  28.1315480  94.1921850   8.5566890  35.1959390  91.3326290   9.1925250
  34.6932990  92.0731690   9.5319060  36.0116050  91.7210290   8.8762040
  33.4881400  96.5759470   2.6386610  32.5471540  96.5909700   2.8134300
  33.8025470  95.7895430   3.0846910  19.6880600  97.5119060  12.1179630
  20.1919620  96.9326340  12.6895860  18.9488020  97.7959290  12.6556000
  21.7203680  95.6548650  13.0129700  21.7609020  95.3562520  13.9214930
  22.5749180  96.0556260  12.8537220  23.6609490  94.2340750  10.9804190
  23.1305950  93.7431700  10.3527530  24.3297560  94.6624950  10.4462120
  33.0309720  96.0406370  12.7484530  33.6130490  95.2858690  12.6605010
  33.2071490  96.5713810  11.9716010  24.1481790  91.2003120  11.0601480
  24.0538660  90.5823870  10.3352350  23.5679180  91.9269410  10.8331390
  26.9143230  89.7576360   8.0928870  26.4660530  89.7800620   7.2474420
  26.2808430  89.3595380   8.6899170  29.6566680  96.3846870  10.0979150
  29.7762890  95.7888010  10.8373990  30.5160680  96.4216560   9.6780450
  31.9954580  96.9384060   8.6741660  31.4689800  97.4626680   8.0706800
  32.3385920  97.5711450   9.3051390  26.4235450  92.9268220  11.3554970
  27.0135140  92.6184070  12.0432790  25.6055690  92.4547970  11.5114870
  31.2428880  92.5434030  11.5887990  30.5544400  91.8815570  11.5237980
  31.9634900  92.0972300  12.0336450  19.7514340  96.9000320   2.4889820
  19.0963180  96.6311960   1.8449520  20.5892290  96.7904800   2.0391800
  20.7890270  97.2852890   7.0293160  21.1563310  97.1980290   7.9089180
  20.2201090  96.5219440   6.9300020  35.5894130  95.7537270  10.0423630
  35.3580220  95.5250020   9.1421580  35.8498680  96.6736820   9.9968520
  20.3406270  94.1961980  10.9351580  19.4462320  94.1628740  11.2745290
  20.8803820  94.3948770  11.7002830  34.0282200  90.9793700  12.8203330
  34.9052380  90.9877100  13.2037330  34.0403040  90.2424540  12.2095680
  35.4745470  94.8323240   3.7091350  35.9982950  94.3385890   3.0781520
  36.0604890  94.9673600   4.4538920  35.6535190  94.9163110   7.2310900
  34.7037900  94.8826650   7.3455890  35.8348200  95.8263220   6.9960670
  20.8445980  88.4710310   5.2834800  21.4922170  87.9207690   4.8429960
  21.2647820  88.7253460   6.1050610  36.3932600  92.7257540   2.1821440
  36.2831880  92.5713580   3.1203710  37.1540190  92.1978480   1.9396850
  34.7398320  88.6651670   8.6404440  35.3770540  89.2785810   9.0063630
  34.8873210  88.7012330   7.6953670  20.5977980  88.6265980   8.0260120
  20.2492800  89.0829800   8.7918300  20.2665680  87.7323110   8.1082550
  28.1102800  89.8177860  11.5479540  28.0491690  90.4099690  12.2974950
  29.0503180  89.7103820  11.4029800  30.7477360  89.4747920  11.1871830
  31.3617770  89.7927210  10.5252910  31.2926920  88.9896510  11.8067690
  21.2698620  88.1542180  11.3010890  21.8181610  87.9730230  10.5377000
  21.3353930  87.3636290  11.8367200  31.4885400  88.0380060   7.5141120
  30.6145240  88.3715170   7.3114050  31.3796150  87.5653240   8.3392990
  32.3957380  90.2450930   8.8982840  32.0670740  89.4302690   8.5184570
  33.3439680  90.2020740   8.7748530  29.2360220  88.9549900   6.4534030
  28.4532010  89.4295400   6.7330790  28.9423150  88.0504730   6.3447210
  33.7881290  89.6573000   4.4983120  34.2289380  89.6018100   3.6504720
  33.5188880  90.5731010   4.5693300  35.6519860  89.2888240   2.5091940
  35.5908260  88.3449460   2.3622960  36.4311890  89.3968330   3.0545400
  27.1214440  91.3736650   1.9650060  26.3088950  90.9993540   1.6245940
  27.6256080  90.6181730   2.2671250  31.6239420  88.0379100   3.2033130
  32.2268790  88.6099310   3.6781650  30.8832410  88.6018540   2.9807030
  25.2719180  88.8020550  13.0047600  24.9903450  89.3054150  12.2408420
  25.6538880  88.0042300  12.6389730  31.8734640  88.2174130  13.5828070
  31.7600090  88.5368740  14.4779590  32.6904380  88.6186640  13.2865350
  30.7792790  77.4623110  77.8180260  30.6986840  76.5477720  77.5471970
  30.3657210  77.9590180  77.1119970  28.9110830  79.2402130  79.6989530
  28.1352930  78.7602570  79.9888100  29.5623760  78.5607780  79.5245690
  22.9276660  79.5521940  80.5765290  22.0961540  79.2970650  80.9761800
  23.5357640  79.6232710  81.3123210  32.9318260  83.6462320  78.4788660
  32.4699790  82.8749560  78.8075830  33.7443810  83.6728390  78.9841110
  22.9077920  83.5862030  80.7723310  23.2105960  82.6959770  80.5933530
  23.6521510  84.1432250  80.5445560  21.3368610  74.5123830  74.3607680
  20.4485310  74.8539800  74.2587560  21.6209800  74.3124150  73.4688510
  19.3001620  77.1129480  80.2447380  19.8717730  76.3451680  80.2451020
  19.3003160  77.4118240  79.3353990  29.1581570  85.9320330  78.0992650
  28.5393010  86.3877830  77.5287090  30.0133350  86.0871790  77.6982350
  28.3519820  81.9159320  79.7059690  28.2828100  80.9749260  79.5448820
  29.1139680  82.0060730  80.2782260  29.3824990  74.7229700  79.9328620
  29.7589810  73.8501580  79.8202290  29.2844500  75.0588400  79.0419060
  23.5130000  73.0955330  75.3946060  23.6196750  73.9959060  75.7014820
  22.6022360  73.0473300  75.1040710  33.1649110  72.2180140  76.8656960
  33.9858730  71.7276710  76.9082440  33.1983190  72.8077800  77.6188800
  21.1613160  75.0174340  80.6398650  21.8423270  75.2812710  81.2586050
  20.8461210  74.1775210  80.9736660  25.3537730  76.0641700  79.7271240
  25.8615950  76.5622670  80.3676260  25.8850970  75.2876900  79.5510600
  30.0244920  80.8159570  75.4924560  29.4062190  81.2809020  74.9287280
  30.5368170  81.5087050  75.9094070  33.4010590  74.1580520  79.6384500
  32.6966160  74.4465410  80.2187610  33.7622750  74.9680630  79.2784060
  23.3189160  72.4150220  82.0005110  23.6605970  73.2592270  81.7058980
  22.3804970  72.5633960  82.1170450  19.3928120  81.5016100  72.8664190
  19.0156100  81.9903200  72.1349090  19.6501190  82.1741380  73.4970720
  35.0173370  83.7755650  81.9011980  34.3336890  84.4454760  81.8928650
  35.5567660  83.9736300  81.1356840  36.4697510  73.6035310  80.0293710
  35.5222420  73.6374290  80.1609140  36.7947500  74.4174260  80.4143070
  27.0017050  69.9032490  78.3249700  27.3092030  69.3479380  77.6085200
  26.0717750  70.0376950  78.1422690  32.5532110  85.6199780  80.6157160
  32.5659270  85.2162070  79.7479420  32.0007330  86.3947070  80.5118590
  33.8477530  82.3416000  75.7047330  33.7373860  81.3990330  75.8296750
  33.8445780  82.7031640  76.5910090  29.3897810  77.9681320  75.0609820
  28.4627090  77.9018700  75.2898290  29.5422630  78.9061450  74.9465060
  29.3766890  74.2398320  72.0576980  28.4370560  74.4012280  72.1429440
  29.6950150  74.9584000  71.5112970  35.8979650  78.9216840  82.0356010
  35.0698280  78.9909930  81.5606140  36.4930130  79.5071150  81.5671840
  33.4195100  79.5301620  75.5645070  32.8007520  79.1921170  74.9171370
  33.4019550  78.8861380  76.2724260  24.9954450  78.4946060  77.8429550
  24.5911450  77.7823310  77.3475450  25.0817570  78.1499300  78.7317590
  25.4636150  82.1813620  80.0068760  25.1664440  81.5759090  79.3276540
  26.4135970  82.2190930  79.8958120  31.5959800  78.7688430  72.5717820
  32.0353080  77.9310860  72.4255640  32.3088220  79.4017830  72.6581960
  29.7055180  83.7084500  76.5399060  30.1451090  84.4508830  76.1254450
  29.6442070  83.9511070  77.4638020  35.1776940  70.0231240  70.8858860
  34.8649600  70.1158070  71.7857930  35.9389410  70.6012270  70.8356290
  21.6959080  77.3891040  75.3436200  21.5756680  78.1153130  74.7317470
  21.3859970  76.6193950  74.8664110  19.3344450  80.5606180  81.1504840
  19.4124870  80.6954950  80.2060560  19.9486130  79.8522070  81.3432960
  20.5792080  82.2606370  77.5611020  20.1720160  82.4020960  76.7064620
  21.4705090  81.9766530  77.3582230  32.3725360  86.6953620  73.8962070
  32.2126500  86.4056560  74.7943900  32.2072070  85.9193750  73.3607300
  24.8513740  86.4752150  75.6733690  24.6756220  85.5587690  75.4601490
  23.9969480  86.8339440  75.9131490  32.0751490  84.2041180  72.4560070
  31.3816650  84.2018470  71.7962350  32.8174350  83.7800500  72.0254240
  31.6401420  85.8303890  76.5308560  32.0958370  85.0493270  76.8447180
  31.9793940  86.5410710  77.0749740  24.1622740  70.7326110  78.7259870
  23.7190890  71.5135650  78.3944390  24.7207730  71.0556000  79.4330810
  27.2781560  70.3536810  73.6065700  26.6535740  70.3496680  74.3319010
  27.1911680  69.4867770  73.2101670  26.1998640  71.2773440  80.5849470
  26.4970970  72.1836270  80.5041490  26.7484200  70.7892220  79.9709040
  23.9536960  75.8559680  76.4541120  23.7277880  75.6396850  77.3587740
  23.1729490  76.2888140  76.1087090  31.1834720  75.8623050  75.0531770
  30.5843610  76.5858850  74.8695390  31.7314330  75.7999830  74.2708220
  29.7899590  74.4986590  77.0835050  30.1829160  74.8158790  76.2703740
  30.1516440  73.6198470  77.1979570  18.8263760  71.0887390  79.3065250
  18.5376810  71.6590250  80.0190230  19.5709520  70.6091840  79.6696480
  19.0133990  75.0307510  70.5167970  18.9308660  75.9738270  70.6582960
  18.6617050  74.8882420  69.6380320  30.3754730  77.0892340  81.1785830
  29.6435850  77.5979150  81.5275930  29.9779070  76.2722320  80.8774610
  26.8132120  73.7646540  79.5838320  26.8168180  73.3236490  78.7342860
  27.7083240  74.0863870  79.6910140  22.6634500  73.6473030  78.5432530
  22.3234550  74.1248260  79.2999580  21.9011820  73.1938150  78.1833630
  26.8752270  74.7658620  72.5745080  26.9965090  74.7245100  73.5230900
  26.4900780  75.6282770  72.4191810  30.8380640  72.5426020  80.5908770
  30.8553380  72.9934670  81.4350620  30.5896220  71.6431660  80.8042210
  25.8873770  77.0759760  71.9728380  25.3190670  76.6278010  71.3464290
  26.5962770  77.4352540  71.4393530  27.1140090  77.8248320  81.3303730
  27.4810220  77.3506890  82.0765070  26.9245150  78.6989890  81.6712070
  19.9780580  72.5692010  77.4597200  19.6927500  72.2047680  78.2975820
  19.9159440  71.8372470  76.8460340  23.4321250  81.0717950  74.2454790
  22.6583510  80.5315570  74.0853510  24.1615880  80.5524560  73.9072550
  34.1909230  80.0683310  80.0381180  34.9108350  80.5638600  79.6477290
  33.9891050  79.3901200  79.3935050  29.6519170  71.4621270  74.1810570
  28.8383780  70.9634440  74.1055880  29.4581120  72.3019520  73.7646920
  32.3667560  75.8340920  72.4772730  33.2547180  76.1458150  72.3024070
  32.3372650  74.9613170  72.0853310  23.4758650  80.7398330  77.8833600
  23.9937320  79.9366590  77.8290490  23.0242670  80.6777470  78.7250430
  28.3628150  82.0064610  73.1560900  28.7043850  82.7506840  72.6604220
  27.5340860  82.3195730  73.5185730  34.6381830  77.1452760  71.9452590
  34.5545550  77.5766980  71.0949030  35.3576020  77.6051110  72.3779410
  35.6669080  83.9995020  74.6734720  35.0245240  83.3450640  74.9478440
  35.2799740  84.4050110  73.8975390  31.2455560  81.3280450  78.5206410
  31.5979380  80.7308580  77.8607780  30.3617890  81.0024680  78.6914660
  27.3318840  82.0878140  75.9276820  28.0189970  82.6347350  76.3084410
  26.5451260  82.6318870  75.9626430  19.4711240  77.7050960  71.4193900
  20.3406090  77.9875760  71.7029820  18.9801560  78.5186830  71.3042710
  26.6346050  79.0924170  75.5402180  27.0908830  79.9029420  75.7662370
  26.2834260  78.7747310  76.3720670  22.5357830  69.4361820  76.0124700
  22.4072460  69.4279720  76.9609620  21.7119850  69.7744910  75.6615710
  30.2110740  82.6062860  81.4871930  30.8532970  81.9056020  81.6004100
  30.7360090  83.3861300  81.3068820  34.0566460  82.8911480  71.2111070
  33.8304040  82.1741920  71.8035710  33.6662660  82.6423920  70.3732820
  19.8382490  86.9178340  71.9855530  20.1980130  87.5167680  71.3312800
  19.6974830  87.4638230  72.7590560  33.6382710  80.8083420  72.8725230
  33.3504410  81.2696110  73.6603110  34.4334880  80.3481190  73.1409450
  25.8551110  84.3009540  72.8029200  25.8461210  85.0339230  72.1873710
  24.9349470  84.0541120  72.8956160  21.4557750  79.5224430  73.5475960
  20.8485700  80.2623330  73.5571260  21.9307100  79.6123790  72.7214160
  34.3952570  72.6432190  74.0320410  33.7665730  72.7477860  73.3178640
  33.9004490  72.8628970  74.8214290  28.8410710  84.3637780  71.4654390
  28.9422690  84.1601770  70.5356370  27.9412450  84.1096060  71.6702170
  26.3636600  74.9218140  75.4478290  25.6552750  75.3904480  75.8891900
  26.6481080  74.2640150  76.0823480  30.3952030  71.6468800  76.8874080
  30.2719810  71.6654930  75.9383590  31.3436590  71.6947740  77.0072480
  27.4828820  86.8824100  76.1602060  27.7370320  86.8445490  75.2381430
  26.5341300  86.7557430  76.1530310  24.5671620  73.2303220  72.8229000
  25.4162150  73.6673370  72.7569190  24.2002890  73.5423480  73.6501060
  33.4881400  77.8015980  77.7360570  32.5471540  77.8166210  77.9108260
  33.8025470  77.0151940  78.1820870  23.4663040  79.4835580  71.2964530
  24.2326310  79.3716940  71.8589960  23.5437730  78.7873550  70.6441300
  22.1609800  76.9160650  71.9797420  22.2413390  75.9688160  72.0914820
  23.0529550  77.2467530  72.0858080  35.4906980  84.9724830  79.4114830
  35.6154400  85.7956000  79.8838640  36.3572540  84.7615560  79.0638980
  22.9624510  87.0656040  79.0831960  23.6986990  86.5171500  79.3540530
  23.3465430  87.9312050  78.9437950  19.8469990  83.1329610  74.9573470
  18.9209770  83.3750750  74.9478880  20.3126420  83.9603870  74.8358220
  26.0726820  86.2386350  70.9057530  26.8655430  86.5275180  70.4539320
  25.5531170  85.8078520  70.2270010  35.1256990  85.4656480  72.3294270
  34.8398500  85.0521620  71.5148450  34.9276540  86.3944190  72.2094790
  26.5904220  81.4589760  70.7699880  26.4854860  80.8442110  71.4961260
  26.4228440  80.9355650  69.9862890  29.8306950  80.5209790  71.3741870
  29.2817050  80.9679090  72.0184610  30.4526210  80.0159040  71.8979540
  25.4982070  79.4800710  73.2707170  25.9198490  79.3140580  74.1138560
  25.6232910  78.6700940  72.7762310  28.0109710  78.5038320  70.5184270
  28.5315370  77.7887340  70.1525420  28.6578110  79.1424190  70.8184780
  24.3940970  75.5533940  70.2165330  24.1930030  74.6901300  70.5778670
  24.2233020  75.4667300  69.2786930  31.8729280  70.3642170  72.7452210
  32.1531570  69.5210070  73.1011630  31.0995010  70.5965280  73.2590960
  23.1923770  72.6534560  70.2043210  23.4949670  72.6601990  69.2962360
  23.9318360  72.3032420  70.7010870  26.4108700  71.5969180  71.1899410
  26.0630700  70.9193170  70.6101860  26.6121470  71.1358690  72.0042800
  28.5757740  86.5849930  72.8086010  29.4708530  86.9234900  72.8304770
  28.6075370  85.8629340  72.1810290  22.2153900  81.9576980  71.0373010
  22.6528770  82.5006650  71.6930590  22.7001630  81.1323930  71.0469350
  19.4299700  84.7466010  78.4893270  19.7602710  83.8787070  78.2571910
  19.8590700  84.9524530  79.3198230  24.0261620  83.0775020  76.1495240
  23.7257160  82.9539990  77.0499150  23.9199110  82.2183610  75.7410970
  19.9189910  85.6136600  81.2274900  19.4820900  85.7937400  82.0599050
  20.4867590  86.3711220  81.0856620  36.7953540  82.8571420  70.8521920
  35.9646500  82.9248070  71.3229150  36.9725370  83.7475540  70.5488780
  36.2510000  79.6018900  73.3556120  37.0128910  80.1715550  73.4615810
  36.2664370  79.0346100  74.1264430  19.7514340  78.1256830  77.5863780
  19.0963180  77.8568470  76.9423480  20.5892290  78.0161310  77.1365760
  37.2569970  80.4569000  78.1998050  37.6278800  79.6736320  77.7934020
  37.8971900  81.1458100  78.0215350  36.3029170  79.8953270  70.5128640
  36.5778010  80.8032150  70.3847860  36.1139910  79.8315800  71.4490630
  32.7004780  72.9198120  71.8082270  33.1189660  72.7329100  70.9678930
  32.3940840  72.0677170  72.1185200  36.1994510  77.8322260  75.5058070
  35.8238110  77.0650190  75.0739360  35.4697630  78.2144960  75.9933000
  18.9652420  75.3355760  73.5289110  18.0616500  75.5985960  73.3540770
  19.4493040  75.6066930  72.7489070  35.4745470  76.0579750  78.8065310
  35.9982950  75.5642400  78.1755480  36.0604890  76.1930110  79.5512880
  21.5079630  74.3921300  71.4383490  22.2171330  73.9704520  70.9530770
  20.7919570  74.4596530  70.8066840  21.1553790  70.4460630  70.4786140
  21.8781920  70.9869570  70.7967360  21.4278310  70.1724050  69.6027680
  34.9645440  75.3153100  74.7457720  35.4604560  75.0823970  75.5306600
  34.7661510  74.4764940  74.3295360  20.8445980  69.6966820  80.3808760
  21.4922170  69.1464200  79.9403920  21.2647820  69.9509970  81.2024570
  36.3932600  73.9514050  77.2795400  36.2831880  73.7970090  78.2177670
  37.1540190  73.4234990  77.0370810  37.2822870  71.7821970  70.5201540
  38.2072180  71.6503150  70.3119830  37.2598660  71.8614790  71.4737990
  37.3561360  72.5532630  73.1458250  36.5612860  72.4877750  73.6751160
  37.5604640  73.4883270  73.1343600  34.2979780  86.5924180  77.1396640
  34.8938850  86.2708750  76.4631060  34.5557930  86.1196000  77.9309910
  34.8491990  87.2419480  80.9694370  34.3894960  87.9935290  80.5952390
  34.2204450  86.5225950  80.9109170  25.2787710  85.5507720  80.1442500
  25.7952730  84.9395080  79.6190760  25.9285090  86.0536500  80.6353510
  28.0183210  86.4416210  80.9711480  28.3061020  86.1870510  80.0944490
  28.5306430  85.8893570  81.5617050  29.2360220  70.1806410  81.5507990
  28.4532010  70.6551910  81.8304750  28.9423150  69.2761240  81.4421170
  33.7881290  70.8829510  79.5957080  34.2289380  70.8274610  78.7478680
  33.5188880  71.7987520  79.6667260  35.6519860  70.5144750  77.6065900
  35.5908260  69.5705970  77.4596920  36.4311890  70.6224840  78.1519360
  19.9572610  86.6537110  76.5689850  19.7894650  86.0207790  77.2671740
  19.0907120  86.8596510  76.2184040  20.5800630  70.4853890  74.0721710
  21.3379990  70.5982770  73.4985740  20.1177800  71.3223090  74.0265140
  27.1214440  72.5993160  77.0624020  26.3088950  72.2250050  76.7219900
  27.6256080  71.8438240  77.3645210  31.6239420  69.2635610  78.3007090
  32.2268790  69.8355820  78.7755610  30.8832410  69.8275050  78.0780990
  34.7674020  69.6657170  73.5747370  34.9624650  70.5640620  73.8414800
  33.9803890  69.4344250  74.0680320  21.5635310  85.3470340  74.0139990
  21.0382930  85.7278370  73.3101950  21.4879890  85.9721110  74.7349700
  22.9525780  71.0117940  72.6123680  23.4818540  70.2247740  72.4831630
  23.5854100  71.6909130  72.8459210  25.1463620  70.7493080  75.6669070
  24.5166360  70.0480390  75.8339200  24.6068760  71.5097210  75.4502230
  36.3200630  86.9057880  75.3353930  36.4952820  86.2195620  74.6914850
  35.6222200  87.4304930  74.9430600  24.1628280  87.2952720  72.8889240
  24.8947100  87.0112000  72.3413130  24.4221950  87.0566000  73.7788620
  23.3243070  83.4117450  72.8935570  22.6951950  83.8802550  73.4421400
  23.4390900  82.5666670  73.3281760  30.7792790  77.4623110  59.0436770
  30.6986840  76.5477720  58.7728480  30.3657210  77.9590180  58.3376480
  28.9110830  79.2402130  60.9246040  28.1352930  78.7602570  61.2144610
  29.5623760  78.5607780  60.7502200  22.9276660  79.5521940  61.8021800
  22.0961540  79.2970650  62.2018310  23.5357640  79.6232710  62.5379720
  32.9318260  83.6462320  59.7045170  32.4699790  82.8749560  60.0332340
  33.7443810  83.6728390  60.2097620  22.9077920  83.5862030  61.9979820
  23.2105960  82.6959770  61.8190040  23.6521510  84.1432250  61.7702070
  21.3368610  74.5123830  55.5864190  20.4485310  74.8539800  55.4844070
  21.6209800  74.3124150  54.6945020  19.3001620  77.1129480  61.4703890
  19.8717730  76.3451680  61.4707530  19.3003160  77.4118240  60.5610500
  29.1581570  85.9320330  59.3249160  28.5393010  86.3877830  58.7543600
  30.0133350  86.0871790  58.9238860  28.3519820  81.9159320  60.9316200
  28.2828100  80.9749260  60.7705330  29.1139680  82.0060730  61.5038770
  20.5426490  72.5213840  63.2572820  20.3629330  71.6239590  63.5375580
  20.1406570  73.0685710  63.9319770  29.3824990  74.7229700  61.1585130
  29.7589810  73.8501580  61.0458800  29.2844500  75.0588400  60.2675570
  23.5130000  73.0955330  56.6202570  23.6196750  73.9959060  56.9271330
  22.6022360  73.0473300  56.3297220  33.1649110  72.2180140  58.0913470
  33.9858730  71.7276710  58.1338950  33.1983190  72.8077800  58.8445310
  21.1613160  75.0174340  61.8655160  21.8423270  75.2812710  62.4842560
  20.8461210  74.1775210  62.1993170  25.3537730  76.0641700  60.9527750
  25.8615950  76.5622670  61.5932770  25.8850970  75.2876900  60.7767110
  37.4548660  74.2346890  64.6557100  36.7500830  74.6228600  64.1372210
  37.7206580  74.9297180  65.2578030  23.6373830  70.7040260  65.2191170
  23.6392270  71.2212650  64.4137070  22.8078140  70.2270440  65.1961100
  30.0244920  80.8159570  56.7181070  29.4062190  81.2809020  56.1543790
  30.5368170  81.5087050  57.1350580  24.8876680  80.3435440  63.3964670
  24.5546060  80.9704360  64.0385740  25.0643360  80.8697320  62.6166340
  33.4010590  74.1580520  60.8641010  32.6966160  74.4465410  61.4444120
  33.7622750  74.9680630  60.5040570  23.3189160  72.4150220  63.2261620
  23.6605970  73.2592270  62.9315490  22.3804970  72.5633960  63.3426960
  24.0995780  82.3116240  65.2113850  24.7169780  82.9867320  64.9298300
  23.2388900  82.7204220  65.1201350  19.3928120  81.5016100  54.0920700
  19.0156100  81.9903200  53.3605600  19.6501190  82.1741380  54.7227230
  35.0173370  83.7755650  63.1268490  34.3336890  84.4454760  63.1185160
  35.5567660  83.9736300  62.3613350  36.4697510  73.6035310  61.2550220
  35.5222420  73.6374290  61.3865650  36.7947500  74.4174260  61.6399580
  27.0017050  69.9032490  59.5506210  27.3092030  69.3479380  58.8341710
  26.0717750  70.0376950  59.3679200  32.5532110  85.6199780  61.8413670
  32.5659270  85.2162070  60.9735930  32.0007330  86.3947070  61.7375100
  33.8477530  82.3416000  56.9303840  33.7373860  81.3990330  57.0553260
  33.8445780  82.7031640  57.8166600  31.9517550  80.5229620  63.1696280
  32.3686340  80.3089730  62.3349740  32.6757370  80.7802410  63.7404900
  29.3897810  77.9681320  56.2866330  28.4627090  77.9018700  56.5154800
  29.5422630  78.9061450  56.1721570  29.3766890  74.2398320  53.2833490
  28.4370560  74.4012280  53.3685950  29.6950150  74.9584000  52.7369480
  35.8979650  78.9216840  63.2612520  35.0698280  78.9909930  62.7862650
  36.4930130  79.5071150  62.7928350  33.4195100  79.5301620  56.7901580
  32.8007520  79.1921170  56.1427880  33.4019550  78.8861380  57.4980770
  32.8621660  75.7086160  64.2067390  32.4492840  76.5339870  64.4607380
  32.1297610  75.1231200  64.0143750  24.9954450  78.4946060  59.0686060
  24.5911450  77.7823310  58.5731960  25.0817570  78.1499300  59.9574100
  25.4636150  82.1813620  61.2325270  25.1664440  81.5759090  60.5533050
  26.4135970  82.2190930  61.1214630  23.7083070  75.2689270  62.8485100
  24.2597660  75.3784610  62.0738350  24.2226580  75.6426870  63.5640330
  33.5521760  85.7545490  64.8948370  33.0752320  86.5617680  64.7020980
  32.8683550  85.1023820  65.0474580  24.5554580  81.9195310  67.8833070
  23.6583110  82.1435280  68.1306470  24.5807450  82.0430250  66.9344470
  31.5959800  78.7688430  53.7974330  32.0353080  77.9310860  53.6512150
  32.3088220  79.4017830  53.8838470  23.3825800  78.7908630  66.4590440
  23.2433570  79.6631430  66.8277840  22.5007160  78.4481440  66.3138380
  29.7055180  83.7084500  57.7655570  30.1451090  84.4508830  57.3510960
  29.6442070  83.9511070  58.6894530  25.1806150  84.7330330  68.6675590
  25.1521580  85.1373280  67.8004020  25.0171120  83.8040690  68.5047190
  35.1776940  70.0231240  52.1115370  34.8649600  70.1158070  53.0114440
  35.9389410  70.6012270  52.0612800  21.6959080  77.3891040  56.5692710
  21.5756680  78.1153130  55.9573980  21.3859970  76.6193950  56.0920620
  37.1320970  85.5157430  69.9639760  37.6080690  85.9940320  70.6428840
  37.7528130  85.4474920  69.2385260  19.3344450  80.5606180  62.3761350
  19.4124870  80.6954950  61.4317070  19.9486130  79.8522070  62.5689470
  20.5792080  82.2606370  58.7867530  20.1720160  82.4020960  57.9321130
  21.4705090  81.9766530  58.5838740  36.5354220  82.7070280  67.1239770
  36.6617280  82.4682160  66.2056950  36.5775600  81.8754820  67.5961850
  30.3970960  86.4098280  65.6934580  30.9115630  86.3206290  66.4957010
  29.5540040  86.7557980  65.9862490  32.3725360  86.6953620  55.1218580
  32.2126500  86.4056560  56.0200410  32.2072070  85.9193750  54.5863810
  24.8513740  86.4752150  56.8990200  24.6756220  85.5587690  56.6858000
  23.9969480  86.8339440  57.1388000  32.0751490  84.2041180  53.6816580
  31.3816650  84.2018470  53.0218860  32.8174350  83.7800500  53.2510750
  31.6401420  85.8303890  57.7565070  32.0958370  85.0493270  58.0703690
  31.9793940  86.5410710  58.3006250  36.3878230  74.7602740  68.0889510
  35.7722500  75.2682410  67.5604970  36.0674650  73.8601070  68.0315450
  19.3903970  81.6020350  64.9155810  19.5535010  81.1325710  64.0975180
  19.8556420  81.0943910  65.5804650  24.1622740  70.7326110  59.9516380
  23.7190890  71.5135650  59.6200900  24.7207730  71.0556000  60.6587320
  28.4492550  73.5994630  65.5551700  27.9871920  73.8077650  66.3671640
  28.0470660  72.7853980  65.2522370  33.4497060  74.8203580  66.6848360
  32.5990650  74.5209330  67.0057430  33.2898850  75.0645590  65.7732180
  30.5446770  76.3205330  68.7847150  30.8700180  75.4869080  68.4449380
  31.3327100  76.8433850  68.9325480  27.2781560  70.3536810  54.8322210
  26.6535740  70.3496680  55.5575520  27.1911680  69.4867770  54.4358180
  26.1998640  71.2773440  61.8105980  26.4970970  72.1836270  61.7298000
  26.7484200  70.7892220  61.1965550  23.9536960  75.8559680  57.6797630
  23.7277880  75.6396850  58.5844250  23.1729490  76.2888140  57.3343600
  31.1834720  75.8623050  56.2788280  30.5843610  76.5858850  56.0951900
  31.7314330  75.7999830  55.4964730  26.3936170  76.7545260  68.3457900
  26.2979770  75.8139990  68.1958300  27.2368150  76.9760330  67.9505970
  29.7899590  74.4986590  58.3091560  30.1829160  74.8158790  57.4960250
  30.1516440  73.6198470  58.4236080  21.5246710  73.1658930  66.4991680
  21.1310100  74.0134140  66.7064460  20.8365110  72.5285300  66.6900320
  28.0991760  73.2493900  69.5688420  27.4090080  73.0566100  70.2034510
  28.8424060  73.5328540  70.1012720  18.8263760  71.0887390  60.5321760
  18.5376810  71.6590250  61.2446740  19.5709520  70.6091840  60.8952990
  19.0133990  75.0307510  51.7424480  18.9308660  75.9738270  51.8839470
  18.6617050  74.8882420  50.8636830  30.3754730  77.0892340  62.4042340
  29.6435850  77.5979150  62.7532440  29.9779070  76.2722320  62.1031120
  26.8132120  73.7646540  60.8094830  26.8168180  73.3236490  59.9599370
  27.7083240  74.0863870  60.9166650  22.6634500  73.6473030  59.7689040
  22.3234550  74.1248260  60.5256090  21.9011820  73.1938150  59.4090140
  26.8752270  74.7658620  53.8001590  26.9965090  74.7245100  54.7487410
  26.4900780  75.6282770  53.6448320  30.8380640  72.5426020  61.8165280
  30.8553380  72.9934670  62.6607130  30.5896220  71.6431660  62.0298720
  25.8873770  77.0759760  53.1984890  25.3190670  76.6278010  52.5720800
  26.5962770  77.4352540  52.6650040  34.2651390  69.9558200  67.6551660
  34.5897160  69.2247860  68.1809640  34.3007900  69.6371840  66.7532650
  20.9642950  80.9771780  67.0751620  20.5797740  80.3365450  67.6734580
  21.2755140  81.6807900  67.6446350  27.1140090  77.8248320  62.5560240
  27.4810220  77.3506890  63.3021580  26.9245150  78.6989890  62.8968580
  19.9780580  72.5692010  58.6853710  19.6927500  72.2047680  59.5232330
  19.9159440  71.8372470  58.0716850  24.9039460  76.8656960  64.8744450
  24.5996530  77.7448940  65.0994810  25.8585920  76.9256750  64.9101890
  23.4321250  81.0717950  55.4711300  22.6583510  80.5315570  55.3110020
  24.1615880  80.5524560  55.1329060  34.1909230  80.0683310  61.2637690
  34.9108350  80.5638600  60.8733800  33.9891050  79.3901200  60.6191560
  29.6519170  71.4621270  55.4067080  28.8383780  70.9634440  55.3312390
  29.4581120  72.3019520  54.9903430  29.5728030  80.1392370  67.1506690
  29.5065340  79.2188040  66.8964280  28.9433170  80.2367810  67.8651330
  32.3667560  75.8340920  53.7029240  33.2547180  76.1458150  53.5280580
  32.3372650  74.9613170  53.3109820  23.4758650  80.7398330  59.1090110
  23.9937320  79.9366590  59.0547000  23.0242670  80.6777470  59.9506940
  28.3628150  82.0064610  54.3817410  28.7043850  82.7506840  53.8860730
  27.5340860  82.3195730  54.7442240  20.9603190  77.7059700  66.0215810
  20.6018130  78.3713550  66.6089150  20.6657750  76.8743250  66.3928430
  24.1616310  78.1643940  68.9055360  23.8616450  78.3101120  68.0083180
  24.9327550  77.6049230  68.8128750  29.5044760  82.9612940  66.9010490
  29.5189300  82.0293900  66.6829400  28.7969860  83.0472700  67.5400260
  34.6381830  77.1452760  53.1709100  34.5545550  77.5766980  52.3205540
  35.3576020  77.6051110  53.6035920  35.7155970  79.6020280  66.2479070
  34.9904160  80.1949060  66.0508460  36.2431430  79.5943820  65.4492440
  35.6669080  83.9995020  55.8991230  35.0245240  83.3450640  56.1734950
  35.2799740  84.4050110  55.1231900  31.2455560  81.3280450  59.7462920
  31.5979380  80.7308580  59.0864290  30.3617890  81.0024680  59.9171170
  27.3318840  82.0878140  57.1533330  28.0189970  82.6347350  57.5340920
  26.5451260  82.6318870  57.1882940  19.4711240  77.7050960  52.6450410
  20.3406090  77.9875760  52.9286330  18.9801560  78.5186830  52.5299220
  26.6346050  79.0924170  56.7658690  27.0908830  79.9029420  56.9918880
  26.2834260  78.7747310  57.5977180  28.9378660  84.6030510  63.9950990
  29.5820880  84.8089890  64.6724410  29.3008100  83.8418910  63.5421840
  22.5357830  69.4361820  57.2381210  22.4072460  69.4279720  58.1866130
  21.7119850  69.7744910  56.8872220  30.2110740  82.6062860  62.7128440
  30.8532970  81.9056020  62.8260610  30.7360090  83.3861300  62.5325330
  34.0566460  82.8911480  52.4367580  33.8304040  82.1741920  53.0292220
  33.6662660  82.6423920  51.5989330  31.9848360  83.4057760  65.9164500
  32.3204600  83.9924450  66.5942420  31.0648700  83.2750470  66.1462290
  19.8382490  86.9178340  53.2112040  20.1980130  87.5167680  52.5569310
  19.6974830  87.4638230  53.9847070  19.5351760  71.1952940  66.6987910
  18.8210280  71.3949860  67.3040520  19.9546800  70.4192510  67.0702710
  33.6382710  80.8083420  54.0981740  33.3504410  81.2696110  54.8859620
  34.4334880  80.3481190  54.3665960  19.8224350  85.1833200  67.6854440
  19.9315470  84.2427940  67.5449830  19.1704910  85.4487950  67.0368170
  27.8136940  83.4549090  69.0852560  27.4933810  82.7358330  69.6298250
  27.1395300  84.1304160  69.1588620  25.8551110  84.3009540  54.0285710
  25.8461210  85.0339230  53.4130220  24.9349470  84.0541120  54.1212670
  21.4557750  79.5224430  54.7732470  20.8485700  80.2623330  54.7827770
  21.9307100  79.6123790  53.9470670  31.0290540  73.6875250  64.4489360
  31.3971360  72.8670460  64.7768930  30.1688740  73.7477140  64.8645010
  34.3952570  72.6432190  55.2576920  33.7665730  72.7477860  54.5435150
  33.9004490  72.8628970  56.0470800  28.8410710  84.3637780  52.6910900
  28.9422690  84.1601770  51.7612880  27.9412450  84.1096060  52.8958680
  26.3636600  74.9218140  56.6734800  25.6552750  75.3904480  57.1148410
  26.6481080  74.2640150  57.3079990  27.9892530  76.3414840  64.6727330
  28.4877780  76.8160660  65.3379180  28.1315480  75.4178360  64.8797360
  30.3952030  71.6468800  58.1130590  30.2719810  71.6654930  57.1640100
  31.3436590  71.6947740  58.2328990  27.4828820  86.8824100  57.3858570
  27.7370320  86.8445490  56.4637940  26.5341300  86.7557430  57.3786820
  24.5671620  73.2303220  54.0485510  25.4162150  73.6673370  53.9825700
  24.2002890  73.5423480  54.8757570  35.1959390  72.5582800  65.5155720
  34.6932990  73.2988200  65.8549530  36.0116050  72.9466800  65.1992510
  33.4881400  77.8015980  58.9617080  32.5471540  77.8166210  59.1364770
  33.8025470  77.0151940  59.4077380  23.4663040  79.4835580  52.5221040
  24.2326310  79.3716940  53.0846470  23.5437730  78.7873550  51.8697810
  22.1609800  76.9160650  53.2053930  22.2413390  75.9688160  53.3171330
  23.0529550  77.2467530  53.3114590  35.4906980  84.9724830  60.6371340
  35.6154400  85.7956000  61.1095150  36.3572540  84.7615560  60.2895490
  22.9624510  87.0656040  60.3088470  23.6986990  86.5171500  60.5797040
  23.3465430  87.9312050  60.1694460  19.8469990  83.1329610  56.1829980
  18.9209770  83.3750750  56.1735390  20.3126420  83.9603870  56.0614730
  21.9682790  86.2502110  69.4974050  22.7695520  86.5714160  69.9109450
  21.4534610  85.8897690  70.2193960  26.0726820  86.2386350  52.1314040
  26.8655430  86.5275180  51.6795830  25.5531170  85.8078520  51.4526520
  30.8047420  82.3581980  69.4449460  30.1985580  82.3813580  68.7045210
  30.5001530  81.6265020  69.9816710  32.2347790  86.0862270  68.0558870
  33.1869540  86.0020290  68.0059110  32.0876010  86.7503980  68.7292660
  35.1256990  85.4656480  53.5550780  34.8398500  85.0521620  52.7404960
  34.9276540  86.3944190  53.4351300  19.6880600  78.7375570  68.4410100
  20.1919620  78.1582850  69.0126330  18.9488020  79.0215800  68.9786470
  26.5904220  81.4589760  51.9956390  26.4854860  80.8442110  52.7217770
  26.4228440  80.9355650  51.2119400  26.7418540  80.1446560  67.9745620
  25.9764210  80.7131560  67.8900290  26.9234500  79.8522770  67.0813850
  29.8306950  80.5209790  52.5998380  29.2817050  80.9679090  53.2441120
  30.4526210  80.0159040  53.1236050  33.8841890  81.8751890  68.5320640
  34.6251360  82.2127650  68.0288100  33.1214570  82.0443950  67.9790410
  21.7203680  76.8805160  69.3360170  21.7609020  76.5819030  70.2445400
  22.5749180  77.2812770  69.1767690  25.4982070  79.4800710  54.4963680
  25.9198490  79.3140580  55.3395070  25.6232910  78.6700940  54.0018820
  23.6609490  75.4597260  67.3034660  23.1305950  74.9688210  66.6758000
  24.3297560  75.8881460  66.7692590  28.0109710  78.5038320  51.7440780
  28.5315370  77.7887340  51.3781930  28.6578110  79.1424190  52.0441290
  32.5587550  79.9266720  67.0675850  32.9728570  80.0811800  67.9166270
  31.6238550  80.0521940  67.2301630  33.0309720  77.2662880  69.0715000
  33.6130490  76.5115200  68.9835480  33.2071490  77.7970320  68.2946480
  24.1481790  72.4259630  67.3831950  24.0538660  71.8080380  66.6582820
  23.5679180  73.1525920  67.1561860  26.9143230  70.9832870  64.4159340
  26.4660530  71.0057130  63.5704890  26.2808430  70.5851890  65.0129640
  27.3202780  79.8787200  65.0371780  27.7390890  80.7219930  64.8648020
  26.4011410  80.0159240  64.8078560  29.6566680  77.6103380  66.4209620
  29.7762890  77.0144520  67.1604460  30.5160680  77.6473070  66.0010920
  31.9954580  78.1640570  64.9972130  31.4689800  78.6883190  64.3937270
  32.3385920  78.7967960  65.6281860  24.3940970  75.5533940  51.4421840
  24.1930030  74.6901300  51.8035180  24.2233020  75.4667300  50.5043440
  25.1710200  86.1840210  66.1529510  24.6331290  86.9086270  65.8338210
  25.4244160  85.7070550  65.3626850  26.4235450  74.1524730  67.6785440
  27.0135140  73.8440580  68.3663260  25.6055690  73.6804480  67.8345340
  31.2428880  73.7690540  67.9118460  30.5544400  73.1072080  67.8468450
  31.9634900  73.3228810  68.3566920  31.8729280  70.3642170  53.9708720
  32.1531570  69.5210070  54.3268140  31.0995010  70.5965280  54.4847470
  23.1923770  72.6534560  51.4299720  23.4949670  72.6601990  50.5218870
  23.9318360  72.3032420  51.9267380  28.0272410  87.4191420  66.4116160
  27.9531110  88.3226560  66.7188530  27.1251250  87.1003320  66.3838230
  26.4108700  71.5969180  52.4155920  26.0630700  70.9193170  51.8358370
  26.6121470  71.1358690  53.2299310  28.5757740  86.5849930  54.0342520
  29.4708530  86.9234900  54.0561280  28.6075370  85.8629340  53.4066800
  22.2153900  81.9576980  52.2629520  22.6528770  82.5006650  52.9187100
  22.7001630  81.1323930  52.2725860  19.4299700  84.7466010  59.7149780
  19.7602710  83.8787070  59.4828420  19.8590700  84.9524530  60.5454740
  24.0261620  83.0775020  57.3751750  23.7257160  82.9539990  58.2755660
  23.9199110  82.2183610  56.9667480  19.9189910  85.6136600  62.4531410
  19.4820900  85.7937400  63.2855560  20.4867590  86.3711220  62.3113130
  35.5552090  85.1153600  66.7408720  34.9554080  85.1746160  65.9972640
  35.6845990  84.1758580  66.8705570  36.7953540  82.8571420  52.0778430
  35.9646500  82.9248070  52.5485660  36.9725370  83.7475540  51.7745290
  36.2510000  79.6018900  54.5812630  37.0128910  80.1715550  54.6872320
  36.2664370  79.0346100  55.3520940  19.7514340  78.1256830  58.8120290
  19.0963180  77.8568470  58.1679990  20.5892290  78.0161310  58.3622270
  37.2569970  80.4569000  59.4254560  37.6278800  79.6736320  59.0190530
  37.8971900  81.1458100  59.2471860  34.2403730  81.8405580  64.8384880
  33.4263570  82.2702740  65.1010670  34.6477930  82.4523990  64.2253930
  36.3029170  79.8953270  51.7385150  36.5778010  80.8032150  51.6104370
  36.1139910  79.8315800  52.6747140  32.7004780  72.9198120  53.0338780
  33.1189660  72.7329100  52.1935440  32.3940840  72.0677170  53.3441710
  36.1994510  77.8322260  56.7314580  35.8238110  77.0650190  56.2995870
  35.4697630  78.2144960  57.2189510  20.7890270  78.5109400  63.3523630
  21.1563310  78.4236800  64.2319650  20.2201090  77.7475950  63.2530490
  35.5894130  76.9793780  66.3654100  35.3580220  76.7506530  65.4652050
  35.8498680  77.8993330  66.3198990  20.3406270  75.4218490  67.2582050
  19.4462320  75.3885250  67.5975760  20.8803820  75.6205280  68.0233300
  34.0282200  72.2050210  69.1433800  34.9052380  72.2133610  69.5267800
  34.0403040  71.4681050  68.5326150  18.9652420  75.3355760  54.7545620
  18.0616500  75.5985960  54.5797280  19.4493040  75.6066930  53.9745580
  35.4745470  76.0579750  60.0321820  35.9982950  75.5642400  59.4011990
  36.0604890  76.1930110  60.7769390  35.6535190  76.1419620  63.5541370
  34.7037900  76.1083160  63.6686360  35.8348200  77.0519730  63.3191140
  21.5079630  74.3921300  52.6640000  22.2171330  73.9704520  52.1787280
  20.7919570  74.4596530  52.0323350  21.1553790  70.4460630  51.7042650
  21.8781920  70.9869570  52.0223870  21.4278310  70.1724050  50.8284190
  34.9645440  75.3153100  55.9714230  35.4604560  75.0823970  56.7563110
  34.7661510  74.4764940  55.5551870  20.8445980  69.6966820  61.6065270
  21.4922170  69.1464200  61.1660430  21.2647820  69.9509970  62.4281080
  36.3932600  73.9514050  58.5051910  36.2831880  73.7970090  59.4434180
  37.1540190  73.4234990  58.2627320  34.7398320  69.8908180  64.9634910
  35.3770540  70.5042320  65.3294100  34.8873210  69.9268840  64.0184140
  37.2822870  71.7821970  51.7458050  38.2072180  71.6503150  51.5376340
  37.2598660  71.8614790  52.6994500  37.3561360  72.5532630  54.3714760
  36.5612860  72.4877750  54.9007670  37.5604640  73.4883270  54.3600110
  34.2979780  86.5924180  58.3653150  34.8938850  86.2708750  57.6887570
  34.5557930  86.1196000  59.1566420  20.5977980  69.8522490  64.3490590
  20.2492800  70.3086310  65.1148770  20.2665680  68.9579620  64.4313020
  22.2042350  83.0242090  68.5143780  22.1611980  82.6535000  69.3958240
  22.3353360  83.9619660  68.6545600  25.9048380  84.5801680  64.1153500
  25.6639740  84.8476240  63.2284020  26.8451020  84.7507410  64.1704360
  28.1102800  71.0434370  67.8710010  28.0491690  71.6356200  68.6205420
  29.0503180  70.9360330  67.7260270  30.7477360  70.7004430  67.5102300
  31.3617770  71.0183720  66.8483380  31.2926920  70.2153020  68.1298160
  37.1652540  86.5996060  64.9164140  36.6710820  86.9964930  64.1991270
  36.5565830  85.9745270  65.3101420  21.2698620  69.3798690  67.6241360
  21.8181610  69.1986740  66.8607470  21.3353930  68.5892800  68.1597670
  22.0430380  85.9704340  65.6341560  21.4490700  85.8389040  66.3731600
  22.0354220  85.1342480  65.1683660  31.4885400  69.2636570  63.8371590
  30.6145240  69.5971680  63.6344520  31.3796150  68.7909750  64.6623460
  32.3957380  71.4707440  65.2213310  32.0670740  70.6559200  64.8415040
  33.3439680  71.4277250  65.0979000  34.8491990  87.2419480  62.1950880
  34.3894960  87.9935290  61.8208900  34.2204450  86.5225950  62.1365680
  21.6742610  83.3362720  64.5849600  20.9476670  82.7168010  64.5175550
  21.7351760  83.7303330  63.7147680  25.2787710  85.5507720  61.3699010
  25.7952730  84.9395080  60.8447270  25.9285090  86.0536500  61.8610020
  28.0183210  86.4416210  62.1967990  28.3061020  86.1870510  61.3201000
  28.5306430  85.8893570  62.7873560  29.2360220  70.1806410  62.7764500
  28.4532010  70.6551910  63.0561260  28.9423150  69.2761240  62.6677680
  33.7881290  70.8829510  60.8213590  34.2289380  70.8274610  59.9735190
  33.5188880  71.7987520  60.8923770  35.6519860  70.5144750  58.8322410
  35.5908260  69.5705970  58.6853430  36.4311890  70.6224840  59.3775870
  19.9572610  86.6537110  57.7946360  19.7894650  86.0207790  58.4928250
  19.0907120  86.8596510  57.4440550  20.5800630  70.4853890  55.2978220
  21.3379990  70.5982770  54.7242250  20.1177800  71.3223090  55.2521650
  27.1214440  72.5993160  58.2880530  26.3088950  72.2250050  57.9476410
  27.6256080  71.8438240  58.5901720  31.6239420  69.2635610  59.5263600
  32.2268790  69.8355820  60.0012120  30.8832410  69.8275050  59.3037500
  34.7674020  69.6657170  54.8003880  34.9624650  70.5640620  55.0671310
  33.9803890  69.4344250  55.2936830  21.5635310  85.3470340  55.2396500
  21.0382930  85.7278370  54.5358460  21.4879890  85.9721110  55.9606210
  22.9525780  71.0117940  53.8380190  23.4818540  70.2247740  53.7088140
  23.5854100  71.6909130  54.0715720  25.1463620  70.7493080  56.8925580
  24.5166360  70.0480390  57.0595710  24.6068760  71.5097210  56.6758740
  28.0855570  87.3632310  69.5636190  29.0122880  87.1276580  69.6072150
  28.0706000  88.1904310  69.0822220  36.3200630  86.9057880  56.5610440
  36.4952820  86.2195620  55.9171360  35.6222200  87.4304930  56.1687110
  25.2719180  70.0277060  69.3278070  24.9903450  70.5310660  68.5638890
  25.6538880  69.2298810  68.9620200  24.1628280  87.2952720  54.1145750
  24.8947100  87.0112000  53.5669640  24.4221950  87.0566000  55.0045130
  23.3243070  83.4117450  54.1192080  22.6951950  83.8802550  54.6677910
  23.4390900  82.5666670  54.5538270  31.8734640  69.4430640  69.9058540
  31.7600090  69.7625250  70.8010060  32.6904380  69.8443150  69.6095820
  34.6533130  86.5902170  69.3877230  35.4458450  86.0951400  69.1803190
  34.9466280  87.2692310  69.9952840  30.7792790  77.4623110  40.2693280
  30.6986840  76.5477720  39.9984990  30.3657210  77.9590180  39.5632990
  28.9110830  79.2402130  42.1502550  28.1352930  78.7602570  42.4401120
  29.5623760  78.5607780  41.9758710  22.9276660  79.5521940  43.0278310
  22.0961540  79.2970650  43.4274820  23.5357640  79.6232710  43.7636230
  32.9318260  83.6462320  40.9301680  32.4699790  82.8749560  41.2588850
  33.7443810  83.6728390  41.4354130  22.9077920  83.5862030  43.2236330
  23.2105960  82.6959770  43.0446550  23.6521510  84.1432250  42.9958580
  21.3368610  74.5123830  36.8120700  20.4485310  74.8539800  36.7100580
  21.6209800  74.3124150  35.9201530  19.3001620  77.1129480  42.6960400
  19.8717730  76.3451680  42.6964040  19.3003160  77.4118240  41.7867010
  29.1581570  85.9320330  40.5505670  28.5393010  86.3877830  39.9800110
  30.0133350  86.0871790  40.1495370  28.3519820  81.9159320  42.1572710
  28.2828100  80.9749260  41.9961840  29.1139680  82.0060730  42.7295280
  20.5426490  72.5213840  44.4829330  20.3629330  71.6239590  44.7632090
  20.1406570  73.0685710  45.1576280  29.3824990  74.7229700  42.3841640
  29.7589810  73.8501580  42.2715310  29.2844500  75.0588400  41.4932080
  23.5130000  73.0955330  37.8459080  23.6196750  73.9959060  38.1527840
  22.6022360  73.0473300  37.5553730  33.1649110  72.2180140  39.3169980
  33.9858730  71.7276710  39.3595460  33.1983190  72.8077800  40.0701820
  21.1613160  75.0174340  43.0911670  21.8423270  75.2812710  43.7099070
  20.8461210  74.1775210  43.4249680  25.3537730  76.0641700  42.1784260
  25.8615950  76.5622670  42.8189280  25.8850970  75.2876900  42.0023620
  37.4548660  74.2346890  45.8813610  36.7500830  74.6228600  45.3628720
  37.7206580  74.9297180  46.4834540  23.6373830  70.7040260  46.4447680
  23.6392270  71.2212650  45.6393580  22.8078140  70.2270440  46.4217610
  30.0244920  80.8159570  37.9437580  29.4062190  81.2809020  37.3800300
  30.5368170  81.5087050  38.3607090  24.8876680  80.3435440  44.6221180
  24.5546060  80.9704360  45.2642250  25.0643360  80.8697320  43.8422850
  33.4010590  74.1580520  42.0897520  32.6966160  74.4465410  42.6700630
  33.7622750  74.9680630  41.7297080  23.3189160  72.4150220  44.4518130
  23.6605970  73.2592270  44.1572000  22.3804970  72.5633960  44.5683470
  24.0995780  82.3116240  46.4370360  24.7169780  82.9867320  46.1554810
  23.2388900  82.7204220  46.3457860  19.3928120  81.5016100  35.3177210
  19.0156100  81.9903200  34.5862110  19.6501190  82.1741380  35.9483740
  35.0173370  83.7755650  44.3525000  34.3336890  84.4454760  44.3441670
  35.5567660  83.9736300  43.5869860  36.4697510  73.6035310  42.4806730
  35.5222420  73.6374290  42.6122160  36.7947500  74.4174260  42.8656090
  27.0017050  69.9032490  40.7762720  27.3092030  69.3479380  40.0598220
  26.0717750  70.0376950  40.5935710  32.5532110  85.6199780  43.0670180
  32.5659270  85.2162070  42.1992440  32.0007330  86.3947070  42.9631610
  33.8477530  82.3416000  38.1560350  33.7373860  81.3990330  38.2809770
  33.8445780  82.7031640  39.0423110  31.9517550  80.5229620  44.3952790
  32.3686340  80.3089730  43.5606250  32.6757370  80.7802410  44.9661410
  29.3897810  77.9681320  37.5122840  28.4627090  77.9018700  37.7411310
  29.5422630  78.9061450  37.3978080  29.3766890  74.2398320  34.5090000
  28.4370560  74.4012280  34.5942460  29.6950150  74.9584000  33.9625990
  35.8979650  78.9216840  44.4869030  35.0698280  78.9909930  44.0119160
  36.4930130  79.5071150  44.0184860  33.4195100  79.5301620  38.0158090
  32.8007520  79.1921170  37.3684390  33.4019550  78.8861380  38.7237280
  32.8621660  75.7086160  45.4323900  32.4492840  76.5339870  45.6863890
  32.1297610  75.1231200  45.2400260  24.9954450  78.4946060  40.2942570
  24.5911450  77.7823310  39.7988470  25.0817570  78.1499300  41.1830610
  25.4636150  82.1813620  42.4581780  25.1664440  81.5759090  41.7789560
  26.4135970  82.2190930  42.3471140  23.7083070  75.2689270  44.0741610
  24.2597660  75.3784610  43.2994860  24.2226580  75.6426870  44.7896840
  33.5521760  85.7545490  46.1204880  33.0752320  86.5617680  45.9277490
  32.8683550  85.1023820  46.2731090  24.5554580  81.9195310  49.1089580
  23.6583110  82.1435280  49.3562980  24.5807450  82.0430250  48.1600980
  31.5959800  78.7688430  35.0230840  32.0353080  77.9310860  34.8768660
  32.3088220  79.4017830  35.1094980  23.3825800  78.7908630  47.6846950
  23.2433570  79.6631430  48.0534350  22.5007160  78.4481440  47.5394890
  29.7055180  83.7084500  38.9912080  30.1451090  84.4508830  38.5767470
  29.6442070  83.9511070  39.9151040  25.1806150  84.7330330  49.8932100
  25.1521580  85.1373280  49.0260530  25.0171120  83.8040690  49.7303700
  35.1776940  70.0231240  33.3371880  34.8649600  70.1158070  34.2370950
  35.9389410  70.6012270  33.2869310  21.6959080  77.3891040  37.7949220
  21.5756680  78.1153130  37.1830490  21.3859970  76.6193950  37.3177130
  37.1320970  85.5157430  51.1896270  37.6080690  85.9940320  51.8685350
  37.7528130  85.4474920  50.4641770  19.3344450  80.5606180  43.6017860
  19.4124870  80.6954950  42.6573580  19.9486130  79.8522070  43.7945980
  20.5792080  82.2606370  40.0124040  20.1720160  82.4020960  39.1577640
  21.4705090  81.9766530  39.8095250  36.5354220  82.7070280  48.3496280
  36.6617280  82.4682160  47.4313460  36.5775600  81.8754820  48.8218360
  30.3970960  86.4098280  46.9191090  30.9115630  86.3206290  47.7213520
  29.5540040  86.7557980  47.2119000  32.3725360  86.6953620  36.3475090
  32.2126500  86.4056560  37.2456920  32.2072070  85.9193750  35.8120320
  24.8513740  86.4752150  38.1246710  24.6756220  85.5587690  37.9114510
  23.9969480  86.8339440  38.3644510  32.0751490  84.2041180  34.9073090
  31.3816650  84.2018470  34.2475370  32.8174350  83.7800500  34.4767260
  31.6401420  85.8303890  38.9821580  32.0958370  85.0493270  39.2960200
  31.9793940  86.5410710  39.5262760  36.3878230  74.7602740  49.3146020
  35.7722500  75.2682410  48.7861480  36.0674650  73.8601070  49.2571960
  19.3903970  81.6020350  46.1412320  19.5535010  81.1325710  45.3231690
  19.8556420  81.0943910  46.8061160  24.1622740  70.7326110  41.1772890
  23.7190890  71.5135650  40.8457410  24.7207730  71.0556000  41.8843830
  28.4492550  73.5994630  46.7808210  27.9871920  73.8077650  47.5928150
  28.0470660  72.7853980  46.4778880  33.4497060  74.8203580  47.9104870
  32.5990650  74.5209330  48.2313940  33.2898850  75.0645590  46.9988690
  30.5446770  76.3205330  50.0103660  30.8700180  75.4869080  49.6705890
  31.3327100  76.8433850  50.1581990  27.2781560  70.3536810  36.0578720
  26.6535740  70.3496680  36.7832030  27.1911680  69.4867770  35.6614690
  26.1998640  71.2773440  43.0362490  26.4970970  72.1836270  42.9554510
  26.7484200  70.7892220  42.4222060  23.9536960  75.8559680  38.9054140
  23.7277880  75.6396850  39.8100760  23.1729490  76.2888140  38.5600110
  31.1834720  75.8623050  37.5044790  30.5843610  76.5858850  37.3208410
  31.7314330  75.7999830  36.7221240  26.3936170  76.7545260  49.5714410
  26.2979770  75.8139990  49.4214810  27.2368150  76.9760330  49.1762480
  29.7899590  74.4986590  39.5348070  30.1829160  74.8158790  38.7216760
  30.1516440  73.6198470  39.6492590  21.5246710  73.1658930  47.7248190
  21.1310100  74.0134140  47.9320970  20.8365110  72.5285300  47.9156830
  28.0991760  73.2493900  50.7944930  27.4090080  73.0566100  51.4291020
  28.8424060  73.5328540  51.3269230  18.8263760  71.0887390  41.7578270
  18.5376810  71.6590250  42.4703250  19.5709520  70.6091840  42.1209500
  19.0133990  75.0307510  32.9680990  18.9308660  75.9738270  33.1095980
  18.6617050  74.8882420  32.0893340  30.3754730  77.0892340  43.6298850
  29.6435850  77.5979150  43.9788950  29.9779070  76.2722320  43.3287630
  26.8132120  73.7646540  42.0351340  26.8168180  73.3236490  41.1855880
  27.7083240  74.0863870  42.1423160  22.6634500  73.6473030  40.9945550
  22.3234550  74.1248260  41.7512600  21.9011820  73.1938150  40.6346650
  26.8752270  74.7658620  35.0258100  26.9965090  74.7245100  35.9743920
  26.4900780  75.6282770  34.8704830  30.8380640  72.5426020  43.0421790
  30.8553380  72.9934670  43.8863640  30.5896220  71.6431660  43.2555230
  25.8873770  77.0759760  34.4241400  25.3190670  76.6278010  33.7977310
  26.5962770  77.4352540  33.8906550  34.2651390  69.9558200  48.8808170
  34.5897160  69.2247860  49.4066150  34.3007900  69.6371840  47.9789160
  20.9642950  80.9771780  48.3008130  20.5797740  80.3365450  48.8991090
  21.2755140  81.6807900  48.8702860  27.1140090  77.8248320  43.7816750
  27.4810220  77.3506890  44.5278090  26.9245150  78.6989890  44.1225090
  19.9780580  72.5692010  39.9110220  19.6927500  72.2047680  40.7488840
  19.9159440  71.8372470  39.2973360  24.9039460  76.8656960  46.1000960
  24.5996530  77.7448940  46.3251320  25.8585920  76.9256750  46.1358400
  23.4321250  81.0717950  36.6967810  22.6583510  80.5315570  36.5366530
  24.1615880  80.5524560  36.3585570  34.1909230  80.0683310  42.4894200
  34.9108350  80.5638600  42.0990310  33.9891050  79.3901200  41.8448070
  29.6519170  71.4621270  36.6323590  28.8383780  70.9634440  36.5568900
  29.4581120  72.3019520  36.2159940  29.5728030  80.1392370  48.3763200
  29.5065340  79.2188040  48.1220790  28.9433170  80.2367810  49.0907840
  32.3667560  75.8340920  34.9285750  33.2547180  76.1458150  34.7537090
  32.3372650  74.9613170  34.5366330  23.4758650  80.7398330  40.3346620
  23.9937320  79.9366590  40.2803510  23.0242670  80.6777470  41.1763450
  28.3628150  82.0064610  35.6073920  28.7043850  82.7506840  35.1117240
  27.5340860  82.3195730  35.9698750  20.9603190  77.7059700  47.2472320
  20.6018130  78.3713550  47.8345660  20.6657750  76.8743250  47.6184940
  24.1616310  78.1643940  50.1311870  23.8616450  78.3101120  49.2339690
  24.9327550  77.6049230  50.0385260  29.5044760  82.9612940  48.1267000
  29.5189300  82.0293900  47.9085910  28.7969860  83.0472700  48.7656770
  34.6381830  77.1452760  34.3965610  34.5545550  77.5766980  33.5462050
  35.3576020  77.6051110  34.8292430  35.7155970  79.6020280  47.4735580
  34.9904160  80.1949060  47.2764970  36.2431430  79.5943820  46.6748950
  35.6669080  83.9995020  37.1247740  35.0245240  83.3450640  37.3991460
  35.2799740  84.4050110  36.3488410  31.2455560  81.3280450  40.9719430
  31.5979380  80.7308580  40.3120800  30.3617890  81.0024680  41.1427680
  27.3318840  82.0878140  38.3789840  28.0189970  82.6347350  38.7597430
  26.5451260  82.6318870  38.4139450  19.4711240  77.7050960  33.8706920
  20.3406090  77.9875760  34.1542840  18.9801560  78.5186830  33.7555730
  26.6346050  79.0924170  37.9915200  27.0908830  79.9029420  38.2175390
  26.2834260  78.7747310  38.8233690  28.9378660  84.6030510  45.2207500
  29.5820880  84.8089890  45.8980920  29.3008100  83.8418910  44.7678350
  22.5357830  69.4361820  38.4637720  22.4072460  69.4279720  39.4122640
  21.7119850  69.7744910  38.1128730  30.2110740  82.6062860  43.9384950
  30.8532970  81.9056020  44.0517120  30.7360090  83.3861300  43.7581840
  34.0566460  82.8911480  33.6624090  33.8304040  82.1741920  34.2548730
  33.6662660  82.6423920  32.8245840  31.9848360  83.4057760  47.1421010
  32.3204600  83.9924450  47.8198930  31.0648700  83.2750470  47.3718800
  19.8382490  86.9178340  34.4368550  20.1980130  87.5167680  33.7825820
  19.6974830  87.4638230  35.2103580  19.5351760  71.1952940  47.9244420
  18.8210280  71.3949860  48.5297030  19.9546800  70.4192510  48.2959220
  33.6382710  80.8083420  35.3238250  33.3504410  81.2696110  36.1116130
  34.4334880  80.3481190  35.5922470  19.8224350  85.1833200  48.9110950
  19.9315470  84.2427940  48.7706340  19.1704910  85.4487950  48.2624680
  27.8136940  83.4549090  50.3109070  27.4933810  82.7358330  50.8554760
  27.1395300  84.1304160  50.3845130  25.8551110  84.3009540  35.2542220
  25.8461210  85.0339230  34.6386730  24.9349470  84.0541120  35.3469180
  21.4557750  79.5224430  35.9988980  20.8485700  80.2623330  36.0084280
  21.9307100  79.6123790  35.1727180  31.0290540  73.6875250  45.6745870
  31.3971360  72.8670460  46.0025440  30.1688740  73.7477140  46.0901520
  34.3952570  72.6432190  36.4833430  33.7665730  72.7477860  35.7691660
  33.9004490  72.8628970  37.2727310  28.8410710  84.3637780  33.9167410
  28.9422690  84.1601770  32.9869390  27.9412450  84.1096060  34.1215190
  26.3636600  74.9218140  37.8991310  25.6552750  75.3904480  38.3404920
  26.6481080  74.2640150  38.5336500  27.9892530  76.3414840  45.8983840
  28.4877780  76.8160660  46.5635690  28.1315480  75.4178360  46.1053870
  30.3952030  71.6468800  39.3387100  30.2719810  71.6654930  38.3896610
  31.3436590  71.6947740  39.4585500  27.4828820  86.8824100  38.6115080
  27.7370320  86.8445490  37.6894450  26.5341300  86.7557430  38.6043330
  24.5671620  73.2303220  35.2742020  25.4162150  73.6673370  35.2082210
  24.2002890  73.5423480  36.1014080  35.1959390  72.5582800  46.7412230
  34.6932990  73.2988200  47.0806040  36.0116050  72.9466800  46.4249020
  33.4881400  77.8015980  40.1873590  32.5471540  77.8166210  40.3621280
  33.8025470  77.0151940  40.6333890  23.4663040  79.4835580  33.7477550
  24.2326310  79.3716940  34.3102980  23.5437730  78.7873550  33.0954320
  22.1609800  76.9160650  34.4310440  22.2413390  75.9688160  34.5427840
  23.0529550  77.2467530  34.5371100  35.4906980  84.9724830  41.8627850
  35.6154400  85.7956000  42.3351660  36.3572540  84.7615560  41.5152000
  22.9624510  87.0656040  41.5344980  23.6986990  86.5171500  41.8053550
  23.3465430  87.9312050  41.3950970  19.8469990  83.1329610  37.4086490
  18.9209770  83.3750750  37.3991900  20.3126420  83.9603870  37.2871240
  21.9682790  86.2502110  50.7230560  22.7695520  86.5714160  51.1365960
  21.4534610  85.8897690  51.4450470  26.0726820  86.2386350  33.3570550
  26.8655430  86.5275180  32.9052340  25.5531170  85.8078520  32.6783030
  30.8047420  82.3581980  50.6705970  30.1985580  82.3813580  49.9301720
  30.5001530  81.6265020  51.2073220  32.2347790  86.0862270  49.2815380
  33.1869540  86.0020290  49.2315620  32.0876010  86.7503980  49.9549170
  35.1256990  85.4656480  34.7807290  34.8398500  85.0521620  33.9661470
  34.9276540  86.3944190  34.6607810  19.6880600  78.7375570  49.6666610
  20.1919620  78.1582850  50.2382840  18.9488020  79.0215800  50.2042980
  26.5904220  81.4589760  33.2212900  26.4854860  80.8442110  33.9474280
  26.4228440  80.9355650  32.4375910  26.7418540  80.1446560  49.2002130
  25.9764210  80.7131560  49.1156800  26.9234500  79.8522770  48.3070360
  29.8306950  80.5209790  33.8254890  29.2817050  80.9679090  34.4697630
  30.4526210  80.0159040  34.3492560  33.8841890  81.8751890  49.7577150
  34.6251360  82.2127650  49.2544610  33.1214570  82.0443950  49.2046920
  21.7203680  76.8805160  50.5616680  21.7609020  76.5819030  51.4701910
  22.5749180  77.2812770  50.4024200  25.4982070  79.4800710  35.7220190
  25.9198490  79.3140580  36.5651580  25.6232910  78.6700940  35.2275330
  23.6609490  75.4597260  48.5291170  23.1305950  74.9688210  47.9014510
  24.3297560  75.8881460  47.9949100  28.0109710  78.5038320  32.9697290
  28.5315370  77.7887340  32.6038440  28.6578110  79.1424190  33.2697800
  32.5587550  79.9266720  48.2932360  32.9728570  80.0811800  49.1422780
  31.6238550  80.0521940  48.4558140  33.0309720  77.2662880  50.2971510
  33.6130490  76.5115200  50.2091990  33.2071490  77.7970320  49.5202990
  24.1481790  72.4259630  48.6088460  24.0538660  71.8080380  47.8839330
  23.5679180  73.1525920  48.3818370  26.9143230  70.9832870  45.6415850
  26.4660530  71.0057130  44.7961400  26.2808430  70.5851890  46.2386150
  27.3202780  79.8787200  46.2628290  27.7390890  80.7219930  46.0904530
  26.4011410  80.0159240  46.0335070  29.6566680  77.6103380  47.6466130
  29.7762890  77.0144520  48.3860970  30.5160680  77.6473070  47.2267430
  31.9954580  78.1640570  46.2228640  31.4689800  78.6883190  45.6193780
  32.3385920  78.7967960  46.8538370  24.3940970  75.5533940  32.6678350
  24.1930030  74.6901300  33.0291690  24.2233020  75.4667300  31.7299950
  25.1710200  86.1840210  47.3786020  24.6331290  86.9086270  47.0594720
  25.4244160  85.7070550  46.5883360  26.4235450  74.1524730  48.9041950
  27.0135140  73.8440580  49.5919770  25.6055690  73.6804480  49.0601850
  31.2428880  73.7690540  49.1374970  30.5544400  73.1072080  49.0724960
  31.9634900  73.3228810  49.5823430  31.8729280  70.3642170  35.1965230
  32.1531570  69.5210070  35.5524650  31.0995010  70.5965280  35.7103980
  23.1923770  72.6534560  32.6556230  23.4949670  72.6601990  31.7475380
  23.9318360  72.3032420  33.1523890  28.0272410  87.4191420  47.6372670
  27.9531110  88.3226560  47.9445040  27.1251250  87.1003320  47.6094740
  26.4108700  71.5969180  33.6412430  26.0630700  70.9193170  33.0614880
  26.6121470  71.1358690  34.4555820  28.5757740  86.5849930  35.2599030
  29.4708530  86.9234900  35.2817790  28.6075370  85.8629340  34.6323310
  22.2153900  81.9576980  33.4886030  22.6528770  82.5006650  34.1443610
  22.7001630  81.1323930  33.4982370  19.4299700  84.7466010  40.9406290
  19.7602710  83.8787070  40.7084930  19.8590700  84.9524530  41.7711250
  24.0261620  83.0775020  38.6008260  23.7257160  82.9539990  39.5012170
  23.9199110  82.2183610  38.1923990  19.9189910  85.6136600  43.6787920
  19.4820900  85.7937400  44.5112070  20.4867590  86.3711220  43.5369640
  35.5552090  85.1153600  47.9665230  34.9554080  85.1746160  47.2229150
  35.6845990  84.1758580  48.0962080  36.7953540  82.8571420  33.3034940
  35.9646500  82.9248070  33.7742170  36.9725370  83.7475540  33.0001800
  36.2510000  79.6018900  35.8069140  37.0128910  80.1715550  35.9128830
  36.2664370  79.0346100  36.5777450  19.7514340  78.1256830  40.0376800
  19.0963180  77.8568470  39.3936500  20.5892290  78.0161310  39.5878780
  37.2569970  80.4569000  40.6511070  37.6278800  79.6736320  40.2447040
  37.8971900  81.1458100  40.4728370  34.2403730  81.8405580  46.0641390
  33.4263570  82.2702740  46.3267180  34.6477930  82.4523990  45.4510440
  36.3029170  79.8953270  32.9641660  36.5778010  80.8032150  32.8360880
  36.1139910  79.8315800  33.9003650  32.7004780  72.9198120  34.2595290
  33.1189660  72.7329100  33.4191950  32.3940840  72.0677170  34.5698220
  36.1994510  77.8322260  37.9571090  35.8238110  77.0650190  37.5252380
  35.4697630  78.2144960  38.4446020  20.7890270  78.5109400  44.5780140
  21.1563310  78.4236800  45.4576160  20.2201090  77.7475950  44.4787000
  35.5894130  76.9793780  47.5910610  35.3580220  76.7506530  46.6908560
  35.8498680  77.8993330  47.5455500  20.3406270  75.4218490  48.4838560
  19.4462320  75.3885250  48.8232270  20.8803820  75.6205280  49.2489810
  34.0282200  72.2050210  50.3690310  34.9052380  72.2133610  50.7524310
  34.0403040  71.4681050  49.7582660  18.9652420  75.3355760  35.9802130
  18.0616500  75.5985960  35.8053790  19.4493040  75.6066930  35.2002090
  35.4745470  76.0579750  41.2578330  35.9982950  75.5642400  40.6268500
  36.0604890  76.1930110  42.0025900  35.6535190  76.1419620  44.7797880
  34.7037900  76.1083160  44.8942870  35.8348200  77.0519730  44.5447650
  21.5079630  74.3921300  33.8896510  22.2171330  73.9704520  33.4043790
  20.7919570  74.4596530  33.2579860  21.1553790  70.4460630  32.9299160
  21.8781920  70.9869570  33.2480380  21.4278310  70.1724050  32.0540700
  34.9645440  75.3153100  37.1970740  35.4604560  75.0823970  37.9819620
  34.7661510  74.4764940  36.7808380  20.8445980  69.6966820  42.8321780
  21.4922170  69.1464200  42.3916940  21.2647820  69.9509970  43.6537590
  36.3932600  73.9514050  39.7308420  36.2831880  73.7970090  40.6690690
  37.1540190  73.4234990  39.4883830  34.7398320  69.8908180  46.1891420
  35.3770540  70.5042320  46.5550610  34.8873210  69.9268840  45.2440650
  34.2979780  86.5924180  39.5909660  34.8938850  86.2708750  38.9144080
  34.5557930  86.1196000  40.3822930  20.5977980  69.8522490  45.5747100
  20.2492800  70.3086310  46.3405280  20.2665680  68.9579620  45.6569530
  22.2042350  83.0242090  49.7400290  22.1611980  82.6535000  50.6214750
  22.3353360  83.9619660  49.8802110  25.9048380  84.5801680  45.3410010
  25.6639740  84.8476240  44.4540530  26.8451020  84.7507410  45.3960870
  28.1102800  71.0434370  49.0966520  28.0491690  71.6356200  49.8461930
  29.0503180  70.9360330  48.9516780  30.7477360  70.7004430  48.7358810
  31.3617770  71.0183720  48.0739890  31.2926920  70.2153020  49.3554670
  37.1652540  86.5996060  46.1420650  36.6710820  86.9964930  45.4247780
  36.5565830  85.9745270  46.5357930  21.2698620  69.3798690  48.8497870
  21.8181610  69.1986740  48.0863980  21.3353930  68.5892800  49.3854180
  22.0430380  85.9704340  46.8598070  21.4490700  85.8389040  47.5988110
  22.0354220  85.1342480  46.3940170  31.4885400  69.2636570  45.0628100
  30.6145240  69.5971680  44.8601030  31.3796150  68.7909750  45.8879970
  32.3957380  71.4707440  46.4469820  32.0670740  70.6559200  46.0671550
  33.3439680  71.4277250  46.3235510  34.8491990  87.2419480  43.4207390
  34.3894960  87.9935290  43.0465410  34.2204450  86.5225950  43.3622190
  21.6742610  83.3362720  45.8106110  20.9476670  82.7168010  45.7432060
  21.7351760  83.7303330  44.9404190  25.2787710  85.5507720  42.5955520
  25.7952730  84.9395080  42.0703780  25.9285090  86.0536500  43.0866530
  28.0183210  86.4416210  43.4224500  28.3061020  86.1870510  42.5457510
  28.5306430  85.8893570  44.0130070  29.2360220  70.1806410  44.0021010
  28.4532010  70.6551910  44.2817770  28.9423150  69.2761240  43.8934190
  33.7881290  70.8829510  42.0470100  34.2289380  70.8274610  41.1991700
  33.5188880  71.7987520  42.1180280  19.9572610  86.6537110  39.0202870
  19.7894650  86.0207790  39.7184760  19.0907120  86.8596510  38.6697060
  20.5800630  70.4853890  36.5234730  21.3379990  70.5982770  35.9498760
  20.1177800  71.3223090  36.4778160  27.1214440  72.5993160  39.5137040
  26.3088950  72.2250050  39.1732920  27.6256080  71.8438240  39.8158230
  31.6239420  69.2635610  40.7520110  32.2268790  69.8355820  41.2268630
  30.8832410  69.8275050  40.5294010  34.7674020  69.6657170  36.0260390
  34.9624650  70.5640620  36.2927820  33.9803890  69.4344250  36.5193340
  21.5635310  85.3470340  36.4653010  21.0382930  85.7278370  35.7614970
  21.4879890  85.9721110  37.1862720  22.9525780  71.0117940  35.0636700
  23.4818540  70.2247740  34.9344650  23.5854100  71.6909130  35.2972230
  25.1463620  70.7493080  38.1182090  24.5166360  70.0480390  38.2852220
  24.6068760  71.5097210  37.9015250  28.0855570  87.3632310  50.7892700
  29.0122880  87.1276580  50.8328660  28.0706000  88.1904310  50.3078730
  36.3200630  86.9057880  37.7866950  36.4952820  86.2195620  37.1427870
  35.6222200  87.4304930  37.3943620  25.2719180  70.0277060  50.5534580
  24.9903450  70.5310660  49.7895400  25.6538880  69.2298810  50.1876710
  24.1628280  87.2952720  35.3402260  24.8947100  87.0112000  34.7926150
  24.4221950  87.0566000  36.2301640  23.3243070  83.4117450  35.3448590
  22.6951950  83.8802550  35.8934420  23.4390900  82.5666670  35.7794780
  31.8734640  69.4430640  51.1315050  31.7600090  69.7625250  52.0266570
  32.6904380  69.8443150  50.8352330  34.6533130  86.5902170  50.6133740
  35.4458450  86.0951400  50.4059700  34.9466280  87.2692310  51.2209350
  30.7792790  77.4623110  21.4949790  30.6986840  76.5477720  21.2241500
  30.3657210  77.9590180  20.7889500  28.9110830  79.2402130  23.3759060
  28.1352930  78.7602570  23.6657630  29.5623760  78.5607780  23.2015220
  22.9276660  79.5521940  24.2534820  22.0961540  79.2970650  24.6531330
  23.5357640  79.6232710  24.9892740  32.9318260  83.6462320  22.1558190
  32.4699790  82.8749560  22.4845360  33.7443810  83.6728390  22.6610640
  22.9077920  83.5862030  24.4492840  23.2105960  82.6959770  24.2703060
  23.6521510  84.1432250  24.2215090  21.3368610  74.5123830  18.0377210
  20.4485310  74.8539800  17.9357090  21.6209800  74.3124150  17.1458040
  19.3001620  77.1129480  23.9216910  19.8717730  76.3451680  23.9220550
  19.3003160  77.4118240  23.0123520  29.1581570  85.9320330  21.7762180
  28.5393010  86.3877830  21.2056620  30.0133350  86.0871790  21.3751880
  28.3519820  81.9159320  23.3829220  28.2828100  80.9749260  23.2218350
  29.1139680  82.0060730  23.9551790  20.5426490  72.5213840  25.7085840
  20.3629330  71.6239590  25.9888600  20.1406570  73.0685710  26.3832790
  29.3824990  74.7229700  23.6098150  29.7589810  73.8501580  23.4971820
  29.2844500  75.0588400  22.7188590  23.5130000  73.0955330  19.0715590
  23.6196750  73.9959060  19.3784350  22.6022360  73.0473300  18.7810240
  33.1649110  72.2180140  20.5426490  33.9858730  71.7276710  20.5851970
  33.1983190  72.8077800  21.2958330  21.1613160  75.0174340  24.3168180
  21.8423270  75.2812710  24.9355580  20.8461210  74.1775210  24.6506190
  25.3537730  76.0641700  23.4040770  25.8615950  76.5622670  24.0445790
  25.8850970  75.2876900  23.2280130  37.4548660  74.2346890  27.1070120
  36.7500830  74.6228600  26.5885230  37.7206580  74.9297180  27.7091050
  23.6373830  70.7040260  27.6704190  23.6392270  71.2212650  26.8650090
  22.8078140  70.2270440  27.6474120  30.0244920  80.8159570  19.1694090
  29.4062190  81.2809020  18.6056810  30.5368170  81.5087050  19.5863600
  24.8876680  80.3435440  25.8477690  24.5546060  80.9704360  26.4898760
  25.0643360  80.8697320  25.0679360  33.4010590  74.1580520  23.3154030
  32.6966160  74.4465410  23.8957140  33.7622750  74.9680630  22.9553590
  23.3189160  72.4150220  25.6774640  23.6605970  73.2592270  25.3828510
  22.3804970  72.5633960  25.7939980  24.0995780  82.3116240  27.6626870
  24.7169780  82.9867320  27.3811320  23.2388900  82.7204220  27.5714370
  19.3928120  81.5016100  16.5433720  19.0156100  81.9903200  15.8118620
  19.6501190  82.1741380  17.1740250  35.0173370  83.7755650  25.5781510
  34.3336890  84.4454760  25.5698180  35.5567660  83.9736300  24.8126370
  36.4697510  73.6035310  23.7063240  35.5222420  73.6374290  23.8378670
  36.7947500  74.4174260  24.0912600  27.0017050  69.9032490  22.0019230
  27.3092030  69.3479380  21.2854730  26.0717750  70.0376950  21.8192220
  32.5532110  85.6199780  24.2926690  32.5659270  85.2162070  23.4248950
  32.0007330  86.3947070  24.1888120  33.8477530  82.3416000  19.3816860
  33.7373860  81.3990330  19.5066280  33.8445780  82.7031640  20.2679620
  31.9517550  80.5229620  25.6209300  32.3686340  80.3089730  24.7862760
  32.6757370  80.7802410  26.1917920  29.3897810  77.9681320  18.7379350
  28.4627090  77.9018700  18.9667820  29.5422630  78.9061450  18.6234590
  29.3766890  74.2398320  15.7346510  28.4370560  74.4012280  15.8198970
  29.6950150  74.9584000  15.1882500  35.8979650  78.9216840  25.7125540
  35.0698280  78.9909930  25.2375670  36.4930130  79.5071150  25.2441370
  33.4195100  79.5301620  19.2414600  32.8007520  79.1921170  18.5940900
  33.4019550  78.8861380  19.9493790  32.8621660  75.7086160  26.6580410
  32.4492840  76.5339870  26.9120400  32.1297610  75.1231200  26.4656770
  24.9954450  78.4946060  21.5199080  24.5911450  77.7823310  21.0244980
  25.0817570  78.1499300  22.4087120  25.4636150  82.1813620  23.6838290
  25.1664440  81.5759090  23.0046070  26.4135970  82.2190930  23.5727650
  23.7083070  75.2689270  25.2998120  24.2597660  75.3784610  24.5251370
  24.2226580  75.6426870  26.0153350  33.5521760  85.7545490  27.3461390
  33.0752320  86.5617680  27.1534000  32.8683550  85.1023820  27.4987600
  24.5554580  81.9195310  30.3346090  23.6583110  82.1435280  30.5819490
  24.5807450  82.0430250  29.3857490  31.5959800  78.7688430  16.2487350
  32.0353080  77.9310860  16.1025170  32.3088220  79.4017830  16.3351490
  23.3825800  78.7908630  28.9103460  23.2433570  79.6631430  29.2790860
  22.5007160  78.4481440  28.7651400  29.7055180  83.7084500  20.2168590
  30.1451090  84.4508830  19.8023980  29.6442070  83.9511070  21.1407550
  25.1806150  84.7330330  31.1188610  25.1521580  85.1373280  30.2517040
  25.0171120  83.8040690  30.9560210  35.1776940  70.0231240  14.5628390
  34.8649600  70.1158070  15.4627460  35.9389410  70.6012270  14.5125820
  21.6959080  77.3891040  19.0205730  21.5756680  78.1153130  18.4087000
  21.3859970  76.6193950  18.5433640  37.1320970  85.5157430  32.4152780
  37.6080690  85.9940320  33.0941860  37.7528130  85.4474920  31.6898280
  19.3344450  80.5606180  24.8274370  19.4124870  80.6954950  23.8830090
  19.9486130  79.8522070  25.0202490  20.5792080  82.2606370  21.2380550
  20.1720160  82.4020960  20.3834150  21.4705090  81.9766530  21.0351760
  36.5354220  82.7070280  29.5752790  36.6617280  82.4682160  28.6569970
  36.5775600  81.8754820  30.0474870  30.3970960  86.4098280  28.1447600
  30.9115630  86.3206290  28.9470030  29.5540040  86.7557980  28.4375510
  32.3725360  86.6953620  17.5731600  32.2126500  86.4056560  18.4713430
  32.2072070  85.9193750  17.0376830  24.8513740  86.4752150  19.3503220
  24.6756220  85.5587690  19.1371020  23.9969480  86.8339440  19.5901020
  32.0751490  84.2041180  16.1329600  31.3816650  84.2018470  15.4731880
  32.8174350  83.7800500  15.7023770  31.6401420  85.8303890  20.2078090
  32.0958370  85.0493270  20.5216710  31.9793940  86.5410710  20.7519270
  36.3878230  74.7602740  30.5402530  35.7722500  75.2682410  30.0117990
  36.0674650  73.8601070  30.4828470  19.3903970  81.6020350  27.3668830
  19.5535010  81.1325710  26.5488200  19.8556420  81.0943910  28.0317670
  24.1622740  70.7326110  22.4029400  23.7190890  71.5135650  22.0713920
  24.7207730  71.0556000  23.1100340  28.4492550  73.5994630  28.0064720
  27.9871920  73.8077650  28.8184660  28.0470660  72.7853980  27.7035390
  33.4497060  74.8203580  29.1361380  32.5990650  74.5209330  29.4570450
  33.2898850  75.0645590  28.2245200  30.5446770  76.3205330  31.2360170
  30.8700180  75.4869080  30.8962400  31.3327100  76.8433850  31.3838500
  27.2781560  70.3536810  17.2835230  26.6535740  70.3496680  18.0088540
  27.1911680  69.4867770  16.8871200  26.1998640  71.2773440  24.2619000
  26.4970970  72.1836270  24.1811020  26.7484200  70.7892220  23.6478570
  23.9536960  75.8559680  20.1310650  23.7277880  75.6396850  21.0357270
  23.1729490  76.2888140  19.7856620  31.1834720  75.8623050  18.7301300
  30.5843610  76.5858850  18.5464920  31.7314330  75.7999830  17.9477750
  26.3936170  76.7545260  30.7970920  26.2979770  75.8139990  30.6471320
  27.2368150  76.9760330  30.4018990  29.7899590  74.4986590  20.7604580
  30.1829160  74.8158790  19.9473270  30.1516440  73.6198470  20.8749100
  21.5246710  73.1658930  28.9504700  21.1310100  74.0134140  29.1577480
  20.8365110  72.5285300  29.1413340  28.0991760  73.2493900  32.0201440
  27.4090080  73.0566100  32.6547530  28.8424060  73.5328540  32.5525740
  18.8263760  71.0887390  22.9834780  18.5376810  71.6590250  23.6959760
  19.5709520  70.6091840  23.3466010  19.0133990  75.0307510  14.1937500
  18.9308660  75.9738270  14.3352490  18.6617050  74.8882420  13.3149850
  30.3754730  77.0892340  24.8555360  29.6435850  77.5979150  25.2045460
  29.9779070  76.2722320  24.5544140  26.8132120  73.7646540  23.2607850
  26.8168180  73.3236490  22.4112390  27.7083240  74.0863870  23.3679670
  22.6634500  73.6473030  22.2202060  22.3234550  74.1248260  22.9769110
  21.9011820  73.1938150  21.8603160  26.8752270  74.7658620  16.2514610
  26.9965090  74.7245100  17.2000430  26.4900780  75.6282770  16.0961340
  30.8380640  72.5426020  24.2678300  30.8553380  72.9934670  25.1120150
  30.5896220  71.6431660  24.4811740  25.8873770  77.0759760  15.6497910
  25.3190670  76.6278010  15.0233820  26.5962770  77.4352540  15.1163060
  34.2651390  69.9558200  30.1064680  34.5897160  69.2247860  30.6322660
  34.3007900  69.6371840  29.2045670  20.9642950  80.9771780  29.5264640
  20.5797740  80.3365450  30.1247600  21.2755140  81.6807900  30.0959370
  27.1140090  77.8248320  25.0073260  27.4810220  77.3506890  25.7534600
  26.9245150  78.6989890  25.3481600  19.9780580  72.5692010  21.1366730
  19.6927500  72.2047680  21.9745350  19.9159440  71.8372470  20.5229870
  24.9039460  76.8656960  27.3257470  24.5996530  77.7448940  27.5507830
  25.8585920  76.9256750  27.3614910  23.4321250  81.0717950  17.9224320
  22.6583510  80.5315570  17.7623040  24.1615880  80.5524560  17.5842080
  34.1909230  80.0683310  23.7150710  34.9108350  80.5638600  23.3246820
  33.9891050  79.3901200  23.0704580  29.6519170  71.4621270  17.8580100
  28.8383780  70.9634440  17.7825410  29.4581120  72.3019520  17.4416450
  29.5728030  80.1392370  29.6019710  29.5065340  79.2188040  29.3477300
  28.9433170  80.2367810  30.3164350  32.3667560  75.8340920  16.1542260
  33.2547180  76.1458150  15.9793600  32.3372650  74.9613170  15.7622840
  23.4758650  80.7398330  21.5603130  23.9937320  79.9366590  21.5060020
  23.0242670  80.6777470  22.4019960  28.3628150  82.0064610  16.8330430
  28.7043850  82.7506840  16.3373750  27.5340860  82.3195730  17.1955260
  20.9603190  77.7059700  28.4728830  20.6018130  78.3713550  29.0602170
  20.6657750  76.8743250  28.8441450  24.1616310  78.1643940  31.3568380
  23.8616450  78.3101120  30.4596200  24.9327550  77.6049230  31.2641770
  29.5044760  82.9612940  29.3523510  29.5189300  82.0293900  29.1342420
  28.7969860  83.0472700  29.9913280  34.6381830  77.1452760  15.6222120
  34.5545550  77.5766980  14.7718560  35.3576020  77.6051110  16.0548940
  35.7155970  79.6020280  28.6992090  34.9904160  80.1949060  28.5021480
  36.2431430  79.5943820  27.9005460  35.6669080  83.9995020  18.3504250
  35.0245240  83.3450640  18.6247970  35.2799740  84.4050110  17.5744920
  31.2455560  81.3280450  22.1975940  31.5979380  80.7308580  21.5377310
  30.3617890  81.0024680  22.3684190  27.3318840  82.0878140  19.6046350
  28.0189970  82.6347350  19.9853940  26.5451260  82.6318870  19.6395960
  19.4711240  77.7050960  15.0963430  20.3406090  77.9875760  15.3799350
  18.9801560  78.5186830  14.9812240  26.6346050  79.0924170  19.2171710
  27.0908830  79.9029420  19.4431900  26.2834260  78.7747310  20.0490200
  28.9378660  84.6030510  26.4464010  29.5820880  84.8089890  27.1237430
  29.3008100  83.8418910  25.9934860  22.5357830  69.4361820  19.6894230
  22.4072460  69.4279720  20.6379150  21.7119850  69.7744910  19.3385240
  30.2110740  82.6062860  25.1641460  30.8532970  81.9056020  25.2773630
  30.7360090  83.3861300  24.9838350  34.0566460  82.8911480  14.8880600
  33.8304040  82.1741920  15.4805240  33.6662660  82.6423920  14.0502350
  31.9848360  83.4057760  28.3677520  32.3204600  83.9924450  29.0455440
  31.0648700  83.2750470  28.5975310  19.8382490  86.9178340  15.6625060
  20.1980130  87.5167680  15.0082330  19.6974830  87.4638230  16.4360090
  19.5351760  71.1952940  29.1500930  18.8210280  71.3949860  29.7553540
  19.9546800  70.4192510  29.5215730  33.6382710  80.8083420  16.5494760
  33.3504410  81.2696110  17.3372640  34.4334880  80.3481190  16.8178980
  19.8224350  85.1833200  30.1367460  19.9315470  84.2427940  29.9962850
  19.1704910  85.4487950  29.4881190  27.8136940  83.4549090  31.5365580
  27.4933810  82.7358330  32.0811270  27.1395300  84.1304160  31.6101640
  25.8551110  84.3009540  16.4798730  25.8461210  85.0339230  15.8643240
  24.9349470  84.0541120  16.5725690  21.4557750  79.5224430  17.2245490
  20.8485700  80.2623330  17.2340790  21.9307100  79.6123790  16.3983690
  31.0290540  73.6875250  26.9002380  31.3971360  72.8670460  27.2281950
  30.1688740  73.7477140  27.3158030  34.3952570  72.6432190  17.7089940
  33.7665730  72.7477860  16.9948170  33.9004490  72.8628970  18.4983820
  28.8410710  84.3637780  15.1423920  28.9422690  84.1601770  14.2125900
  27.9412450  84.1096060  15.3471700  26.3636600  74.9218140  19.1247820
  25.6552750  75.3904480  19.5661430  26.6481080  74.2640150  19.7593010
  27.9892530  76.3414840  27.1240350  28.4877780  76.8160660  27.7892200
  28.1315480  75.4178360  27.3310380  30.3952030  71.6468800  20.5643610
  30.2719810  71.6654930  19.6153120  31.3436590  71.6947740  20.6842010
  27.4828820  86.8824100  19.8371590  27.7370320  86.8445490  18.9150960
  26.5341300  86.7557430  19.8299840  24.5671620  73.2303220  16.4998530
  25.4162150  73.6673370  16.4338720  24.2002890  73.5423480  17.3270590
  35.1959390  72.5582800  27.9668740  34.6932990  73.2988200  28.3062550
  36.0116050  72.9466800  27.6505530  33.4881400  77.8015980  21.4130100
  32.5471540  77.8166210  21.5877790  33.8025470  77.0151940  21.8590400
  23.4663040  79.4835580  14.9734060  24.2326310  79.3716940  15.5359490
  23.5437730  78.7873550  14.3210830  22.1609800  76.9160650  15.6566950
  22.2413390  75.9688160  15.7684350  23.0529550  77.2467530  15.7627610
  35.4906980  84.9724830  23.0884360  35.6154400  85.7956000  23.5608170
  36.3572540  84.7615560  22.7408510  22.9624510  87.0656040  22.7601490
  23.6986990  86.5171500  23.0310060  23.3465430  87.9312050  22.6207480
  19.8469990  83.1329610  18.6343000  18.9209770  83.3750750  18.6248410
  20.3126420  83.9603870  18.5127750  21.9682790  86.2502110  31.9487070
  22.7695520  86.5714160  32.3622470  21.4534610  85.8897690  32.6706980
  26.0726820  86.2386350  14.5827060  26.8655430  86.5275180  14.1308850
  25.5531170  85.8078520  13.9039540  30.8047420  82.3581980  31.8962480
  30.1985580  82.3813580  31.1558230  30.5001530  81.6265020  32.4329730
  32.2347790  86.0862270  30.5071890  33.1869540  86.0020290  30.4572130
  32.0876010  86.7503980  31.1805680  35.1256990  85.4656480  16.0063800
  34.8398500  85.0521620  15.1917980  34.9276540  86.3944190  15.8864320
  19.6880600  78.7375570  30.8923120  20.1919620  78.1582850  31.4639350
  18.9488020  79.0215800  31.4299490  26.5904220  81.4589760  14.4469410
  26.4854860  80.8442110  15.1730790  26.4228440  80.9355650  13.6632420
  26.7418540  80.1446560  30.4258640  25.9764210  80.7131560  30.3413310
  26.9234500  79.8522770  29.5326870  29.8306950  80.5209790  15.0511400
  29.2817050  80.9679090  15.6954140  30.4526210  80.0159040  15.5749070
  33.8841890  81.8751890  30.9833660  34.6251360  82.2127650  30.4801120
  33.1214570  82.0443950  30.4303430  21.7203680  76.8805160  31.7873190
  21.7609020  76.5819030  32.6958420  22.5749180  77.2812770  31.6280710
  25.4982070  79.4800710  16.9476700  25.9198490  79.3140580  17.7908090
  25.6232910  78.6700940  16.4531840  23.6609490  75.4597260  29.7547680
  23.1305950  74.9688210  29.1271020  24.3297560  75.8881460  29.2205610
  28.0109710  78.5038320  14.1953800  28.5315370  77.7887340  13.8294950
  28.6578110  79.1424190  14.4954310  32.5587550  79.9266720  29.5188870
  32.9728570  80.0811800  30.3679290  31.6238550  80.0521940  29.6814650
  33.0309720  77.2662880  31.5228020  33.6130490  76.5115200  31.4348500
  33.2071490  77.7970320  30.7459500  24.1481790  72.4259630  29.8344970
  24.0538660  71.8080380  29.1095840  23.5679180  73.1525920  29.6074880
  26.9143230  70.9832870  26.8672360  26.4660530  71.0057130  26.0217910
  26.2808430  70.5851890  27.4642660  27.3202780  79.8787200  27.4884800
  27.7390890  80.7219930  27.3161040  26.4011410  80.0159240  27.2591580
  29.6566680  77.6103380  28.8722640  29.7762890  77.0144520  29.6117480
  30.5160680  77.6473070  28.4523940  31.9954580  78.1640570  27.4485150
  31.4689800  78.6883190  26.8450290  32.3385920  78.7967960  28.0794880
  24.3940970  75.5533940  13.8934860  24.1930030  74.6901300  14.2548200
  24.2233020  75.4667300  12.9556460  25.1710200  86.1840210  28.6042530
  24.6331290  86.9086270  28.2851230  25.4244160  85.7070550  27.8139870
  26.4235450  74.1524730  30.1298460  27.0135140  73.8440580  30.8176280
  25.6055690  73.6804480  30.2858360  31.2428880  73.7690540  30.3631480
  30.5544400  73.1072080  30.2981470  31.9634900  73.3228810  30.8079940
  31.8729280  70.3642170  16.4221740  32.1531570  69.5210070  16.7781160
  31.0995010  70.5965280  16.9360490  23.1923770  72.6534560  13.8812740
  23.4949670  72.6601990  12.9731890  23.9318360  72.3032420  14.3780400
  28.0272410  87.4191420  28.8629180  27.9531110  88.3226560  29.1701550
  27.1251250  87.1003320  28.8351250  26.4108700  71.5969180  14.8668940
  26.0630700  70.9193170  14.2871390  26.6121470  71.1358690  15.6812330
  28.5757740  86.5849930  16.4855540  29.4708530  86.9234900  16.5074300
  28.6075370  85.8629340  15.8579820  22.2153900  81.9576980  14.7142540
  22.6528770  82.5006650  15.3700120  22.7001630  81.1323930  14.7238880
  19.4299700  84.7466010  22.1662800  19.7602710  83.8787070  21.9341440
  19.8590700  84.9524530  22.9967760  24.0261620  83.0775020  19.8264770
  23.7257160  82.9539990  20.7268680  23.9199110  82.2183610  19.4180500
  19.9189910  85.6136600  24.9044430  19.4820900  85.7937400  25.7368580
  20.4867590  86.3711220  24.7626150  35.5552090  85.1153600  29.1921740
  34.9554080  85.1746160  28.4485660  35.6845990  84.1758580  29.3218590
  36.7953540  82.8571420  14.5291450  35.9646500  82.9248070  14.9998680
  36.9725370  83.7475540  14.2258310  36.2510000  79.6018900  17.0325650
  37.0128910  80.1715550  17.1385340  36.2664370  79.0346100  17.8033960
  19.7514340  78.1256830  21.2633310  19.0963180  77.8568470  20.6193010
  20.5892290  78.0161310  20.8135290  37.2569970  80.4569000  21.8767580
  37.6278800  79.6736320  21.4703550  37.8971900  81.1458100  21.6984880
  34.2403730  81.8405580  27.2897900  33.4263570  82.2702740  27.5523690
  34.6477930  82.4523990  26.6766950  36.3029170  79.8953270  14.1898170
  36.5778010  80.8032150  14.0617390  36.1139910  79.8315800  15.1260160
  32.7004780  72.9198120  15.4851800  33.1189660  72.7329100  14.6448460
  32.3940840  72.0677170  15.7954730  36.1994510  77.8322260  19.1827600
  35.8238110  77.0650190  18.7508890  35.4697630  78.2144960  19.6702530
  20.7890270  78.5109400  25.8036650  21.1563310  78.4236800  26.6832670
  20.2201090  77.7475950  25.7043510  35.5894130  76.9793780  28.8167120
  35.3580220  76.7506530  27.9165070  35.8498680  77.8993330  28.7712010
  20.3406270  75.4218490  29.7095070  19.4462320  75.3885250  30.0488780
  20.8803820  75.6205280  30.4746320  34.0282200  72.2050210  31.5946820
  34.9052380  72.2133610  31.9780820  34.0403040  71.4681050  30.9839170
  18.9652420  75.3355760  17.2058640  18.0616500  75.5985960  17.0310300
  19.4493040  75.6066930  16.4258600  35.4745470  76.0579750  22.4834840
  35.9982950  75.5642400  21.8525010  36.0604890  76.1930110  23.2282410
  35.6535190  76.1419620  26.0054390  34.7037900  76.1083160  26.1199380
  35.8348200  77.0519730  25.7704160  21.5079630  74.3921300  15.1153020
  22.2171330  73.9704520  14.6300300  20.7919570  74.4596530  14.4836370
  21.1553790  70.4460630  14.1555670  21.8781920  70.9869570  14.4736890
  21.4278310  70.1724050  13.2797210  34.9645440  75.3153100  18.4227250
  35.4604560  75.0823970  19.2076130  34.7661510  74.4764940  18.0064890
  20.8445980  69.6966820  24.0578290  21.4922170  69.1464200  23.6173450
  21.2647820  69.9509970  24.8794100  36.3932600  73.9514050  20.9564930
  36.2831880  73.7970090  21.8947200  37.1540190  73.4234990  20.7140340
  34.7398320  69.8908180  27.4147930  35.3770540  70.5042320  27.7807120
  34.8873210  69.9268840  26.4697160  37.2822870  71.7821970  14.1971070
  38.2072180  71.6503150  13.9889360  37.2598660  71.8614790  15.1507520
  37.3561360  72.5532630  16.8227780  36.5612860  72.4877750  17.3520690
  37.5604640  73.4883270  16.8113130  34.2979780  86.5924180  20.8166170
  34.8938850  86.2708750  20.1400590  34.5557930  86.1196000  21.6079440
  20.5977980  69.8522490  26.8003610  20.2492800  70.3086310  27.5661790
  20.2665680  68.9579620  26.8826040  22.2042350  83.0242090  30.9656800
  22.1611980  82.6535000  31.8471260  22.3353360  83.9619660  31.1058620
  25.9048380  84.5801680  26.5666520  25.6639740  84.8476240  25.6797040
  26.8451020  84.7507410  26.6217380  28.1102800  71.0434370  30.3223030
  28.0491690  71.6356200  31.0718440  29.0503180  70.9360330  30.1773290
  30.7477360  70.7004430  29.9615320  31.3617770  71.0183720  29.2996400
  31.2926920  70.2153020  30.5811180  37.1652540  86.5996060  27.3677160
  36.6710820  86.9964930  26.6504290  36.5565830  85.9745270  27.7614440
  21.2698620  69.3798690  30.0754380  21.8181610  69.1986740  29.3120490
  21.3353930  68.5892800  30.6110690  22.0430380  85.9704340  28.0854580
  21.4490700  85.8389040  28.8244620  22.0354220  85.1342480  27.6196680
  31.4885400  69.2636570  26.2884610  30.6145240  69.5971680  26.0857540
  31.3796150  68.7909750  27.1136480  32.3957380  71.4707440  27.6726330
  32.0670740  70.6559200  27.2928060  33.3439680  71.4277250  27.5492020
  34.8491990  87.2419480  24.6463900  34.3894960  87.9935290  24.2721920
  34.2204450  86.5225950  24.5878700  21.6742610  83.3362720  27.0362620
  20.9476670  82.7168010  26.9688570  21.7351760  83.7303330  26.1660700
  25.2787710  85.5507720  23.8212030  25.7952730  84.9395080  23.2960290
  25.9285090  86.0536500  24.3123040  28.0183210  86.4416210  24.6481010
  28.3061020  86.1870510  23.7714020  28.5306430  85.8893570  25.2386580
  29.2360220  70.1806410  25.2277520  28.4532010  70.6551910  25.5074280
  28.9423150  69.2761240  25.1190700  33.7881290  70.8829510  23.2726610
  34.2289380  70.8274610  22.4248210  33.5188880  71.7987520  23.3436790
  35.6519860  70.5144750  21.2835430  35.5908260  69.5705970  21.1366450
  36.4311890  70.6224840  21.8288890  19.9572610  86.6537110  20.2459380
  19.7894650  86.0207790  20.9441270  19.0907120  86.8596510  19.8953570
  20.5800630  70.4853890  17.7491240  21.3379990  70.5982770  17.1755270
  20.1177800  71.3223090  17.7034670  27.1214440  72.5993160  20.7393550
  26.3088950  72.2250050  20.3989430  27.6256080  71.8438240  21.0414740
  31.6239420  69.2635610  21.9776620  32.2268790  69.8355820  22.4525140
  30.8832410  69.8275050  21.7550520  34.7674020  69.6657170  17.2516900
  34.9624650  70.5640620  17.5184330  33.9803890  69.4344250  17.7449850
  21.5635310  85.3470340  17.6909520  21.0382930  85.7278370  16.9871480
  21.4879890  85.9721110  18.4119230  22.9525780  71.0117940  16.2893210
  23.4818540  70.2247740  16.1601160  23.5854100  71.6909130  16.5228740
  25.1463620  70.7493080  19.3438600  24.5166360  70.0480390  19.5108730
  24.6068760  71.5097210  19.1271760  28.0855570  87.3632310  32.0149210
  29.0122880  87.1276580  32.0585170  28.0706000  88.1904310  31.5335240
  36.3200630  86.9057880  19.0123460  36.4952820  86.2195620  18.3684380
  35.6222200  87.4304930  18.6200130  25.2719180  70.0277060  31.7791090
  24.9903450  70.5310660  31.0151910  25.6538880  69.2298810  31.4133220
  24.1628280  87.2952720  16.5658770  24.8947100  87.0112000  16.0182660
  24.4221950  87.0566000  17.4558150  23.3243070  83.4117450  16.5705100
  22.6951950  83.8802550  17.1190930  23.4390900  82.5666670  17.0051290
  31.8734640  69.4430640  32.3571560  31.7600090  69.7625250  33.2523080
  32.6904380  69.8443150  32.0608840  34.6533130  86.5902170  31.8390250
  35.4458450  86.0951400  31.6316210  34.9466280  87.2692310  32.4465860
  30.7792790  77.4623110   2.7206300  30.6986840  76.5477720   2.4498010
  30.3657210  77.9590180   2.0146010  28.9110830  79.2402130   4.6015570
  28.1352930  78.7602570   4.8914140  29.5623760  78.5607780   4.4271730
  22.9276660  79.5521940   5.4791330  22.0961540  79.2970650   5.8787840
  23.5357640  79.6232710   6.2149250  32.9318260  83.6462320   3.3814700
  32.4699790  82.8749560   3.7101870  33.7443810  83.6728390   3.8867150
  22.9077920  83.5862030   5.6749350  23.2105960  82.6959770   5.4959570
  23.6521510  84.1432250   5.4471600  19.3001620  77.1129480   5.1473420
  19.8717730  76.3451680   5.1477060  19.3003160  77.4118240   4.2380030
  29.1581570  85.9320330   3.0018690  28.5393010  86.3877830   2.4313130
  30.0133350  86.0871790   2.6008390  28.3519820  81.9159320   4.6085730
  28.2828100  80.9749260   4.4474860  29.1139680  82.0060730   5.1808300
  20.5426490  72.5213840   6.9342350  20.3629330  71.6239590   7.2145110
  20.1406570  73.0685710   7.6089300  29.3824990  74.7229700   4.8354660
  29.7589810  73.8501580   4.7228330  29.2844500  75.0588400   3.9445100
  33.1649110  72.2180140   1.7683000  33.9858730  71.7276710   1.8108480
  33.1983190  72.8077800   2.5214840  21.1613160  75.0174340   5.5424690
  21.8423270  75.2812710   6.1612090  20.8461210  74.1775210   5.8762700
  25.3537730  76.0641700   4.6297280  25.8615950  76.5622670   5.2702300
  25.8850970  75.2876900   4.4536640  37.4548660  74.2346890   8.3326630
  36.7500830  74.6228600   7.8141740  37.7206580  74.9297180   8.9347560
  23.6373830  70.7040260   8.8960700  23.6392270  71.2212650   8.0906600
  22.8078140  70.2270440   8.8730630  24.8876680  80.3435440   7.0734200
  24.5546060  80.9704360   7.7155270  25.0643360  80.8697320   6.2935870
  33.4010590  74.1580520   4.5410540  32.6966160  74.4465410   5.1213650
  33.7622750  74.9680630   4.1810100  23.3189160  72.4150220   6.9031150
  23.6605970  73.2592270   6.6085020  22.3804970  72.5633960   7.0196490
  24.0995780  82.3116240   8.8883380  24.7169780  82.9867320   8.6067830
  23.2388900  82.7204220   8.7970880  35.0173370  83.7755650   6.8038020
  34.3336890  84.4454760   6.7954690  35.5567660  83.9736300   6.0382880
  36.4697510  73.6035310   4.9319750  35.5222420  73.6374290   5.0635180
  36.7947500  74.4174260   5.3169110  27.0017050  69.9032490   3.2275740
  27.3092030  69.3479380   2.5111240  26.0717750  70.0376950   3.0448730
  32.5532110  85.6199780   5.5183200  32.5659270  85.2162070   4.6505460
  32.0007330  86.3947070   5.4144630  31.9517550  80.5229620   6.8465810
  32.3686340  80.3089730   6.0119270  32.6757370  80.7802410   7.4174430
  35.8979650  78.9216840   6.9382050  35.0698280  78.9909930   6.4632180
  36.4930130  79.5071150   6.4697880  32.8621660  75.7086160   7.8836920
  32.4492840  76.5339870   8.1376910  32.1297610  75.1231200   7.6913280
  24.9954450  78.4946060   2.7455590  24.5911450  77.7823310   2.2501490
  25.0817570  78.1499300   3.6343630  25.4636150  82.1813620   4.9094800
  25.1664440  81.5759090   4.2302580  26.4135970  82.2190930   4.7984160
  23.7083070  75.2689270   6.5254630  24.2597660  75.3784610   5.7507880
  24.2226580  75.6426870   7.2409860  33.5521760  85.7545490   8.5717900
  33.0752320  86.5617680   8.3790510  32.8683550  85.1023820   8.7244110
  24.5554580  81.9195310  11.5602600  23.6583110  82.1435280  11.8076000
  24.5807450  82.0430250  10.6114000  23.3825800  78.7908630  10.1359970
  23.2433570  79.6631430  10.5047370  22.5007160  78.4481440   9.9907910
  25.1806150  84.7330330  12.3445120  25.1521580  85.1373280  11.4773550
  25.0171120  83.8040690  12.1816720  37.1320970  85.5157430  13.6409290
  37.6080690  85.9940320  14.3198370  37.7528130  85.4474920  12.9154790
  19.3344450  80.5606180   6.0530880  19.4124870  80.6954950   5.1086600
  19.9486130  79.8522070   6.2459000  20.5792080  82.2606370   2.4637060
  20.1720160  82.4020960   1.6090660  21.4705090  81.9766530   2.2608270
  36.5354220  82.7070280  10.8009300  36.6617280  82.4682160   9.8826480
  36.5775600  81.8754820  11.2731380  30.3970960  86.4098280   9.3704110
  30.9115630  86.3206290  10.1726540  29.5540040  86.7557980   9.6632020
  36.3878230  74.7602740  11.7659040  35.7722500  75.2682410  11.2374500
  36.0674650  73.8601070  11.7084980  19.3903970  81.6020350   8.5925340
  19.5535010  81.1325710   7.7744710  19.8556420  81.0943910   9.2574180
  24.1622740  70.7326110   3.6285910  23.7190890  71.5135650   3.2970430
  24.7207730  71.0556000   4.3356850  28.4492550  73.5994630   9.2321230
  27.9871920  73.8077650  10.0441170  28.0470660  72.7853980   8.9291900
  33.4497060  74.8203580  10.3617890  32.5990650  74.5209330  10.6826960
  33.2898850  75.0645590   9.4501710  30.5446770  76.3205330  12.4616680
  30.8700180  75.4869080  12.1218910  31.3327100  76.8433850  12.6095010
  26.1998640  71.2773440   5.4875510  26.4970970  72.1836270   5.4067530
  26.7484200  70.7892220   4.8735080  26.3936170  76.7545260  12.0227430
  26.2979770  75.8139990  11.8727830  27.2368150  76.9760330  11.6275500
  21.5246710  73.1658930  10.1761210  21.1310100  74.0134140  10.3833990
  20.8365110  72.5285300  10.3669850  28.0991760  73.2493900  13.2457950
  27.4090080  73.0566100  13.8804040  28.8424060  73.5328540  13.7782250
  18.8263760  71.0887390   4.2091290  18.5376810  71.6590250   4.9216270
  19.5709520  70.6091840   4.5722520  30.3754730  77.0892340   6.0811870
  29.6435850  77.5979150   6.4301970  29.9779070  76.2722320   5.7800650
  26.8132120  73.7646540   4.4864360  26.8168180  73.3236490   3.6368900
  27.7083240  74.0863870   4.5936180  22.6634500  73.6473030   3.4458570
  22.3234550  74.1248260   4.2025620  21.9011820  73.1938150   3.0859670
  30.8380640  72.5426020   5.4934810  30.8553380  72.9934670   6.3376660
  30.5896220  71.6431660   5.7068250  34.2651390  69.9558200  11.3321190
  34.5897160  69.2247860  11.8579170  34.3007900  69.6371840  10.4302180
  20.9642950  80.9771780  10.7521150  20.5797740  80.3365450  11.3504110
  21.2755140  81.6807900  11.3215880  27.1140090  77.8248320   6.2329770
  27.4810220  77.3506890   6.9791110  26.9245150  78.6989890   6.5738110
  19.9780580  72.5692010   2.3623240  19.6927500  72.2047680   3.2001860
  19.9159440  71.8372470   1.7486380  24.9039460  76.8656960   8.5513980
  24.5996530  77.7448940   8.7764340  25.8585920  76.9256750   8.5871420
  34.1909230  80.0683310   4.9407220  34.9108350  80.5638600   4.5503330
  33.9891050  79.3901200   4.2961090  29.5728030  80.1392370  10.8276220
  29.5065340  79.2188040  10.5733810  28.9433170  80.2367810  11.5420860
  23.4758650  80.7398330   2.7859640  23.9937320  79.9366590   2.7316530
  23.0242670  80.6777470   3.6276470  20.9603190  77.7059700   9.6985340
  20.6018130  78.3713550  10.2858680  20.6657750  76.8743250  10.0697960
  24.1616310  78.1643940  12.5824890  23.8616450  78.3101120  11.6852710
  24.9327550  77.6049230  12.4898280  29.5044760  82.9612940  10.5780020
  29.5189300  82.0293900  10.3598930  28.7969860  83.0472700  11.2169790
  35.7155970  79.6020280   9.9248600  34.9904160  80.1949060   9.7277990
  36.2431430  79.5943820   9.1261970  31.2455560  81.3280450   3.4232450
  31.5979380  80.7308580   2.7633820  30.3617890  81.0024680   3.5940700
  28.9378660  84.6030510   7.6720520  29.5820880  84.8089890   8.3493940
  29.3008100  83.8418910   7.2191370  30.2110740  82.6062860   6.3897970
  30.8532970  81.9056020   6.5030140  30.7360090  83.3861300   6.2094860
  31.9848360  83.4057760   9.5934030  32.3204600  83.9924450  10.2711950
  31.0648700  83.2750470   9.8231820  19.5351760  71.1952940  10.3757440
  18.8210280  71.3949860  10.9810050  19.9546800  70.4192510  10.7472240
  19.8224350  85.1833200  11.3623970  19.9315470  84.2427940  11.2219360
  19.1704910  85.4487950  10.7137700  27.8136940  83.4549090  12.7622090
  27.4933810  82.7358330  13.3067780  27.1395300  84.1304160  12.8358150
  31.0290540  73.6875250   8.1258890  31.3971360  72.8670460   8.4538460
  30.1688740  73.7477140   8.5414540  27.9892530  76.3414840   8.3496860
  28.4877780  76.8160660   9.0148710  28.1315480  75.4178360   8.5566890
  35.1959390  72.5582800   9.1925250  34.6932990  73.2988200   9.5319060
  36.0116050  72.9466800   8.8762040  33.4881400  77.8015980   2.6386610
  32.5471540  77.8166210   2.8134300  33.8025470  77.0151940   3.0846910
  35.4906980  84.9724830   4.3140870  35.6154400  85.7956000   4.7864680
  36.3572540  84.7615560   3.9665020  22.9624510  87.0656040   3.9858000
  23.6986990  86.5171500   4.2566570  23.3465430  87.9312050   3.8463990
  21.9682790  86.2502110  13.1743580  22.7695520  86.5714160  13.5878980
  21.4534610  85.8897690  13.8963490  30.8047420  82.3581980  13.1218990
  30.1985580  82.3813580  12.3814740  30.5001530  81.6265020  13.6586240
  32.2347790  86.0862270  11.7328400  33.1869540  86.0020290  11.6828640
  32.0876010  86.7503980  12.4062190  19.6880600  78.7375570  12.1179630
  20.1919620  78.1582850  12.6895860  18.9488020  79.0215800  12.6556000
  26.7418540  80.1446560  11.6515150  25.9764210  80.7131560  11.5669820
  26.9234500  79.8522770  10.7583380  33.8841890  81.8751890  12.2090170
  34.6251360  82.2127650  11.7057630  33.1214570  82.0443950  11.6559940
  21.7203680  76.8805160  13.0129700  21.7609020  76.5819030  13.9214930
  22.5749180  77.2812770  12.8537220  23.6609490  75.4597260  10.9804190
  23.1305950  74.9688210  10.3527530  24.3297560  75.8881460  10.4462120
  32.5587550  79.9266720  10.7445380  32.9728570  80.0811800  11.5935800
  31.6238550  80.0521940  10.9071160  33.0309720  77.2662880  12.7484530
  33.6130490  76.5115200  12.6605010  33.2071490  77.7970320  11.9716010
  24.1481790  72.4259630  11.0601480  24.0538660  71.8080380  10.3352350
  23.5679180  73.1525920  10.8331390  26.9143230  70.9832870   8.0928870
  26.4660530  71.0057130   7.2474420  26.2808430  70.5851890   8.6899170
  27.3202780  79.8787200   8.7141310  27.7390890  80.7219930   8.5417550
  26.4011410  80.0159240   8.4848090  29.6566680  77.6103380  10.0979150
  29.7762890  77.0144520  10.8373990  30.5160680  77.6473070   9.6780450
  31.9954580  78.1640570   8.6741660  31.4689800  78.6883190   8.0706800
  32.3385920  78.7967960   9.3051390  25.1710200  86.1840210   9.8299040
  24.6331290  86.9086270   9.5107740  25.4244160  85.7070550   9.0396380
  26.4235450  74.1524730  11.3554970  27.0135140  73.8440580  12.0432790
  25.6055690  73.6804480  11.5114870  31.2428880  73.7690540  11.5887990
  30.5544400  73.1072080  11.5237980  31.9634900  73.3228810  12.0336450
  28.0272410  87.4191420  10.0885690  27.9531110  88.3226560  10.3958060
  27.1251250  87.1003320  10.0607760  19.4299700  84.7466010   3.3919310
  19.7602710  83.8787070   3.1597950  19.8590700  84.9524530   4.2224270
  19.9189910  85.6136600   6.1300940  19.4820900  85.7937400   6.9625090
  20.4867590  86.3711220   5.9882660  35.5552090  85.1153600  10.4178250
  34.9554080  85.1746160   9.6742170  35.6845990  84.1758580  10.5475100
  19.7514340  78.1256830   2.4889820  19.0963180  77.8568470   1.8449520
  20.5892290  78.0161310   2.0391800  37.2569970  80.4569000   3.1024090
  37.6278800  79.6736320   2.6960060  37.8971900  81.1458100   2.9241390
  34.2403730  81.8405580   8.5154410  33.4263570  82.2702740   8.7780200
  34.6477930  82.4523990   7.9023460  20.7890270  78.5109400   7.0293160
  21.1563310  78.4236800   7.9089180  20.2201090  77.7475950   6.9300020
  35.5894130  76.9793780  10.0423630  35.3580220  76.7506530   9.1421580
  35.8498680  77.8993330   9.9968520  20.3406270  75.4218490  10.9351580
  19.4462320  75.3885250  11.2745290  20.8803820  75.6205280  11.7002830
  34.0282200  72.2050210  12.8203330  34.9052380  72.2133610  13.2037330
  34.0403040  71.4681050  12.2095680  35.4745470  76.0579750   3.7091350
  35.9982950  75.5642400   3.0781520  36.0604890  76.1930110   4.4538920
  35.6535190  76.1419620   7.2310900  34.7037900  76.1083160   7.3455890
  35.8348200  77.0519730   6.9960670  20.8445980  69.6966820   5.2834800
  21.4922170  69.1464200   4.8429960  21.2647820  69.9509970   6.1050610
  36.3932600  73.9514050   2.1821440  36.2831880  73.7970090   3.1203710
  37.1540190  73.4234990   1.9396850  34.7398320  69.8908180   8.6404440
  35.3770540  70.5042320   9.0063630  34.8873210  69.9268840   7.6953670
  20.5977980  69.8522490   8.0260120  20.2492800  70.3086310   8.7918300
  20.2665680  68.9579620   8.1082550  22.2042350  83.0242090  12.1913310
  22.1611980  82.6535000  13.0727770  22.3353360  83.9619660  12.3315130
  25.9048380  84.5801680   7.7923030  25.6639740  84.8476240   6.9053550
  26.8451020  84.7507410   7.8473890  28.1102800  71.0434370  11.5479540
  28.0491690  71.6356200  12.2974950  29.0503180  70.9360330  11.4029800
  30.7477360  70.7004430  11.1871830  31.3617770  71.0183720  10.5252910
  31.2926920  70.2153020  11.8067690  37.1652540  86.5996060   8.5933670
  36.6710820  86.9964930   7.8760800  36.5565830  85.9745270   8.9870950
  21.2698620  69.3798690  11.3010890  21.8181610  69.1986740  10.5377000
  21.3353930  68.5892800  11.8367200  22.0430380  85.9704340   9.3111090
  21.4490700  85.8389040  10.0501130  22.0354220  85.1342480   8.8453190
  31.4885400  69.2636570   7.5141120  30.6145240  69.5971680   7.3114050
  31.3796150  68.7909750   8.3392990  32.3957380  71.4707440   8.8982840
  32.0670740  70.6559200   8.5184570  33.3439680  71.4277250   8.7748530
  34.8491990  87.2419480   5.8720410  34.3894960  87.9935290   5.4978430
  34.2204450  86.5225950   5.8135210  21.6742610  83.3362720   8.2619130
  20.9476670  82.7168010   8.1945080  21.7351760  83.7303330   7.3917210
  25.2787710  85.5507720   5.0468540  25.7952730  84.9395080   4.5216800
  25.9285090  86.0536500   5.5379550  28.0183210  86.4416210   5.8737520
  28.3061020  86.1870510   4.9970530  28.5306430  85.8893570   6.4643090
  29.2360220  70.1806410   6.4534030  28.4532010  70.6551910   6.7330790
  28.9423150  69.2761240   6.3447210  33.7881290  70.8829510   4.4983120
  34.2289380  70.8274610   3.6504720  33.5188880  71.7987520   4.5693300
  35.6519860  70.5144750   2.5091940  35.5908260  69.5705970   2.3622960
  36.4311890  70.6224840   3.0545400  27.1214440  72.5993160   1.9650060
  26.3088950  72.2250050   1.6245940  27.6256080  71.8438240   2.2671250
  31.6239420  69.2635610   3.2033130  32.2268790  69.8355820   3.6781650
  30.8832410  69.8275050   2.9807030  28.0855570  87.3632310  13.2405720
  29.0122880  87.1276580  13.2841680  28.0706000  88.1904310  12.7591750
  25.2719180  70.0277060  13.0047600  24.9903450  70.5310660  12.2408420
  25.6538880  69.2298810  12.6389730  31.8734640  69.4430640  13.5828070
  31.7600090  69.7625250  14.4779590  32.6904380  69.8443150  13.2865350
  34.6533130  86.5902170  13.0646760  35.4458450  86.0951400  12.8572720
  34.9466280  87.2692310  13.6722370  30.7792790  58.6879620  77.8180260
  30.6986840  57.7734230  77.5471970  30.3657210  59.1846690  77.1119970
  28.9110830  60.4658640  79.6989530  28.1352930  59.9859080  79.9888100
  29.5623760  59.7864290  79.5245690  22.9276660  60.7778450  80.5765290
  22.0961540  60.5227160  80.9761800  23.5357640  60.8489220  81.3123210
  32.9318260  64.8718830  78.4788660  32.4699790  64.1006070  78.8075830
  33.7443810  64.8984900  78.9841110  22.9077920  64.8118540  80.7723310
  23.2105960  63.9216280  80.5933530  23.6521510  65.3688760  80.5445560
  21.3368610  55.7380340  74.3607680  20.4485310  56.0796310  74.2587560
  21.6209800  55.5380660  73.4688510  19.3001620  58.3385990  80.2447380
  19.8717730  57.5708190  80.2451020  19.3003160  58.6374750  79.3353990
  29.1581570  67.1576840  78.0992650  28.5393010  67.6134340  77.5287090
  30.0133350  67.3128300  77.6982350  28.3519820  63.1415830  79.7059690
  28.2828100  62.2005770  79.5448820  29.1139680  63.2317240  80.2782260
  29.3824990  55.9486210  79.9328620  29.7589810  55.0758090  79.8202290
  29.2844500  56.2844910  79.0419060  23.5130000  54.3211840  75.3946060
  23.6196750  55.2215570  75.7014820  22.6022360  54.2729810  75.1040710
  33.1649110  53.4436650  76.8656960  33.9858730  52.9533220  76.9082440
  33.1983190  54.0334310  77.6188800  21.1613160  56.2430850  80.6398650
  21.8423270  56.5069220  81.2586050  20.8461210  55.4031720  80.9736660
  25.3537730  57.2898210  79.7271240  25.8615950  57.7879180  80.3676260
  25.8850970  56.5133410  79.5510600  30.0244920  62.0416080  75.4924560
  29.4062190  62.5065530  74.9287280  30.5368170  62.7343560  75.9094070
  33.4010590  55.3837030  79.6384500  32.6966160  55.6721920  80.2187610
  33.7622750  56.1937140  79.2784060  23.3189160  53.6406730  82.0005110
  23.6605970  54.4848780  81.7058980  22.3804970  53.7890470  82.1170450
  19.3928120  62.7272610  72.8664190  19.0156100  63.2159710  72.1349090
  19.6501190  63.3997890  73.4970720  35.0173370  65.0012160  81.9011980
  34.3336890  65.6711270  81.8928650  35.5567660  65.1992810  81.1356840
  36.4697510  54.8291820  80.0293710  35.5222420  54.8630800  80.1609140
  36.7947500  55.6430770  80.4143070  27.0017050  51.1289000  78.3249700
  27.3092030  50.5735890  77.6085200  26.0717750  51.2633460  78.1422690
  32.5532110  66.8456290  80.6157160  32.5659270  66.4418580  79.7479420
  32.0007330  67.6203580  80.5118590  33.8477530  63.5672510  75.7047330
  33.7373860  62.6246840  75.8296750  33.8445780  63.9288150  76.5910090
  29.3897810  59.1937830  75.0609820  28.4627090  59.1275210  75.2898290
  29.5422630  60.1317960  74.9465060  29.3766890  55.4654830  72.0576980
  28.4370560  55.6268790  72.1429440  29.6950150  56.1840510  71.5112970
  35.8979650  60.1473350  82.0356010  35.0698280  60.2166440  81.5606140
  36.4930130  60.7327660  81.5671840  33.4195100  60.7558130  75.5645070
  32.8007520  60.4177680  74.9171370  33.4019550  60.1117890  76.2724260
  24.9954450  59.7202570  77.8429550  24.5911450  59.0079820  77.3475450
  25.0817570  59.3755810  78.7317590  25.4636150  63.4070130  80.0068760
  25.1664440  62.8015600  79.3276540  26.4135970  63.4447440  79.8958120
  31.5959800  59.9944940  72.5717820  32.0353080  59.1567370  72.4255640
  32.3088220  60.6274340  72.6581960  29.7055180  64.9341010  76.5399060
  30.1451090  65.6765340  76.1254450  29.6442070  65.1767580  77.4638020
  35.1776940  51.2487750  70.8858860  34.8649600  51.3414580  71.7857930
  35.9389410  51.8268780  70.8356290  21.6959080  58.6147550  75.3436200
  21.5756680  59.3409640  74.7317470  21.3859970  57.8450460  74.8664110
  19.3344450  61.7862690  81.1504840  19.4124870  61.9211460  80.2060560
  19.9486130  61.0778580  81.3432960  20.5792080  63.4862880  77.5611020
  20.1720160  63.6277470  76.7064620  21.4705090  63.2023040  77.3582230
  32.3725360  67.9210130  73.8962070  32.2126500  67.6313070  74.7943900
  32.2072070  67.1450260  73.3607300  24.8513740  67.7008660  75.6733690
  24.6756220  66.7844200  75.4601490  23.9969480  68.0595950  75.9131490
  32.0751490  65.4297690  72.4560070  31.3816650  65.4274980  71.7962350
  32.8174350  65.0057010  72.0254240  31.6401420  67.0560400  76.5308560
  32.0958370  66.2749780  76.8447180  31.9793940  67.7667220  77.0749740
  24.1622740  51.9582620  78.7259870  23.7190890  52.7392160  78.3944390
  24.7207730  52.2812510  79.4330810  27.2781560  51.5793320  73.6065700
  26.6535740  51.5753190  74.3319010  27.1911680  50.7124280  73.2101670
  26.1998640  52.5029950  80.5849470  26.4970970  53.4092780  80.5041490
  26.7484200  52.0148730  79.9709040  23.9536960  57.0816190  76.4541120
  23.7277880  56.8653360  77.3587740  23.1729490  57.5144650  76.1087090
  31.1834720  57.0879560  75.0531770  30.5843610  57.8115360  74.8695390
  31.7314330  57.0256340  74.2708220  29.7899590  55.7243100  77.0835050
  30.1829160  56.0415300  76.2703740  30.1516440  54.8454980  77.1979570
  18.8263760  52.3143900  79.3065250  18.5376810  52.8846760  80.0190230
  19.5709520  51.8348350  79.6696480  19.0133990  56.2564020  70.5167970
  18.9308660  57.1994780  70.6582960  18.6617050  56.1138930  69.6380320
  30.3754730  58.3148850  81.1785830  29.6435850  58.8235660  81.5275930
  29.9779070  57.4978830  80.8774610  26.8132120  54.9903050  79.5838320
  26.8168180  54.5493000  78.7342860  27.7083240  55.3120380  79.6910140
  22.6634500  54.8729540  78.5432530  22.3234550  55.3504770  79.2999580
  21.9011820  54.4194660  78.1833630  26.8752270  55.9915130  72.5745080
  26.9965090  55.9501610  73.5230900  26.4900780  56.8539280  72.4191810
  30.8380640  53.7682530  80.5908770  30.8553380  54.2191180  81.4350620
  30.5896220  52.8688170  80.8042210  25.8873770  58.3016270  71.9728380
  25.3190670  57.8534520  71.3464290  26.5962770  58.6609050  71.4393530
  27.1140090  59.0504830  81.3303730  27.4810220  58.5763400  82.0765070
  26.9245150  59.9246400  81.6712070  19.9780580  53.7948520  77.4597200
  19.6927500  53.4304190  78.2975820  19.9159440  53.0628980  76.8460340
  23.4321250  62.2974460  74.2454790  22.6583510  61.7572080  74.0853510
  24.1615880  61.7781070  73.9072550  34.1909230  61.2939820  80.0381180
  34.9108350  61.7895110  79.6477290  33.9891050  60.6157710  79.3935050
  29.6519170  52.6877780  74.1810570  28.8383780  52.1890950  74.1055880
  29.4581120  53.5276030  73.7646920  32.3667560  57.0597430  72.4772730
  33.2547180  57.3714660  72.3024070  32.3372650  56.1869680  72.0853310
  23.4758650  61.9654840  77.8833600  23.9937320  61.1623100  77.8290490
  23.0242670  61.9033980  78.7250430  28.3628150  63.2321120  73.1560900
  28.7043850  63.9763350  72.6604220  27.5340860  63.5452240  73.5185730
  34.6381830  58.3709270  71.9452590  34.5545550  58.8023490  71.0949030
  35.3576020  58.8307620  72.3779410  35.6669080  65.2251530  74.6734720
  35.0245240  64.5707150  74.9478440  35.2799740  65.6306620  73.8975390
  31.2455560  62.5536960  78.5206410  31.5979380  61.9565090  77.8607780
  30.3617890  62.2281190  78.6914660  27.3318840  63.3134650  75.9276820
  28.0189970  63.8603860  76.3084410  26.5451260  63.8575380  75.9626430
  19.4711240  58.9307470  71.4193900  20.3406090  59.2132270  71.7029820
  18.9801560  59.7443340  71.3042710  26.6346050  60.3180680  75.5402180
  27.0908830  61.1285930  75.7662370  26.2834260  60.0003820  76.3720670
  22.5357830  50.6618330  76.0124700  22.4072460  50.6536230  76.9609620
  21.7119850  51.0001420  75.6615710  30.2110740  63.8319370  81.4871930
  30.8532970  63.1312530  81.6004100  30.7360090  64.6117810  81.3068820
  34.0566460  64.1167990  71.2111070  33.8304040  63.3998430  71.8035710
  33.6662660  63.8680430  70.3732820  19.8382490  68.1434850  71.9855530
  20.1980130  68.7424190  71.3312800  19.6974830  68.6894740  72.7590560
  33.6382710  62.0339930  72.8725230  33.3504410  62.4952620  73.6603110
  34.4334880  61.5737700  73.1409450  25.8551110  65.5266050  72.8029200
  25.8461210  66.2595740  72.1873710  24.9349470  65.2797630  72.8956160
  21.4557750  60.7480940  73.5475960  20.8485700  61.4879840  73.5571260
  21.9307100  60.8380300  72.7214160  34.3952570  53.8688700  74.0320410
  33.7665730  53.9734370  73.3178640  33.9004490  54.0885480  74.8214290
  28.8410710  65.5894290  71.4654390  28.9422690  65.3858280  70.5356370
  27.9412450  65.3352570  71.6702170  26.3636600  56.1474650  75.4478290
  25.6552750  56.6160990  75.8891900  26.6481080  55.4896660  76.0823480
  30.3952030  52.8725310  76.8874080  30.2719810  52.8911440  75.9383590
  31.3436590  52.9204250  77.0072480  27.4828820  68.1080610  76.1602060
  27.7370320  68.0702000  75.2381430  26.5341300  67.9813940  76.1530310
  24.5671620  54.4559730  72.8229000  25.4162150  54.8929880  72.7569190
  24.2002890  54.7679990  73.6501060  33.4881400  59.0272490  77.7360570
  32.5471540  59.0422720  77.9108260  33.8025470  58.2408450  78.1820870
  23.4663040  60.7092090  71.2964530  24.2326310  60.5973450  71.8589960
  23.5437730  60.0130060  70.6441300  22.1609800  58.1417160  71.9797420
  22.2413390  57.1944670  72.0914820  23.0529550  58.4724040  72.0858080
  35.4906980  66.1981340  79.4114830  35.6154400  67.0212510  79.8838640
  36.3572540  65.9872070  79.0638980  22.9624510  68.2912550  79.0831960
  23.6986990  67.7428010  79.3540530  23.3465430  69.1568560  78.9437950
  19.8469990  64.3586120  74.9573470  18.9209770  64.6007260  74.9478880
  20.3126420  65.1860380  74.8358220  26.0726820  67.4642860  70.9057530
  26.8655430  67.7531690  70.4539320  25.5531170  67.0335030  70.2270010
  35.1256990  66.6912990  72.3294270  34.8398500  66.2778130  71.5148450
  34.9276540  67.6200700  72.2094790  26.5904220  62.6846270  70.7699880
  26.4854860  62.0698620  71.4961260  26.4228440  62.1612160  69.9862890
  29.8306950  61.7466300  71.3741870  29.2817050  62.1935600  72.0184610
  30.4526210  61.2415550  71.8979540  25.4982070  60.7057220  73.2707170
  25.9198490  60.5397090  74.1138560  25.6232910  59.8957450  72.7762310
  28.0109710  59.7294830  70.5184270  28.5315370  59.0143850  70.1525420
  28.6578110  60.3680700  70.8184780  24.3940970  56.7790450  70.2165330
  24.1930030  55.9157810  70.5778670  24.2233020  56.6923810  69.2786930
  31.8729280  51.5898680  72.7452210  32.1531570  50.7466580  73.1011630
  31.0995010  51.8221790  73.2590960  23.1923770  53.8791070  70.2043210
  23.4949670  53.8858500  69.2962360  23.9318360  53.5288930  70.7010870
  26.4108700  52.8225690  71.1899410  26.0630700  52.1449680  70.6101860
  26.6121470  52.3615200  72.0042800  28.5757740  67.8106440  72.8086010
  29.4708530  68.1491410  72.8304770  28.6075370  67.0885850  72.1810290
  22.2153900  63.1833490  71.0373010  22.6528770  63.7263160  71.6930590
  22.7001630  62.3580440  71.0469350  19.4299700  65.9722520  78.4893270
  19.7602710  65.1043580  78.2571910  19.8590700  66.1781040  79.3198230
  24.0261620  64.3031530  76.1495240  23.7257160  64.1796500  77.0499150
  23.9199110  63.4440120  75.7410970  19.9189910  66.8393110  81.2274900
  19.4820900  67.0193910  82.0599050  20.4867590  67.5967730  81.0856620
  36.7953540  64.0827930  70.8521920  35.9646500  64.1504580  71.3229150
  36.9725370  64.9732050  70.5488780  36.2510000  60.8275410  73.3556120
  37.0128910  61.3972060  73.4615810  36.2664370  60.2602610  74.1264430
  19.7514340  59.3513340  77.5863780  19.0963180  59.0824980  76.9423480
  20.5892290  59.2417820  77.1365760  37.2569970  61.6825510  78.1998050
  37.6278800  60.8992830  77.7934020  37.8971900  62.3714610  78.0215350
  36.3029170  61.1209780  70.5128640  36.5778010  62.0288660  70.3847860
  36.1139910  61.0572310  71.4490630  32.7004780  54.1454630  71.8082270
  33.1189660  53.9585610  70.9678930  32.3940840  53.2933680  72.1185200
  36.1994510  59.0578770  75.5058070  35.8238110  58.2906700  75.0739360
  35.4697630  59.4401470  75.9933000  18.9652420  56.5612270  73.5289110
  18.0616500  56.8242470  73.3540770  19.4493040  56.8323440  72.7489070
  35.4745470  57.2836260  78.8065310  35.9982950  56.7898910  78.1755480
  36.0604890  57.4186620  79.5512880  21.5079630  55.6177810  71.4383490
  22.2171330  55.1961030  70.9530770  20.7919570  55.6853040  70.8066840
  21.1553790  51.6717140  70.4786140  21.8781920  52.2126080  70.7967360
  21.4278310  51.3980560  69.6027680  34.9645440  56.5409610  74.7457720
  35.4604560  56.3080480  75.5306600  34.7661510  55.7021450  74.3295360
  20.8445980  50.9223330  80.3808760  21.4922170  50.3720710  79.9403920
  21.2647820  51.1766480  81.2024570  36.3932600  55.1770560  77.2795400
  36.2831880  55.0226600  78.2177670  37.1540190  54.6491500  77.0370810
  37.2822870  53.0078480  70.5201540  38.2072180  52.8759660  70.3119830
  37.2598660  53.0871300  71.4737990  37.3561360  53.7789140  73.1458250
  36.5612860  53.7134260  73.6751160  37.5604640  54.7139780  73.1343600
  34.2979780  67.8180690  77.1396640  34.8938850  67.4965260  76.4631060
  34.5557930  67.3452510  77.9309910  34.8491990  68.4675990  80.9694370
  34.3894960  69.2191800  80.5952390  34.2204450  67.7482460  80.9109170
  25.2787710  66.7764230  80.1442500  25.7952730  66.1651590  79.6190760
  25.9285090  67.2793010  80.6353510  28.0183210  67.6672720  80.9711480
  28.3061020  67.4127020  80.0944490  28.5306430  67.1150080  81.5617050
  29.2360220  51.4062920  81.5507990  28.4532010  51.8808420  81.8304750
  28.9423150  50.5017750  81.4421170  33.7881290  52.1086020  79.5957080
  34.2289380  52.0531120  78.7478680  33.5188880  53.0244030  79.6667260
  35.6519860  51.7401260  77.6065900  35.5908260  50.7962480  77.4596920
  36.4311890  51.8481350  78.1519360  19.9572610  67.8793620  76.5689850
  19.7894650  67.2464300  77.2671740  19.0907120  68.0853020  76.2184040
  20.5800630  51.7110400  74.0721710  21.3379990  51.8239280  73.4985740
  20.1177800  52.5479600  74.0265140  27.1214440  53.8249670  77.0624020
  26.3088950  53.4506560  76.7219900  27.6256080  53.0694750  77.3645210
  31.6239420  50.4892120  78.3007090  32.2268790  51.0612330  78.7755610
  30.8832410  51.0531560  78.0780990  34.7674020  50.8913680  73.5747370
  34.9624650  51.7897130  73.8414800  33.9803890  50.6600760  74.0680320
  21.5635310  66.5726850  74.0139990  21.0382930  66.9534880  73.3101950
  21.4879890  67.1977620  74.7349700  22.9525780  52.2374450  72.6123680
  23.4818540  51.4504250  72.4831630  23.5854100  52.9165640  72.8459210
  25.1463620  51.9749590  75.6669070  24.5166360  51.2736900  75.8339200
  24.6068760  52.7353720  75.4502230  36.3200630  68.1314390  75.3353930
  36.4952820  67.4452130  74.6914850  35.6222200  68.6561440  74.9430600
  24.1628280  68.5209230  72.8889240  24.8947100  68.2368510  72.3413130
  24.4221950  68.2822510  73.7788620  23.3243070  64.6373960  72.8935570
  22.6951950  65.1059060  73.4421400  23.4390900  63.7923180  73.3281760
  30.7792790  58.6879620  59.0436770  30.6986840  57.7734230  58.7728480
  30.3657210  59.1846690  58.3376480  28.9110830  60.4658640  60.9246040
  28.1352930  59.9859080  61.2144610  29.5623760  59.7864290  60.7502200
  22.9276660  60.7778450  61.8021800  22.0961540  60.5227160  62.2018310
  23.5357640  60.8489220  62.5379720  32.9318260  64.8718830  59.7045170
  32.4699790  64.1006070  60.0332340  33.7443810  64.8984900  60.2097620
  22.9077920  64.8118540  61.9979820  23.2105960  63.9216280  61.8190040
  23.6521510  65.3688760  61.7702070  21.3368610  55.7380340  55.5864190
  20.4485310  56.0796310  55.4844070  21.6209800  55.5380660  54.6945020
  19.3001620  58.3385990  61.4703890  19.8717730  57.5708190  61.4707530
  19.3003160  58.6374750  60.5610500  29.1581570  67.1576840  59.3249160
  28.5393010  67.6134340  58.7543600  30.0133350  67.3128300  58.9238860
  28.3519820  63.1415830  60.9316200  28.2828100  62.2005770  60.7705330
  29.1139680  63.2317240  61.5038770  20.5426490  53.7470350  63.2572820
  20.3629330  52.8496100  63.5375580  20.1406570  54.2942220  63.9319770
  29.3824990  55.9486210  61.1585130  29.7589810  55.0758090  61.0458800
  29.2844500  56.2844910  60.2675570  23.5130000  54.3211840  56.6202570
  23.6196750  55.2215570  56.9271330  22.6022360  54.2729810  56.3297220
  21.1613160  56.2430850  61.8655160  21.8423270  56.5069220  62.4842560
  20.8461210  55.4031720  62.1993170  25.3537730  57.2898210  60.9527750
  25.8615950  57.7879180  61.5932770  25.8850970  56.5133410  60.7767110
  37.4548660  55.4603400  64.6557100  36.7500830  55.8485110  64.1372210
  37.7206580  56.1553690  65.2578030  23.6373830  51.9296770  65.2191170
  23.6392270  52.4469160  64.4137070  22.8078140  51.4526950  65.1961100
  24.8876680  61.5691950  63.3964670  24.5546060  62.1960870  64.0385740
  25.0643360  62.0953830  62.6166340  33.4010590  55.3837030  60.8641010
  32.6966160  55.6721920  61.4444120  33.7622750  56.1937140  60.5040570
  23.3189160  53.6406730  63.2261620  23.6605970  54.4848780  62.9315490
  22.3804970  53.7890470  63.3426960  24.0995780  63.5372750  65.2113850
  24.7169780  64.2123830  64.9298300  23.2388900  63.9460730  65.1201350
  19.3928120  62.7272610  54.0920700  19.0156100  63.2159710  53.3605600
  19.6501190  63.3997890  54.7227230  35.0173370  65.0012160  63.1268490
  34.3336890  65.6711270  63.1185160  35.5567660  65.1992810  62.3613350
  36.4697510  54.8291820  61.2550220  35.5222420  54.8630800  61.3865650
  36.7947500  55.6430770  61.6399580  27.0017050  51.1289000  59.5506210
  27.3092030  50.5735890  58.8341710  26.0717750  51.2633460  59.3679200
  32.5532110  66.8456290  61.8413670  32.5659270  66.4418580  60.9735930
  32.0007330  67.6203580  61.7375100  31.9517550  61.7486130  63.1696280
  32.3686340  61.5346240  62.3349740  32.6757370  62.0058920  63.7404900
  35.8979650  60.1473350  63.2612520  35.0698280  60.2166440  62.7862650
  36.4930130  60.7327660  62.7928350  32.8621660  56.9342670  64.2067390
  32.4492840  57.7596380  64.4607380  32.1297610  56.3487710  64.0143750
  24.9954450  59.7202570  59.0686060  24.5911450  59.0079820  58.5731960
  25.0817570  59.3755810  59.9574100  25.4636150  63.4070130  61.2325270
  25.1664440  62.8015600  60.5533050  26.4135970  63.4447440  61.1214630
  23.7083070  56.4945780  62.8485100  24.2597660  56.6041120  62.0738350
  24.2226580  56.8683380  63.5640330  33.5521760  66.9802000  64.8948370
  33.0752320  67.7874190  64.7020980  32.8683550  66.3280330  65.0474580
  24.5554580  63.1451820  67.8833070  23.6583110  63.3691790  68.1306470
  24.5807450  63.2686760  66.9344470  23.3825800  60.0165140  66.4590440
  23.2433570  60.8887940  66.8277840  22.5007160  59.6737950  66.3138380
  29.7055180  64.9341010  57.7655570  30.1451090  65.6765340  57.3510960
  29.6442070  65.1767580  58.6894530  25.1806150  65.9586840  68.6675590
  25.1521580  66.3629790  67.8004020  25.0171120  65.0297200  68.5047190
  21.6959080  58.6147550  56.5692710  21.5756680  59.3409640  55.9573980
  21.3859970  57.8450460  56.0920620  37.1320970  66.7413940  69.9639760
  37.6080690  67.2196830  70.6428840  37.7528130  66.6731430  69.2385260
  19.3344450  61.7862690  62.3761350  19.4124870  61.9211460  61.4317070
  19.9486130  61.0778580  62.5689470  20.5792080  63.4862880  58.7867530
  20.1720160  63.6277470  57.9321130  21.4705090  63.2023040  58.5838740
  36.5354220  63.9326790  67.1239770  36.6617280  63.6938670  66.2056950
  36.5775600  63.1011330  67.5961850  30.3970960  67.6354790  65.6934580
  30.9115630  67.5462800  66.4957010  29.5540040  67.9814490  65.9862490
  32.3725360  67.9210130  55.1218580  32.2126500  67.6313070  56.0200410
  32.2072070  67.1450260  54.5863810  24.8513740  67.7008660  56.8990200
  24.6756220  66.7844200  56.6858000  23.9969480  68.0595950  57.1388000
  32.0751490  65.4297690  53.6816580  31.3816650  65.4274980  53.0218860
  32.8174350  65.0057010  53.2510750  31.6401420  67.0560400  57.7565070
  32.0958370  66.2749780  58.0703690  31.9793940  67.7667220  58.3006250
  36.3878230  55.9859250  68.0889510  35.7722500  56.4938920  67.5604970
  36.0674650  55.0857580  68.0315450  19.3903970  62.8276860  64.9155810
  19.5535010  62.3582220  64.0975180  19.8556420  62.3200420  65.5804650
  24.1622740  51.9582620  59.9516380  23.7190890  52.7392160  59.6200900
  24.7207730  52.2812510  60.6587320  28.4492550  54.8251140  65.5551700
  27.9871920  55.0334160  66.3671640  28.0470660  54.0110490  65.2522370
  33.4497060  56.0460090  66.6848360  32.5990650  55.7465840  67.0057430
  33.2898850  56.2902100  65.7732180  30.5446770  57.5461840  68.7847150
  30.8700180  56.7125590  68.4449380  31.3327100  58.0690360  68.9325480
  26.1998640  52.5029950  61.8105980  26.4970970  53.4092780  61.7298000
  26.7484200  52.0148730  61.1965550  23.9536960  57.0816190  57.6797630
  23.7277880  56.8653360  58.5844250  23.1729490  57.5144650  57.3343600
  26.3936170  57.9801770  68.3457900  26.2979770  57.0396500  68.1958300
  27.2368150  58.2016840  67.9505970  21.5246710  54.3915440  66.4991680
  21.1310100  55.2390650  66.7064460  20.8365110  53.7541810  66.6900320
  28.0991760  54.4750410  69.5688420  27.4090080  54.2822610  70.2034510
  28.8424060  54.7585050  70.1012720  18.8263760  52.3143900  60.5321760
  18.5376810  52.8846760  61.2446740  19.5709520  51.8348350  60.8952990
  19.0133990  56.2564020  51.7424480  18.9308660  57.1994780  51.8839470
  18.6617050  56.1138930  50.8636830  30.3754730  58.3148850  62.4042340
  29.6435850  58.8235660  62.7532440  29.9779070  57.4978830  62.1031120
  26.8132120  54.9903050  60.8094830  26.8168180  54.5493000  59.9599370
  27.7083240  55.3120380  60.9166650  22.6634500  54.8729540  59.7689040
  22.3234550  55.3504770  60.5256090  21.9011820  54.4194660  59.4090140
  30.8380640  53.7682530  61.8165280  30.8553380  54.2191180  62.6607130
  30.5896220  52.8688170  62.0298720  34.2651390  51.1814710  67.6551660
  34.5897160  50.4504370  68.1809640  34.3007900  50.8628350  66.7532650
  20.9642950  62.2028290  67.0751620  20.5797740  61.5621960  67.6734580
  21.2755140  62.9064410  67.6446350  27.1140090  59.0504830  62.5560240
  27.4810220  58.5763400  63.3021580  26.9245150  59.9246400  62.8968580
  19.9780580  53.7948520  58.6853710  19.6927500  53.4304190  59.5232330
  19.9159440  53.0628980  58.0716850  24.9039460  58.0913470  64.8744450
  24.5996530  58.9705450  65.0994810  25.8585920  58.1513260  64.9101890
  23.4321250  62.2974460  55.4711300  22.6583510  61.7572080  55.3110020
  24.1615880  61.7781070  55.1329060  34.1909230  61.2939820  61.2637690
  34.9108350  61.7895110  60.8733800  33.9891050  60.6157710  60.6191560
  29.5728030  61.3648880  67.1506690  29.5065340  60.4444550  66.8964280
  28.9433170  61.4624320  67.8651330  23.4758650  61.9654840  59.1090110
  23.9937320  61.1623100  59.0547000  23.0242670  61.9033980  59.9506940
  28.3628150  63.2321120  54.3817410  28.7043850  63.9763350  53.8860730
  27.5340860  63.5452240  54.7442240  20.9603190  58.9316210  66.0215810
  20.6018130  59.5970060  66.6089150  20.6657750  58.0999760  66.3928430
  24.1616310  59.3900450  68.9055360  23.8616450  59.5357630  68.0083180
  24.9327550  58.8305740  68.8128750  29.5044760  64.1869450  66.9010490
  29.5189300  63.2550410  66.6829400  28.7969860  64.2729210  67.5400260
  35.7155970  60.8276790  66.2479070  34.9904160  61.4205570  66.0508460
  36.2431430  60.8200330  65.4492440  31.2455560  62.5536960  59.7462920
  31.5979380  61.9565090  59.0864290  30.3617890  62.2281190  59.9171170
  27.3318840  63.3134650  57.1533330  28.0189970  63.8603860  57.5340920
  26.5451260  63.8575380  57.1882940  19.4711240  58.9307470  52.6450410
  20.3406090  59.2132270  52.9286330  18.9801560  59.7443340  52.5299220
  26.6346050  60.3180680  56.7658690  27.0908830  61.1285930  56.9918880
  26.2834260  60.0003820  57.5977180  28.9378660  65.8287020  63.9950990
  29.5820880  66.0346400  64.6724410  29.3008100  65.0675420  63.5421840
  22.5357830  50.6618330  57.2381210  22.4072460  50.6536230  58.1866130
  21.7119850  51.0001420  56.8872220  30.2110740  63.8319370  62.7128440
  30.8532970  63.1312530  62.8260610  30.7360090  64.6117810  62.5325330
  31.9848360  64.6314270  65.9164500  32.3204600  65.2180960  66.5942420
  31.0648700  64.5006980  66.1462290  19.8382490  68.1434850  53.2112040
  20.1980130  68.7424190  52.5569310  19.6974830  68.6894740  53.9847070
  19.5351760  52.4209450  66.6987910  18.8210280  52.6206370  67.3040520
  19.9546800  51.6449020  67.0702710  19.8224350  66.4089710  67.6854440
  19.9315470  65.4684450  67.5449830  19.1704910  66.6744460  67.0368170
  27.8136940  64.6805600  69.0852560  27.4933810  63.9614840  69.6298250
  27.1395300  65.3560670  69.1588620  25.8551110  65.5266050  54.0285710
  25.8461210  66.2595740  53.4130220  24.9349470  65.2797630  54.1212670
  21.4557750  60.7480940  54.7732470  20.8485700  61.4879840  54.7827770
  21.9307100  60.8380300  53.9470670  31.0290540  54.9131760  64.4489360
  31.3971360  54.0926970  64.7768930  30.1688740  54.9733650  64.8645010
  28.8410710  65.5894290  52.6910900  28.9422690  65.3858280  51.7612880
  27.9412450  65.3352570  52.8958680  27.9892530  57.5671350  64.6727330
  28.4877780  58.0417170  65.3379180  28.1315480  56.6434870  64.8797360
  27.4828820  68.1080610  57.3858570  27.7370320  68.0702000  56.4637940
  26.5341300  67.9813940  57.3786820  35.1959390  53.7839310  65.5155720
  34.6932990  54.5244710  65.8549530  36.0116050  54.1723310  65.1992510
  33.4881400  59.0272490  58.9617080  32.5471540  59.0422720  59.1364770
  33.8025470  58.2408450  59.4077380  23.4663040  60.7092090  52.5221040
  24.2326310  60.5973450  53.0846470  23.5437730  60.0130060  51.8697810
  22.1609800  58.1417160  53.2053930  22.2413390  57.1944670  53.3171330
  23.0529550  58.4724040  53.3114590  35.4906980  66.1981340  60.6371340
  35.6154400  67.0212510  61.1095150  36.3572540  65.9872070  60.2895490
  22.9624510  68.2912550  60.3088470  23.6986990  67.7428010  60.5797040
  23.3465430  69.1568560  60.1694460  19.8469990  64.3586120  56.1829980
  18.9209770  64.6007260  56.1735390  20.3126420  65.1860380  56.0614730
  21.9682790  67.4758620  69.4974050  22.7695520  67.7970670  69.9109450
  21.4534610  67.1154200  70.2193960  26.0726820  67.4642860  52.1314040
  26.8655430  67.7531690  51.6795830  25.5531170  67.0335030  51.4526520
  30.8047420  63.5838490  69.4449460  30.1985580  63.6070090  68.7045210
  30.5001530  62.8521530  69.9816710  32.2347790  67.3118780  68.0558870
  33.1869540  67.2276800  68.0059110  32.0876010  67.9760490  68.7292660
  19.6880600  59.9632080  68.4410100  20.1919620  59.3839360  69.0126330
  18.9488020  60.2472310  68.9786470  26.5904220  62.6846270  51.9956390
  26.4854860  62.0698620  52.7217770  26.4228440  62.1612160  51.2119400
  26.7418540  61.3703070  67.9745620  25.9764210  61.9388070  67.8900290
  26.9234500  61.0779280  67.0813850  33.8841890  63.1008400  68.5320640
  34.6251360  63.4384160  68.0288100  33.1214570  63.2700460  67.9790410
  21.7203680  58.1061670  69.3360170  21.7609020  57.8075540  70.2445400
  22.5749180  58.5069280  69.1767690  23.6609490  56.6853770  67.3034660
  23.1305950  56.1944720  66.6758000  24.3297560  57.1137970  66.7692590
  32.5587550  61.1523230  67.0675850  32.9728570  61.3068310  67.9166270
  31.6238550  61.2778450  67.2301630  33.0309720  58.4919390  69.0715000
  33.6130490  57.7371710  68.9835480  33.2071490  59.0226830  68.2946480
  24.1481790  53.6516140  67.3831950  24.0538660  53.0336890  66.6582820
  23.5679180  54.3782430  67.1561860  26.9143230  52.2089380  64.4159340
  26.4660530  52.2313640  63.5704890  26.2808430  51.8108400  65.0129640
  27.3202780  61.1043710  65.0371780  27.7390890  61.9476440  64.8648020
  26.4011410  61.2415750  64.8078560  29.6566680  58.8359890  66.4209620
  29.7762890  58.2401030  67.1604460  30.5160680  58.8729580  66.0010920
  31.9954580  59.3897080  64.9972130  31.4689800  59.9139700  64.3937270
  32.3385920  60.0224470  65.6281860  25.1710200  67.4096720  66.1529510
  24.6331290  68.1342780  65.8338210  25.4244160  66.9327060  65.3626850
  26.4235450  55.3781240  67.6785440  27.0135140  55.0697090  68.3663260
  25.6055690  54.9060990  67.8345340  31.2428880  54.9947050  67.9118460
  30.5544400  54.3328590  67.8468450  31.9634900  54.5485320  68.3566920
  28.0272410  68.6447930  66.4116160  27.9531110  69.5483070  66.7188530
  27.1251250  68.3259830  66.3838230  28.5757740  67.8106440  54.0342520
  29.4708530  68.1491410  54.0561280  28.6075370  67.0885850  53.4066800
  22.2153900  63.1833490  52.2629520  22.6528770  63.7263160  52.9187100
  22.7001630  62.3580440  52.2725860  19.4299700  65.9722520  59.7149780
  19.7602710  65.1043580  59.4828420  19.8590700  66.1781040  60.5454740
  24.0261620  64.3031530  57.3751750  23.7257160  64.1796500  58.2755660
  23.9199110  63.4440120  56.9667480  19.9189910  66.8393110  62.4531410
  19.4820900  67.0193910  63.2855560  20.4867590  67.5967730  62.3113130
  35.5552090  66.3410110  66.7408720  34.9554080  66.4002670  65.9972640
  35.6845990  65.4015090  66.8705570  19.7514340  59.3513340  58.8120290
  19.0963180  59.0824980  58.1679990  20.5892290  59.2417820  58.3622270
  37.2569970  61.6825510  59.4254560  37.6278800  60.8992830  59.0190530
  37.8971900  62.3714610  59.2471860  34.2403730  63.0662090  64.8384880
  33.4263570  63.4959250  65.1010670  34.6477930  63.6780500  64.2253930
  20.7890270  59.7365910  63.3523630  21.1563310  59.6493310  64.2319650
  20.2201090  58.9732460  63.2530490  35.5894130  58.2050290  66.3654100
  35.3580220  57.9763040  65.4652050  35.8498680  59.1249840  66.3198990
  20.3406270  56.6475000  67.2582050  19.4462320  56.6141760  67.5975760
  20.8803820  56.8461790  68.0233300  34.0282200  53.4306720  69.1433800
  34.9052380  53.4390120  69.5267800  34.0403040  52.6937560  68.5326150
  18.9652420  56.5612270  54.7545620  18.0616500  56.8242470  54.5797280
  19.4493040  56.8323440  53.9745580  35.4745470  57.2836260  60.0321820
  35.9982950  56.7898910  59.4011990  36.0604890  57.4186620  60.7769390
  35.6535190  57.3676130  63.5541370  34.7037900  57.3339670  63.6686360
  35.8348200  58.2776240  63.3191140  21.5079630  55.6177810  52.6640000
  22.2171330  55.1961030  52.1787280  20.7919570  55.6853040  52.0323350
  21.1553790  51.6717140  51.7042650  21.8781920  52.2126080  52.0223870
  21.4278310  51.3980560  50.8284190  20.8445980  50.9223330  61.6065270
  21.4922170  50.3720710  61.1660430  21.2647820  51.1766480  62.4281080
  34.7398320  51.1164690  64.9634910  35.3770540  51.7298830  65.3294100
  34.8873210  51.1525350  64.0184140  34.2979780  67.8180690  58.3653150
  34.8938850  67.4965260  57.6887570  34.5557930  67.3452510  59.1566420
  20.5977980  51.0779000  64.3490590  20.2492800  51.5342820  65.1148770
  20.2665680  50.1836130  64.4313020  22.2042350  64.2498600  68.5143780
  22.1611980  63.8791510  69.3958240  22.3353360  65.1876170  68.6545600
  25.9048380  65.8058190  64.1153500  25.6639740  66.0732750  63.2284020
  26.8451020  65.9763920  64.1704360  28.1102800  52.2690880  67.8710010
  28.0491690  52.8612710  68.6205420  29.0503180  52.1616840  67.7260270
  30.7477360  51.9260940  67.5102300  31.3617770  52.2440230  66.8483380
  31.2926920  51.4409530  68.1298160  37.1652540  67.8252570  64.9164140
  36.6710820  68.2221440  64.1991270  36.5565830  67.2001780  65.3101420
  21.2698620  50.6055200  67.6241360  21.8181610  50.4243250  66.8607470
  21.3353930  49.8149310  68.1597670  22.0430380  67.1960850  65.6341560
  21.4490700  67.0645550  66.3731600  22.0354220  66.3598990  65.1683660
  31.4885400  50.4893080  63.8371590  30.6145240  50.8228190  63.6344520
  31.3796150  50.0166260  64.6623460  32.3957380  52.6963950  65.2213310
  32.0670740  51.8815710  64.8415040  33.3439680  52.6533760  65.0979000
  34.8491990  68.4675990  62.1950880  34.3894960  69.2191800  61.8208900
  34.2204450  67.7482460  62.1365680  21.6742610  64.5619230  64.5849600
  20.9476670  63.9424520  64.5175550  21.7351760  64.9559840  63.7147680
  25.2787710  66.7764230  61.3699010  25.7952730  66.1651590  60.8447270
  25.9285090  67.2793010  61.8610020  28.0183210  67.6672720  62.1967990
  28.3061020  67.4127020  61.3201000  28.5306430  67.1150080  62.7873560
  29.2360220  51.4062920  62.7764500  28.4532010  51.8808420  63.0561260
  28.9423150  50.5017750  62.6677680  33.7881290  52.1086020  60.8213590
  34.2289380  52.0531120  59.9735190  33.5188880  53.0244030  60.8923770
  35.6519860  51.7401260  58.8322410  35.5908260  50.7962480  58.6853430
  36.4311890  51.8481350  59.3775870  19.9572610  67.8793620  57.7946360
  19.7894650  67.2464300  58.4928250  19.0907120  68.0853020  57.4440550
  20.5800630  51.7110400  55.2978220  21.3379990  51.8239280  54.7242250
  20.1177800  52.5479600  55.2521650  21.5635310  66.5726850  55.2396500
  21.0382930  66.9534880  54.5358460  21.4879890  67.1977620  55.9606210
  22.9525780  52.2374450  53.8380190  23.4818540  51.4504250  53.7088140
  23.5854100  52.9165640  54.0715720  28.0855570  68.5888820  69.5636190
  29.0122880  68.3533090  69.6072150  28.0706000  69.4160820  69.0822220
  25.2719180  51.2533570  69.3278070  24.9903450  51.7567170  68.5638890
  25.6538880  50.4555320  68.9620200  24.1628280  68.5209230  54.1145750
  24.8947100  68.2368510  53.5669640  24.4221950  68.2822510  55.0045130
  23.3243070  64.6373960  54.1192080  22.6951950  65.1059060  54.6677910
  23.4390900  63.7923180  54.5538270  31.8734640  50.6687150  69.9058540
  31.7600090  50.9881760  70.8010060  32.6904380  51.0699660  69.6095820
  34.6533130  67.8158680  69.3877230  35.4458450  67.3207910  69.1803190
  34.9466280  68.4948820  69.9952840  22.9077920  64.8118540  43.2236330
  23.2105960  63.9216280  43.0446550  23.6521510  65.3688760  42.9958580
  21.3368610  55.7380340  36.8120700  20.4485310  56.0796310  36.7100580
  21.6209800  55.5380660  35.9201530  19.3001620  58.3385990  42.6960400
  19.8717730  57.5708190  42.6964040  19.3003160  58.6374750  41.7867010
  29.1581570  67.1576840  40.5505670  28.5393010  67.6134340  39.9800110
  30.0133350  67.3128300  40.1495370  20.5426490  53.7470350  44.4829330
  20.3629330  52.8496100  44.7632090  20.1406570  54.2942220  45.1576280
  21.1613160  56.2430850  43.0911670  21.8423270  56.5069220  43.7099070
  20.8461210  55.4031720  43.4249680  23.6373830  51.9296770  46.4447680
  23.6392270  52.4469160  45.6393580  22.8078140  51.4526950  46.4217610
  24.0995780  63.5372750  46.4370360  24.7169780  64.2123830  46.1554810
  23.2388900  63.9460730  46.3457860  19.3928120  62.7272610  35.3177210
  19.0156100  63.2159710  34.5862110  19.6501190  63.3997890  35.9483740
  32.5532110  66.8456290  43.0670180  32.5659270  66.4418580  42.1992440
  32.0007330  67.6203580  42.9631610  25.4636150  63.4070130  42.4581780
  25.1664440  62.8015600  41.7789560  26.4135970  63.4447440  42.3471140
  33.5521760  66.9802000  46.1204880  33.0752320  67.7874190  45.9277490
  32.8683550  66.3280330  46.2731090  24.5554580  63.1451820  49.1089580
  23.6583110  63.3691790  49.3562980  24.5807450  63.2686760  48.1600980
  29.7055180  64.9341010  38.9912080  30.1451090  65.6765340  38.5767470
  29.6442070  65.1767580  39.9151040  25.1806150  65.9586840  49.8932100
  25.1521580  66.3629790  49.0260530  25.0171120  65.0297200  49.7303700
  19.3344450  61.7862690  43.6017860  19.4124870  61.9211460  42.6573580
  19.9486130  61.0778580  43.7945980  20.5792080  63.4862880  40.0124040
  20.1720160  63.6277470  39.1577640  21.4705090  63.2023040  39.8095250
  30.3970960  67.6354790  46.9191090  30.9115630  67.5462800  47.7213520
  29.5540040  67.9814490  47.2119000  32.3725360  67.9210130  36.3475090
  32.2126500  67.6313070  37.2456920  32.2072070  67.1450260  35.8120320
  24.8513740  67.7008660  38.1246710  24.6756220  66.7844200  37.9114510
  23.9969480  68.0595950  38.3644510  32.0751490  65.4297690  34.9073090
  31.3816650  65.4274980  34.2475370  32.8174350  65.0057010  34.4767260
  31.6401420  67.0560400  38.9821580  32.0958370  66.2749780  39.2960200
  31.9793940  67.7667220  39.5262760  19.3903970  62.8276860  46.1412320
  19.5535010  62.3582220  45.3231690  19.8556420  62.3200420  46.8061160
  21.5246710  54.3915440  47.7248190  21.1310100  55.2390650  47.9320970
  20.8365110  53.7541810  47.9156830  18.8263760  52.3143900  41.7578270
  18.5376810  52.8846760  42.4703250  19.5709520  51.8348350  42.1209500
  19.0133990  56.2564020  32.9680990  18.9308660  57.1994780  33.1095980
  18.6617050  56.1138930  32.0893340  20.9642950  62.2028290  48.3008130
  20.5797740  61.5621960  48.8991090  21.2755140  62.9064410  48.8702860
  19.9780580  53.7948520  39.9110220  19.6927500  53.4304190  40.7488840
  19.9159440  53.0628980  39.2973360  20.9603190  58.9316210  47.2472320
  20.6018130  59.5970060  47.8345660  20.6657750  58.0999760  47.6184940
  29.5044760  64.1869450  48.1267000  29.5189300  63.2550410  47.9085910
  28.7969860  64.2729210  48.7656770  27.3318840  63.3134650  38.3789840
  28.0189970  63.8603860  38.7597430  26.5451260  63.8575380  38.4139450
  19.4711240  58.9307470  33.8706920  20.3406090  59.2132270  34.1542840
  18.9801560  59.7443340  33.7555730  28.9378660  65.8287020  45.2207500
  29.5820880  66.0346400  45.8980920  29.3008100  65.0675420  44.7678350
  22.5357830  50.6618330  38.4637720  22.4072460  50.6536230  39.4122640
  21.7119850  51.0001420  38.1128730  30.2110740  63.8319370  43.9384950
  30.8532970  63.1312530  44.0517120  30.7360090  64.6117810  43.7581840
  31.9848360  64.6314270  47.1421010  32.3204600  65.2180960  47.8198930
  31.0648700  64.5006980  47.3718800  19.8382490  68.1434850  34.4368550
  20.1980130  68.7424190  33.7825820  19.6974830  68.6894740  35.2103580
  19.5351760  52.4209450  47.9244420  18.8210280  52.6206370  48.5297030
  19.9546800  51.6449020  48.2959220  19.8224350  66.4089710  48.9110950
  19.9315470  65.4684450  48.7706340  19.1704910  66.6744460  48.2624680
  27.8136940  64.6805600  50.3109070  27.4933810  63.9614840  50.8554760
  27.1395300  65.3560670  50.3845130  25.8551110  65.5266050  35.2542220
  25.8461210  66.2595740  34.6386730  24.9349470  65.2797630  35.3469180
  21.4557750  60.7480940  35.9988980  20.8485700  61.4879840  36.0084280
  21.9307100  60.8380300  35.1727180  28.8410710  65.5894290  33.9167410
  28.9422690  65.3858280  32.9869390  27.9412450  65.3352570  34.1215190
  27.4828820  68.1080610  38.6115080  27.7370320  68.0702000  37.6894450
  26.5341300  67.9813940  38.6043330  22.9624510  68.2912550  41.5344980
  23.6986990  67.7428010  41.8053550  23.3465430  69.1568560  41.3950970
  19.8469990  64.3586120  37.4086490  18.9209770  64.6007260  37.3991900
  20.3126420  65.1860380  37.2871240  21.9682790  67.4758620  50.7230560
  22.7695520  67.7970670  51.1365960  21.4534610  67.1154200  51.4450470
  26.0726820  67.4642860  33.3570550  26.8655430  67.7531690  32.9052340
  25.5531170  67.0335030  32.6783030  32.2347790  67.3118780  49.2815380
  33.1869540  67.2276800  49.2315620  32.0876010  67.9760490  49.9549170
  19.6880600  59.9632080  49.6666610  20.1919620  59.3839360  50.2382840
  18.9488020  60.2472310  50.2042980  21.7203680  58.1061670  50.5616680
  21.7609020  57.8075540  51.4701910  22.5749180  58.5069280  50.4024200
  25.1710200  67.4096720  47.3786020  24.6331290  68.1342780  47.0594720
  25.4244160  66.9327060  46.5883360  28.0272410  68.6447930  47.6372670
  27.9531110  69.5483070  47.9445040  27.1251250  68.3259830  47.6094740
  28.5757740  67.8106440  35.2599030  29.4708530  68.1491410  35.2817790
  28.6075370  67.0885850  34.6323310  22.2153900  63.1833490  33.4886030
  22.6528770  63.7263160  34.1443610  22.7001630  62.3580440  33.4982370
  19.4299700  65.9722520  40.9406290  19.7602710  65.1043580  40.7084930
  19.8590700  66.1781040  41.7711250  24.0261620  64.3031530  38.6008260
  23.7257160  64.1796500  39.5012170  23.9199110  63.4440120  38.1923990
  19.9189910  66.8393110  43.6787920  19.4820900  67.0193910  44.5112070
  20.4867590  67.5967730  43.5369640  19.7514340  59.3513340  40.0376800
  19.0963180  59.0824980  39.3936500  20.5892290  59.2417820  39.5878780
  20.7890270  59.7365910  44.5780140  21.1563310  59.6493310  45.4576160
  20.2201090  58.9732460  44.4787000  20.3406270  56.6475000  48.4838560
  19.4462320  56.6141760  48.8232270  20.8803820  56.8461790  49.2489810
  18.9652420  56.5612270  35.9802130  18.0616500  56.8242470  35.8053790
  19.4493040  56.8323440  35.2002090  21.5079630  55.6177810  33.8896510
  22.2171330  55.1961030  33.4043790  20.7919570  55.6853040  33.2579860
  21.1553790  51.6717140  32.9299160  21.8781920  52.2126080  33.2480380
  21.4278310  51.3980560  32.0540700  20.8445980  50.9223330  42.8321780
  21.4922170  50.3720710  42.3916940  21.2647820  51.1766480  43.6537590
  20.5977980  51.0779000  45.5747100  20.2492800  51.5342820  46.3405280
  20.2665680  50.1836130  45.6569530  22.2042350  64.2498600  49.7400290
  22.1611980  63.8791510  50.6214750  22.3353360  65.1876170  49.8802110
  25.9048380  65.8058190  45.3410010  25.6639740  66.0732750  44.4540530
  26.8451020  65.9763920  45.3960870  21.2698620  50.6055200  48.8497870
  21.8181610  50.4243250  48.0863980  21.3353930  49.8149310  49.3854180
  22.0430380  67.1960850  46.8598070  21.4490700  67.0645550  47.5988110
  22.0354220  66.3598990  46.3940170  34.8491990  68.4675990  43.4207390
  34.3894960  69.2191800  43.0465410  34.2204450  67.7482460  43.3622190
  21.6742610  64.5619230  45.8106110  20.9476670  63.9424520  45.7432060
  21.7351760  64.9559840  44.9404190  25.2787710  66.7764230  42.5955520
  25.7952730  66.1651590  42.0703780  25.9285090  67.2793010  43.0866530
  28.0183210  67.6672720  43.4224500  28.3061020  67.4127020  42.5457510
  28.5306430  67.1150080  44.0130070  19.9572610  67.8793620  39.0202870
  19.7894650  67.2464300  39.7184760  19.0907120  68.0853020  38.6697060
  20.5800630  51.7110400  36.5234730  21.3379990  51.8239280  35.9498760
  20.1177800  52.5479600  36.4778160  21.5635310  66.5726850  36.4653010
  21.0382930  66.9534880  35.7614970  21.4879890  67.1977620  37.1862720
  22.9525780  52.2374450  35.0636700  23.4818540  51.4504250  34.9344650
  23.5854100  52.9165640  35.2972230  28.0855570  68.5888820  50.7892700
  29.0122880  68.3533090  50.8328660  28.0706000  69.4160820  50.3078730
  24.1628280  68.5209230  35.3402260  24.8947100  68.2368510  34.7926150
  24.4221950  68.2822510  36.2301640  23.3243070  64.6373960  35.3448590
  22.6951950  65.1059060  35.8934420  23.4390900  63.7923180  35.7794780
  30.7792790  58.6879620  21.4949790  30.6986840  57.7734230  21.2241500
  30.3657210  59.1846690  20.7889500  32.9318260  64.8718830  22.1558190
  32.4699790  64.1006070  22.4845360  33.7443810  64.8984900  22.6610640
  22.9077920  64.8118540  24.4492840  23.2105960  63.9216280  24.2703060
  23.6521510  65.3688760  24.2215090  21.3368610  55.7380340  18.0377210
  20.4485310  56.0796310  17.9357090  21.6209800  55.5380660  17.1458040
  19.3001620  58.3385990  23.9216910  19.8717730  57.5708190  23.9220550
  19.3003160  58.6374750  23.0123520  29.1581570  67.1576840  21.7762180
  28.5393010  67.6134340  21.2056620  30.0133350  67.3128300  21.3751880
  28.3519820  63.1415830  23.3829220  28.2828100  62.2005770  23.2218350
  29.1139680  63.2317240  23.9551790  20.5426490  53.7470350  25.7085840
  20.3629330  52.8496100  25.9888600  20.1406570  54.2942220  26.3832790
  23.5130000  54.3211840  19.0715590  23.6196750  55.2215570  19.3784350
  22.6022360  54.2729810  18.7810240  33.1649110  53.4436650  20.5426490
  33.9858730  52.9533220  20.5851970  33.1983190  54.0334310  21.2958330
  21.1613160  56.2430850  24.3168180  21.8423270  56.5069220  24.9355580
  20.8461210  55.4031720  24.6506190  30.0244920  62.0416080  19.1694090
  29.4062190  62.5065530  18.6056810  30.5368170  62.7343560  19.5863600
  23.3189160  53.6406730  25.6774640  23.6605970  54.4848780  25.3828510
  22.3804970  53.7890470  25.7939980  19.3928120  62.7272610  16.5433720
  19.0156100  63.2159710  15.8118620  19.6501190  63.3997890  17.1740250
  27.0017050  51.1289000  22.0019230  27.3092030  50.5735890  21.2854730
  26.0717750  51.2633460  21.8192220  32.5532110  66.8456290  24.2926690
  32.5659270  66.4418580  23.4248950  32.0007330  67.6203580  24.1888120
  33.8477530  63.5672510  19.3816860  33.7373860  62.6246840  19.5066280
  33.8445780  63.9288150  20.2679620  29.3897810  59.1937830  18.7379350
  28.4627090  59.1275210  18.9667820  29.5422630  60.1317960  18.6234590
  29.3766890  55.4654830  15.7346510  28.4370560  55.6268790  15.8198970
  29.6950150  56.1840510  15.1882500  33.4195100  60.7558130  19.2414600
  32.8007520  60.4177680  18.5940900  33.4019550  60.1117890  19.9493790
  24.9954450  59.7202570  21.5199080  24.5911450  59.0079820  21.0244980
  25.0817570  59.3755810  22.4087120  33.5521760  66.9802000  27.3461390
  33.0752320  67.7874190  27.1534000  32.8683550  66.3280330  27.4987600
  31.5959800  59.9944940  16.2487350  32.0353080  59.1567370  16.1025170
  32.3088220  60.6274340  16.3351490  29.7055180  64.9341010  20.2168590
  30.1451090  65.6765340  19.8023980  29.6442070  65.1767580  21.1407550
  25.1806150  65.9586840  31.1188610  25.1521580  66.3629790  30.2517040
  25.0171120  65.0297200  30.9560210  35.1776940  51.2487750  14.5628390
  34.8649600  51.3414580  15.4627460  35.9389410  51.8268780  14.5125820
  21.6959080  58.6147550  19.0205730  21.5756680  59.3409640  18.4087000
  21.3859970  57.8450460  18.5433640  19.3344450  61.7862690  24.8274370
  19.4124870  61.9211460  23.8830090  19.9486130  61.0778580  25.0202490
  20.5792080  63.4862880  21.2380550  20.1720160  63.6277470  20.3834150
  21.4705090  63.2023040  21.0351760  30.3970960  67.6354790  28.1447600
  30.9115630  67.5462800  28.9470030  29.5540040  67.9814490  28.4375510
  32.3725360  67.9210130  17.5731600  32.2126500  67.6313070  18.4713430
  32.2072070  67.1450260  17.0376830  24.8513740  67.7008660  19.3503220
  24.6756220  66.7844200  19.1371020  23.9969480  68.0595950  19.5901020
  32.0751490  65.4297690  16.1329600  31.3816650  65.4274980  15.4731880
  32.8174350  65.0057010  15.7023770  31.6401420  67.0560400  20.2078090
  32.0958370  66.2749780  20.5216710  31.9793940  67.7667220  20.7519270
  19.3903970  62.8276860  27.3668830  19.5535010  62.3582220  26.5488200
  19.8556420  62.3200420  28.0317670  24.1622740  51.9582620  22.4029400
  23.7190890  52.7392160  22.0713920  24.7207730  52.2812510  23.1100340
  27.2781560  51.5793320  17.2835230  26.6535740  51.5753190  18.0088540
  27.1911680  50.7124280  16.8871200  23.9536960  57.0816190  20.1310650
  23.7277880  56.8653360  21.0357270  23.1729490  57.5144650  19.7856620
  31.1834720  57.0879560  18.7301300  30.5843610  57.8115360  18.5464920
  31.7314330  57.0256340  17.9477750  29.7899590  55.7243100  20.7604580
  30.1829160  56.0415300  19.9473270  30.1516440  54.8454980  20.8749100
  21.5246710  54.3915440  28.9504700  21.1310100  55.2390650  29.1577480
  20.8365110  53.7541810  29.1413340  18.8263760  52.3143900  22.9834780
  18.5376810  52.8846760  23.6959760  19.5709520  51.8348350  23.3466010
  19.0133990  56.2564020  14.1937500  18.9308660  57.1994780  14.3352490
  18.6617050  56.1138930  13.3149850  22.6634500  54.8729540  22.2202060
  22.3234550  55.3504770  22.9769110  21.9011820  54.4194660  21.8603160
  26.8752270  55.9915130  16.2514610  26.9965090  55.9501610  17.2000430
  26.4900780  56.8539280  16.0961340  25.8873770  58.3016270  15.6497910
  25.3190670  57.8534520  15.0233820  26.5962770  58.6609050  15.1163060
  20.9642950  62.2028290  29.5264640  20.5797740  61.5621960  30.1247600
  21.2755140  62.9064410  30.0959370  19.9780580  53.7948520  21.1366730
  19.6927500  53.4304190  21.9745350  19.9159440  53.0628980  20.5229870
  23.4321250  62.2974460  17.9224320  22.6583510  61.7572080  17.7623040
  24.1615880  61.7781070  17.5842080  29.6519170  52.6877780  17.8580100
  28.8383780  52.1890950  17.7825410  29.4581120  53.5276030  17.4416450
  32.3667560  57.0597430  16.1542260  33.2547180  57.3714660  15.9793600
  32.3372650  56.1869680  15.7622840  23.4758650  61.9654840  21.5603130
  23.9937320  61.1623100  21.5060020  23.0242670  61.9033980  22.4019960
  28.3628150  63.2321120  16.8330430  28.7043850  63.9763350  16.3373750
  27.5340860  63.5452240  17.1955260  20.9603190  58.9316210  28.4728830
  20.6018130  59.5970060  29.0602170  20.6657750  58.0999760  28.8441450
  34.6381830  58.3709270  15.6222120  34.5545550  58.8023490  14.7718560
  35.3576020  58.8307620  16.0548940  35.6669080  65.2251530  18.3504250
  35.0245240  64.5707150  18.6247970  35.2799740  65.6306620  17.5744920
  31.2455560  62.5536960  22.1975940  31.5979380  61.9565090  21.5377310
  30.3617890  62.2281190  22.3684190  27.3318840  63.3134650  19.6046350
  28.0189970  63.8603860  19.9853940  26.5451260  63.8575380  19.6395960
  19.4711240  58.9307470  15.0963430  20.3406090  59.2132270  15.3799350
  18.9801560  59.7443340  14.9812240  26.6346050  60.3180680  19.2171710
  27.0908830  61.1285930  19.4431900  26.2834260  60.0003820  20.0490200
  28.9378660  65.8287020  26.4464010  29.5820880  66.0346400  27.1237430
  29.3008100  65.0675420  25.9934860  22.5357830  50.6618330  19.6894230
  22.4072460  50.6536230  20.6379150  21.7119850  51.0001420  19.3385240
  34.0566460  64.1167990  14.8880600  33.8304040  63.3998430  15.4805240
  33.6662660  63.8680430  14.0502350  19.8382490  68.1434850  15.6625060
  20.1980130  68.7424190  15.0082330  19.6974830  68.6894740  16.4360090
  19.5351760  52.4209450  29.1500930  18.8210280  52.6206370  29.7553540
  19.9546800  51.6449020  29.5215730  33.6382710  62.0339930  16.5494760
  33.3504410  62.4952620  17.3372640  34.4334880  61.5737700  16.8178980
  19.8224350  66.4089710  30.1367460  19.9315470  65.4684450  29.9962850
  19.1704910  66.6744460  29.4881190  27.8136940  64.6805600  31.5365580
  27.4933810  63.9614840  32.0811270  27.1395300  65.3560670  31.6101640
  25.8551110  65.5266050  16.4798730  25.8461210  66.2595740  15.8643240
  24.9349470  65.2797630  16.5725690  21.4557750  60.7480940  17.2245490
  20.8485700  61.4879840  17.2340790  21.9307100  60.8380300  16.3983690
  34.3952570  53.8688700  17.7089940  33.7665730  53.9734370  16.9948170
  33.9004490  54.0885480  18.4983820  28.8410710  65.5894290  15.1423920
  28.9422690  65.3858280  14.2125900  27.9412450  65.3352570  15.3471700
  26.3636600  56.1474650  19.1247820  25.6552750  56.6160990  19.5661430
  26.6481080  55.4896660  19.7593010  30.3952030  52.8725310  20.5643610
  30.2719810  52.8911440  19.6153120  31.3436590  52.9204250  20.6842010
  27.4828820  68.1080610  19.8371590  27.7370320  68.0702000  18.9150960
  26.5341300  67.9813940  19.8299840  24.5671620  54.4559730  16.4998530
  25.4162150  54.8929880  16.4338720  24.2002890  54.7679990  17.3270590
  33.4881400  59.0272490  21.4130100  32.5471540  59.0422720  21.5877790
  33.8025470  58.2408450  21.8590400  23.4663040  60.7092090  14.9734060
  24.2326310  60.5973450  15.5359490  23.5437730  60.0130060  14.3210830
  22.1609800  58.1417160  15.6566950  22.2413390  57.1944670  15.7684350
  23.0529550  58.4724040  15.7627610  35.4906980  66.1981340  23.0884360
  35.6154400  67.0212510  23.5608170  36.3572540  65.9872070  22.7408510
  22.9624510  68.2912550  22.7601490  23.6986990  67.7428010  23.0310060
  23.3465430  69.1568560  22.6207480  19.8469990  64.3586120  18.6343000
  18.9209770  64.6007260  18.6248410  20.3126420  65.1860380  18.5127750
  21.9682790  67.4758620  31.9487070  22.7695520  67.7970670  32.3622470
  21.4534610  67.1154200  32.6706980  26.0726820  67.4642860  14.5827060
  26.8655430  67.7531690  14.1308850  25.5531170  67.0335030  13.9039540
  32.2347790  67.3118780  30.5071890  33.1869540  67.2276800  30.4572130
  32.0876010  67.9760490  31.1805680  35.1256990  66.6912990  16.0063800
  34.8398500  66.2778130  15.1917980  34.9276540  67.6200700  15.8864320
  19.6880600  59.9632080  30.8923120  20.1919620  59.3839360  31.4639350
  18.9488020  60.2472310  31.4299490  26.5904220  62.6846270  14.4469410
  26.4854860  62.0698620  15.1730790  26.4228440  62.1612160  13.6632420
  29.8306950  61.7466300  15.0511400  29.2817050  62.1935600  15.6954140
  30.4526210  61.2415550  15.5749070  21.7203680  58.1061670  31.7873190
  21.7609020  57.8075540  32.6958420  22.5749180  58.5069280  31.6280710
  25.4982070  60.7057220  16.9476700  25.9198490  60.5397090  17.7908090
  25.6232910  59.8957450  16.4531840  28.0109710  59.7294830  14.1953800
  28.5315370  59.0143850  13.8294950  28.6578110  60.3680700  14.4954310
  24.3940970  56.7790450  13.8934860  24.1930030  55.9157810  14.2548200
  24.2233020  56.6923810  12.9556460  25.1710200  67.4096720  28.6042530
  24.6331290  68.1342780  28.2851230  25.4244160  66.9327060  27.8139870
  31.8729280  51.5898680  16.4221740  32.1531570  50.7466580  16.7781160
  31.0995010  51.8221790  16.9360490  23.1923770  53.8791070  13.8812740
  23.4949670  53.8858500  12.9731890  23.9318360  53.5288930  14.3780400
  28.0272410  68.6447930  28.8629180  27.9531110  69.5483070  29.1701550
  27.1251250  68.3259830  28.8351250  26.4108700  52.8225690  14.8668940
  26.0630700  52.1449680  14.2871390  26.6121470  52.3615200  15.6812330
  28.5757740  67.8106440  16.4855540  29.4708530  68.1491410  16.5074300
  28.6075370  67.0885850  15.8579820  22.2153900  63.1833490  14.7142540
  22.6528770  63.7263160  15.3700120  22.7001630  62.3580440  14.7238880
  19.4299700  65.9722520  22.1662800  19.7602710  65.1043580  21.9341440
  19.8590700  66.1781040  22.9967760  24.0261620  64.3031530  19.8264770
  23.7257160  64.1796500  20.7268680  23.9199110  63.4440120  19.4180500
  19.9189910  66.8393110  24.9044430  19.4820900  67.0193910  25.7368580
  20.4867590  67.5967730  24.7626150  36.7953540  64.0827930  14.5291450
  35.9646500  64.1504580  14.9998680  36.9725370  64.9732050  14.2258310
  36.2510000  60.8275410  17.0325650  37.0128910  61.3972060  17.1385340
  36.2664370  60.2602610  17.8033960  19.7514340  59.3513340  21.2633310
  19.0963180  59.0824980  20.6193010  20.5892290  59.2417820  20.8135290
  37.2569970  61.6825510  21.8767580  37.6278800  60.8992830  21.4703550
  37.8971900  62.3714610  21.6984880  36.3029170  61.1209780  14.1898170
  36.5778010  62.0288660  14.0617390  36.1139910  61.0572310  15.1260160
  32.7004780  54.1454630  15.4851800  33.1189660  53.9585610  14.6448460
  32.3940840  53.2933680  15.7954730  36.1994510  59.0578770  19.1827600
  35.8238110  58.2906700  18.7508890  35.4697630  59.4401470  19.6702530
  20.7890270  59.7365910  25.8036650  21.1563310  59.6493310  26.6832670
  20.2201090  58.9732460  25.7043510  20.3406270  56.6475000  29.7095070
  19.4462320  56.6141760  30.0488780  20.8803820  56.8461790  30.4746320
  18.9652420  56.5612270  17.2058640  18.0616500  56.8242470  17.0310300
  19.4493040  56.8323440  16.4258600  21.5079630  55.6177810  15.1153020
  22.2171330  55.1961030  14.6300300  20.7919570  55.6853040  14.4836370
  21.1553790  51.6717140  14.1555670  21.8781920  52.2126080  14.4736890
  21.4278310  51.3980560  13.2797210  34.9645440  56.5409610  18.4227250
  35.4604560  56.3080480  19.2076130  34.7661510  55.7021450  18.0064890
  20.8445980  50.9223330  24.0578290  21.4922170  50.3720710  23.6173450
  21.2647820  51.1766480  24.8794100  36.3932600  55.1770560  20.9564930
  36.2831880  55.0226600  21.8947200  37.1540190  54.6491500  20.7140340
  37.2822870  53.0078480  14.1971070  38.2072180  52.8759660  13.9889360
  37.2598660  53.0871300  15.1507520  37.3561360  53.7789140  16.8227780
  36.5612860  53.7134260  17.3520690  37.5604640  54.7139780  16.8113130
  34.2979780  67.8180690  20.8166170  34.8938850  67.4965260  20.1400590
  34.5557930  67.3452510  21.6079440  20.5977980  51.0779000  26.8003610
  20.2492800  51.5342820  27.5661790  20.2665680  50.1836130  26.8826040
  22.2042350  64.2498600  30.9656800  22.1611980  63.8791510  31.8471260
  22.3353360  65.1876170  31.1058620  25.9048380  65.8058190  26.5666520
  25.6639740  66.0732750  25.6797040  26.8451020  65.9763920  26.6217380
  21.2698620  50.6055200  30.0754380  21.8181610  50.4243250  29.3120490
  21.3353930  49.8149310  30.6110690  22.0430380  67.1960850  28.0854580
  21.4490700  67.0645550  28.8244620  22.0354220  66.3598990  27.6196680
  21.6742610  64.5619230  27.0362620  20.9476670  63.9424520  26.9688570
  21.7351760  64.9559840  26.1660700  25.2787710  66.7764230  23.8212030
  25.7952730  66.1651590  23.2960290  25.9285090  67.2793010  24.3123040
  28.0183210  67.6672720  24.6481010  28.3061020  67.4127020  23.7714020
  28.5306430  67.1150080  25.2386580  35.6519860  51.7401260  21.2835430
  35.5908260  50.7962480  21.1366450  36.4311890  51.8481350  21.8288890
  19.9572610  67.8793620  20.2459380  19.7894650  67.2464300  20.9441270
  19.0907120  68.0853020  19.8953570  20.5800630  51.7110400  17.7491240
  21.3379990  51.8239280  17.1755270  20.1177800  52.5479600  17.7034670
  27.1214440  53.8249670  20.7393550  26.3088950  53.4506560  20.3989430
  27.6256080  53.0694750  21.0414740  31.6239420  50.4892120  21.9776620
  32.2268790  51.0612330  22.4525140  30.8832410  51.0531560  21.7550520
  34.7674020  50.8913680  17.2516900  34.9624650  51.7897130  17.5184330
  33.9803890  50.6600760  17.7449850  21.5635310  66.5726850  17.6909520
  21.0382930  66.9534880  16.9871480  21.4879890  67.1977620  18.4119230
  22.9525780  52.2374450  16.2893210  23.4818540  51.4504250  16.1601160
  23.5854100  52.9165640  16.5228740  25.1463620  51.9749590  19.3438600
  24.5166360  51.2736900  19.5108730  24.6068760  52.7353720  19.1271760
  28.0855570  68.5888820  32.0149210  29.0122880  68.3533090  32.0585170
  28.0706000  69.4160820  31.5335240  36.3200630  68.1314390  19.0123460
  36.4952820  67.4452130  18.3684380  35.6222200  68.6561440  18.6200130
  24.1628280  68.5209230  16.5658770  24.8947100  68.2368510  16.0182660
  24.4221950  68.2822510  17.4558150  23.3243070  64.6373960  16.5705100
  22.6951950  65.1059060  17.1190930  23.4390900  63.7923180  17.0051290
  30.7792790  58.6879620   2.7206300  30.6986840  57.7734230   2.4498010
  30.3657210  59.1846690   2.0146010  28.9110830  60.4658640   4.6015570
  28.1352930  59.9859080   4.8914140  29.5623760  59.7864290   4.4271730
  22.9276660  60.7778450   5.4791330  22.0961540  60.5227160   5.8787840
  23.5357640  60.8489220   6.2149250  32.9318260  64.8718830   3.3814700
  32.4699790  64.1006070   3.7101870  33.7443810  64.8984900   3.8867150
  22.9077920  64.8118540   5.6749350  23.2105960  63.9216280   5.4959570
  23.6521510  65.3688760   5.4471600  19.3001620  58.3385990   5.1473420
  19.8717730  57.5708190   5.1477060  19.3003160  58.6374750   4.2380030
  29.1581570  67.1576840   3.0018690  28.5393010  67.6134340   2.4313130
  30.0133350  67.3128300   2.6008390  28.3519820  63.1415830   4.6085730
  28.2828100  62.2005770   4.4474860  29.1139680  63.2317240   5.1808300
  20.5426490  53.7470350   6.9342350  20.3629330  52.8496100   7.2145110
  20.1406570  54.2942220   7.6089300  29.3824990  55.9486210   4.8354660
  29.7589810  55.0758090   4.7228330  29.2844500  56.2844910   3.9445100
  33.1649110  53.4436650   1.7683000  33.9858730  52.9533220   1.8108480
  33.1983190  54.0334310   2.5214840  21.1613160  56.2430850   5.5424690
  21.8423270  56.5069220   6.1612090  20.8461210  55.4031720   5.8762700
  25.3537730  57.2898210   4.6297280  25.8615950  57.7879180   5.2702300
  25.8850970  56.5133410   4.4536640  37.4548660  55.4603400   8.3326630
  36.7500830  55.8485110   7.8141740  37.7206580  56.1553690   8.9347560
  23.6373830  51.9296770   8.8960700  23.6392270  52.4469160   8.0906600
  22.8078140  51.4526950   8.8730630  24.8876680  61.5691950   7.0734200
  24.5546060  62.1960870   7.7155270  25.0643360  62.0953830   6.2935870
  33.4010590  55.3837030   4.5410540  32.6966160  55.6721920   5.1213650
  33.7622750  56.1937140   4.1810100  23.3189160  53.6406730   6.9031150
  23.6605970  54.4848780   6.6085020  22.3804970  53.7890470   7.0196490
  24.0995780  63.5372750   8.8883380  24.7169780  64.2123830   8.6067830
  23.2388900  63.9460730   8.7970880  35.0173370  65.0012160   6.8038020
  34.3336890  65.6711270   6.7954690  35.5567660  65.1992810   6.0382880
  36.4697510  54.8291820   4.9319750  35.5222420  54.8630800   5.0635180
  36.7947500  55.6430770   5.3169110  27.0017050  51.1289000   3.2275740
  27.3092030  50.5735890   2.5111240  26.0717750  51.2633460   3.0448730
  32.5532110  66.8456290   5.5183200  32.5659270  66.4418580   4.6505460
  32.0007330  67.6203580   5.4144630  31.9517550  61.7486130   6.8465810
  32.3686340  61.5346240   6.0119270  32.6757370  62.0058920   7.4174430
  35.8979650  60.1473350   6.9382050  35.0698280  60.2166440   6.4632180
  36.4930130  60.7327660   6.4697880  32.8621660  56.9342670   7.8836920
  32.4492840  57.7596380   8.1376910  32.1297610  56.3487710   7.6913280
  24.9954450  59.7202570   2.7455590  24.5911450  59.0079820   2.2501490
  25.0817570  59.3755810   3.6343630  25.4636150  63.4070130   4.9094800
  25.1664440  62.8015600   4.2302580  26.4135970  63.4447440   4.7984160
  23.7083070  56.4945780   6.5254630  24.2597660  56.6041120   5.7507880
  24.2226580  56.8683380   7.2409860  33.5521760  66.9802000   8.5717900
  33.0752320  67.7874190   8.3790510  32.8683550  66.3280330   8.7244110
  24.5554580  63.1451820  11.5602600  23.6583110  63.3691790  11.8076000
  24.5807450  63.2686760  10.6114000  23.3825800  60.0165140  10.1359970
  23.2433570  60.8887940  10.5047370  22.5007160  59.6737950   9.9907910
  25.1806150  65.9586840  12.3445120  25.1521580  66.3629790  11.4773550
  25.0171120  65.0297200  12.1816720  37.1320970  66.7413940  13.6409290
  37.6080690  67.2196830  14.3198370  37.7528130  66.6731430  12.9154790
  19.3344450  61.7862690   6.0530880  19.4124870  61.9211460   5.1086600
  19.9486130  61.0778580   6.2459000  20.5792080  63.4862880   2.4637060
  20.1720160  63.6277470   1.6090660  21.4705090  63.2023040   2.2608270
  36.5354220  63.9326790  10.8009300  36.6617280  63.6938670   9.8826480
  36.5775600  63.1011330  11.2731380  30.3970960  67.6354790   9.3704110
  30.9115630  67.5462800  10.1726540  29.5540040  67.9814490   9.6632020
  36.3878230  55.9859250  11.7659040  35.7722500  56.4938920  11.2374500
  36.0674650  55.0857580  11.7084980  19.3903970  62.8276860   8.5925340
  19.5535010  62.3582220   7.7744710  19.8556420  62.3200420   9.2574180
  24.1622740  51.9582620   3.6285910  23.7190890  52.7392160   3.2970430
  24.7207730  52.2812510   4.3356850  28.4492550  54.8251140   9.2321230
  27.9871920  55.0334160  10.0441170  28.0470660  54.0110490   8.9291900
  33.4497060  56.0460090  10.3617890  32.5990650  55.7465840  10.6826960
  33.2898850  56.2902100   9.4501710  30.5446770  57.5461840  12.4616680
  30.8700180  56.7125590  12.1218910  31.3327100  58.0690360  12.6095010
  26.1998640  52.5029950   5.4875510  26.4970970  53.4092780   5.4067530
  26.7484200  52.0148730   4.8735080  26.3936170  57.9801770  12.0227430
  26.2979770  57.0396500  11.8727830  27.2368150  58.2016840  11.6275500
  21.5246710  54.3915440  10.1761210  21.1310100  55.2390650  10.3833990
  20.8365110  53.7541810  10.3669850  28.0991760  54.4750410  13.2457950
  27.4090080  54.2822610  13.8804040  28.8424060  54.7585050  13.7782250
  18.8263760  52.3143900   4.2091290  18.5376810  52.8846760   4.9216270
  19.5709520  51.8348350   4.5722520  30.3754730  58.3148850   6.0811870
  29.6435850  58.8235660   6.4301970  29.9779070  57.4978830   5.7800650
  26.8132120  54.9903050   4.4864360  26.8168180  54.5493000   3.6368900
  27.7083240  55.3120380   4.5936180  22.6634500  54.8729540   3.4458570
  22.3234550  55.3504770   4.2025620  21.9011820  54.4194660   3.0859670
  30.8380640  53.7682530   5.4934810  30.8553380  54.2191180   6.3376660
  30.5896220  52.8688170   5.7068250  34.2651390  51.1814710  11.3321190
  34.5897160  50.4504370  11.8579170  34.3007900  50.8628350  10.4302180
  20.9642950  62.2028290  10.7521150  20.5797740  61.5621960  11.3504110
  21.2755140  62.9064410  11.3215880  27.1140090  59.0504830   6.2329770
  27.4810220  58.5763400   6.9791110  26.9245150  59.9246400   6.5738110
  19.9780580  53.7948520   2.3623240  19.6927500  53.4304190   3.2001860
  19.9159440  53.0628980   1.7486380  24.9039460  58.0913470   8.5513980
  24.5996530  58.9705450   8.7764340  25.8585920  58.1513260   8.5871420
  34.1909230  61.2939820   4.9407220  34.9108350  61.7895110   4.5503330
  33.9891050  60.6157710   4.2961090  29.5728030  61.3648880  10.8276220
  29.5065340  60.4444550  10.5733810  28.9433170  61.4624320  11.5420860
  23.4758650  61.9654840   2.7859640  23.9937320  61.1623100   2.7316530
  23.0242670  61.9033980   3.6276470  20.9603190  58.9316210   9.6985340
  20.6018130  59.5970060  10.2858680  20.6657750  58.0999760  10.0697960
  24.1616310  59.3900450  12.5824890  23.8616450  59.5357630  11.6852710
  24.9327550  58.8305740  12.4898280  29.5044760  64.1869450  10.5780020
  29.5189300  63.2550410  10.3598930  28.7969860  64.2729210  11.2169790
  35.7155970  60.8276790   9.9248600  34.9904160  61.4205570   9.7277990
  36.2431430  60.8200330   9.1261970  31.2455560  62.5536960   3.4232450
  31.5979380  61.9565090   2.7633820  30.3617890  62.2281190   3.5940700
  28.9378660  65.8287020   7.6720520  29.5820880  66.0346400   8.3493940
  29.3008100  65.0675420   7.2191370  30.2110740  63.8319370   6.3897970
  30.8532970  63.1312530   6.5030140  30.7360090  64.6117810   6.2094860
  31.9848360  64.6314270   9.5934030  32.3204600  65.2180960  10.2711950
  31.0648700  64.5006980   9.8231820  19.5351760  52.4209450  10.3757440
  18.8210280  52.6206370  10.9810050  19.9546800  51.6449020  10.7472240
  19.8224350  66.4089710  11.3623970  19.9315470  65.4684450  11.2219360
  19.1704910  66.6744460  10.7137700  27.8136940  64.6805600  12.7622090
  27.4933810  63.9614840  13.3067780  27.1395300  65.3560670  12.8358150
  31.0290540  54.9131760   8.1258890  31.3971360  54.0926970   8.4538460
  30.1688740  54.9733650   8.5414540  27.9892530  57.5671350   8.3496860
  28.4877780  58.0417170   9.0148710  28.1315480  56.6434870   8.5566890
  35.1959390  53.7839310   9.1925250  34.6932990  54.5244710   9.5319060
  36.0116050  54.1723310   8.8762040  33.4881400  59.0272490   2.6386610
  32.5471540  59.0422720   2.8134300  33.8025470  58.2408450   3.0846910
  35.4906980  66.1981340   4.3140870  35.6154400  67.0212510   4.7864680
  36.3572540  65.9872070   3.9665020  22.9624510  68.2912550   3.9858000
  23.6986990  67.7428010   4.2566570  23.3465430  69.1568560   3.8463990
  21.9682790  67.4758620  13.1743580  22.7695520  67.7970670  13.5878980
  21.4534610  67.1154200  13.8963490  30.8047420  63.5838490  13.1218990
  30.1985580  63.6070090  12.3814740  30.5001530  62.8521530  13.6586240
  32.2347790  67.3118780  11.7328400  33.1869540  67.2276800  11.6828640
  32.0876010  67.9760490  12.4062190  19.6880600  59.9632080  12.1179630
  20.1919620  59.3839360  12.6895860  18.9488020  60.2472310  12.6556000
  26.7418540  61.3703070  11.6515150  25.9764210  61.9388070  11.5669820
  26.9234500  61.0779280  10.7583380  33.8841890  63.1008400  12.2090170
  34.6251360  63.4384160  11.7057630  33.1214570  63.2700460  11.6559940
  21.7203680  58.1061670  13.0129700  21.7609020  57.8075540  13.9214930
  22.5749180  58.5069280  12.8537220  23.6609490  56.6853770  10.9804190
  23.1305950  56.1944720  10.3527530  24.3297560  57.1137970  10.4462120
  32.5587550  61.1523230  10.7445380  32.9728570  61.3068310  11.5935800
  31.6238550  61.2778450  10.9071160  33.0309720  58.4919390  12.7484530
  33.6130490  57.7371710  12.6605010  33.2071490  59.0226830  11.9716010
  24.1481790  53.6516140  11.0601480  24.0538660  53.0336890  10.3352350
  23.5679180  54.3782430  10.8331390  26.9143230  52.2089380   8.0928870
  26.4660530  52.2313640   7.2474420  26.2808430  51.8108400   8.6899170
  27.3202780  61.1043710   8.7141310  27.7390890  61.9476440   8.5417550
  26.4011410  61.2415750   8.4848090  29.6566680  58.8359890  10.0979150
  29.7762890  58.2401030  10.8373990  30.5160680  58.8729580   9.6780450
  31.9954580  59.3897080   8.6741660  31.4689800  59.9139700   8.0706800
  32.3385920  60.0224470   9.3051390  25.1710200  67.4096720   9.8299040
  24.6331290  68.1342780   9.5107740  25.4244160  66.9327060   9.0396380
  26.4235450  55.3781240  11.3554970  27.0135140  55.0697090  12.0432790
  25.6055690  54.9060990  11.5114870  31.2428880  54.9947050  11.5887990
  30.5544400  54.3328590  11.5237980  31.9634900  54.5485320  12.0336450
  28.0272410  68.6447930  10.0885690  27.9531110  69.5483070  10.3958060
  27.1251250  68.3259830  10.0607760  19.4299700  65.9722520   3.3919310
  19.7602710  65.1043580   3.1597950  19.8590700  66.1781040   4.2224270
  19.9189910  66.8393110   6.1300940  19.4820900  67.0193910   6.9625090
  20.4867590  67.5967730   5.9882660  35.5552090  66.3410110  10.4178250
  34.9554080  66.4002670   9.6742170  35.6845990  65.4015090  10.5475100
  19.7514340  59.3513340   2.4889820  19.0963180  59.0824980   1.8449520
  20.5892290  59.2417820   2.0391800  37.2569970  61.6825510   3.1024090
  37.6278800  60.8992830   2.6960060  37.8971900  62.3714610   2.9241390
  34.2403730  63.0662090   8.5154410  33.4263570  63.4959250   8.7780200
  34.6477930  63.6780500   7.9023460  20.7890270  59.7365910   7.0293160
  21.1563310  59.6493310   7.9089180  20.2201090  58.9732460   6.9300020
  35.5894130  58.2050290  10.0423630  35.3580220  57.9763040   9.1421580
  35.8498680  59.1249840   9.9968520  20.3406270  56.6475000  10.9351580
  19.4462320  56.6141760  11.2745290  20.8803820  56.8461790  11.7002830
  34.0282200  53.4306720  12.8203330  34.9052380  53.4390120  13.2037330
  34.0403040  52.6937560  12.2095680  35.4745470  57.2836260   3.7091350
  35.9982950  56.7898910   3.0781520  36.0604890  57.4186620   4.4538920
  35.6535190  57.3676130   7.2310900  34.7037900  57.3339670   7.3455890
  35.8348200  58.2776240   6.9960670  20.8445980  50.9223330   5.2834800
  21.4922170  50.3720710   4.8429960  21.2647820  51.1766480   6.1050610
  36.3932600  55.1770560   2.1821440  36.2831880  55.0226600   3.1203710
  37.1540190  54.6491500   1.9396850  34.7398320  51.1164690   8.6404440
  35.3770540  51.7298830   9.0063630  34.8873210  51.1525350   7.6953670
  20.5977980  51.0779000   8.0260120  20.2492800  51.5342820   8.7918300
  20.2665680  50.1836130   8.1082550  22.2042350  64.2498600  12.1913310
  22.1611980  63.8791510  13.0727770  22.3353360  65.1876170  12.3315130
  25.9048380  65.8058190   7.7923030  25.6639740  66.0732750   6.9053550
  26.8451020  65.9763920   7.8473890  28.1102800  52.2690880  11.5479540
  28.0491690  52.8612710  12.2974950  29.0503180  52.1616840  11.4029800
  30.7477360  51.9260940  11.1871830  31.3617770  52.2440230  10.5252910
  31.2926920  51.4409530  11.8067690  37.1652540  67.8252570   8.5933670
  36.6710820  68.2221440   7.8760800  36.5565830  67.2001780   8.9870950
  21.2698620  50.6055200  11.3010890  21.8181610  50.4243250  10.5377000
  21.3353930  49.8149310  11.8367200  22.0430380  67.1960850   9.3111090
  21.4490700  67.0645550  10.0501130  22.0354220  66.3598990   8.8453190
  31.4885400  50.4893080   7.5141120  30.6145240  50.8228190   7.3114050
  31.3796150  50.0166260   8.3392990  32.3957380  52.6963950   8.8982840
  32.0670740  51.8815710   8.5184570  33.3439680  52.6533760   8.7748530
  34.8491990  68.4675990   5.8720410  34.3894960  69.2191800   5.4978430
  34.2204450  67.7482460   5.8135210  21.6742610  64.5619230   8.2619130
  20.9476670  63.9424520   8.1945080  21.7351760  64.9559840   7.3917210
  25.2787710  66.7764230   5.0468540  25.7952730  66.1651590   4.5216800
  25.9285090  67.2793010   5.5379550  28.0183210  67.6672720   5.8737520
  28.3061020  67.4127020   4.9970530  28.5306430  67.1150080   6.4643090
  29.2360220  51.4062920   6.4534030  28.4532010  51.8808420   6.7330790
  28.9423150  50.5017750   6.3447210  33.7881290  52.1086020   4.4983120
  34.2289380  52.0531120   3.6504720  33.5188880  53.0244030   4.5693300
  35.6519860  51.7401260   2.5091940  35.5908260  50.7962480   2.3622960
  36.4311890  51.8481350   3.0545400  27.1214440  53.8249670   1.9650060
  26.3088950  53.4506560   1.6245940  27.6256080  53.0694750   2.2671250
  31.6239420  50.4892120   3.2033130  32.2268790  51.0612330   3.6781650
  30.8832410  51.0531560   2.9807030  28.0855570  68.5888820  13.2405720
  29.0122880  68.3533090  13.2841680  28.0706000  69.4160820  12.7591750
  25.2719180  51.2533570  13.0047600  24.9903450  51.7567170  12.2408420
  25.6538880  50.4555320  12.6389730  31.8734640  50.6687150  13.5828070
  31.7600090  50.9881760  14.4779590  32.6904380  51.0699660  13.2865350
  34.6533130  67.8158680  13.0646760  35.4458450  67.3207910  12.8572720
  34.9466280  68.4948820  13.6722370  30.7792790  39.9136130  77.8180260
  30.6986840  38.9990740  77.5471970  30.3657210  40.4103200  77.1119970
  28.9110830  41.6915150  79.6989530  28.1352930  41.2115590  79.9888100
  29.5623760  41.0120800  79.5245690  22.9276660  42.0034960  80.5765290
  22.0961540  41.7483670  80.9761800  23.5357640  42.0745730  81.3123210
  32.9318260  46.0975340  78.4788660  32.4699790  45.3262580  78.8075830
  33.7443810  46.1241410  78.9841110  22.9077920  46.0375050  80.7723310
  23.2105960  45.1472790  80.5933530  23.6521510  46.5945270  80.5445560
  21.3368610  36.9636850  74.3607680  20.4485310  37.3052820  74.2587560
  21.6209800  36.7637170  73.4688510  19.3001620  39.5642500  80.2447380
  19.8717730  38.7964700  80.2451020  19.3003160  39.8631260  79.3353990
  29.1581570  48.3833350  78.0992650  28.5393010  48.8390850  77.5287090
  30.0133350  48.5384810  77.6982350  28.3519820  44.3672340  79.7059690
  28.2828100  43.4262280  79.5448820  29.1139680  44.4573750  80.2782260
  29.3824990  37.1742720  79.9328620  29.7589810  36.3014600  79.8202290
  29.2844500  37.5101420  79.0419060  23.5130000  35.5468350  75.3946060
  23.6196750  36.4472080  75.7014820  22.6022360  35.4986320  75.1040710
  33.1649110  34.6693160  76.8656960  33.9858730  34.1789730  76.9082440
  33.1983190  35.2590820  77.6188800  21.1613160  37.4687360  80.6398650
  21.8423270  37.7325730  81.2586050  20.8461210  36.6288230  80.9736660
  25.3537730  38.5154720  79.7271240  25.8615950  39.0135690  80.3676260
  25.8850970  37.7389920  79.5510600  30.0244920  43.2672590  75.4924560
  29.4062190  43.7322040  74.9287280  30.5368170  43.9600070  75.9094070
  33.4010590  36.6093540  79.6384500  32.6966160  36.8978430  80.2187610
  33.7622750  37.4193650  79.2784060  23.3189160  34.8663240  82.0005110
  23.6605970  35.7105290  81.7058980  22.3804970  35.0146980  82.1170450
  19.3928120  43.9529120  72.8664190  19.0156100  44.4416220  72.1349090
  19.6501190  44.6254400  73.4970720  35.0173370  46.2268670  81.9011980
  34.3336890  46.8967780  81.8928650  35.5567660  46.4249320  81.1356840
  36.4697510  36.0548330  80.0293710  35.5222420  36.0887310  80.1609140
  36.7947500  36.8687280  80.4143070  27.0017050  32.3545510  78.3249700
  27.3092030  31.7992400  77.6085200  26.0717750  32.4889970  78.1422690
  32.5532110  48.0712800  80.6157160  32.5659270  47.6675090  79.7479420
  32.0007330  48.8460090  80.5118590  33.8477530  44.7929020  75.7047330
  33.7373860  43.8503350  75.8296750  33.8445780  45.1544660  76.5910090
  29.3897810  40.4194340  75.0609820  28.4627090  40.3531720  75.2898290
  29.5422630  41.3574470  74.9465060  29.3766890  36.6911340  72.0576980
  28.4370560  36.8525300  72.1429440  29.6950150  37.4097020  71.5112970
  35.8979650  41.3729860  82.0356010  35.0698280  41.4422950  81.5606140
  36.4930130  41.9584170  81.5671840  33.4195100  41.9814640  75.5645070
  32.8007520  41.6434190  74.9171370  33.4019550  41.3374400  76.2724260
  24.9954450  40.9459080  77.8429550  24.5911450  40.2336330  77.3475450
  25.0817570  40.6012320  78.7317590  25.4636150  44.6326640  80.0068760
  25.1664440  44.0272110  79.3276540  26.4135970  44.6703950  79.8958120
  31.5959800  41.2201450  72.5717820  32.0353080  40.3823880  72.4255640
  32.3088220  41.8530850  72.6581960  29.7055180  46.1597520  76.5399060
  30.1451090  46.9021850  76.1254450  29.6442070  46.4024090  77.4638020
  35.1776940  32.4744260  70.8858860  34.8649600  32.5671090  71.7857930
  35.9389410  33.0525290  70.8356290  21.6959080  39.8404060  75.3436200
  21.5756680  40.5666150  74.7317470  21.3859970  39.0706970  74.8664110
  19.3344450  43.0119200  81.1504840  19.4124870  43.1467970  80.2060560
  19.9486130  42.3035090  81.3432960  20.5792080  44.7119390  77.5611020
  20.1720160  44.8533980  76.7064620  21.4705090  44.4279550  77.3582230
  32.3725360  49.1466640  73.8962070  32.2126500  48.8569580  74.7943900
  32.2072070  48.3706770  73.3607300  24.8513740  48.9265170  75.6733690
  24.6756220  48.0100710  75.4601490  23.9969480  49.2852460  75.9131490
  32.0751490  46.6554200  72.4560070  31.3816650  46.6531490  71.7962350
  32.8174350  46.2313520  72.0254240  31.6401420  48.2816910  76.5308560
  32.0958370  47.5006290  76.8447180  31.9793940  48.9923730  77.0749740
  24.1622740  33.1839130  78.7259870  23.7190890  33.9648670  78.3944390
  24.7207730  33.5069020  79.4330810  27.2781560  32.8049830  73.6065700
  26.6535740  32.8009700  74.3319010  27.1911680  31.9380790  73.2101670
  26.1998640  33.7286460  80.5849470  26.4970970  34.6349290  80.5041490
  26.7484200  33.2405240  79.9709040  23.9536960  38.3072700  76.4541120
  23.7277880  38.0909870  77.3587740  23.1729490  38.7401160  76.1087090
  31.1834720  38.3136070  75.0531770  30.5843610  39.0371870  74.8695390
  31.7314330  38.2512850  74.2708220  29.7899590  36.9499610  77.0835050
  30.1829160  37.2671810  76.2703740  30.1516440  36.0711490  77.1979570
  18.8263760  33.5400410  79.3065250  18.5376810  34.1103270  80.0190230
  19.5709520  33.0604860  79.6696480  19.0133990  37.4820530  70.5167970
  18.9308660  38.4251290  70.6582960  18.6617050  37.3395440  69.6380320
  30.3754730  39.5405360  81.1785830  29.6435850  40.0492170  81.5275930
  29.9779070  38.7235340  80.8774610  26.8132120  36.2159560  79.5838320
  26.8168180  35.7749510  78.7342860  27.7083240  36.5376890  79.6910140
  22.6634500  36.0986050  78.5432530  22.3234550  36.5761280  79.2999580
  21.9011820  35.6451170  78.1833630  26.8752270  37.2171640  72.5745080
  26.9965090  37.1758120  73.5230900  26.4900780  38.0795790  72.4191810
  30.8380640  34.9939040  80.5908770  30.8553380  35.4447690  81.4350620
  30.5896220  34.0944680  80.8042210  25.8873770  39.5272780  71.9728380
  25.3190670  39.0791030  71.3464290  26.5962770  39.8865560  71.4393530
  27.1140090  40.2761340  81.3303730  27.4810220  39.8019910  82.0765070
  26.9245150  41.1502910  81.6712070  19.9780580  35.0205030  77.4597200
  19.6927500  34.6560700  78.2975820  19.9159440  34.2885490  76.8460340
  23.4321250  43.5230970  74.2454790  22.6583510  42.9828590  74.0853510
  24.1615880  43.0037580  73.9072550  34.1909230  42.5196330  80.0381180
  34.9108350  43.0151620  79.6477290  33.9891050  41.8414220  79.3935050
  29.6519170  33.9134290  74.1810570  28.8383780  33.4147460  74.1055880
  29.4581120  34.7532540  73.7646920  32.3667560  38.2853940  72.4772730
  33.2547180  38.5971170  72.3024070  32.3372650  37.4126190  72.0853310
  23.4758650  43.1911350  77.8833600  23.9937320  42.3879610  77.8290490
  23.0242670  43.1290490  78.7250430  28.3628150  44.4577630  73.1560900
  28.7043850  45.2019860  72.6604220  27.5340860  44.7708750  73.5185730
  34.6381830  39.5965780  71.9452590  34.5545550  40.0280000  71.0949030
  35.3576020  40.0564130  72.3779410  35.6669080  46.4508040  74.6734720
  35.0245240  45.7963660  74.9478440  35.2799740  46.8563130  73.8975390
  31.2455560  43.7793470  78.5206410  31.5979380  43.1821600  77.8607780
  30.3617890  43.4537700  78.6914660  27.3318840  44.5391160  75.9276820
  28.0189970  45.0860370  76.3084410  26.5451260  45.0831890  75.9626430
  19.4711240  40.1563980  71.4193900  20.3406090  40.4388780  71.7029820
  18.9801560  40.9699850  71.3042710  26.6346050  41.5437190  75.5402180
  27.0908830  42.3542440  75.7662370  26.2834260  41.2260330  76.3720670
  22.5357830  31.8874840  76.0124700  22.4072460  31.8792740  76.9609620
  21.7119850  32.2257930  75.6615710  30.2110740  45.0575880  81.4871930
  30.8532970  44.3569040  81.6004100  30.7360090  45.8374320  81.3068820
  34.0566460  45.3424500  71.2111070  33.8304040  44.6254940  71.8035710
  33.6662660  45.0936940  70.3732820  19.8382490  49.3691360  71.9855530
  20.1980130  49.9680700  71.3312800  19.6974830  49.9151250  72.7590560
  33.6382710  43.2596440  72.8725230  33.3504410  43.7209130  73.6603110
  34.4334880  42.7994210  73.1409450  25.8551110  46.7522560  72.8029200
  25.8461210  47.4852250  72.1873710  24.9349470  46.5054140  72.8956160
  21.4557750  41.9737450  73.5475960  20.8485700  42.7136350  73.5571260
  21.9307100  42.0636810  72.7214160  34.3952570  35.0945210  74.0320410
  33.7665730  35.1990880  73.3178640  33.9004490  35.3141990  74.8214290
  28.8410710  46.8150800  71.4654390  28.9422690  46.6114790  70.5356370
  27.9412450  46.5609080  71.6702170  26.3636600  37.3731160  75.4478290
  25.6552750  37.8417500  75.8891900  26.6481080  36.7153170  76.0823480
  30.3952030  34.0981820  76.8874080  30.2719810  34.1167950  75.9383590
  31.3436590  34.1460760  77.0072480  27.4828820  49.3337120  76.1602060
  27.7370320  49.2958510  75.2381430  26.5341300  49.2070450  76.1530310
  24.5671620  35.6816240  72.8229000  25.4162150  36.1186390  72.7569190
  24.2002890  35.9936500  73.6501060  33.4881400  40.2529000  77.7360570
  32.5471540  40.2679230  77.9108260  33.8025470  39.4664960  78.1820870
  23.4663040  41.9348600  71.2964530  24.2326310  41.8229960  71.8589960
  23.5437730  41.2386570  70.6441300  22.1609800  39.3673670  71.9797420
  22.2413390  38.4201180  72.0914820  23.0529550  39.6980550  72.0858080
  35.4906980  47.4237850  79.4114830  35.6154400  48.2469020  79.8838640
  36.3572540  47.2128580  79.0638980  22.9624510  49.5169060  79.0831960
  23.6986990  48.9684520  79.3540530  23.3465430  50.3825070  78.9437950
  19.8469990  45.5842630  74.9573470  18.9209770  45.8263770  74.9478880
  20.3126420  46.4116890  74.8358220  26.0726820  48.6899370  70.9057530
  26.8655430  48.9788200  70.4539320  25.5531170  48.2591540  70.2270010
  35.1256990  47.9169500  72.3294270  34.8398500  47.5034640  71.5148450
  34.9276540  48.8457210  72.2094790  26.5904220  43.9102780  70.7699880
  26.4854860  43.2955130  71.4961260  26.4228440  43.3868670  69.9862890
  29.8306950  42.9722810  71.3741870  29.2817050  43.4192110  72.0184610
  30.4526210  42.4672060  71.8979540  25.4982070  41.9313730  73.2707170
  25.9198490  41.7653600  74.1138560  25.6232910  41.1213960  72.7762310
  28.0109710  40.9551340  70.5184270  28.5315370  40.2400360  70.1525420
  28.6578110  41.5937210  70.8184780  24.3940970  38.0046960  70.2165330
  24.1930030  37.1414320  70.5778670  24.2233020  37.9180320  69.2786930
  31.8729280  32.8155190  72.7452210  32.1531570  31.9723090  73.1011630
  31.0995010  33.0478300  73.2590960  23.1923770  35.1047580  70.2043210
  23.4949670  35.1115010  69.2962360  23.9318360  34.7545440  70.7010870
  26.4108700  34.0482200  71.1899410  26.0630700  33.3706190  70.6101860
  26.6121470  33.5871710  72.0042800  28.5757740  49.0362950  72.8086010
  29.4708530  49.3747920  72.8304770  28.6075370  48.3142360  72.1810290
  22.2153900  44.4090000  71.0373010  22.6528770  44.9519670  71.6930590
  22.7001630  43.5836950  71.0469350  19.4299700  47.1979030  78.4893270
  19.7602710  46.3300090  78.2571910  19.8590700  47.4037550  79.3198230
  24.0261620  45.5288040  76.1495240  23.7257160  45.4053010  77.0499150
  23.9199110  44.6696630  75.7410970  19.9189910  48.0649620  81.2274900
  19.4820900  48.2450420  82.0599050  20.4867590  48.8224240  81.0856620
  36.7953540  45.3084440  70.8521920  35.9646500  45.3761090  71.3229150
  36.9725370  46.1988560  70.5488780  36.2510000  42.0531920  73.3556120
  37.0128910  42.6228570  73.4615810  36.2664370  41.4859120  74.1264430
  19.7514340  40.5769850  77.5863780  19.0963180  40.3081490  76.9423480
  20.5892290  40.4674330  77.1365760  37.2569970  42.9082020  78.1998050
  37.6278800  42.1249340  77.7934020  37.8971900  43.5971120  78.0215350
  36.3029170  42.3466290  70.5128640  36.5778010  43.2545170  70.3847860
  36.1139910  42.2828820  71.4490630  32.7004780  35.3711140  71.8082270
  33.1189660  35.1842120  70.9678930  32.3940840  34.5190190  72.1185200
  36.1994510  40.2835280  75.5058070  35.8238110  39.5163210  75.0739360
  35.4697630  40.6657980  75.9933000  18.9652420  37.7868780  73.5289110
  18.0616500  38.0498980  73.3540770  19.4493040  38.0579950  72.7489070
  35.4745470  38.5092770  78.8065310  35.9982950  38.0155420  78.1755480
  36.0604890  38.6443130  79.5512880  21.5079630  36.8434320  71.4383490
  22.2171330  36.4217540  70.9530770  20.7919570  36.9109550  70.8066840
  21.1553790  32.8973650  70.4786140  21.8781920  33.4382590  70.7967360
  21.4278310  32.6237070  69.6027680  34.9645440  37.7666120  74.7457720
  35.4604560  37.5336990  75.5306600  34.7661510  36.9277960  74.3295360
  20.8445980  32.1479840  80.3808760  21.4922170  31.5977220  79.9403920
  21.2647820  32.4022990  81.2024570  36.3932600  36.4027070  77.2795400
  36.2831880  36.2483110  78.2177670  37.1540190  35.8748010  77.0370810
  37.2822870  34.2334990  70.5201540  38.2072180  34.1016170  70.3119830
  37.2598660  34.3127810  71.4737990  37.3561360  35.0045650  73.1458250
  36.5612860  34.9390770  73.6751160  37.5604640  35.9396290  73.1343600
  34.2979780  49.0437200  77.1396640  34.8938850  48.7221770  76.4631060
  34.5557930  48.5709020  77.9309910  34.8491990  49.6932500  80.9694370
  34.3894960  50.4448310  80.5952390  34.2204450  48.9738970  80.9109170
  25.2787710  48.0020740  80.1442500  25.7952730  47.3908100  79.6190760
  25.9285090  48.5049520  80.6353510  28.0183210  48.8929230  80.9711480
  28.3061020  48.6383530  80.0944490  28.5306430  48.3406590  81.5617050
  29.2360220  32.6319430  81.5507990  28.4532010  33.1064930  81.8304750
  28.9423150  31.7274260  81.4421170  33.7881290  33.3342530  79.5957080
  34.2289380  33.2787630  78.7478680  33.5188880  34.2500540  79.6667260
  35.6519860  32.9657770  77.6065900  35.5908260  32.0218990  77.4596920
  36.4311890  33.0737860  78.1519360  19.9572610  49.1050130  76.5689850
  19.7894650  48.4720810  77.2671740  19.0907120  49.3109530  76.2184040
  20.5800630  32.9366910  74.0721710  21.3379990  33.0495790  73.4985740
  20.1177800  33.7736110  74.0265140  27.1214440  35.0506180  77.0624020
  26.3088950  34.6763070  76.7219900  27.6256080  34.2951260  77.3645210
  31.6239420  31.7148630  78.3007090  32.2268790  32.2868840  78.7755610
  30.8832410  32.2788070  78.0780990  34.7674020  32.1170190  73.5747370
  34.9624650  33.0153640  73.8414800  33.9803890  31.8857270  74.0680320
  21.5635310  47.7983360  74.0139990  21.0382930  48.1791390  73.3101950
  21.4879890  48.4234130  74.7349700  22.9525780  33.4630960  72.6123680
  23.4818540  32.6760760  72.4831630  23.5854100  34.1422150  72.8459210
  25.1463620  33.2006100  75.6669070  24.5166360  32.4993410  75.8339200
  24.6068760  33.9610230  75.4502230  36.3200630  49.3570900  75.3353930
  36.4952820  48.6708640  74.6914850  35.6222200  49.8817950  74.9430600
  24.1628280  49.7465740  72.8889240  24.8947100  49.4625020  72.3413130
  24.4221950  49.5079020  73.7788620  23.3243070  45.8630470  72.8935570
  22.6951950  46.3315570  73.4421400  23.4390900  45.0179690  73.3281760
  22.9276660  42.0034960  61.8021800  22.0961540  41.7483670  62.2018310
  23.5357640  42.0745730  62.5379720  32.9318260  46.0975340  59.7045170
  32.4699790  45.3262580  60.0332340  33.7443810  46.1241410  60.2097620
  22.9077920  46.0375050  61.9979820  23.2105960  45.1472790  61.8190040
  23.6521510  46.5945270  61.7702070  21.3368610  36.9636850  55.5864190
  20.4485310  37.3052820  55.4844070  21.6209800  36.7637170  54.6945020
  19.3001620  39.5642500  61.4703890  19.8717730  38.7964700  61.4707530
  19.3003160  39.8631260  60.5610500  28.3519820  44.3672340  60.9316200
  28.2828100  43.4262280  60.7705330  29.1139680  44.4573750  61.5038770
  20.5426490  34.9726860  63.2572820  20.3629330  34.0752610  63.5375580
  20.1406570  35.5198730  63.9319770  23.5130000  35.5468350  56.6202570
  23.6196750  36.4472080  56.9271330  22.6022360  35.4986320  56.3297220
  21.1613160  37.4687360  61.8655160  21.8423270  37.7325730  62.4842560
  20.8461210  36.6288230  62.1993170  25.3537730  38.5154720  60.9527750
  25.8615950  39.0135690  61.5932770  25.8850970  37.7389920  60.7767110
  37.4548660  36.6859910  64.6557100  36.7500830  37.0741620  64.1372210
  37.7206580  37.3810200  65.2578030  23.6373830  33.1553280  65.2191170
  23.6392270  33.6725670  64.4137070  22.8078140  32.6783460  65.1961100
  24.8876680  42.7948460  63.3964670  24.5546060  43.4217380  64.0385740
  25.0643360  43.3210340  62.6166340  33.4010590  36.6093540  60.8641010
  32.6966160  36.8978430  61.4444120  33.7622750  37.4193650  60.5040570
  23.3189160  34.8663240  63.2261620  23.6605970  35.7105290  62.9315490
  22.3804970  35.0146980  63.3426960  24.0995780  44.7629260  65.2113850
  24.7169780  45.4380340  64.9298300  23.2388900  45.1717240  65.1201350
  19.3928120  43.9529120  54.0920700  19.0156100  44.4416220  53.3605600
  19.6501190  44.6254400  54.7227230  35.0173370  46.2268670  63.1268490
  34.3336890  46.8967780  63.1185160  35.5567660  46.4249320  62.3613350
  36.4697510  36.0548330  61.2550220  35.5222420  36.0887310  61.3865650
  36.7947500  36.8687280  61.6399580  27.0017050  32.3545510  59.5506210
  27.3092030  31.7992400  58.8341710  26.0717750  32.4889970  59.3679200
  32.5532110  48.0712800  61.8413670  32.5659270  47.6675090  60.9735930
  32.0007330  48.8460090  61.7375100  31.9517550  42.9742640  63.1696280
  32.3686340  42.7602750  62.3349740  32.6757370  43.2315430  63.7404900
  35.8979650  41.3729860  63.2612520  35.0698280  41.4422950  62.7862650
  36.4930130  41.9584170  62.7928350  32.8621660  38.1599180  64.2067390
  32.4492840  38.9852890  64.4607380  32.1297610  37.5744220  64.0143750
  25.4636150  44.6326640  61.2325270  25.1664440  44.0272110  60.5533050
  26.4135970  44.6703950  61.1214630  23.7083070  37.7202290  62.8485100
  24.2597660  37.8297630  62.0738350  24.2226580  38.0939890  63.5640330
  33.5521760  48.2058510  64.8948370  33.0752320  49.0130700  64.7020980
  32.8683550  47.5536840  65.0474580  24.5554580  44.3708330  67.8833070
  23.6583110  44.5948300  68.1306470  24.5807450  44.4943270  66.9344470
  23.3825800  41.2421650  66.4590440  23.2433570  42.1144450  66.8277840
  22.5007160  40.8994460  66.3138380  25.1806150  47.1843350  68.6675590
  25.1521580  47.5886300  67.8004020  25.0171120  46.2553710  68.5047190
  21.6959080  39.8404060  56.5692710  21.5756680  40.5666150  55.9573980
  21.3859970  39.0706970  56.0920620  37.1320970  47.9670450  69.9639760
  37.6080690  48.4453340  70.6428840  37.7528130  47.8987940  69.2385260
  19.3344450  43.0119200  62.3761350  19.4124870  43.1467970  61.4317070
  19.9486130  42.3035090  62.5689470  20.5792080  44.7119390  58.7867530
  20.1720160  44.8533980  57.9321130  21.4705090  44.4279550  58.5838740
  36.5354220  45.1583300  67.1239770  36.6617280  44.9195180  66.2056950
  36.5775600  44.3267840  67.5961850  30.3970960  48.8611300  65.6934580
  30.9115630  48.7719310  66.4957010  29.5540040  49.2071000  65.9862490
  24.8513740  48.9265170  56.8990200  24.6756220  48.0100710  56.6858000
  23.9969480  49.2852460  57.1388000  36.3878230  37.2115760  68.0889510
  35.7722500  37.7195430  67.5604970  36.0674650  36.3114090  68.0315450
  19.3903970  44.0533370  64.9155810  19.5535010  43.5838730  64.0975180
  19.8556420  43.5456930  65.5804650  24.1622740  33.1839130  59.9516380
  23.7190890  33.9648670  59.6200900  24.7207730  33.5069020  60.6587320
  28.4492550  36.0507650  65.5551700  27.9871920  36.2590670  66.3671640
  28.0470660  35.2367000  65.2522370  33.4497060  37.2716600  66.6848360
  32.5990650  36.9722350  67.0057430  33.2898850  37.5158610  65.7732180
  30.5446770  38.7718350  68.7847150  30.8700180  37.9382100  68.4449380
  31.3327100  39.2946870  68.9325480  26.1998640  33.7286460  61.8105980
  26.4970970  34.6349290  61.7298000  26.7484200  33.2405240  61.1965550
  23.9536960  38.3072700  57.6797630  23.7277880  38.0909870  58.5844250
  23.1729490  38.7401160  57.3343600  26.3936170  39.2058280  68.3457900
  26.2979770  38.2653010  68.1958300  27.2368150  39.4273350  67.9505970
  21.5246710  35.6171950  66.4991680  21.1310100  36.4647160  66.7064460
  20.8365110  34.9798320  66.6900320  28.0991760  35.7006920  69.5688420
  27.4090080  35.5079120  70.2034510  28.8424060  35.9841560  70.1012720
  18.8263760  33.5400410  60.5321760  18.5376810  34.1103270  61.2446740
  19.5709520  33.0604860  60.8952990  19.0133990  37.4820530  51.7424480
  18.9308660  38.4251290  51.8839470  18.6617050  37.3395440  50.8636830
  30.3754730  39.5405360  62.4042340  29.6435850  40.0492170  62.7532440
  29.9779070  38.7235340  62.1031120  26.8132120  36.2159560  60.8094830
  26.8168180  35.7749510  59.9599370  27.7083240  36.5376890  60.9166650
  22.6634500  36.0986050  59.7689040  22.3234550  36.5761280  60.5256090
  21.9011820  35.6451170  59.4090140  30.8380640  34.9939040  61.8165280
  30.8553380  35.4447690  62.6607130  30.5896220  34.0944680  62.0298720
  34.2651390  32.4071220  67.6551660  34.5897160  31.6760880  68.1809640
  34.3007900  32.0884860  66.7532650  20.9642950  43.4284800  67.0751620
  20.5797740  42.7878470  67.6734580  21.2755140  44.1320920  67.6446350
  27.1140090  40.2761340  62.5560240  27.4810220  39.8019910  63.3021580
  26.9245150  41.1502910  62.8968580  19.9780580  35.0205030  58.6853710
  19.6927500  34.6560700  59.5232330  19.9159440  34.2885490  58.0716850
  24.9039460  39.3169980  64.8744450  24.5996530  40.1961960  65.0994810
  25.8585920  39.3769770  64.9101890  23.4321250  43.5230970  55.4711300
  22.6583510  42.9828590  55.3110020  24.1615880  43.0037580  55.1329060
  34.1909230  42.5196330  61.2637690  34.9108350  43.0151620  60.8733800
  33.9891050  41.8414220  60.6191560  29.5728030  42.5905390  67.1506690
  29.5065340  41.6701060  66.8964280  28.9433170  42.6880830  67.8651330
  23.4758650  43.1911350  59.1090110  23.9937320  42.3879610  59.0547000
  23.0242670  43.1290490  59.9506940  20.9603190  40.1572720  66.0215810
  20.6018130  40.8226570  66.6089150  20.6657750  39.3256270  66.3928430
  24.1616310  40.6156960  68.9055360  23.8616450  40.7614140  68.0083180
  24.9327550  40.0562250  68.8128750  29.5044760  45.4125960  66.9010490
  29.5189300  44.4806920  66.6829400  28.7969860  45.4985720  67.5400260
  35.7155970  42.0533300  66.2479070  34.9904160  42.6462080  66.0508460
  36.2431430  42.0456840  65.4492440  31.2455560  43.7793470  59.7462920
  31.5979380  43.1821600  59.0864290  30.3617890  43.4537700  59.9171170
  19.4711240  40.1563980  52.6450410  20.3406090  40.4388780  52.9286330
  18.9801560  40.9699850  52.5299220  28.9378660  47.0543530  63.9950990
  29.5820880  47.2602910  64.6724410  29.3008100  46.2931930  63.5421840
  22.5357830  31.8874840  57.2381210  22.4072460  31.8792740  58.1866130
  21.7119850  32.2257930  56.8872220  30.2110740  45.0575880  62.7128440
  30.8532970  44.3569040  62.8260610  30.7360090  45.8374320  62.5325330
  31.9848360  45.8570780  65.9164500  32.3204600  46.4437470  66.5942420
  31.0648700  45.7263490  66.1462290  19.8382490  49.3691360  53.2112040
  20.1980130  49.9680700  52.5569310  19.6974830  49.9151250  53.9847070
  19.5351760  33.6465960  66.6987910  18.8210280  33.8462880  67.3040520
  19.9546800  32.8705530  67.0702710  19.8224350  47.6346220  67.6854440
  19.9315470  46.6940960  67.5449830  19.1704910  47.9000970  67.0368170
  27.8136940  45.9062110  69.0852560  27.4933810  45.1871350  69.6298250
  27.1395300  46.5817180  69.1588620  21.4557750  41.9737450  54.7732470
  20.8485700  42.7136350  54.7827770  21.9307100  42.0636810  53.9470670
  31.0290540  36.1388270  64.4489360  31.3971360  35.3183480  64.7768930
  30.1688740  36.1990160  64.8645010  27.9892530  38.7927860  64.6727330
  28.4877780  39.2673680  65.3379180  28.1315480  37.8691380  64.8797360
  35.1959390  35.0095820  65.5155720  34.6932990  35.7501220  65.8549530
  36.0116050  35.3979820  65.1992510  33.4881400  40.2529000  58.9617080
  32.5471540  40.2679230  59.1364770  33.8025470  39.4664960  59.4077380
  22.1609800  39.3673670  53.2053930  22.2413390  38.4201180  53.3171330
  23.0529550  39.6980550  53.3114590  35.4906980  47.4237850  60.6371340
  35.6154400  48.2469020  61.1095150  36.3572540  47.2128580  60.2895490
  22.9624510  49.5169060  60.3088470  23.6986990  48.9684520  60.5797040
  23.3465430  50.3825070  60.1694460  19.8469990  45.5842630  56.1829980
  18.9209770  45.8263770  56.1735390  20.3126420  46.4116890  56.0614730
  21.9682790  48.7015130  69.4974050  22.7695520  49.0227180  69.9109450
  21.4534610  48.3410710  70.2193960  30.8047420  44.8095000  69.4449460
  30.1985580  44.8326600  68.7045210  30.5001530  44.0778040  69.9816710
  32.2347790  48.5375290  68.0558870  33.1869540  48.4533310  68.0059110
  32.0876010  49.2017000  68.7292660  19.6880600  41.1888590  68.4410100
  20.1919620  40.6095870  69.0126330  18.9488020  41.4728820  68.9786470
  26.7418540  42.5959580  67.9745620  25.9764210  43.1644580  67.8900290
  26.9234500  42.3035790  67.0813850  33.8841890  44.3264910  68.5320640
  34.6251360  44.6640670  68.0288100  33.1214570  44.4956970  67.9790410
  21.7203680  39.3318180  69.3360170  21.7609020  39.0332050  70.2445400
  22.5749180  39.7325790  69.1767690  23.6609490  37.9110280  67.3034660
  23.1305950  37.4201230  66.6758000  24.3297560  38.3394480  66.7692590
  32.5587550  42.3779740  67.0675850  32.9728570  42.5324820  67.9166270
  31.6238550  42.5034960  67.2301630  33.0309720  39.7175900  69.0715000
  33.6130490  38.9628220  68.9835480  33.2071490  40.2483340  68.2946480
  24.1481790  34.8772650  67.3831950  24.0538660  34.2593400  66.6582820
  23.5679180  35.6038940  67.1561860  26.9143230  33.4345890  64.4159340
  26.4660530  33.4570150  63.5704890  26.2808430  33.0364910  65.0129640
  27.3202780  42.3300220  65.0371780  27.7390890  43.1732950  64.8648020
  26.4011410  42.4672260  64.8078560  29.6566680  40.0616400  66.4209620
  29.7762890  39.4657540  67.1604460  30.5160680  40.0986090  66.0010920
  31.9954580  40.6153590  64.9972130  31.4689800  41.1396210  64.3937270
  32.3385920  41.2480980  65.6281860  25.1710200  48.6353230  66.1529510
  24.6331290  49.3599290  65.8338210  25.4244160  48.1583570  65.3626850
  26.4235450  36.6037750  67.6785440  27.0135140  36.2953600  68.3663260
  25.6055690  36.1317500  67.8345340  31.2428880  36.2203560  67.9118460
  30.5544400  35.5585100  67.8468450  31.9634900  35.7741830  68.3566920
  28.0272410  49.8704440  66.4116160  27.9531110  50.7739580  66.7188530
  27.1251250  49.5516340  66.3838230  22.2153900  44.4090000  52.2629520
  22.6528770  44.9519670  52.9187100  22.7001630  43.5836950  52.2725860
  19.4299700  47.1979030  59.7149780  19.7602710  46.3300090  59.4828420
  19.8590700  47.4037550  60.5454740  19.9189910  48.0649620  62.4531410
  19.4820900  48.2450420  63.2855560  20.4867590  48.8224240  62.3113130
  35.5552090  47.5666620  66.7408720  34.9554080  47.6259180  65.9972640
  35.6845990  46.6271600  66.8705570  19.7514340  40.5769850  58.8120290
  19.0963180  40.3081490  58.1679990  20.5892290  40.4674330  58.3622270
  37.2569970  42.9082020  59.4254560  37.6278800  42.1249340  59.0190530
  37.8971900  43.5971120  59.2471860  34.2403730  44.2918600  64.8384880
  33.4263570  44.7215760  65.1010670  34.6477930  44.9037010  64.2253930
  20.7890270  40.9622420  63.3523630  21.1563310  40.8749820  64.2319650
  20.2201090  40.1988970  63.2530490  35.5894130  39.4306800  66.3654100
  35.3580220  39.2019550  65.4652050  35.8498680  40.3506350  66.3198990
  20.3406270  37.8731510  67.2582050  19.4462320  37.8398270  67.5975760
  20.8803820  38.0718300  68.0233300  34.0282200  34.6563230  69.1433800
  34.9052380  34.6646630  69.5267800  34.0403040  33.9194070  68.5326150
  18.9652420  37.7868780  54.7545620  18.0616500  38.0498980  54.5797280
  19.4493040  38.0579950  53.9745580  35.4745470  38.5092770  60.0321820
  35.9982950  38.0155420  59.4011990  36.0604890  38.6443130  60.7769390
  35.6535190  38.5932640  63.5541370  34.7037900  38.5596180  63.6686360
  35.8348200  39.5032750  63.3191140  21.5079630  36.8434320  52.6640000
  22.2171330  36.4217540  52.1787280  20.7919570  36.9109550  52.0323350
  21.1553790  32.8973650  51.7042650  21.8781920  33.4382590  52.0223870
  21.4278310  32.6237070  50.8284190  20.8445980  32.1479840  61.6065270
  21.4922170  31.5977220  61.1660430  21.2647820  32.4022990  62.4281080
  34.7398320  32.3421200  64.9634910  35.3770540  32.9555340  65.3294100
  34.8873210  32.3781860  64.0184140  20.5977980  32.3035510  64.3490590
  20.2492800  32.7599330  65.1148770  20.2665680  31.4092640  64.4313020
  22.2042350  45.4755110  68.5143780  22.1611980  45.1048020  69.3958240
  22.3353360  46.4132680  68.6545600  25.9048380  47.0314700  64.1153500
  25.6639740  47.2989260  63.2284020  26.8451020  47.2020430  64.1704360
  28.1102800  33.4947390  67.8710010  28.0491690  34.0869220  68.6205420
  29.0503180  33.3873350  67.7260270  30.7477360  33.1517450  67.5102300
  31.3617770  33.4696740  66.8483380  31.2926920  32.6666040  68.1298160
  37.1652540  49.0509080  64.9164140  36.6710820  49.4477950  64.1991270
  36.5565830  48.4258290  65.3101420  21.2698620  31.8311710  67.6241360
  21.8181610  31.6499760  66.8607470  21.3353930  31.0405820  68.1597670
  22.0430380  48.4217360  65.6341560  21.4490700  48.2902060  66.3731600
  22.0354220  47.5855500  65.1683660  31.4885400  31.7149590  63.8371590
  30.6145240  32.0484700  63.6344520  31.3796150  31.2422770  64.6623460
  32.3957380  33.9220460  65.2213310  32.0670740  33.1072220  64.8415040
  33.3439680  33.8790270  65.0979000  34.8491990  49.6932500  62.1950880
  34.3894960  50.4448310  61.8208900  34.2204450  48.9738970  62.1365680
  21.6742610  45.7875740  64.5849600  20.9476670  45.1681030  64.5175550
  21.7351760  46.1816350  63.7147680  25.2787710  48.0020740  61.3699010
  25.7952730  47.3908100  60.8447270  25.9285090  48.5049520  61.8610020
  28.0183210  48.8929230  62.1967990  28.3061020  48.6383530  61.3201000
  28.5306430  48.3406590  62.7873560  29.2360220  32.6319430  62.7764500
  28.4532010  33.1064930  63.0561260  28.9423150  31.7274260  62.6677680
  33.7881290  33.3342530  60.8213590  34.2289380  33.2787630  59.9735190
  33.5188880  34.2500540  60.8923770  19.9572610  49.1050130  57.7946360
  19.7894650  48.4720810  58.4928250  19.0907120  49.3109530  57.4440550
  20.5800630  32.9366910  55.2978220  21.3379990  33.0495790  54.7242250
  20.1177800  33.7736110  55.2521650  21.5635310  47.7983360  55.2396500
  21.0382930  48.1791390  54.5358460  21.4879890  48.4234130  55.9606210
  22.9525780  33.4630960  53.8380190  23.4818540  32.6760760  53.7088140
  23.5854100  34.1422150  54.0715720  28.0855570  49.8145330  69.5636190
  29.0122880  49.5789600  69.6072150  28.0706000  50.6417330  69.0822220
  25.2719180  32.4790080  69.3278070  24.9903450  32.9823680  68.5638890
  25.6538880  31.6811830  68.9620200  24.1628280  49.7465740  54.1145750
  24.8947100  49.4625020  53.5669640  24.4221950  49.5079020  55.0045130
  23.3243070  45.8630470  54.1192080  22.6951950  46.3315570  54.6677910
  23.4390900  45.0179690  54.5538270  31.8734640  31.8943660  69.9058540
  31.7600090  32.2138270  70.8010060  32.6904380  32.2956170  69.6095820
  34.6533130  49.0415190  69.3877230  35.4458450  48.5464420  69.1803190
  34.9466280  49.7205330  69.9952840  19.3001620  39.5642500  42.6960400
  19.8717730  38.7964700  42.6964040  19.3003160  39.8631260  41.7867010
  20.5426490  34.9726860  44.4829330  20.3629330  34.0752610  44.7632090
  20.1406570  35.5198730  45.1576280  21.1613160  37.4687360  43.0911670
  21.8423270  37.7325730  43.7099070  20.8461210  36.6288230  43.4249680
  19.3928120  43.9529120  35.3177210  19.0156100  44.4416220  34.5862110
  19.6501190  44.6254400  35.9483740  21.6959080  39.8404060  37.7949220
  21.5756680  40.5666150  37.1830490  21.3859970  39.0706970  37.3177130
  19.3344450  43.0119200  43.6017860  19.4124870  43.1467970  42.6573580
  19.9486130  42.3035090  43.7945980  20.5792080  44.7119390  40.0124040
  20.1720160  44.8533980  39.1577640  21.4705090  44.4279550  39.8095250
  19.3903970  44.0533370  46.1412320  19.5535010  43.5838730  45.3231690
  19.8556420  43.5456930  46.8061160  21.5246710  35.6171950  47.7248190
  21.1310100  36.4647160  47.9320970  20.8365110  34.9798320  47.9156830
  18.8263760  33.5400410  41.7578270  18.5376810  34.1103270  42.4703250
  19.5709520  33.0604860  42.1209500  19.0133990  37.4820530  32.9680990
  18.9308660  38.4251290  33.1095980  18.6617050  37.3395440  32.0893340
  20.9642950  43.4284800  48.3008130  20.5797740  42.7878470  48.8991090
  21.2755140  44.1320920  48.8702860  19.9780580  35.0205030  39.9110220
  19.6927500  34.6560700  40.7488840  19.9159440  34.2885490  39.2973360
  20.9603190  40.1572720  47.2472320  20.6018130  40.8226570  47.8345660
  20.6657750  39.3256270  47.6184940  19.4711240  40.1563980  33.8706920
  20.3406090  40.4388780  34.1542840  18.9801560  40.9699850  33.7555730
  22.5357830  31.8874840  38.4637720  22.4072460  31.8792740  39.4122640
  21.7119850  32.2257930  38.1128730  19.8382490  49.3691360  34.4368550
  20.1980130  49.9680700  33.7825820  19.6974830  49.9151250  35.2103580
  19.5351760  33.6465960  47.9244420  18.8210280  33.8462880  48.5297030
  19.9546800  32.8705530  48.2959220  19.8224350  47.6346220  48.9110950
  19.9315470  46.6940960  48.7706340  19.1704910  47.9000970  48.2624680
  21.4557750  41.9737450  35.9988980  20.8485700  42.7136350  36.0084280
  21.9307100  42.0636810  35.1727180  19.8469990  45.5842630  37.4086490
  18.9209770  45.8263770  37.3991900  20.3126420  46.4116890  37.2871240
  21.9682790  48.7015130  50.7230560  22.7695520  49.0227180  51.1365960
  21.4534610  48.3410710  51.4450470  19.6880600  41.1888590  49.6666610
  20.1919620  40.6095870  50.2382840  18.9488020  41.4728820  50.2042980
  21.7203680  39.3318180  50.5616680  21.7609020  39.0332050  51.4701910
  22.5749180  39.7325790  50.4024200  19.4299700  47.1979030  40.9406290
  19.7602710  46.3300090  40.7084930  19.8590700  47.4037550  41.7711250
  19.9189910  48.0649620  43.6787920  19.4820900  48.2450420  44.5112070
  20.4867590  48.8224240  43.5369640  19.7514340  40.5769850  40.0376800
  19.0963180  40.3081490  39.3936500  20.5892290  40.4674330  39.5878780
  20.7890270  40.9622420  44.5780140  21.1563310  40.8749820  45.4576160
  20.2201090  40.1988970  44.4787000  20.3406270  37.8731510  48.4838560
  19.4462320  37.8398270  48.8232270  20.8803820  38.0718300  49.2489810
  18.9652420  37.7868780  35.9802130  18.0616500  38.0498980  35.8053790
  19.4493040  38.0579950  35.2002090  21.1553790  32.8973650  32.9299160
  21.8781920  33.4382590  33.2480380  21.4278310  32.6237070  32.0540700
  20.8445980  32.1479840  42.8321780  21.4922170  31.5977220  42.3916940
  21.2647820  32.4022990  43.6537590  20.5977980  32.3035510  45.5747100
  20.2492800  32.7599330  46.3405280  20.2665680  31.4092640  45.6569530
  22.2042350  45.4755110  49.7400290  22.1611980  45.1048020  50.6214750
  22.3353360  46.4132680  49.8802110  21.2698620  31.8311710  48.8497870
  21.8181610  31.6499760  48.0863980  21.3353930  31.0405820  49.3854180
  22.0430380  48.4217360  46.8598070  21.4490700  48.2902060  47.5988110
  22.0354220  47.5855500  46.3940170  21.6742610  45.7875740  45.8106110
  20.9476670  45.1681030  45.7432060  21.7351760  46.1816350  44.9404190
  19.9572610  49.1050130  39.0202870  19.7894650  48.4720810  39.7184760
  19.0907120  49.3109530  38.6697060  20.5800630  32.9366910  36.5234730
  21.3379990  33.0495790  35.9498760  20.1177800  33.7736110  36.4778160
  21.5635310  47.7983360  36.4653010  21.0382930  48.1791390  35.7614970
  21.4879890  48.4234130  37.1862720  30.7792790  39.9136130  21.4949790
  30.6986840  38.9990740  21.2241500  30.3657210  40.4103200  20.7889500
  22.9077920  46.0375050  24.4492840  23.2105960  45.1472790  24.2703060
  23.6521510  46.5945270  24.2215090  21.3368610  36.9636850  18.0377210
  20.4485310  37.3052820  17.9357090  21.6209800  36.7637170  17.1458040
  19.3001620  39.5642500  23.9216910  19.8717730  38.7964700  23.9220550
  19.3003160  39.8631260  23.0123520  29.1581570  48.3833350  21.7762180
  28.5393010  48.8390850  21.2056620  30.0133350  48.5384810  21.3751880
  20.5426490  34.9726860  25.7085840  20.3629330  34.0752610  25.9888600
  20.1406570  35.5198730  26.3832790  29.3824990  37.1742720  23.6098150
  29.7589810  36.3014600  23.4971820  29.2844500  37.5101420  22.7188590
  23.5130000  35.5468350  19.0715590  23.6196750  36.4472080  19.3784350
  22.6022360  35.4986320  18.7810240  33.1649110  34.6693160  20.5426490
  33.9858730  34.1789730  20.5851970  33.1983190  35.2590820  21.2958330
  21.1613160  37.4687360  24.3168180  21.8423270  37.7325730  24.9355580
  20.8461210  36.6288230  24.6506190  30.0244920  43.2672590  19.1694090
  29.4062190  43.7322040  18.6056810  30.5368170  43.9600070  19.5863600
  19.3928120  43.9529120  16.5433720  19.0156100  44.4416220  15.8118620
  19.6501190  44.6254400  17.1740250  27.0017050  32.3545510  22.0019230
  27.3092030  31.7992400  21.2854730  26.0717750  32.4889970  21.8192220
  33.8477530  44.7929020  19.3816860  33.7373860  43.8503350  19.5066280
  33.8445780  45.1544660  20.2679620  29.3897810  40.4194340  18.7379350
  28.4627090  40.3531720  18.9667820  29.5422630  41.3574470  18.6234590
  29.3766890  36.6911340  15.7346510  28.4370560  36.8525300  15.8198970
  29.6950150  37.4097020  15.1882500  33.4195100  41.9814640  19.2414600
  32.8007520  41.6434190  18.5940900  33.4019550  41.3374400  19.9493790
  24.9954450  40.9459080  21.5199080  24.5911450  40.2336330  21.0244980
  25.0817570  40.6012320  22.4087120  31.5959800  41.2201450  16.2487350
  32.0353080  40.3823880  16.1025170  32.3088220  41.8530850  16.3351490
  29.7055180  46.1597520  20.2168590  30.1451090  46.9021850  19.8023980
  29.6442070  46.4024090  21.1407550  35.1776940  32.4744260  14.5628390
  34.8649600  32.5671090  15.4627460  35.9389410  33.0525290  14.5125820
  21.6959080  39.8404060  19.0205730  21.5756680  40.5666150  18.4087000
  21.3859970  39.0706970  18.5433640  19.3344450  43.0119200  24.8274370
  19.4124870  43.1467970  23.8830090  19.9486130  42.3035090  25.0202490
  20.5792080  44.7119390  21.2380550  20.1720160  44.8533980  20.3834150
  21.4705090  44.4279550  21.0351760  32.3725360  49.1466640  17.5731600
  32.2126500  48.8569580  18.4713430  32.2072070  48.3706770  17.0376830
  24.8513740  48.9265170  19.3503220  24.6756220  48.0100710  19.1371020
  23.9969480  49.2852460  19.5901020  32.0751490  46.6554200  16.1329600
  31.3816650  46.6531490  15.4731880  32.8174350  46.2313520  15.7023770
  31.6401420  48.2816910  20.2078090  32.0958370  47.5006290  20.5216710
  31.9793940  48.9923730  20.7519270  19.3903970  44.0533370  27.3668830
  19.5535010  43.5838730  26.5488200  19.8556420  43.5456930  28.0317670
  24.1622740  33.1839130  22.4029400  23.7190890  33.9648670  22.0713920
  24.7207730  33.5069020  23.1100340  27.2781560  32.8049830  17.2835230
  26.6535740  32.8009700  18.0088540  27.1911680  31.9380790  16.8871200
  26.1998640  33.7286460  24.2619000  26.4970970  34.6349290  24.1811020
  26.7484200  33.2405240  23.6478570  23.9536960  38.3072700  20.1310650
  23.7277880  38.0909870  21.0357270  23.1729490  38.7401160  19.7856620
  31.1834720  38.3136070  18.7301300  30.5843610  39.0371870  18.5464920
  31.7314330  38.2512850  17.9477750  29.7899590  36.9499610  20.7604580
  30.1829160  37.2671810  19.9473270  30.1516440  36.0711490  20.8749100
  18.8263760  33.5400410  22.9834780  18.5376810  34.1103270  23.6959760
  19.5709520  33.0604860  23.3466010  19.0133990  37.4820530  14.1937500
  18.9308660  38.4251290  14.3352490  18.6617050  37.3395440  13.3149850
  26.8132120  36.2159560  23.2607850  26.8168180  35.7749510  22.4112390
  27.7083240  36.5376890  23.3679670  22.6634500  36.0986050  22.2202060
  22.3234550  36.5761280  22.9769110  21.9011820  35.6451170  21.8603160
  26.8752270  37.2171640  16.2514610  26.9965090  37.1758120  17.2000430
  26.4900780  38.0795790  16.0961340  25.8873770  39.5272780  15.6497910
  25.3190670  39.0791030  15.0233820  26.5962770  39.8865560  15.1163060
  20.9642950  43.4284800  29.5264640  20.5797740  42.7878470  30.1247600
  21.2755140  44.1320920  30.0959370  19.9780580  35.0205030  21.1366730
  19.6927500  34.6560700  21.9745350  19.9159440  34.2885490  20.5229870
  23.4321250  43.5230970  17.9224320  22.6583510  42.9828590  17.7623040
  24.1615880  43.0037580  17.5842080  29.6519170  33.9134290  17.8580100
  28.8383780  33.4147460  17.7825410  29.4581120  34.7532540  17.4416450
  32.3667560  38.2853940  16.1542260  33.2547180  38.5971170  15.9793600
  32.3372650  37.4126190  15.7622840  23.4758650  43.1911350  21.5603130
  23.9937320  42.3879610  21.5060020  23.0242670  43.1290490  22.4019960
  28.3628150  44.4577630  16.8330430  28.7043850  45.2019860  16.3373750
  27.5340860  44.7708750  17.1955260  34.6381830  39.5965780  15.6222120
  34.5545550  40.0280000  14.7718560  35.3576020  40.0564130  16.0548940
  35.6669080  46.4508040  18.3504250  35.0245240  45.7963660  18.6247970
  35.2799740  46.8563130  17.5744920  27.3318840  44.5391160  19.6046350
  28.0189970  45.0860370  19.9853940  26.5451260  45.0831890  19.6395960
  19.4711240  40.1563980  15.0963430  20.3406090  40.4388780  15.3799350
  18.9801560  40.9699850  14.9812240  26.6346050  41.5437190  19.2171710
  27.0908830  42.3542440  19.4431900  26.2834260  41.2260330  20.0490200
  22.5357830  31.8874840  19.6894230  22.4072460  31.8792740  20.6379150
  21.7119850  32.2257930  19.3385240  34.0566460  45.3424500  14.8880600
  33.8304040  44.6254940  15.4805240  33.6662660  45.0936940  14.0502350
  19.8382490  49.3691360  15.6625060  20.1980130  49.9680700  15.0082330
  19.6974830  49.9151250  16.4360090  19.5351760  33.6465960  29.1500930
  18.8210280  33.8462880  29.7553540  19.9546800  32.8705530  29.5215730
  33.6382710  43.2596440  16.5494760  33.3504410  43.7209130  17.3372640
  34.4334880  42.7994210  16.8178980  19.8224350  47.6346220  30.1367460
  19.9315470  46.6940960  29.9962850  19.1704910  47.9000970  29.4881190
  25.8551110  46.7522560  16.4798730  25.8461210  47.4852250  15.8643240
  24.9349470  46.5054140  16.5725690  21.4557750  41.9737450  17.2245490
  20.8485700  42.7136350  17.2340790  21.9307100  42.0636810  16.3983690
  34.3952570  35.0945210  17.7089940  33.7665730  35.1990880  16.9948170
  33.9004490  35.3141990  18.4983820  28.8410710  46.8150800  15.1423920
  28.9422690  46.6114790  14.2125900  27.9412450  46.5609080  15.3471700
  26.3636600  37.3731160  19.1247820  25.6552750  37.8417500  19.5661430
  26.6481080  36.7153170  19.7593010  30.3952030  34.0981820  20.5643610
  30.2719810  34.1167950  19.6153120  31.3436590  34.1460760  20.6842010
  27.4828820  49.3337120  19.8371590  27.7370320  49.2958510  18.9150960
  26.5341300  49.2070450  19.8299840  24.5671620  35.6816240  16.4998530
  25.4162150  36.1186390  16.4338720  24.2002890  35.9936500  17.3270590
  33.4881400  40.2529000  21.4130100  32.5471540  40.2679230  21.5877790
  33.8025470  39.4664960  21.8590400  23.4663040  41.9348600  14.9734060
  24.2326310  41.8229960  15.5359490  23.5437730  41.2386570  14.3210830
  22.1609800  39.3673670  15.6566950  22.2413390  38.4201180  15.7684350
  23.0529550  39.6980550  15.7627610  22.9624510  49.5169060  22.7601490
  23.6986990  48.9684520  23.0310060  23.3465430  50.3825070  22.6207480
  19.8469990  45.5842630  18.6343000  18.9209770  45.8263770  18.6248410
  20.3126420  46.4116890  18.5127750  26.0726820  48.6899370  14.5827060
  26.8655430  48.9788200  14.1308850  25.5531170  48.2591540  13.9039540
  35.1256990  47.9169500  16.0063800  34.8398500  47.5034640  15.1917980
  34.9276540  48.8457210  15.8864320  19.6880600  41.1888590  30.8923120
  20.1919620  40.6095870  31.4639350  18.9488020  41.4728820  31.4299490
  26.5904220  43.9102780  14.4469410  26.4854860  43.2955130  15.1730790
  26.4228440  43.3868670  13.6632420  29.8306950  42.9722810  15.0511400
  29.2817050  43.4192110  15.6954140  30.4526210  42.4672060  15.5749070
  25.4982070  41.9313730  16.9476700  25.9198490  41.7653600  17.7908090
  25.6232910  41.1213960  16.4531840  28.0109710  40.9551340  14.1953800
  28.5315370  40.2400360  13.8294950  28.6578110  41.5937210  14.4954310
  24.3940970  38.0046960  13.8934860  24.1930030  37.1414320  14.2548200
  24.2233020  37.9180320  12.9556460  31.8729280  32.8155190  16.4221740
  32.1531570  31.9723090  16.7781160  31.0995010  33.0478300  16.9360490
  23.1923770  35.1047580  13.8812740  23.4949670  35.1115010  12.9731890
  23.9318360  34.7545440  14.3780400  26.4108700  34.0482200  14.8668940
  26.0630700  33.3706190  14.2871390  26.6121470  33.5871710  15.6812330
  28.5757740  49.0362950  16.4855540  29.4708530  49.3747920  16.5074300
  28.6075370  48.3142360  15.8579820  22.2153900  44.4090000  14.7142540
  22.6528770  44.9519670  15.3700120  22.7001630  43.5836950  14.7238880
  19.4299700  47.1979030  22.1662800  19.7602710  46.3300090  21.9341440
  19.8590700  47.4037550  22.9967760  24.0261620  45.5288040  19.8264770
  23.7257160  45.4053010  20.7268680  23.9199110  44.6696630  19.4180500
  19.9189910  48.0649620  24.9044430  19.4820900  48.2450420  25.7368580
  20.4867590  48.8224240  24.7626150  36.7953540  45.3084440  14.5291450
  35.9646500  45.3761090  14.9998680  36.9725370  46.1988560  14.2258310
  36.2510000  42.0531920  17.0325650  37.0128910  42.6228570  17.1385340
  36.2664370  41.4859120  17.8033960  19.7514340  40.5769850  21.2633310
  19.0963180  40.3081490  20.6193010  20.5892290  40.4674330  20.8135290
  36.3029170  42.3466290  14.1898170  36.5778010  43.2545170  14.0617390
  36.1139910  42.2828820  15.1260160  32.7004780  35.3711140  15.4851800
  33.1189660  35.1842120  14.6448460  32.3940840  34.5190190  15.7954730
  36.1994510  40.2835280  19.1827600  35.8238110  39.5163210  18.7508890
  35.4697630  40.6657980  19.6702530  18.9652420  37.7868780  17.2058640
  18.0616500  38.0498980  17.0310300  19.4493040  38.0579950  16.4258600
  21.5079630  36.8434320  15.1153020  22.2171330  36.4217540  14.6300300
  20.7919570  36.9109550  14.4836370  21.1553790  32.8973650  14.1555670
  21.8781920  33.4382590  14.4736890  21.4278310  32.6237070  13.2797210
  34.9645440  37.7666120  18.4227250  35.4604560  37.5336990  19.2076130
  34.7661510  36.9277960  18.0064890  20.8445980  32.1479840  24.0578290
  21.4922170  31.5977220  23.6173450  21.2647820  32.4022990  24.8794100
  36.3932600  36.4027070  20.9564930  36.2831880  36.2483110  21.8947200
  37.1540190  35.8748010  20.7140340  37.2822870  34.2334990  14.1971070
  38.2072180  34.1016170  13.9889360  37.2598660  34.3127810  15.1507520
  37.3561360  35.0045650  16.8227780  36.5612860  34.9390770  17.3520690
  37.5604640  35.9396290  16.8113130  34.2979780  49.0437200  20.8166170
  34.8938850  48.7221770  20.1400590  34.5557930  48.5709020  21.6079440
  20.5977980  32.3035510  26.8003610  20.2492800  32.7599330  27.5661790
  20.2665680  31.4092640  26.8826040  22.2042350  45.4755110  30.9656800
  22.1611980  45.1048020  31.8471260  22.3353360  46.4132680  31.1058620
  21.2698620  31.8311710  30.0754380  21.8181610  31.6499760  29.3120490
  21.3353930  31.0405820  30.6110690  21.6742610  45.7875740  27.0362620
  20.9476670  45.1681030  26.9688570  21.7351760  46.1816350  26.1660700
  35.6519860  32.9657770  21.2835430  35.5908260  32.0218990  21.1366450
  36.4311890  33.0737860  21.8288890  19.9572610  49.1050130  20.2459380
  19.7894650  48.4720810  20.9441270  19.0907120  49.3109530  19.8953570
  20.5800630  32.9366910  17.7491240  21.3379990  33.0495790  17.1755270
  20.1177800  33.7736110  17.7034670  27.1214440  35.0506180  20.7393550
  26.3088950  34.6763070  20.3989430  27.6256080  34.2951260  21.0414740
  31.6239420  31.7148630  21.9776620  32.2268790  32.2868840  22.4525140
  30.8832410  32.2788070  21.7550520  34.7674020  32.1170190  17.2516900
  34.9624650  33.0153640  17.5184330  33.9803890  31.8857270  17.7449850
  21.5635310  47.7983360  17.6909520  21.0382930  48.1791390  16.9871480
  21.4879890  48.4234130  18.4119230  22.9525780  33.4630960  16.2893210
  23.4818540  32.6760760  16.1601160  23.5854100  34.1422150  16.5228740
  25.1463620  33.2006100  19.3438600  24.5166360  32.4993410  19.5108730
  24.6068760  33.9610230  19.1271760  36.3200630  49.3570900  19.0123460
  36.4952820  48.6708640  18.3684380  35.6222200  49.8817950  18.6200130
  24.1628280  49.7465740  16.5658770  24.8947100  49.4625020  16.0182660
  24.4221950  49.5079020  17.4558150  23.3243070  45.8630470  16.5705100
  22.6951950  46.3315570  17.1190930  23.4390900  45.0179690  17.0051290
  30.7792790  39.9136130   2.7206300  30.6986840  38.9990740   2.4498010
  30.3657210  40.4103200   2.0146010  28.9110830  41.6915150   4.6015570
  28.1352930  41.2115590   4.8914140  29.5623760  41.0120800   4.4271730
  22.9276660  42.0034960   5.4791330  22.0961540  41.7483670   5.8787840
  23.5357640  42.0745730   6.2149250  32.9318260  46.0975340   3.3814700
  32.4699790  45.3262580   3.7101870  33.7443810  46.1241410   3.8867150
  22.9077920  46.0375050   5.6749350  23.2105960  45.1472790   5.4959570
  23.6521510  46.5945270   5.4471600  19.3001620  39.5642500   5.1473420
  19.8717730  38.7964700   5.1477060  19.3003160  39.8631260   4.2380030
  29.1581570  48.3833350   3.0018690  28.5393010  48.8390850   2.4313130
  30.0133350  48.5384810   2.6008390  28.3519820  44.3672340   4.6085730
  28.2828100  43.4262280   4.4474860  29.1139680  44.4573750   5.1808300
  20.5426490  34.9726860   6.9342350  20.3629330  34.0752610   7.2145110
  20.1406570  35.5198730   7.6089300  29.3824990  37.1742720   4.8354660
  29.7589810  36.3014600   4.7228330  29.2844500  37.5101420   3.9445100
  33.1649110  34.6693160   1.7683000  33.9858730  34.1789730   1.8108480
  33.1983190  35.2590820   2.5214840  21.1613160  37.4687360   5.5424690
  21.8423270  37.7325730   6.1612090  20.8461210  36.6288230   5.8762700
  25.3537730  38.5154720   4.6297280  25.8615950  39.0135690   5.2702300
  25.8850970  37.7389920   4.4536640  37.4548660  36.6859910   8.3326630
  36.7500830  37.0741620   7.8141740  37.7206580  37.3810200   8.9347560
  23.6373830  33.1553280   8.8960700  23.6392270  33.6725670   8.0906600
  22.8078140  32.6783460   8.8730630  24.8876680  42.7948460   7.0734200
  24.5546060  43.4217380   7.7155270  25.0643360  43.3210340   6.2935870
  33.4010590  36.6093540   4.5410540  32.6966160  36.8978430   5.1213650
  33.7622750  37.4193650   4.1810100  23.3189160  34.8663240   6.9031150
  23.6605970  35.7105290   6.6085020  22.3804970  35.0146980   7.0196490
  24.0995780  44.7629260   8.8883380  24.7169780  45.4380340   8.6067830
  23.2388900  45.1717240   8.7970880  35.0173370  46.2268670   6.8038020
  34.3336890  46.8967780   6.7954690  35.5567660  46.4249320   6.0382880
  36.4697510  36.0548330   4.9319750  35.5222420  36.0887310   5.0635180
  36.7947500  36.8687280   5.3169110  27.0017050  32.3545510   3.2275740
  27.3092030  31.7992400   2.5111240  26.0717750  32.4889970   3.0448730
  32.5532110  48.0712800   5.5183200  32.5659270  47.6675090   4.6505460
  32.0007330  48.8460090   5.4144630  31.9517550  42.9742640   6.8465810
  32.3686340  42.7602750   6.0119270  32.6757370  43.2315430   7.4174430
  35.8979650  41.3729860   6.9382050  35.0698280  41.4422950   6.4632180
  36.4930130  41.9584170   6.4697880  32.8621660  38.1599180   7.8836920
  32.4492840  38.9852890   8.1376910  32.1297610  37.5744220   7.6913280
  24.9954450  40.9459080   2.7455590  24.5911450  40.2336330   2.2501490
  25.0817570  40.6012320   3.6343630  25.4636150  44.6326640   4.9094800
  25.1664440  44.0272110   4.2302580  26.4135970  44.6703950   4.7984160
  23.7083070  37.7202290   6.5254630  24.2597660  37.8297630   5.7507880
  24.2226580  38.0939890   7.2409860  33.5521760  48.2058510   8.5717900
  33.0752320  49.0130700   8.3790510  32.8683550  47.5536840   8.7244110
  24.5554580  44.3708330  11.5602600  23.6583110  44.5948300  11.8076000
  24.5807450  44.4943270  10.6114000  23.3825800  41.2421650  10.1359970
  23.2433570  42.1144450  10.5047370  22.5007160  40.8994460   9.9907910
  25.1806150  47.1843350  12.3445120  25.1521580  47.5886300  11.4773550
  25.0171120  46.2553710  12.1816720  37.1320970  47.9670450  13.6409290
  37.6080690  48.4453340  14.3198370  37.7528130  47.8987940  12.9154790
  19.3344450  43.0119200   6.0530880  19.4124870  43.1467970   5.1086600
  19.9486130  42.3035090   6.2459000  20.5792080  44.7119390   2.4637060
  20.1720160  44.8533980   1.6090660  21.4705090  44.4279550   2.2608270
  36.5354220  45.1583300  10.8009300  36.6617280  44.9195180   9.8826480
  36.5775600  44.3267840  11.2731380  30.3970960  48.8611300   9.3704110
  30.9115630  48.7719310  10.1726540  29.5540040  49.2071000   9.6632020
  36.3878230  37.2115760  11.7659040  35.7722500  37.7195430  11.2374500
  36.0674650  36.3114090  11.7084980  19.3903970  44.0533370   8.5925340
  19.5535010  43.5838730   7.7744710  19.8556420  43.5456930   9.2574180
  24.1622740  33.1839130   3.6285910  23.7190890  33.9648670   3.2970430
  24.7207730  33.5069020   4.3356850  28.4492550  36.0507650   9.2321230
  27.9871920  36.2590670  10.0441170  28.0470660  35.2367000   8.9291900
  33.4497060  37.2716600  10.3617890  32.5990650  36.9722350  10.6826960
  33.2898850  37.5158610   9.4501710  30.5446770  38.7718350  12.4616680
  30.8700180  37.9382100  12.1218910  31.3327100  39.2946870  12.6095010
  26.1998640  33.7286460   5.4875510  26.4970970  34.6349290   5.4067530
  26.7484200  33.2405240   4.8735080  26.3936170  39.2058280  12.0227430
  26.2979770  38.2653010  11.8727830  27.2368150  39.4273350  11.6275500
  21.5246710  35.6171950  10.1761210  21.1310100  36.4647160  10.3833990
  20.8365110  34.9798320  10.3669850  28.0991760  35.7006920  13.2457950
  27.4090080  35.5079120  13.8804040  28.8424060  35.9841560  13.7782250
  18.8263760  33.5400410   4.2091290  18.5376810  34.1103270   4.9216270
  19.5709520  33.0604860   4.5722520  30.3754730  39.5405360   6.0811870
  29.6435850  40.0492170   6.4301970  29.9779070  38.7235340   5.7800650
  26.8132120  36.2159560   4.4864360  26.8168180  35.7749510   3.6368900
  27.7083240  36.5376890   4.5936180  22.6634500  36.0986050   3.4458570
  22.3234550  36.5761280   4.2025620  21.9011820  35.6451170   3.0859670
  30.8380640  34.9939040   5.4934810  30.8553380  35.4447690   6.3376660
  30.5896220  34.0944680   5.7068250  34.2651390  32.4071220  11.3321190
  34.5897160  31.6760880  11.8579170  34.3007900  32.0884860  10.4302180
  20.9642950  43.4284800  10.7521150  20.5797740  42.7878470  11.3504110
  21.2755140  44.1320920  11.3215880  27.1140090  40.2761340   6.2329770
  27.4810220  39.8019910   6.9791110  26.9245150  41.1502910   6.5738110
  19.9780580  35.0205030   2.3623240  19.6927500  34.6560700   3.2001860
  19.9159440  34.2885490   1.7486380  24.9039460  39.3169980   8.5513980
  24.5996530  40.1961960   8.7764340  25.8585920  39.3769770   8.5871420
  34.1909230  42.5196330   4.9407220  34.9108350  43.0151620   4.5503330
  33.9891050  41.8414220   4.2961090  29.5728030  42.5905390  10.8276220
  29.5065340  41.6701060  10.5733810  28.9433170  42.6880830  11.5420860
  23.4758650  43.1911350   2.7859640  23.9937320  42.3879610   2.7316530
  23.0242670  43.1290490   3.6276470  20.9603190  40.1572720   9.6985340
  20.6018130  40.8226570  10.2858680  20.6657750  39.3256270  10.0697960
  24.1616310  40.6156960  12.5824890  23.8616450  40.7614140  11.6852710
  24.9327550  40.0562250  12.4898280  29.5044760  45.4125960  10.5780020
  29.5189300  44.4806920  10.3598930  28.7969860  45.4985720  11.2169790
  35.7155970  42.0533300   9.9248600  34.9904160  42.6462080   9.7277990
  36.2431430  42.0456840   9.1261970  31.2455560  43.7793470   3.4232450
  31.5979380  43.1821600   2.7633820  30.3617890  43.4537700   3.5940700
  28.9378660  47.0543530   7.6720520  29.5820880  47.2602910   8.3493940
  29.3008100  46.2931930   7.2191370  30.2110740  45.0575880   6.3897970
  30.8532970  44.3569040   6.5030140  30.7360090  45.8374320   6.2094860
  31.9848360  45.8570780   9.5934030  32.3204600  46.4437470  10.2711950
  31.0648700  45.7263490   9.8231820  19.5351760  33.6465960  10.3757440
  18.8210280  33.8462880  10.9810050  19.9546800  32.8705530  10.7472240
  19.8224350  47.6346220  11.3623970  19.9315470  46.6940960  11.2219360
  19.1704910  47.9000970  10.7137700  27.8136940  45.9062110  12.7622090
  27.4933810  45.1871350  13.3067780  27.1395300  46.5817180  12.8358150
  31.0290540  36.1388270   8.1258890  31.3971360  35.3183480   8.4538460
  30.1688740  36.1990160   8.5414540  27.9892530  38.7927860   8.3496860
  28.4877780  39.2673680   9.0148710  28.1315480  37.8691380   8.5566890
  35.1959390  35.0095820   9.1925250  34.6932990  35.7501220   9.5319060
  36.0116050  35.3979820   8.8762040  33.4881400  40.2529000   2.6386610
  32.5471540  40.2679230   2.8134300  33.8025470  39.4664960   3.0846910
  35.4906980  47.4237850   4.3140870  35.6154400  48.2469020   4.7864680
  36.3572540  47.2128580   3.9665020  22.9624510  49.5169060   3.9858000
  23.6986990  48.9684520   4.2566570  23.3465430  50.3825070   3.8463990
  21.9682790  48.7015130  13.1743580  22.7695520  49.0227180  13.5878980
  21.4534610  48.3410710  13.8963490  30.8047420  44.8095000  13.1218990
  30.1985580  44.8326600  12.3814740  30.5001530  44.0778040  13.6586240
  32.2347790  48.5375290  11.7328400  33.1869540  48.4533310  11.6828640
  32.0876010  49.2017000  12.4062190  19.6880600  41.1888590  12.1179630
  20.1919620  40.6095870  12.6895860  18.9488020  41.4728820  12.6556000
  26.7418540  42.5959580  11.6515150  25.9764210  43.1644580  11.5669820
  26.9234500  42.3035790  10.7583380  33.8841890  44.3264910  12.2090170
  34.6251360  44.6640670  11.7057630  33.1214570  44.4956970  11.6559940
  21.7203680  39.3318180  13.0129700  21.7609020  39.0332050  13.9214930
  22.5749180  39.7325790  12.8537220  23.6609490  37.9110280  10.9804190
  23.1305950  37.4201230  10.3527530  24.3297560  38.3394480  10.4462120
  32.5587550  42.3779740  10.7445380  32.9728570  42.5324820  11.5935800
  31.6238550  42.5034960  10.9071160  33.0309720  39.7175900  12.7484530
  33.6130490  38.9628220  12.6605010  33.2071490  40.2483340  11.9716010
  24.1481790  34.8772650  11.0601480  24.0538660  34.2593400  10.3352350
  23.5679180  35.6038940  10.8331390  26.9143230  33.4345890   8.0928870
  26.4660530  33.4570150   7.2474420  26.2808430  33.0364910   8.6899170
  27.3202780  42.3300220   8.7141310  27.7390890  43.1732950   8.5417550
  26.4011410  42.4672260   8.4848090  29.6566680  40.0616400  10.0979150
  29.7762890  39.4657540  10.8373990  30.5160680  40.0986090   9.6780450
  31.9954580  40.6153590   8.6741660  31.4689800  41.1396210   8.0706800
  32.3385920  41.2480980   9.3051390  25.1710200  48.6353230   9.8299040
  24.6331290  49.3599290   9.5107740  25.4244160  48.1583570   9.0396380
  26.4235450  36.6037750  11.3554970  27.0135140  36.2953600  12.0432790
  25.6055690  36.1317500  11.5114870  31.2428880  36.2203560  11.5887990
  30.5544400  35.5585100  11.5237980  31.9634900  35.7741830  12.0336450
  28.0272410  49.8704440  10.0885690  27.9531110  50.7739580  10.3958060
  27.1251250  49.5516340  10.0607760  19.4299700  47.1979030   3.3919310
  19.7602710  46.3300090   3.1597950  19.8590700  47.4037550   4.2224270
  19.9189910  48.0649620   6.1300940  19.4820900  48.2450420   6.9625090
  20.4867590  48.8224240   5.9882660  35.5552090  47.5666620  10.4178250
  34.9554080  47.6259180   9.6742170  35.6845990  46.6271600  10.5475100
  19.7514340  40.5769850   2.4889820  19.0963180  40.3081490   1.8449520
  20.5892290  40.4674330   2.0391800  37.2569970  42.9082020   3.1024090
  37.6278800  42.1249340   2.6960060  37.8971900  43.5971120   2.9241390
  34.2403730  44.2918600   8.5154410  33.4263570  44.7215760   8.7780200
  34.6477930  44.9037010   7.9023460  20.7890270  40.9622420   7.0293160
  21.1563310  40.8749820   7.9089180  20.2201090  40.1988970   6.9300020
  35.5894130  39.4306800  10.0423630  35.3580220  39.2019550   9.1421580
  35.8498680  40.3506350   9.9968520  20.3406270  37.8731510  10.9351580
  19.4462320  37.8398270  11.2745290  20.8803820  38.0718300  11.7002830
  34.0282200  34.6563230  12.8203330  34.9052380  34.6646630  13.2037330
  34.0403040  33.9194070  12.2095680  35.4745470  38.5092770   3.7091350
  35.9982950  38.0155420   3.0781520  36.0604890  38.6443130   4.4538920
  35.6535190  38.5932640   7.2310900  34.7037900  38.5596180   7.3455890
  35.8348200  39.5032750   6.9960670  20.8445980  32.1479840   5.2834800
  21.4922170  31.5977220   4.8429960  21.2647820  32.4022990   6.1050610
  36.3932600  36.4027070   2.1821440  36.2831880  36.2483110   3.1203710
  37.1540190  35.8748010   1.9396850  34.7398320  32.3421200   8.6404440
  35.3770540  32.9555340   9.0063630  34.8873210  32.3781860   7.6953670
  20.5977980  32.3035510   8.0260120  20.2492800  32.7599330   8.7918300
  20.2665680  31.4092640   8.1082550  22.2042350  45.4755110  12.1913310
  22.1611980  45.1048020  13.0727770  22.3353360  46.4132680  12.3315130
  25.9048380  47.0314700   7.7923030  25.6639740  47.2989260   6.9053550
  26.8451020  47.2020430   7.8473890  28.1102800  33.4947390  11.5479540
  28.0491690  34.0869220  12.2974950  29.0503180  33.3873350  11.4029800
  30.7477360  33.1517450  11.1871830  31.3617770  33.4696740  10.5252910
  31.2926920  32.6666040  11.8067690  37.1652540  49.0509080   8.5933670
  36.6710820  49.4477950   7.8760800  36.5565830  48.4258290   8.9870950
  21.2698620  31.8311710  11.3010890  21.8181610  31.6499760  10.5377000
  21.3353930  31.0405820  11.8367200  22.0430380  48.4217360   9.3111090
  21.4490700  48.2902060  10.0501130  22.0354220  47.5855500   8.8453190
  31.4885400  31.7149590   7.5141120  30.6145240  32.0484700   7.3114050
  31.3796150  31.2422770   8.3392990  32.3957380  33.9220460   8.8982840
  32.0670740  33.1072220   8.5184570  33.3439680  33.8790270   8.7748530
  34.8491990  49.6932500   5.8720410  34.3894960  50.4448310   5.4978430
  34.2204450  48.9738970   5.8135210  21.6742610  45.7875740   8.2619130
  20.9476670  45.1681030   8.1945080  21.7351760  46.1816350   7.3917210
  25.2787710  48.0020740   5.0468540  25.7952730  47.3908100   4.5216800
  25.9285090  48.5049520   5.5379550  28.0183210  48.8929230   5.8737520
  28.3061020  48.6383530   4.9970530  28.5306430  48.3406590   6.4643090
  29.2360220  32.6319430   6.4534030  28.4532010  33.1064930   6.7330790
  28.9423150  31.7274260   6.3447210  33.7881290  33.3342530   4.4983120
  34.2289380  33.2787630   3.6504720  33.5188880  34.2500540   4.5693300
  35.6519860  32.9657770   2.5091940  35.5908260  32.0218990   2.3622960
  36.4311890  33.0737860   3.0545400  27.1214440  35.0506180   1.9650060
  26.3088950  34.6763070   1.6245940  27.6256080  34.2951260   2.2671250
  31.6239420  31.7148630   3.2033130  32.2268790  32.2868840   3.6781650
  30.8832410  32.2788070   2.9807030  28.0855570  49.8145330  13.2405720
  29.0122880  49.5789600  13.2841680  28.0706000  50.6417330  12.7591750
  25.2719180  32.4790080  13.0047600  24.9903450  32.9823680  12.2408420
  25.6538880  31.6811830  12.6389730  31.8734640  31.8943660  13.5828070
  31.7600090  32.2138270  14.4779590  32.6904380  32.2956170  13.2865350
  34.6533130  49.0415190  13.0646760  35.4458450  48.5464420  12.8572720
  34.9466280  49.7205330  13.6722370  30.7792790  21.1392640  77.8180260
  30.6986840  20.2247250  77.5471970  30.3657210  21.6359710  77.1119970
  28.9110830  22.9171660  79.6989530  28.1352930  22.4372100  79.9888100
  29.5623760  22.2377310  79.5245690  22.9276660  23.2291470  80.5765290
  22.0961540  22.9740180  80.9761800  23.5357640  23.3002240  81.3123210
  32.9318260  27.3231850  78.4788660  32.4699790  26.5519090  78.8075830
  33.7443810  27.3497920  78.9841110  22.9077920  27.2631560  80.7723310
  23.2105960  26.3729300  80.5933530  23.6521510  27.8201780  80.5445560
  21.3368610  18.1893360  74.3607680  20.4485310  18.5309330  74.2587560
  21.6209800  17.9893680  73.4688510  19.3001620  20.7899010  80.2447380
  19.8717730  20.0221210  80.2451020  19.3003160  21.0887770  79.3353990
  29.1581570  29.6089860  78.0992650  28.5393010  30.0647360  77.5287090
  30.0133350  29.7641320  77.6982350  28.3519820  25.5928850  79.7059690
  28.2828100  24.6518790  79.5448820  29.1139680  25.6830260  80.2782260
  29.3824990  18.3999230  79.9328620  29.7589810  17.5271110  79.8202290
  29.2844500  18.7357930  79.0419060  23.5130000  16.7724860  75.3946060
  23.6196750  17.6728590  75.7014820  22.6022360  16.7242830  75.1040710
  33.1649110  15.8949670  76.8656960  33.9858730  15.4046240  76.9082440
  33.1983190  16.4847330  77.6188800  21.1613160  18.6943870  80.6398650
  21.8423270  18.9582240  81.2586050  20.8461210  17.8544740  80.9736660
  25.3537730  19.7411230  79.7271240  25.8615950  20.2392200  80.3676260
  25.8850970  18.9646430  79.5510600  30.0244920  24.4929100  75.4924560
  29.4062190  24.9578550  74.9287280  30.5368170  25.1856580  75.9094070
  33.4010590  17.8350050  79.6384500  32.6966160  18.1234940  80.2187610
  33.7622750  18.6450160  79.2784060  23.3189160  16.0919750  82.0005110
  23.6605970  16.9361800  81.7058980  22.3804970  16.2403490  82.1170450
  19.3928120  25.1785630  72.8664190  19.0156100  25.6672730  72.1349090
  19.6501190  25.8510910  73.4970720  35.0173370  27.4525180  81.9011980
  34.3336890  28.1224290  81.8928650  35.5567660  27.6505830  81.1356840
  36.4697510  17.2804840  80.0293710  35.5222420  17.3143820  80.1609140
  36.7947500  18.0943790  80.4143070  27.0017050  13.5802020  78.3249700
  27.3092030  13.0248910  77.6085200  26.0717750  13.7146480  78.1422690
  32.5532110  29.2969310  80.6157160  32.5659270  28.8931600  79.7479420
  32.0007330  30.0716600  80.5118590  33.8477530  26.0185530  75.7047330
  33.7373860  25.0759860  75.8296750  33.8445780  26.3801170  76.5910090
  29.3897810  21.6450850  75.0609820  28.4627090  21.5788230  75.2898290
  29.5422630  22.5830980  74.9465060  29.3766890  17.9167850  72.0576980
  28.4370560  18.0781810  72.1429440  29.6950150  18.6353530  71.5112970
  35.8979650  22.5986370  82.0356010  35.0698280  22.6679460  81.5606140
  36.4930130  23.1840680  81.5671840  33.4195100  23.2071150  75.5645070
  32.8007520  22.8690700  74.9171370  33.4019550  22.5630910  76.2724260
  24.9954450  22.1715590  77.8429550  24.5911450  21.4592840  77.3475450
  25.0817570  21.8268830  78.7317590  25.4636150  25.8583150  80.0068760
  25.1664440  25.2528620  79.3276540  26.4135970  25.8960460  79.8958120
  31.5959800  22.4457960  72.5717820  32.0353080  21.6080390  72.4255640
  32.3088220  23.0787360  72.6581960  29.7055180  27.3854030  76.5399060
  30.1451090  28.1278360  76.1254450  29.6442070  27.6280600  77.4638020
  35.1776940  13.7000770  70.8858860  34.8649600  13.7927600  71.7857930
  35.9389410  14.2781800  70.8356290  21.6959080  21.0660570  75.3436200
  21.5756680  21.7922660  74.7317470  21.3859970  20.2963480  74.8664110
  19.3344450  24.2375710  81.1504840  19.4124870  24.3724480  80.2060560
  19.9486130  23.5291600  81.3432960  20.5792080  25.9375900  77.5611020
  20.1720160  26.0790490  76.7064620  21.4705090  25.6536060  77.3582230
  32.3725360  30.3723150  73.8962070  32.2126500  30.0826090  74.7943900
  32.2072070  29.5963280  73.3607300  24.8513740  30.1521680  75.6733690
  24.6756220  29.2357220  75.4601490  23.9969480  30.5108970  75.9131490
  32.0751490  27.8810710  72.4560070  31.3816650  27.8788000  71.7962350
  32.8174350  27.4570030  72.0254240  31.6401420  29.5073420  76.5308560
  32.0958370  28.7262800  76.8447180  31.9793940  30.2180240  77.0749740
  24.1622740  14.4095640  78.7259870  23.7190890  15.1905180  78.3944390
  24.7207730  14.7325530  79.4330810  27.2781560  14.0306340  73.6065700
  26.6535740  14.0266210  74.3319010  27.1911680  13.1637300  73.2101670
  26.1998640  14.9542970  80.5849470  26.4970970  15.8605800  80.5041490
  26.7484200  14.4661750  79.9709040  23.9536960  19.5329210  76.4541120
  23.7277880  19.3166380  77.3587740  23.1729490  19.9657670  76.1087090
  31.1834720  19.5392580  75.0531770  30.5843610  20.2628380  74.8695390
  31.7314330  19.4769360  74.2708220  29.7899590  18.1756120  77.0835050
  30.1829160  18.4928320  76.2703740  30.1516440  17.2968000  77.1979570
  18.8263760  14.7656920  79.3065250  18.5376810  15.3359780  80.0190230
  19.5709520  14.2861370  79.6696480  19.0133990  18.7077040  70.5167970
  18.9308660  19.6507800  70.6582960  18.6617050  18.5651950  69.6380320
  30.3754730  20.7661870  81.1785830  29.6435850  21.2748680  81.5275930
  29.9779070  19.9491850  80.8774610  26.8132120  17.4416070  79.5838320
  26.8168180  17.0006020  78.7342860  27.7083240  17.7633400  79.6910140
  22.6634500  17.3242560  78.5432530  22.3234550  17.8017790  79.2999580
  21.9011820  16.8707680  78.1833630  26.8752270  18.4428150  72.5745080
  26.9965090  18.4014630  73.5230900  26.4900780  19.3052300  72.4191810
  30.8380640  16.2195550  80.5908770  30.8553380  16.6704200  81.4350620
  30.5896220  15.3201190  80.8042210  25.8873770  20.7529290  71.9728380
  25.3190670  20.3047540  71.3464290  26.5962770  21.1122070  71.4393530
  27.1140090  21.5017850  81.3303730  27.4810220  21.0276420  82.0765070
  26.9245150  22.3759420  81.6712070  19.9780580  16.2461540  77.4597200
  19.6927500  15.8817210  78.2975820  19.9159440  15.5142000  76.8460340
  23.4321250  24.7487480  74.2454790  22.6583510  24.2085100  74.0853510
  24.1615880  24.2294090  73.9072550  34.1909230  23.7452840  80.0381180
  34.9108350  24.2408130  79.6477290  33.9891050  23.0670730  79.3935050
  29.6519170  15.1390800  74.1810570  28.8383780  14.6403970  74.1055880
  29.4581120  15.9789050  73.7646920  32.3667560  19.5110450  72.4772730
  33.2547180  19.8227680  72.3024070  32.3372650  18.6382700  72.0853310
  23.4758650  24.4167860  77.8833600  23.9937320  23.6136120  77.8290490
  23.0242670  24.3547000  78.7250430  28.3628150  25.6834140  73.1560900
  28.7043850  26.4276370  72.6604220  27.5340860  25.9965260  73.5185730
  34.6381830  20.8222290  71.9452590  34.5545550  21.2536510  71.0949030
  35.3576020  21.2820640  72.3779410  35.6669080  27.6764550  74.6734720
  35.0245240  27.0220170  74.9478440  35.2799740  28.0819640  73.8975390
  31.2455560  25.0049980  78.5206410  31.5979380  24.4078110  77.8607780
  30.3617890  24.6794210  78.6914660  27.3318840  25.7647670  75.9276820
  28.0189970  26.3116880  76.3084410  26.5451260  26.3088400  75.9626430
  19.4711240  21.3820490  71.4193900  20.3406090  21.6645290  71.7029820
  18.9801560  22.1956360  71.3042710  26.6346050  22.7693700  75.5402180
  27.0908830  23.5798950  75.7662370  26.2834260  22.4516840  76.3720670
  22.5357830  13.1131350  76.0124700  22.4072460  13.1049250  76.9609620
  21.7119850  13.4514440  75.6615710  30.2110740  26.2832390  81.4871930
  30.8532970  25.5825550  81.6004100  30.7360090  27.0630830  81.3068820
  34.0566460  26.5681010  71.2111070  33.8304040  25.8511450  71.8035710
  33.6662660  26.3193450  70.3732820  19.8382490  30.5947870  71.9855530
  20.1980130  31.1937210  71.3312800  19.6974830  31.1407760  72.7590560
  33.6382710  24.4852950  72.8725230  33.3504410  24.9465640  73.6603110
  34.4334880  24.0250720  73.1409450  25.8551110  27.9779070  72.8029200
  25.8461210  28.7108760  72.1873710  24.9349470  27.7310650  72.8956160
  21.4557750  23.1993960  73.5475960  20.8485700  23.9392860  73.5571260
  21.9307100  23.2893320  72.7214160  34.3952570  16.3201720  74.0320410
  33.7665730  16.4247390  73.3178640  33.9004490  16.5398500  74.8214290
  28.8410710  28.0407310  71.4654390  28.9422690  27.8371300  70.5356370
  27.9412450  27.7865590  71.6702170  26.3636600  18.5987670  75.4478290
  25.6552750  19.0674010  75.8891900  26.6481080  17.9409680  76.0823480
  30.3952030  15.3238330  76.8874080  30.2719810  15.3424460  75.9383590
  31.3436590  15.3717270  77.0072480  27.4828820  30.5593630  76.1602060
  27.7370320  30.5215020  75.2381430  26.5341300  30.4326960  76.1530310
  24.5671620  16.9072750  72.8229000  25.4162150  17.3442900  72.7569190
  24.2002890  17.2193010  73.6501060  33.4881400  21.4785510  77.7360570
  32.5471540  21.4935740  77.9108260  33.8025470  20.6921470  78.1820870
  23.4663040  23.1605110  71.2964530  24.2326310  23.0486470  71.8589960
  23.5437730  22.4643080  70.6441300  22.1609800  20.5930180  71.9797420
  22.2413390  19.6457690  72.0914820  23.0529550  20.9237060  72.0858080
  35.4906980  28.6494360  79.4114830  35.6154400  29.4725530  79.8838640
  36.3572540  28.4385090  79.0638980  22.9624510  30.7425570  79.0831960
  23.6986990  30.1941030  79.3540530  23.3465430  31.6081580  78.9437950
  19.8469990  26.8099140  74.9573470  18.9209770  27.0520280  74.9478880
  20.3126420  27.6373400  74.8358220  26.0726820  29.9155880  70.9057530
  26.8655430  30.2044710  70.4539320  25.5531170  29.4848050  70.2270010
  35.1256990  29.1426010  72.3294270  34.8398500  28.7291150  71.5148450
  34.9276540  30.0713720  72.2094790  26.5904220  25.1359290  70.7699880
  26.4854860  24.5211640  71.4961260  26.4228440  24.6125180  69.9862890
  29.8306950  24.1979320  71.3741870  29.2817050  24.6448620  72.0184610
  30.4526210  23.6928570  71.8979540  25.4982070  23.1570240  73.2707170
  25.9198490  22.9910110  74.1138560  25.6232910  22.3470470  72.7762310
  28.0109710  22.1807850  70.5184270  28.5315370  21.4656870  70.1525420
  28.6578110  22.8193720  70.8184780  24.3940970  19.2303470  70.2165330
  24.1930030  18.3670830  70.5778670  24.2233020  19.1436830  69.2786930
  31.8729280  14.0411700  72.7452210  32.1531570  13.1979600  73.1011630
  31.0995010  14.2734810  73.2590960  23.1923770  16.3304090  70.2043210
  23.4949670  16.3371520  69.2962360  23.9318360  15.9801950  70.7010870
  26.4108700  15.2738710  71.1899410  26.0630700  14.5962700  70.6101860
  26.6121470  14.8128220  72.0042800  28.5757740  30.2619460  72.8086010
  29.4708530  30.6004430  72.8304770  28.6075370  29.5398870  72.1810290
  22.2153900  25.6346510  71.0373010  22.6528770  26.1776180  71.6930590
  22.7001630  24.8093460  71.0469350  19.4299700  28.4235540  78.4893270
  19.7602710  27.5556600  78.2571910  19.8590700  28.6294060  79.3198230
  24.0261620  26.7544550  76.1495240  23.7257160  26.6309520  77.0499150
  23.9199110  25.8953140  75.7410970  19.9189910  29.2906130  81.2274900
  19.4820900  29.4706930  82.0599050  20.4867590  30.0480750  81.0856620
  36.7953540  26.5340950  70.8521920  35.9646500  26.6017600  71.3229150
  36.9725370  27.4245070  70.5488780  36.2510000  23.2788430  73.3556120
  37.0128910  23.8485080  73.4615810  36.2664370  22.7115630  74.1264430
  19.7514340  21.8026360  77.5863780  19.0963180  21.5338000  76.9423480
  20.5892290  21.6930840  77.1365760  37.2569970  24.1338530  78.1998050
  37.6278800  23.3505850  77.7934020  37.8971900  24.8227630  78.0215350
  36.3029170  23.5722800  70.5128640  36.5778010  24.4801680  70.3847860
  36.1139910  23.5085330  71.4490630  32.7004780  16.5967650  71.8082270
  33.1189660  16.4098630  70.9678930  32.3940840  15.7446700  72.1185200
  36.1994510  21.5091790  75.5058070  35.8238110  20.7419720  75.0739360
  35.4697630  21.8914490  75.9933000  18.9652420  19.0125290  73.5289110
  18.0616500  19.2755490  73.3540770  19.4493040  19.2836460  72.7489070
  35.4745470  19.7349280  78.8065310  35.9982950  19.2411930  78.1755480
  36.0604890  19.8699640  79.5512880  21.5079630  18.0690830  71.4383490
  22.2171330  17.6474050  70.9530770  20.7919570  18.1366060  70.8066840
  21.1553790  14.1230160  70.4786140  21.8781920  14.6639100  70.7967360
  21.4278310  13.8493580  69.6027680  34.9645440  18.9922630  74.7457720
  35.4604560  18.7593500  75.5306600  34.7661510  18.1534470  74.3295360
  20.8445980  13.3736350  80.3808760  21.4922170  12.8233730  79.9403920
  21.2647820  13.6279500  81.2024570  36.3932600  17.6283580  77.2795400
  36.2831880  17.4739620  78.2177670  37.1540190  17.1004520  77.0370810
  37.2822870  15.4591500  70.5201540  38.2072180  15.3272680  70.3119830
  37.2598660  15.5384320  71.4737990  37.3561360  16.2302160  73.1458250
  36.5612860  16.1647280  73.6751160  37.5604640  17.1652800  73.1343600
  34.2979780  30.2693710  77.1396640  34.8938850  29.9478280  76.4631060
  34.5557930  29.7965530  77.9309910  34.8491990  30.9189010  80.9694370
  34.3894960  31.6704820  80.5952390  34.2204450  30.1995480  80.9109170
  25.2787710  29.2277250  80.1442500  25.7952730  28.6164610  79.6190760
  25.9285090  29.7306030  80.6353510  28.0183210  30.1185740  80.9711480
  28.3061020  29.8640040  80.0944490  28.5306430  29.5663100  81.5617050
  29.2360220  13.8575940  81.5507990  28.4532010  14.3321440  81.8304750
  28.9423150  12.9530770  81.4421170  33.7881290  14.5599040  79.5957080
  34.2289380  14.5044140  78.7478680  33.5188880  15.4757050  79.6667260
  35.6519860  14.1914280  77.6065900  35.5908260  13.2475500  77.4596920
  36.4311890  14.2994370  78.1519360  19.9572610  30.3306640  76.5689850
  19.7894650  29.6977320  77.2671740  19.0907120  30.5366040  76.2184040
  20.5800630  14.1623420  74.0721710  21.3379990  14.2752300  73.4985740
  20.1177800  14.9992620  74.0265140  27.1214440  16.2762690  77.0624020
  26.3088950  15.9019580  76.7219900  27.6256080  15.5207770  77.3645210
  31.6239420  12.9405140  78.3007090  32.2268790  13.5125350  78.7755610
  30.8832410  13.5044580  78.0780990  34.7674020  13.3426700  73.5747370
  34.9624650  14.2410150  73.8414800  33.9803890  13.1113780  74.0680320
  21.5635310  29.0239870  74.0139990  21.0382930  29.4047900  73.3101950
  21.4879890  29.6490640  74.7349700  22.9525780  14.6887470  72.6123680
  23.4818540  13.9017270  72.4831630  23.5854100  15.3678660  72.8459210
  25.1463620  14.4262610  75.6669070  24.5166360  13.7249920  75.8339200
  24.6068760  15.1866740  75.4502230  36.3200630  30.5827410  75.3353930
  36.4952820  29.8965150  74.6914850  35.6222200  31.1074460  74.9430600
  24.1628280  30.9722250  72.8889240  24.8947100  30.6881530  72.3413130
  24.4221950  30.7335530  73.7788620  23.3243070  27.0886980  72.8935570
  22.6951950  27.5572080  73.4421400  23.4390900  26.2436200  73.3281760
  22.9276660  23.2291470  61.8021800  22.0961540  22.9740180  62.2018310
  23.5357640  23.3002240  62.5379720  22.9077920  27.2631560  61.9979820
  23.2105960  26.3729300  61.8190040  23.6521510  27.8201780  61.7702070
  21.3368610  18.1893360  55.5864190  20.4485310  18.5309330  55.4844070
  21.6209800  17.9893680  54.6945020  19.3001620  20.7899010  61.4703890
  19.8717730  20.0221210  61.4707530  19.3003160  21.0887770  60.5610500
  29.1581570  29.6089860  59.3249160  28.5393010  30.0647360  58.7543600
  30.0133350  29.7641320  58.9238860  20.5426490  16.1983370  63.2572820
  20.3629330  15.3009120  63.5375580  20.1406570  16.7455240  63.9319770
  29.3824990  18.3999230  61.1585130  29.7589810  17.5271110  61.0458800
  29.2844500  18.7357930  60.2675570  23.5130000  16.7724860  56.6202570
  23.6196750  17.6728590  56.9271330  22.6022360  16.7242830  56.3297220
  33.1649110  15.8949670  58.0913470  33.9858730  15.4046240  58.1338950
  33.1983190  16.4847330  58.8445310  21.1613160  18.6943870  61.8655160
  21.8423270  18.9582240  62.4842560  20.8461210  17.8544740  62.1993170
  25.3537730  19.7411230  60.9527750  25.8615950  20.2392200  61.5932770
  25.8850970  18.9646430  60.7767110  37.4548660  17.9116420  64.6557100
  36.7500830  18.2998130  64.1372210  37.7206580  18.6066710  65.2578030
  23.6373830  14.3809790  65.2191170  23.6392270  14.8982180  64.4137070
  22.8078140  13.9039970  65.1961100  24.8876680  24.0204970  63.3964670
  24.5546060  24.6473890  64.0385740  25.0643360  24.5466850  62.6166340
  33.4010590  17.8350050  60.8641010  32.6966160  18.1234940  61.4444120
  33.7622750  18.6450160  60.5040570  23.3189160  16.0919750  63.2261620
  23.6605970  16.9361800  62.9315490  22.3804970  16.2403490  63.3426960
  24.0995780  25.9885770  65.2113850  24.7169780  26.6636850  64.9298300
  23.2388900  26.3973750  65.1201350  19.3928120  25.1785630  54.0920700
  19.0156100  25.6672730  53.3605600  19.6501190  25.8510910  54.7227230
  35.0173370  27.4525180  63.1268490  34.3336890  28.1224290  63.1185160
  35.5567660  27.6505830  62.3613350  36.4697510  17.2804840  61.2550220
  35.5222420  17.3143820  61.3865650  36.7947500  18.0943790  61.6399580
  27.0017050  13.5802020  59.5506210  27.3092030  13.0248910  58.8341710
  26.0717750  13.7146480  59.3679200  32.5532110  29.2969310  61.8413670
  32.5659270  28.8931600  60.9735930  32.0007330  30.0716600  61.7375100
  29.3766890  17.9167850  53.2833490  28.4370560  18.0781810  53.3685950
  29.6950150  18.6353530  52.7369480  35.8979650  22.5986370  63.2612520
  35.0698280  22.6679460  62.7862650  36.4930130  23.1840680  62.7928350
  32.8621660  19.3855690  64.2067390  32.4492840  20.2109400  64.4607380
  32.1297610  18.8000730  64.0143750  24.9954450  22.1715590  59.0686060
  24.5911450  21.4592840  58.5731960  25.0817570  21.8268830  59.9574100
  25.4636150  25.8583150  61.2325270  25.1664440  25.2528620  60.5533050
  26.4135970  25.8960460  61.1214630  23.7083070  18.9458800  62.8485100
  24.2597660  19.0554140  62.0738350  24.2226580  19.3196400  63.5640330
  33.5521760  29.4315020  64.8948370  33.0752320  30.2387210  64.7020980
  32.8683550  28.7793350  65.0474580  24.5554580  25.5964840  67.8833070
  23.6583110  25.8204810  68.1306470  24.5807450  25.7199780  66.9344470
  23.3825800  22.4678160  66.4590440  23.2433570  23.3400960  66.8277840
  22.5007160  22.1250970  66.3138380  25.1806150  28.4099860  68.6675590
  25.1521580  28.8142810  67.8004020  25.0171120  27.4810220  68.5047190
  35.1776940  13.7000770  52.1115370  34.8649600  13.7927600  53.0114440
  35.9389410  14.2781800  52.0612800  21.6959080  21.0660570  56.5692710
  21.5756680  21.7922660  55.9573980  21.3859970  20.2963480  56.0920620
  37.1320970  29.1926960  69.9639760  37.6080690  29.6709850  70.6428840
  37.7528130  29.1244450  69.2385260  19.3344450  24.2375710  62.3761350
  19.4124870  24.3724480  61.4317070  19.9486130  23.5291600  62.5689470
  20.5792080  25.9375900  58.7867530  20.1720160  26.0790490  57.9321130
  21.4705090  25.6536060  58.5838740  36.5354220  26.3839810  67.1239770
  36.6617280  26.1451690  66.2056950  36.5775600  25.5524350  67.5961850
  30.3970960  30.0867810  65.6934580  30.9115630  29.9975820  66.4957010
  29.5540040  30.4327510  65.9862490  24.8513740  30.1521680  56.8990200
  24.6756220  29.2357220  56.6858000  23.9969480  30.5108970  57.1388000
  36.3878230  18.4372270  68.0889510  35.7722500  18.9451940  67.5604970
  36.0674650  17.5370600  68.0315450  19.3903970  25.2789880  64.9155810
  19.5535010  24.8095240  64.0975180  19.8556420  24.7713440  65.5804650
  24.1622740  14.4095640  59.9516380  23.7190890  15.1905180  59.6200900
  24.7207730  14.7325530  60.6587320  28.4492550  17.2764160  65.5551700
  27.9871920  17.4847180  66.3671640  28.0470660  16.4623510  65.2522370
  33.4497060  18.4973110  66.6848360  32.5990650  18.1978860  67.0057430
  33.2898850  18.7415120  65.7732180  30.5446770  19.9974860  68.7847150
  30.8700180  19.1638610  68.4449380  31.3327100  20.5203380  68.9325480
  27.2781560  14.0306340  54.8322210  26.6535740  14.0266210  55.5575520
  27.1911680  13.1637300  54.4358180  26.1998640  14.9542970  61.8105980
  26.4970970  15.8605800  61.7298000  26.7484200  14.4661750  61.1965550
  23.9536960  19.5329210  57.6797630  23.7277880  19.3166380  58.5844250
  23.1729490  19.9657670  57.3343600  31.1834720  19.5392580  56.2788280
  30.5843610  20.2628380  56.0951900  31.7314330  19.4769360  55.4964730
  26.3936170  20.4314790  68.3457900  26.2979770  19.4909520  68.1958300
  27.2368150  20.6529860  67.9505970  29.7899590  18.1756120  58.3091560
  30.1829160  18.4928320  57.4960250  30.1516440  17.2968000  58.4236080
  21.5246710  16.8428460  66.4991680  21.1310100  17.6903670  66.7064460
  20.8365110  16.2054830  66.6900320  28.0991760  16.9263430  69.5688420
  27.4090080  16.7335630  70.2034510  28.8424060  17.2098070  70.1012720
  18.8263760  14.7656920  60.5321760  18.5376810  15.3359780  61.2446740
  19.5709520  14.2861370  60.8952990  19.0133990  18.7077040  51.7424480
  18.9308660  19.6507800  51.8839470  18.6617050  18.5651950  50.8636830
  30.3754730  20.7661870  62.4042340  29.6435850  21.2748680  62.7532440
  29.9779070  19.9491850  62.1031120  26.8132120  17.4416070  60.8094830
  26.8168180  17.0006020  59.9599370  27.7083240  17.7633400  60.9166650
  22.6634500  17.3242560  59.7689040  22.3234550  17.8017790  60.5256090
  21.9011820  16.8707680  59.4090140  26.8752270  18.4428150  53.8001590
  26.9965090  18.4014630  54.7487410  26.4900780  19.3052300  53.6448320
  30.8380640  16.2195550  61.8165280  30.8553380  16.6704200  62.6607130
  30.5896220  15.3201190  62.0298720  25.8873770  20.7529290  53.1984890
  25.3190670  20.3047540  52.5720800  26.5962770  21.1122070  52.6650040
  34.2651390  13.6327730  67.6551660  34.5897160  12.9017390  68.1809640
  34.3007900  13.3141370  66.7532650  20.9642950  24.6541310  67.0751620
  20.5797740  24.0134980  67.6734580  21.2755140  25.3577430  67.6446350
  27.1140090  21.5017850  62.5560240  27.4810220  21.0276420  63.3021580
  26.9245150  22.3759420  62.8968580  19.9780580  16.2461540  58.6853710
  19.6927500  15.8817210  59.5232330  19.9159440  15.5142000  58.0716850
  24.9039460  20.5426490  64.8744450  24.5996530  21.4218470  65.0994810
  25.8585920  20.6026280  64.9101890  23.4321250  24.7487480  55.4711300
  22.6583510  24.2085100  55.3110020  24.1615880  24.2294090  55.1329060
  29.6519170  15.1390800  55.4067080  28.8383780  14.6403970  55.3312390
  29.4581120  15.9789050  54.9903430  29.5728030  23.8161900  67.1506690
  29.5065340  22.8957570  66.8964280  28.9433170  23.9137340  67.8651330
  32.3667560  19.5110450  53.7029240  33.2547180  19.8227680  53.5280580
  32.3372650  18.6382700  53.3109820  23.4758650  24.4167860  59.1090110
  23.9937320  23.6136120  59.0547000  23.0242670  24.3547000  59.9506940
  20.9603190  21.3829230  66.0215810  20.6018130  22.0483080  66.6089150
  20.6657750  20.5512780  66.3928430  24.1616310  21.8413470  68.9055360
  23.8616450  21.9870650  68.0083180  24.9327550  21.2818760  68.8128750
  29.5044760  26.6382470  66.9010490  29.5189300  25.7063430  66.6829400
  28.7969860  26.7242230  67.5400260  34.6381830  20.8222290  53.1709100
  34.5545550  21.2536510  52.3205540  35.3576020  21.2820640  53.6035920
  35.7155970  23.2789810  66.2479070  34.9904160  23.8718590  66.0508460
  36.2431430  23.2713350  65.4492440  27.3318840  25.7647670  57.1533330
  28.0189970  26.3116880  57.5340920  26.5451260  26.3088400  57.1882940
  19.4711240  21.3820490  52.6450410  20.3406090  21.6645290  52.9286330
  18.9801560  22.1956360  52.5299220  26.6346050  22.7693700  56.7658690
  27.0908830  23.5798950  56.9918880  26.2834260  22.4516840  57.5977180
  28.9378660  28.2800040  63.9950990  29.5820880  28.4859420  64.6724410
  29.3008100  27.5188440  63.5421840  22.5357830  13.1131350  57.2381210
  22.4072460  13.1049250  58.1866130  21.7119850  13.4514440  56.8872220
  31.9848360  27.0827290  65.9164500  32.3204600  27.6693980  66.5942420
  31.0648700  26.9520000  66.1462290  19.8382490  30.5947870  53.2112040
  20.1980130  31.1937210  52.5569310  19.6974830  31.1407760  53.9847070
  19.5351760  14.8722470  66.6987910  18.8210280  15.0719390  67.3040520
  19.9546800  14.0962040  67.0702710  19.8224350  28.8602730  67.6854440
  19.9315470  27.9197470  67.5449830  19.1704910  29.1257480  67.0368170
  27.8136940  27.1318620  69.0852560  27.4933810  26.4127860  69.6298250
  27.1395300  27.8073690  69.1588620  25.8551110  27.9779070  54.0285710
  25.8461210  28.7108760  53.4130220  24.9349470  27.7310650  54.1212670
  21.4557750  23.1993960  54.7732470  20.8485700  23.9392860  54.7827770
  21.9307100  23.2893320  53.9470670  31.0290540  17.3644780  64.4489360
  31.3971360  16.5439990  64.7768930  30.1688740  17.4246670  64.8645010
  34.3952570  16.3201720  55.2576920  33.7665730  16.4247390  54.5435150
  33.9004490  16.5398500  56.0470800  26.3636600  18.5987670  56.6734800
  25.6552750  19.0674010  57.1148410  26.6481080  17.9409680  57.3079990
  27.9892530  20.0184370  64.6727330  28.4877780  20.4930190  65.3379180
  28.1315480  19.0947890  64.8797360  30.3952030  15.3238330  58.1130590
  30.2719810  15.3424460  57.1640100  31.3436590  15.3717270  58.2328990
  24.5671620  16.9072750  54.0485510  25.4162150  17.3442900  53.9825700
  24.2002890  17.2193010  54.8757570  35.1959390  16.2352330  65.5155720
  34.6932990  16.9757730  65.8549530  36.0116050  16.6236330  65.1992510
  33.4881400  21.4785510  58.9617080  32.5471540  21.4935740  59.1364770
  33.8025470  20.6921470  59.4077380  23.4663040  23.1605110  52.5221040
  24.2326310  23.0486470  53.0846470  23.5437730  22.4643080  51.8697810
  22.1609800  20.5930180  53.2053930  22.2413390  19.6457690  53.3171330
  23.0529550  20.9237060  53.3114590  35.4906980  28.6494360  60.6371340
  35.6154400  29.4725530  61.1095150  36.3572540  28.4385090  60.2895490
  22.9624510  30.7425570  60.3088470  23.6986990  30.1941030  60.5797040
  23.3465430  31.6081580  60.1694460  19.8469990  26.8099140  56.1829980
  18.9209770  27.0520280  56.1735390  20.3126420  27.6373400  56.0614730
  21.9682790  29.9271640  69.4974050  22.7695520  30.2483690  69.9109450
  21.4534610  29.5667220  70.2193960  26.0726820  29.9155880  52.1314040
  26.8655430  30.2044710  51.6795830  25.5531170  29.4848050  51.4526520
  30.8047420  26.0351510  69.4449460  30.1985580  26.0583110  68.7045210
  30.5001530  25.3034550  69.9816710  32.2347790  29.7631800  68.0558870
  33.1869540  29.6789820  68.0059110  32.0876010  30.4273510  68.7292660
  19.6880600  22.4145100  68.4410100  20.1919620  21.8352380  69.0126330
  18.9488020  22.6985330  68.9786470  26.7418540  23.8216090  67.9745620
  25.9764210  24.3901090  67.8900290  26.9234500  23.5292300  67.0813850
  33.8841890  25.5521420  68.5320640  34.6251360  25.8897180  68.0288100
  33.1214570  25.7213480  67.9790410  21.7203680  20.5574690  69.3360170
  21.7609020  20.2588560  70.2445400  22.5749180  20.9582300  69.1767690
  25.4982070  23.1570240  54.4963680  25.9198490  22.9910110  55.3395070
  25.6232910  22.3470470  54.0018820  23.6609490  19.1366790  67.3034660
  23.1305950  18.6457740  66.6758000  24.3297560  19.5650990  66.7692590
  28.0109710  22.1807850  51.7440780  28.5315370  21.4656870  51.3781930
  28.6578110  22.8193720  52.0441290  32.5587550  23.6036250  67.0675850
  32.9728570  23.7581330  67.9166270  31.6238550  23.7291470  67.2301630
  33.0309720  20.9432410  69.0715000  33.6130490  20.1884730  68.9835480
  33.2071490  21.4739850  68.2946480  24.1481790  16.1029160  67.3831950
  24.0538660  15.4849910  66.6582820  23.5679180  16.8295450  67.1561860
  26.9143230  14.6602400  64.4159340  26.4660530  14.6826660  63.5704890
  26.2808430  14.2621420  65.0129640  27.3202780  23.5556730  65.0371780
  27.7390890  24.3989460  64.8648020  26.4011410  23.6928770  64.8078560
  29.6566680  21.2872910  66.4209620  29.7762890  20.6914050  67.1604460
  30.5160680  21.3242600  66.0010920  31.9954580  21.8410100  64.9972130
  31.4689800  22.3652720  64.3937270  32.3385920  22.4737490  65.6281860
  24.3940970  19.2303470  51.4421840  24.1930030  18.3670830  51.8035180
  24.2233020  19.1436830  50.5043440  25.1710200  29.8609740  66.1529510
  24.6331290  30.5855800  65.8338210  25.4244160  29.3840080  65.3626850
  26.4235450  17.8294260  67.6785440  27.0135140  17.5210110  68.3663260
  25.6055690  17.3574010  67.8345340  31.2428880  17.4460070  67.9118460
  30.5544400  16.7841610  67.8468450  31.9634900  16.9998340  68.3566920
  31.8729280  14.0411700  53.9708720  32.1531570  13.1979600  54.3268140
  31.0995010  14.2734810  54.4847470  23.1923770  16.3304090  51.4299720
  23.4949670  16.3371520  50.5218870  23.9318360  15.9801950  51.9267380
  28.0272410  31.0960950  66.4116160  27.9531110  31.9996090  66.7188530
  27.1251250  30.7772850  66.3838230  26.4108700  15.2738710  52.4155920
  26.0630700  14.5962700  51.8358370  26.6121470  14.8128220  53.2299310
  22.2153900  25.6346510  52.2629520  22.6528770  26.1776180  52.9187100
  22.7001630  24.8093460  52.2725860  19.4299700  28.4235540  59.7149780
  19.7602710  27.5556600  59.4828420  19.8590700  28.6294060  60.5454740
  24.0261620  26.7544550  57.3751750  23.7257160  26.6309520  58.2755660
  23.9199110  25.8953140  56.9667480  19.9189910  29.2906130  62.4531410
  19.4820900  29.4706930  63.2855560  20.4867590  30.0480750  62.3113130
  35.5552090  28.7923130  66.7408720  34.9554080  28.8515690  65.9972640
  35.6845990  27.8528110  66.8705570  19.7514340  21.8026360  58.8120290
  19.0963180  21.5338000  58.1679990  20.5892290  21.6930840  58.3622270
  34.2403730  25.5175110  64.8384880  33.4263570  25.9472270  65.1010670
  34.6477930  26.1293520  64.2253930  32.7004780  16.5967650  53.0338780
  33.1189660  16.4098630  52.1935440  32.3940840  15.7446700  53.3441710
  20.7890270  22.1878930  63.3523630  21.1563310  22.1006330  64.2319650
  20.2201090  21.4245480  63.2530490  35.5894130  20.6563310  66.3654100
  35.3580220  20.4276060  65.4652050  35.8498680  21.5762860  66.3198990
  20.3406270  19.0988020  67.2582050  19.4462320  19.0654780  67.5975760
  20.8803820  19.2974810  68.0233300  34.0282200  15.8819740  69.1433800
  34.9052380  15.8903140  69.5267800  34.0403040  15.1450580  68.5326150
  18.9652420  19.0125290  54.7545620  18.0616500  19.2755490  54.5797280
  19.4493040  19.2836460  53.9745580  35.4745470  19.7349280  60.0321820
  35.9982950  19.2411930  59.4011990  36.0604890  19.8699640  60.7769390
  35.6535190  19.8189150  63.5541370  34.7037900  19.7852690  63.6686360
  35.8348200  20.7289260  63.3191140  21.5079630  18.0690830  52.6640000
  22.2171330  17.6474050  52.1787280  20.7919570  18.1366060  52.0323350
  21.1553790  14.1230160  51.7042650  21.8781920  14.6639100  52.0223870
  21.4278310  13.8493580  50.8284190  34.9645440  18.9922630  55.9714230
  35.4604560  18.7593500  56.7563110  34.7661510  18.1534470  55.5551870
  20.8445980  13.3736350  61.6065270  21.4922170  12.8233730  61.1660430
  21.2647820  13.6279500  62.4281080  36.3932600  17.6283580  58.5051910
  36.2831880  17.4739620  59.4434180  37.1540190  17.1004520  58.2627320
  34.7398320  13.5677710  64.9634910  35.3770540  14.1811850  65.3294100
  34.8873210  13.6038370  64.0184140  37.2822870  15.4591500  51.7458050
  38.2072180  15.3272680  51.5376340  37.2598660  15.5384320  52.6994500
  37.3561360  16.2302160  54.3714760  36.5612860  16.1647280  54.9007670
  37.5604640  17.1652800  54.3600110  20.5977980  13.5292020  64.3490590
  20.2492800  13.9855840  65.1148770  20.2665680  12.6349150  64.4313020
  22.2042350  26.7011620  68.5143780  22.1611980  26.3304530  69.3958240
  22.3353360  27.6389190  68.6545600  25.9048380  28.2571210  64.1153500
  25.6639740  28.5245770  63.2284020  26.8451020  28.4276940  64.1704360
  28.1102800  14.7203900  67.8710010  28.0491690  15.3125730  68.6205420
  29.0503180  14.6129860  67.7260270  30.7477360  14.3773960  67.5102300
  31.3617770  14.6953250  66.8483380  31.2926920  13.8922550  68.1298160
  37.1652540  30.2765590  64.9164140  36.6710820  30.6734460  64.1991270
  36.5565830  29.6514800  65.3101420  21.2698620  13.0568220  67.6241360
  21.8181610  12.8756270  66.8607470  21.3353930  12.2662330  68.1597670
  22.0430380  29.6473870  65.6341560  21.4490700  29.5158570  66.3731600
  22.0354220  28.8112010  65.1683660  31.4885400  12.9406100  63.8371590
  30.6145240  13.2741210  63.6344520  31.3796150  12.4679280  64.6623460
  32.3957380  15.1476970  65.2213310  32.0670740  14.3328730  64.8415040
  33.3439680  15.1046780  65.0979000  34.8491990  30.9189010  62.1950880
  34.3894960  31.6704820  61.8208900  34.2204450  30.1995480  62.1365680
  21.6742610  27.0132250  64.5849600  20.9476670  26.3937540  64.5175550
  21.7351760  27.4072860  63.7147680  25.2787710  29.2277250  61.3699010
  25.7952730  28.6164610  60.8447270  25.9285090  29.7306030  61.8610020
  28.0183210  30.1185740  62.1967990  28.3061020  29.8640040  61.3201000
  28.5306430  29.5663100  62.7873560  29.2360220  13.8575940  62.7764500
  28.4532010  14.3321440  63.0561260  28.9423150  12.9530770  62.6677680
  33.7881290  14.5599040  60.8213590  34.2289380  14.5044140  59.9735190
  33.5188880  15.4757050  60.8923770  35.6519860  14.1914280  58.8322410
  35.5908260  13.2475500  58.6853430  36.4311890  14.2994370  59.3775870
  19.9572610  30.3306640  57.7946360  19.7894650  29.6977320  58.4928250
  19.0907120  30.5366040  57.4440550  20.5800630  14.1623420  55.2978220
  21.3379990  14.2752300  54.7242250  20.1177800  14.9992620  55.2521650
  27.1214440  16.2762690  58.2880530  26.3088950  15.9019580  57.9476410
  27.6256080  15.5207770  58.5901720  31.6239420  12.9405140  59.5263600
  32.2268790  13.5125350  60.0012120  30.8832410  13.5044580  59.3037500
  34.7674020  13.3426700  54.8003880  34.9624650  14.2410150  55.0671310
  33.9803890  13.1113780  55.2936830  21.5635310  29.0239870  55.2396500
  21.0382930  29.4047900  54.5358460  21.4879890  29.6490640  55.9606210
  22.9525780  14.6887470  53.8380190  23.4818540  13.9017270  53.7088140
  23.5854100  15.3678660  54.0715720  25.1463620  14.4262610  56.8925580
  24.5166360  13.7249920  57.0595710  24.6068760  15.1866740  56.6758740
  28.0855570  31.0401840  69.5636190  29.0122880  30.8046110  69.6072150
  28.0706000  31.8673840  69.0822220  25.2719180  13.7046590  69.3278070
  24.9903450  14.2080190  68.5638890  25.6538880  12.9068340  68.9620200
  24.1628280  30.9722250  54.1145750  24.8947100  30.6881530  53.5669640
  24.4221950  30.7335530  55.0045130  23.3243070  27.0886980  54.1192080
  22.6951950  27.5572080  54.6677910  23.4390900  26.2436200  54.5538270
  31.8734640  13.1200170  69.9058540  31.7600090  13.4394780  70.8010060
  32.6904380  13.5212680  69.6095820  34.6533130  30.2671700  69.3877230
  35.4458450  29.7720930  69.1803190  34.9466280  30.9461840  69.9952840
  30.7792790  21.1392640  40.2693280  30.6986840  20.2247250  39.9984990
  30.3657210  21.6359710  39.5632990  28.9110830  22.9171660  42.1502550
  28.1352930  22.4372100  42.4401120  29.5623760  22.2377310  41.9758710
  22.9276660  23.2291470  43.0278310  22.0961540  22.9740180  43.4274820
  23.5357640  23.3002240  43.7636230  22.9077920  27.2631560  43.2236330
  23.2105960  26.3729300  43.0446550  23.6521510  27.8201780  42.9958580
  21.3368610  18.1893360  36.8120700  20.4485310  18.5309330  36.7100580
  21.6209800  17.9893680  35.9201530  19.3001620  20.7899010  42.6960400
  19.8717730  20.0221210  42.6964040  19.3003160  21.0887770  41.7867010
  20.5426490  16.1983370  44.4829330  20.3629330  15.3009120  44.7632090
  20.1406570  16.7455240  45.1576280  29.3824990  18.3999230  42.3841640
  29.7589810  17.5271110  42.2715310  29.2844500  18.7357930  41.4932080
  23.5130000  16.7724860  37.8459080  23.6196750  17.6728590  38.1527840
  22.6022360  16.7242830  37.5553730  33.1649110  15.8949670  39.3169980
  33.9858730  15.4046240  39.3595460  33.1983190  16.4847330  40.0701820
  21.1613160  18.6943870  43.0911670  21.8423270  18.9582240  43.7099070
  20.8461210  17.8544740  43.4249680  25.3537730  19.7411230  42.1784260
  25.8615950  20.2392200  42.8189280  25.8850970  18.9646430  42.0023620
  37.4548660  17.9116420  45.8813610  36.7500830  18.2998130  45.3628720
  37.7206580  18.6066710  46.4834540  23.6373830  14.3809790  46.4447680
  23.6392270  14.8982180  45.6393580  22.8078140  13.9039970  46.4217610
  24.8876680  24.0204970  44.6221180  24.5546060  24.6473890  45.2642250
  25.0643360  24.5466850  43.8422850  33.4010590  17.8350050  42.0897520
  32.6966160  18.1234940  42.6700630  33.7622750  18.6450160  41.7297080
  23.3189160  16.0919750  44.4518130  23.6605970  16.9361800  44.1572000
  22.3804970  16.2403490  44.5683470  24.0995780  25.9885770  46.4370360
  24.7169780  26.6636850  46.1554810  23.2388900  26.3973750  46.3457860
  19.3928120  25.1785630  35.3177210  19.0156100  25.6672730  34.5862110
  19.6501190  25.8510910  35.9483740  36.4697510  17.2804840  42.4806730
  35.5222420  17.3143820  42.6122160  36.7947500  18.0943790  42.8656090
  27.0017050  13.5802020  40.7762720  27.3092030  13.0248910  40.0598220
  26.0717750  13.7146480  40.5935710  29.3897810  21.6450850  37.5122840
  28.4627090  21.5788230  37.7411310  29.5422630  22.5830980  37.3978080
  29.3766890  17.9167850  34.5090000  28.4370560  18.0781810  34.5942460
  29.6950150  18.6353530  33.9625990  32.8621660  19.3855690  45.4323900
  32.4492840  20.2109400  45.6863890  32.1297610  18.8000730  45.2400260
  24.9954450  22.1715590  40.2942570  24.5911450  21.4592840  39.7988470
  25.0817570  21.8268830  41.1830610  23.7083070  18.9458800  44.0741610
  24.2597660  19.0554140  43.2994860  24.2226580  19.3196400  44.7896840
  24.5554580  25.5964840  49.1089580  23.6583110  25.8204810  49.3562980
  24.5807450  25.7199780  48.1600980  31.5959800  22.4457960  35.0230840
  32.0353080  21.6080390  34.8768660  32.3088220  23.0787360  35.1094980
  23.3825800  22.4678160  47.6846950  23.2433570  23.3400960  48.0534350
  22.5007160  22.1250970  47.5394890  25.1806150  28.4099860  49.8932100
  25.1521580  28.8142810  49.0260530  25.0171120  27.4810220  49.7303700
  35.1776940  13.7000770  33.3371880  34.8649600  13.7927600  34.2370950
  35.9389410  14.2781800  33.2869310  21.6959080  21.0660570  37.7949220
  21.5756680  21.7922660  37.1830490  21.3859970  20.2963480  37.3177130
  19.3344450  24.2375710  43.6017860  19.4124870  24.3724480  42.6573580
  19.9486130  23.5291600  43.7945980  20.5792080  25.9375900  40.0124040
  20.1720160  26.0790490  39.1577640  21.4705090  25.6536060  39.8095250
  24.8513740  30.1521680  38.1246710  24.6756220  29.2357220  37.9114510
  23.9969480  30.5108970  38.3644510  36.3878230  18.4372270  49.3146020
  35.7722500  18.9451940  48.7861480  36.0674650  17.5370600  49.2571960
  19.3903970  25.2789880  46.1412320  19.5535010  24.8095240  45.3231690
  19.8556420  24.7713440  46.8061160  24.1622740  14.4095640  41.1772890
  23.7190890  15.1905180  40.8457410  24.7207730  14.7325530  41.8843830
  28.4492550  17.2764160  46.7808210  27.9871920  17.4847180  47.5928150
  28.0470660  16.4623510  46.4778880  33.4497060  18.4973110  47.9104870
  32.5990650  18.1978860  48.2313940  33.2898850  18.7415120  46.9988690
  30.5446770  19.9974860  50.0103660  30.8700180  19.1638610  49.6705890
  31.3327100  20.5203380  50.1581990  27.2781560  14.0306340  36.0578720
  26.6535740  14.0266210  36.7832030  27.1911680  13.1637300  35.6614690
  26.1998640  14.9542970  43.0362490  26.4970970  15.8605800  42.9554510
  26.7484200  14.4661750  42.4222060  23.9536960  19.5329210  38.9054140
  23.7277880  19.3166380  39.8100760  23.1729490  19.9657670  38.5600110
  31.1834720  19.5392580  37.5044790  30.5843610  20.2628380  37.3208410
  31.7314330  19.4769360  36.7221240  26.3936170  20.4314790  49.5714410
  26.2979770  19.4909520  49.4214810  27.2368150  20.6529860  49.1762480
  29.7899590  18.1756120  39.5348070  30.1829160  18.4928320  38.7216760
  30.1516440  17.2968000  39.6492590  21.5246710  16.8428460  47.7248190
  21.1310100  17.6903670  47.9320970  20.8365110  16.2054830  47.9156830
  28.0991760  16.9263430  50.7944930  27.4090080  16.7335630  51.4291020
  28.8424060  17.2098070  51.3269230  18.8263760  14.7656920  41.7578270
  18.5376810  15.3359780  42.4703250  19.5709520  14.2861370  42.1209500
  19.0133990  18.7077040  32.9680990  18.9308660  19.6507800  33.1095980
  18.6617050  18.5651950  32.0893340  30.3754730  20.7661870  43.6298850
  29.6435850  21.2748680  43.9788950  29.9779070  19.9491850  43.3287630
  26.8132120  17.4416070  42.0351340  26.8168180  17.0006020  41.1855880
  27.7083240  17.7633400  42.1423160  22.6634500  17.3242560  40.9945550
  22.3234550  17.8017790  41.7512600  21.9011820  16.8707680  40.6346650
  26.8752270  18.4428150  35.0258100  26.9965090  18.4014630  35.9743920
  26.4900780  19.3052300  34.8704830  30.8380640  16.2195550  43.0421790
  30.8553380  16.6704200  43.8863640  30.5896220  15.3201190  43.2555230
  25.8873770  20.7529290  34.4241400  25.3190670  20.3047540  33.7977310
  26.5962770  21.1122070  33.8906550  34.2651390  13.6327730  48.8808170
  34.5897160  12.9017390  49.4066150  34.3007900  13.3141370  47.9789160
  20.9642950  24.6541310  48.3008130  20.5797740  24.0134980  48.8991090
  21.2755140  25.3577430  48.8702860  27.1140090  21.5017850  43.7816750
  27.4810220  21.0276420  44.5278090  26.9245150  22.3759420  44.1225090
  19.9780580  16.2461540  39.9110220  19.6927500  15.8817210  40.7488840
  19.9159440  15.5142000  39.2973360  24.9039460  20.5426490  46.1000960
  24.5996530  21.4218470  46.3251320  25.8585920  20.6026280  46.1358400
  23.4321250  24.7487480  36.6967810  22.6583510  24.2085100  36.5366530
  24.1615880  24.2294090  36.3585570  29.6519170  15.1390800  36.6323590
  28.8383780  14.6403970  36.5568900  29.4581120  15.9789050  36.2159940
  32.3667560  19.5110450  34.9285750  33.2547180  19.8227680  34.7537090
  32.3372650  18.6382700  34.5366330  23.4758650  24.4167860  40.3346620
  23.9937320  23.6136120  40.2803510  23.0242670  24.3547000  41.1763450
  20.9603190  21.3829230  47.2472320  20.6018130  22.0483080  47.8345660
  20.6657750  20.5512780  47.6184940  24.1616310  21.8413470  50.1311870
  23.8616450  21.9870650  49.2339690  24.9327550  21.2818760  50.0385260
  34.6381830  20.8222290  34.3965610  34.5545550  21.2536510  33.5462050
  35.3576020  21.2820640  34.8292430  19.4711240  21.3820490  33.8706920
  20.3406090  21.6645290  34.1542840  18.9801560  22.1956360  33.7555730
  26.6346050  22.7693700  37.9915200  27.0908830  23.5798950  38.2175390
  26.2834260  22.4516840  38.8233690  22.5357830  13.1131350  38.4637720
  22.4072460  13.1049250  39.4122640  21.7119850  13.4514440  38.1128730
  19.8382490  30.5947870  34.4368550  20.1980130  31.1937210  33.7825820
  19.6974830  31.1407760  35.2103580  19.5351760  14.8722470  47.9244420
  18.8210280  15.0719390  48.5297030  19.9546800  14.0962040  48.2959220
  19.8224350  28.8602730  48.9110950  19.9315470  27.9197470  48.7706340
  19.1704910  29.1257480  48.2624680  21.4557750  23.1993960  35.9988980
  20.8485700  23.9392860  36.0084280  21.9307100  23.2893320  35.1727180
  31.0290540  17.3644780  45.6745870  31.3971360  16.5439990  46.0025440
  30.1688740  17.4246670  46.0901520  34.3952570  16.3201720  36.4833430
  33.7665730  16.4247390  35.7691660  33.9004490  16.5398500  37.2727310
  26.3636600  18.5987670  37.8991310  25.6552750  19.0674010  38.3404920
  26.6481080  17.9409680  38.5336500  27.9892530  20.0184370  45.8983840
  28.4877780  20.4930190  46.5635690  28.1315480  19.0947890  46.1053870
  30.3952030  15.3238330  39.3387100  30.2719810  15.3424460  38.3896610
  31.3436590  15.3717270  39.4585500  24.5671620  16.9072750  35.2742020
  25.4162150  17.3442900  35.2082210  24.2002890  17.2193010  36.1014080
  35.1959390  16.2352330  46.7412230  34.6932990  16.9757730  47.0806040
  36.0116050  16.6236330  46.4249020  33.4881400  21.4785510  40.1873590
  32.5471540  21.4935740  40.3621280  33.8025470  20.6921470  40.6333890
  23.4663040  23.1605110  33.7477550  24.2326310  23.0486470  34.3102980
  23.5437730  22.4643080  33.0954320  22.1609800  20.5930180  34.4310440
  22.2413390  19.6457690  34.5427840  23.0529550  20.9237060  34.5371100
  22.9624510  30.7425570  41.5344980  23.6986990  30.1941030  41.8053550
  23.3465430  31.6081580  41.3950970  19.8469990  26.8099140  37.4086490
  18.9209770  27.0520280  37.3991900  20.3126420  27.6373400  37.2871240
  21.9682790  29.9271640  50.7230560  22.7695520  30.2483690  51.1365960
  21.4534610  29.5667220  51.4450470  19.6880600  22.4145100  49.6666610
  20.1919620  21.8352380  50.2382840  18.9488020  22.6985330  50.2042980
  21.7203680  20.5574690  50.5616680  21.7609020  20.2588560  51.4701910
  22.5749180  20.9582300  50.4024200  25.4982070  23.1570240  35.7220190
  25.9198490  22.9910110  36.5651580  25.6232910  22.3470470  35.2275330
  23.6609490  19.1366790  48.5291170  23.1305950  18.6457740  47.9014510
  24.3297560  19.5650990  47.9949100  28.0109710  22.1807850  32.9697290
  28.5315370  21.4656870  32.6038440  28.6578110  22.8193720  33.2697800
  33.0309720  20.9432410  50.2971510  33.6130490  20.1884730  50.2091990
  33.2071490  21.4739850  49.5202990  24.1481790  16.1029160  48.6088460
  24.0538660  15.4849910  47.8839330  23.5679180  16.8295450  48.3818370
  26.9143230  14.6602400  45.6415850  26.4660530  14.6826660  44.7961400
  26.2808430  14.2621420  46.2386150  27.3202780  23.5556730  46.2628290
  27.7390890  24.3989460  46.0904530  26.4011410  23.6928770  46.0335070
  29.6566680  21.2872910  47.6466130  29.7762890  20.6914050  48.3860970
  30.5160680  21.3242600  47.2267430  24.3940970  19.2303470  32.6678350
  24.1930030  18.3670830  33.0291690  24.2233020  19.1436830  31.7299950
  25.1710200  29.8609740  47.3786020  24.6331290  30.5855800  47.0594720
  25.4244160  29.3840080  46.5883360  26.4235450  17.8294260  48.9041950
  27.0135140  17.5210110  49.5919770  25.6055690  17.3574010  49.0601850
  31.2428880  17.4460070  49.1374970  30.5544400  16.7841610  49.0724960
  31.9634900  16.9998340  49.5823430  31.8729280  14.0411700  35.1965230
  32.1531570  13.1979600  35.5524650  31.0995010  14.2734810  35.7103980
  23.1923770  16.3304090  32.6556230  23.4949670  16.3371520  31.7475380
  23.9318360  15.9801950  33.1523890  26.4108700  15.2738710  33.6412430
  26.0630700  14.5962700  33.0614880  26.6121470  14.8128220  34.4555820
  22.2153900  25.6346510  33.4886030  22.6528770  26.1776180  34.1443610
  22.7001630  24.8093460  33.4982370  19.4299700  28.4235540  40.9406290
  19.7602710  27.5556600  40.7084930  19.8590700  28.6294060  41.7711250
  24.0261620  26.7544550  38.6008260  23.7257160  26.6309520  39.5012170
  23.9199110  25.8953140  38.1923990  19.9189910  29.2906130  43.6787920
  19.4820900  29.4706930  44.5112070  20.4867590  30.0480750  43.5369640
  19.7514340  21.8026360  40.0376800  19.0963180  21.5338000  39.3936500
  20.5892290  21.6930840  39.5878780  36.3029170  23.5722800  32.9641660
  36.5778010  24.4801680  32.8360880  36.1139910  23.5085330  33.9003650
  32.7004780  16.5967650  34.2595290  33.1189660  16.4098630  33.4191950
  32.3940840  15.7446700  34.5698220  36.1994510  21.5091790  37.9571090
  35.8238110  20.7419720  37.5252380  35.4697630  21.8914490  38.4446020
  20.7890270  22.1878930  44.5780140  21.1563310  22.1006330  45.4576160
  20.2201090  21.4245480  44.4787000  20.3406270  19.0988020  48.4838560
  19.4462320  19.0654780  48.8232270  20.8803820  19.2974810  49.2489810
  34.0282200  15.8819740  50.3690310  34.9052380  15.8903140  50.7524310
  34.0403040  15.1450580  49.7582660  18.9652420  19.0125290  35.9802130
  18.0616500  19.2755490  35.8053790  19.4493040  19.2836460  35.2002090
  35.4745470  19.7349280  41.2578330  35.9982950  19.2411930  40.6268500
  36.0604890  19.8699640  42.0025900  35.6535190  19.8189150  44.7797880
  34.7037900  19.7852690  44.8942870  35.8348200  20.7289260  44.5447650
  21.5079630  18.0690830  33.8896510  22.2171330  17.6474050  33.4043790
  20.7919570  18.1366060  33.2579860  21.1553790  14.1230160  32.9299160
  21.8781920  14.6639100  33.2480380  21.4278310  13.8493580  32.0540700
  34.9645440  18.9922630  37.1970740  35.4604560  18.7593500  37.9819620
  34.7661510  18.1534470  36.7808380  20.8445980  13.3736350  42.8321780
  21.4922170  12.8233730  42.3916940  21.2647820  13.6279500  43.6537590
  36.3932600  17.6283580  39.7308420  36.2831880  17.4739620  40.6690690
  37.1540190  17.1004520  39.4883830  34.7398320  13.5677710  46.1891420
  35.3770540  14.1811850  46.5550610  34.8873210  13.6038370  45.2440650
  37.2822870  15.4591500  32.9714560  38.2072180  15.3272680  32.7632850
  37.2598660  15.5384320  33.9251010  37.3561360  16.2302160  35.5971270
  36.5612860  16.1647280  36.1264180  37.5604640  17.1652800  35.5856620
  20.5977980  13.5292020  45.5747100  20.2492800  13.9855840  46.3405280
  20.2665680  12.6349150  45.6569530  22.2042350  26.7011620  49.7400290
  22.1611980  26.3304530  50.6214750  22.3353360  27.6389190  49.8802110
  28.1102800  14.7203900  49.0966520  28.0491690  15.3125730  49.8461930
  29.0503180  14.6129860  48.9516780  30.7477360  14.3773960  48.7358810
  31.3617770  14.6953250  48.0739890  31.2926920  13.8922550  49.3554670
  21.2698620  13.0568220  48.8497870  21.8181610  12.8756270  48.0863980
  21.3353930  12.2662330  49.3854180  22.0430380  29.6473870  46.8598070
  21.4490700  29.5158570  47.5988110  22.0354220  28.8112010  46.3940170
  31.4885400  12.9406100  45.0628100  30.6145240  13.2741210  44.8601030
  31.3796150  12.4679280  45.8879970  32.3957380  15.1476970  46.4469820
  32.0670740  14.3328730  46.0671550  33.3439680  15.1046780  46.3235510
  21.6742610  27.0132250  45.8106110  20.9476670  26.3937540  45.7432060
  21.7351760  27.4072860  44.9404190  29.2360220  13.8575940  44.0021010
  28.4532010  14.3321440  44.2817770  28.9423150  12.9530770  43.8934190
  33.7881290  14.5599040  42.0470100  34.2289380  14.5044140  41.1991700
  33.5188880  15.4757050  42.1180280  35.6519860  14.1914280  40.0578920
  35.5908260  13.2475500  39.9109940  36.4311890  14.2994370  40.6032380
  19.9572610  30.3306640  39.0202870  19.7894650  29.6977320  39.7184760
  19.0907120  30.5366040  38.6697060  20.5800630  14.1623420  36.5234730
  21.3379990  14.2752300  35.9498760  20.1177800  14.9992620  36.4778160
  27.1214440  16.2762690  39.5137040  26.3088950  15.9019580  39.1732920
  27.6256080  15.5207770  39.8158230  31.6239420  12.9405140  40.7520110
  32.2268790  13.5125350  41.2268630  30.8832410  13.5044580  40.5294010
  34.7674020  13.3426700  36.0260390  34.9624650  14.2410150  36.2927820
  33.9803890  13.1113780  36.5193340  21.5635310  29.0239870  36.4653010
  21.0382930  29.4047900  35.7614970  21.4879890  29.6490640  37.1862720
  22.9525780  14.6887470  35.0636700  23.4818540  13.9017270  34.9344650
  23.5854100  15.3678660  35.2972230  25.1463620  14.4262610  38.1182090
  24.5166360  13.7249920  38.2852220  24.6068760  15.1866740  37.9015250
  25.2719180  13.7046590  50.5534580  24.9903450  14.2080190  49.7895400
  25.6538880  12.9068340  50.1876710  24.1628280  30.9722250  35.3402260
  24.8947100  30.6881530  34.7926150  24.4221950  30.7335530  36.2301640
  23.3243070  27.0886980  35.3448590  22.6951950  27.5572080  35.8934420
  23.4390900  26.2436200  35.7794780  31.8734640  13.1200170  51.1315050
  31.7600090  13.4394780  52.0266570  32.6904380  13.5212680  50.8352330
  30.7792790  21.1392640  21.4949790  30.6986840  20.2247250  21.2241500
  30.3657210  21.6359710  20.7889500  28.9110830  22.9171660  23.3759060
  28.1352930  22.4372100  23.6657630  29.5623760  22.2377310  23.2015220
  22.9276660  23.2291470  24.2534820  22.0961540  22.9740180  24.6531330
  23.5357640  23.3002240  24.9892740  32.9318260  27.3231850  22.1558190
  32.4699790  26.5519090  22.4845360  33.7443810  27.3497920  22.6610640
  22.9077920  27.2631560  24.4492840  23.2105960  26.3729300  24.2703060
  23.6521510  27.8201780  24.2215090  21.3368610  18.1893360  18.0377210
  20.4485310  18.5309330  17.9357090  21.6209800  17.9893680  17.1458040
  19.3001620  20.7899010  23.9216910  19.8717730  20.0221210  23.9220550
  19.3003160  21.0887770  23.0123520  29.1581570  29.6089860  21.7762180
  28.5393010  30.0647360  21.2056620  30.0133350  29.7641320  21.3751880
  28.3519820  25.5928850  23.3829220  28.2828100  24.6518790  23.2218350
  29.1139680  25.6830260  23.9551790  20.5426490  16.1983370  25.7085840
  20.3629330  15.3009120  25.9888600  20.1406570  16.7455240  26.3832790
  29.3824990  18.3999230  23.6098150  29.7589810  17.5271110  23.4971820
  29.2844500  18.7357930  22.7188590  23.5130000  16.7724860  19.0715590
  23.6196750  17.6728590  19.3784350  22.6022360  16.7242830  18.7810240
  33.1649110  15.8949670  20.5426490  33.9858730  15.4046240  20.5851970
  33.1983190  16.4847330  21.2958330  21.1613160  18.6943870  24.3168180
  21.8423270  18.9582240  24.9355580  20.8461210  17.8544740  24.6506190
  25.3537730  19.7411230  23.4040770  25.8615950  20.2392200  24.0445790
  25.8850970  18.9646430  23.2280130  37.4548660  17.9116420  27.1070120
  36.7500830  18.2998130  26.5885230  37.7206580  18.6066710  27.7091050
  23.6373830  14.3809790  27.6704190  23.6392270  14.8982180  26.8650090
  22.8078140  13.9039970  27.6474120  30.0244920  24.4929100  19.1694090
  29.4062190  24.9578550  18.6056810  30.5368170  25.1856580  19.5863600
  24.8876680  24.0204970  25.8477690  24.5546060  24.6473890  26.4898760
  25.0643360  24.5466850  25.0679360  33.4010590  17.8350050  23.3154030
  32.6966160  18.1234940  23.8957140  33.7622750  18.6450160  22.9553590
  23.3189160  16.0919750  25.6774640  23.6605970  16.9361800  25.3828510
  22.3804970  16.2403490  25.7939980  24.0995780  25.9885770  27.6626870
  24.7169780  26.6636850  27.3811320  23.2388900  26.3973750  27.5714370
  19.3928120  25.1785630  16.5433720  19.0156100  25.6672730  15.8118620
  19.6501190  25.8510910  17.1740250  36.4697510  17.2804840  23.7063240
  35.5222420  17.3143820  23.8378670  36.7947500  18.0943790  24.0912600
  27.0017050  13.5802020  22.0019230  27.3092030  13.0248910  21.2854730
  26.0717750  13.7146480  21.8192220  33.8477530  26.0185530  19.3816860
  33.7373860  25.0759860  19.5066280  33.8445780  26.3801170  20.2679620
  29.3897810  21.6450850  18.7379350  28.4627090  21.5788230  18.9667820
  29.5422630  22.5830980  18.6234590  29.3766890  17.9167850  15.7346510
  28.4370560  18.0781810  15.8198970  29.6950150  18.6353530  15.1882500
  35.8979650  22.5986370  25.7125540  35.0698280  22.6679460  25.2375670
  36.4930130  23.1840680  25.2441370  33.4195100  23.2071150  19.2414600
  32.8007520  22.8690700  18.5940900  33.4019550  22.5630910  19.9493790
  32.8621660  19.3855690  26.6580410  32.4492840  20.2109400  26.9120400
  32.1297610  18.8000730  26.4656770  24.9954450  22.1715590  21.5199080
  24.5911450  21.4592840  21.0244980  25.0817570  21.8268830  22.4087120
  25.4636150  25.8583150  23.6838290  25.1664440  25.2528620  23.0046070
  26.4135970  25.8960460  23.5727650  23.7083070  18.9458800  25.2998120
  24.2597660  19.0554140  24.5251370  24.2226580  19.3196400  26.0153350
  31.5959800  22.4457960  16.2487350  32.0353080  21.6080390  16.1025170
  32.3088220  23.0787360  16.3351490  23.3825800  22.4678160  28.9103460
  23.2433570  23.3400960  29.2790860  22.5007160  22.1250970  28.7651400
  29.7055180  27.3854030  20.2168590  30.1451090  28.1278360  19.8023980
  29.6442070  27.6280600  21.1407550  35.1776940  13.7000770  14.5628390
  34.8649600  13.7927600  15.4627460  35.9389410  14.2781800  14.5125820
  21.6959080  21.0660570  19.0205730  21.5756680  21.7922660  18.4087000
  21.3859970  20.2963480  18.5433640  19.3344450  24.2375710  24.8274370
  19.4124870  24.3724480  23.8830090  19.9486130  23.5291600  25.0202490
  20.5792080  25.9375900  21.2380550  20.1720160  26.0790490  20.3834150
  21.4705090  25.6536060  21.0351760  32.3725360  30.3723150  17.5731600
  32.2126500  30.0826090  18.4713430  32.2072070  29.5963280  17.0376830
  24.8513740  30.1521680  19.3503220  24.6756220  29.2357220  19.1371020
  23.9969480  30.5108970  19.5901020  32.0751490  27.8810710  16.1329600
  31.3816650  27.8788000  15.4731880  32.8174350  27.4570030  15.7023770
  31.6401420  29.5073420  20.2078090  32.0958370  28.7262800  20.5216710
  31.9793940  30.2180240  20.7519270  36.3878230  18.4372270  30.5402530
  35.7722500  18.9451940  30.0117990  36.0674650  17.5370600  30.4828470
  19.3903970  25.2789880  27.3668830  19.5535010  24.8095240  26.5488200
  19.8556420  24.7713440  28.0317670  24.1622740  14.4095640  22.4029400
  23.7190890  15.1905180  22.0713920  24.7207730  14.7325530  23.1100340
  28.4492550  17.2764160  28.0064720  27.9871920  17.4847180  28.8184660
  28.0470660  16.4623510  27.7035390  33.4497060  18.4973110  29.1361380
  32.5990650  18.1978860  29.4570450  33.2898850  18.7415120  28.2245200
  30.5446770  19.9974860  31.2360170  30.8700180  19.1638610  30.8962400
  31.3327100  20.5203380  31.3838500  27.2781560  14.0306340  17.2835230
  26.6535740  14.0266210  18.0088540  27.1911680  13.1637300  16.8871200
  26.1998640  14.9542970  24.2619000  26.4970970  15.8605800  24.1811020
  26.7484200  14.4661750  23.6478570  23.9536960  19.5329210  20.1310650
  23.7277880  19.3166380  21.0357270  23.1729490  19.9657670  19.7856620
  31.1834720  19.5392580  18.7301300  30.5843610  20.2628380  18.5464920
  31.7314330  19.4769360  17.9477750  26.3936170  20.4314790  30.7970920
  26.2979770  19.4909520  30.6471320  27.2368150  20.6529860  30.4018990
  29.7899590  18.1756120  20.7604580  30.1829160  18.4928320  19.9473270
  30.1516440  17.2968000  20.8749100  21.5246710  16.8428460  28.9504700
  21.1310100  17.6903670  29.1577480  20.8365110  16.2054830  29.1413340
  28.0991760  16.9263430  32.0201440  27.4090080  16.7335630  32.6547530
  28.8424060  17.2098070  32.5525740  18.8263760  14.7656920  22.9834780
  18.5376810  15.3359780  23.6959760  19.5709520  14.2861370  23.3466010
  19.0133990  18.7077040  14.1937500  18.9308660  19.6507800  14.3352490
  18.6617050  18.5651950  13.3149850  30.3754730  20.7661870  24.8555360
  29.6435850  21.2748680  25.2045460  29.9779070  19.9491850  24.5544140
  26.8132120  17.4416070  23.2607850  26.8168180  17.0006020  22.4112390
  27.7083240  17.7633400  23.3679670  22.6634500  17.3242560  22.2202060
  22.3234550  17.8017790  22.9769110  21.9011820  16.8707680  21.8603160
  26.8752270  18.4428150  16.2514610  26.9965090  18.4014630  17.2000430
  26.4900780  19.3052300  16.0961340  30.8380640  16.2195550  24.2678300
  30.8553380  16.6704200  25.1120150  30.5896220  15.3201190  24.4811740
  25.8873770  20.7529290  15.6497910  25.3190670  20.3047540  15.0233820
  26.5962770  21.1122070  15.1163060  34.2651390  13.6327730  30.1064680
  34.5897160  12.9017390  30.6322660  34.3007900  13.3141370  29.2045670
  20.9642950  24.6541310  29.5264640  20.5797740  24.0134980  30.1247600
  21.2755140  25.3577430  30.0959370  27.1140090  21.5017850  25.0073260
  27.4810220  21.0276420  25.7534600  26.9245150  22.3759420  25.3481600
  19.9780580  16.2461540  21.1366730  19.6927500  15.8817210  21.9745350
  19.9159440  15.5142000  20.5229870  24.9039460  20.5426490  27.3257470
  24.5996530  21.4218470  27.5507830  25.8585920  20.6026280  27.3614910
  23.4321250  24.7487480  17.9224320  22.6583510  24.2085100  17.7623040
  24.1615880  24.2294090  17.5842080  34.1909230  23.7452840  23.7150710
  34.9108350  24.2408130  23.3246820  33.9891050  23.0670730  23.0704580
  29.6519170  15.1390800  17.8580100  28.8383780  14.6403970  17.7825410
  29.4581120  15.9789050  17.4416450  32.3667560  19.5110450  16.1542260
  33.2547180  19.8227680  15.9793600  32.3372650  18.6382700  15.7622840
  23.4758650  24.4167860  21.5603130  23.9937320  23.6136120  21.5060020
  23.0242670  24.3547000  22.4019960  28.3628150  25.6834140  16.8330430
  28.7043850  26.4276370  16.3373750  27.5340860  25.9965260  17.1955260
  20.9603190  21.3829230  28.4728830  20.6018130  22.0483080  29.0602170
  20.6657750  20.5512780  28.8441450  24.1616310  21.8413470  31.3568380
  23.8616450  21.9870650  30.4596200  24.9327550  21.2818760  31.2641770
  34.6381830  20.8222290  15.6222120  34.5545550  21.2536510  14.7718560
  35.3576020  21.2820640  16.0548940  35.7155970  23.2789810  28.6992090
  34.9904160  23.8718590  28.5021480  36.2431430  23.2713350  27.9005460
  35.6669080  27.6764550  18.3504250  35.0245240  27.0220170  18.6247970
  35.2799740  28.0819640  17.5744920  31.2455560  25.0049980  22.1975940
  31.5979380  24.4078110  21.5377310  30.3617890  24.6794210  22.3684190
  27.3318840  25.7647670  19.6046350  28.0189970  26.3116880  19.9853940
  26.5451260  26.3088400  19.6395960  19.4711240  21.3820490  15.0963430
  20.3406090  21.6645290  15.3799350  18.9801560  22.1956360  14.9812240
  26.6346050  22.7693700  19.2171710  27.0908830  23.5798950  19.4431900
  26.2834260  22.4516840  20.0490200  22.5357830  13.1131350  19.6894230
  22.4072460  13.1049250  20.6379150  21.7119850  13.4514440  19.3385240
  34.0566460  26.5681010  14.8880600  33.8304040  25.8511450  15.4805240
  33.6662660  26.3193450  14.0502350  19.8382490  30.5947870  15.6625060
  20.1980130  31.1937210  15.0082330  19.6974830  31.1407760  16.4360090
  19.5351760  14.8722470  29.1500930  18.8210280  15.0719390  29.7553540
  19.9546800  14.0962040  29.5215730  33.6382710  24.4852950  16.5494760
  33.3504410  24.9465640  17.3372640  34.4334880  24.0250720  16.8178980
  19.8224350  28.8602730  30.1367460  19.9315470  27.9197470  29.9962850
  19.1704910  29.1257480  29.4881190  25.8551110  27.9779070  16.4798730
  25.8461210  28.7108760  15.8643240  24.9349470  27.7310650  16.5725690
  21.4557750  23.1993960  17.2245490  20.8485700  23.9392860  17.2340790
  21.9307100  23.2893320  16.3983690  31.0290540  17.3644780  26.9002380
  31.3971360  16.5439990  27.2281950  30.1688740  17.4246670  27.3158030
  34.3952570  16.3201720  17.7089940  33.7665730  16.4247390  16.9948170
  33.9004490  16.5398500  18.4983820  28.8410710  28.0407310  15.1423920
  28.9422690  27.8371300  14.2125900  27.9412450  27.7865590  15.3471700
  26.3636600  18.5987670  19.1247820  25.6552750  19.0674010  19.5661430
  26.6481080  17.9409680  19.7593010  27.9892530  20.0184370  27.1240350
  28.4877780  20.4930190  27.7892200  28.1315480  19.0947890  27.3310380
  30.3952030  15.3238330  20.5643610  30.2719810  15.3424460  19.6153120
  31.3436590  15.3717270  20.6842010  27.4828820  30.5593630  19.8371590
  27.7370320  30.5215020  18.9150960  26.5341300  30.4326960  19.8299840
  24.5671620  16.9072750  16.4998530  25.4162150  17.3442900  16.4338720
  24.2002890  17.2193010  17.3270590  35.1959390  16.2352330  27.9668740
  34.6932990  16.9757730  28.3062550  36.0116050  16.6236330  27.6505530
  33.4881400  21.4785510  21.4130100  32.5471540  21.4935740  21.5877790
  33.8025470  20.6921470  21.8590400  23.4663040  23.1605110  14.9734060
  24.2326310  23.0486470  15.5359490  23.5437730  22.4643080  14.3210830
  22.1609800  20.5930180  15.6566950  22.2413390  19.6457690  15.7684350
  23.0529550  20.9237060  15.7627610  35.4906980  28.6494360  23.0884360
  35.6154400  29.4725530  23.5608170  36.3572540  28.4385090  22.7408510
  22.9624510  30.7425570  22.7601490  23.6986990  30.1941030  23.0310060
  23.3465430  31.6081580  22.6207480  19.8469990  26.8099140  18.6343000
  18.9209770  27.0520280  18.6248410  20.3126420  27.6373400  18.5127750
  21.9682790  29.9271640  31.9487070  22.7695520  30.2483690  32.3622470
  21.4534610  29.5667220  32.6706980  26.0726820  29.9155880  14.5827060
  26.8655430  30.2044710  14.1308850  25.5531170  29.4848050  13.9039540
  35.1256990  29.1426010  16.0063800  34.8398500  28.7291150  15.1917980
  34.9276540  30.0713720  15.8864320  19.6880600  22.4145100  30.8923120
  20.1919620  21.8352380  31.4639350  18.9488020  22.6985330  31.4299490
  26.5904220  25.1359290  14.4469410  26.4854860  24.5211640  15.1730790
  26.4228440  24.6125180  13.6632420  29.8306950  24.1979320  15.0511400
  29.2817050  24.6448620  15.6954140  30.4526210  23.6928570  15.5749070
  21.7203680  20.5574690  31.7873190  21.7609020  20.2588560  32.6958420
  22.5749180  20.9582300  31.6280710  25.4982070  23.1570240  16.9476700
  25.9198490  22.9910110  17.7908090  25.6232910  22.3470470  16.4531840
  23.6609490  19.1366790  29.7547680  23.1305950  18.6457740  29.1271020
  24.3297560  19.5650990  29.2205610  28.0109710  22.1807850  14.1953800
  28.5315370  21.4656870  13.8294950  28.6578110  22.8193720  14.4954310
  33.0309720  20.9432410  31.5228020  33.6130490  20.1884730  31.4348500
  33.2071490  21.4739850  30.7459500  24.1481790  16.1029160  29.8344970
  24.0538660  15.4849910  29.1095840  23.5679180  16.8295450  29.6074880
  26.9143230  14.6602400  26.8672360  26.4660530  14.6826660  26.0217910
  26.2808430  14.2621420  27.4642660  27.3202780  23.5556730  27.4884800
  27.7390890  24.3989460  27.3161040  26.4011410  23.6928770  27.2591580
  29.6566680  21.2872910  28.8722640  29.7762890  20.6914050  29.6117480
  30.5160680  21.3242600  28.4523940  31.9954580  21.8410100  27.4485150
  31.4689800  22.3652720  26.8450290  32.3385920  22.4737490  28.0794880
  24.3940970  19.2303470  13.8934860  24.1930030  18.3670830  14.2548200
  24.2233020  19.1436830  12.9556460  26.4235450  17.8294260  30.1298460
  27.0135140  17.5210110  30.8176280  25.6055690  17.3574010  30.2858360
  31.2428880  17.4460070  30.3631480  30.5544400  16.7841610  30.2981470
  31.9634900  16.9998340  30.8079940  31.8729280  14.0411700  16.4221740
  32.1531570  13.1979600  16.7781160  31.0995010  14.2734810  16.9360490
  23.1923770  16.3304090  13.8812740  23.4949670  16.3371520  12.9731890
  23.9318360  15.9801950  14.3780400  26.4108700  15.2738710  14.8668940
  26.0630700  14.5962700  14.2871390  26.6121470  14.8128220  15.6812330
  28.5757740  30.2619460  16.4855540  29.4708530  30.6004430  16.5074300
  28.6075370  29.5398870  15.8579820  22.2153900  25.6346510  14.7142540
  22.6528770  26.1776180  15.3700120  22.7001630  24.8093460  14.7238880
  19.4299700  28.4235540  22.1662800  19.7602710  27.5556600  21.9341440
  19.8590700  28.6294060  22.9967760  24.0261620  26.7544550  19.8264770
  23.7257160  26.6309520  20.7268680  23.9199110  25.8953140  19.4180500
  19.9189910  29.2906130  24.9044430  19.4820900  29.4706930  25.7368580
  20.4867590  30.0480750  24.7626150  36.7953540  26.5340950  14.5291450
  35.9646500  26.6017600  14.9998680  36.9725370  27.4245070  14.2258310
  36.2510000  23.2788430  17.0325650  37.0128910  23.8485080  17.1385340
  36.2664370  22.7115630  17.8033960  19.7514340  21.8026360  21.2633310
  19.0963180  21.5338000  20.6193010  20.5892290  21.6930840  20.8135290
  37.2569970  24.1338530  21.8767580  37.6278800  23.3505850  21.4703550
  37.8971900  24.8227630  21.6984880  36.3029170  23.5722800  14.1898170
  36.5778010  24.4801680  14.0617390  36.1139910  23.5085330  15.1260160
  32.7004780  16.5967650  15.4851800  33.1189660  16.4098630  14.6448460
  32.3940840  15.7446700  15.7954730  36.1994510  21.5091790  19.1827600
  35.8238110  20.7419720  18.7508890  35.4697630  21.8914490  19.6702530
  20.7890270  22.1878930  25.8036650  21.1563310  22.1006330  26.6832670
  20.2201090  21.4245480  25.7043510  35.5894130  20.6563310  28.8167120
  35.3580220  20.4276060  27.9165070  35.8498680  21.5762860  28.7712010
  20.3406270  19.0988020  29.7095070  19.4462320  19.0654780  30.0488780
  20.8803820  19.2974810  30.4746320  34.0282200  15.8819740  31.5946820
  34.9052380  15.8903140  31.9780820  34.0403040  15.1450580  30.9839170
  18.9652420  19.0125290  17.2058640  18.0616500  19.2755490  17.0310300
  19.4493040  19.2836460  16.4258600  35.4745470  19.7349280  22.4834840
  35.9982950  19.2411930  21.8525010  36.0604890  19.8699640  23.2282410
  35.6535190  19.8189150  26.0054390  34.7037900  19.7852690  26.1199380
  35.8348200  20.7289260  25.7704160  21.5079630  18.0690830  15.1153020
  22.2171330  17.6474050  14.6300300  20.7919570  18.1366060  14.4836370
  21.1553790  14.1230160  14.1555670  21.8781920  14.6639100  14.4736890
  21.4278310  13.8493580  13.2797210  34.9645440  18.9922630  18.4227250
  35.4604560  18.7593500  19.2076130  34.7661510  18.1534470  18.0064890
  20.8445980  13.3736350  24.0578290  21.4922170  12.8233730  23.6173450
  21.2647820  13.6279500  24.8794100  36.3932600  17.6283580  20.9564930
  36.2831880  17.4739620  21.8947200  37.1540190  17.1004520  20.7140340
  34.7398320  13.5677710  27.4147930  35.3770540  14.1811850  27.7807120
  34.8873210  13.6038370  26.4697160  37.2822870  15.4591500  14.1971070
  38.2072180  15.3272680  13.9889360  37.2598660  15.5384320  15.1507520
  37.3561360  16.2302160  16.8227780  36.5612860  16.1647280  17.3520690
  37.5604640  17.1652800  16.8113130  34.2979780  30.2693710  20.8166170
  34.8938850  29.9478280  20.1400590  34.5557930  29.7965530  21.6079440
  20.5977980  13.5292020  26.8003610  20.2492800  13.9855840  27.5661790
  20.2665680  12.6349150  26.8826040  22.2042350  26.7011620  30.9656800
  22.1611980  26.3304530  31.8471260  22.3353360  27.6389190  31.1058620
  28.1102800  14.7203900  30.3223030  28.0491690  15.3125730  31.0718440
  29.0503180  14.6129860  30.1773290  30.7477360  14.3773960  29.9615320
  31.3617770  14.6953250  29.2996400  31.2926920  13.8922550  30.5811180
  21.2698620  13.0568220  30.0754380  21.8181610  12.8756270  29.3120490
  21.3353930  12.2662330  30.6110690  22.0430380  29.6473870  28.0854580
  21.4490700  29.5158570  28.8244620  22.0354220  28.8112010  27.6196680
  31.4885400  12.9406100  26.2884610  30.6145240  13.2741210  26.0857540
  31.3796150  12.4679280  27.1136480  32.3957380  15.1476970  27.6726330
  32.0670740  14.3328730  27.2928060  33.3439680  15.1046780  27.5492020
  21.6742610  27.0132250  27.0362620  20.9476670  26.3937540  26.9688570
  21.7351760  27.4072860  26.1660700  25.2787710  29.2277250  23.8212030
  25.7952730  28.6164610  23.2960290  25.9285090  29.7306030  24.3123040
  29.2360220  13.8575940  25.2277520  28.4532010  14.3321440  25.5074280
  28.9423150  12.9530770  25.1190700  33.7881290  14.5599040  23.2726610
  34.2289380  14.5044140  22.4248210  33.5188880  15.4757050  23.3436790
  35.6519860  14.1914280  21.2835430  35.5908260  13.2475500  21.1366450
  36.4311890  14.2994370  21.8288890  19.9572610  30.3306640  20.2459380
  19.7894650  29.6977320  20.9441270  19.0907120  30.5366040  19.8953570
  20.5800630  14.1623420  17.7491240  21.3379990  14.2752300  17.1755270
  20.1177800  14.9992620  17.7034670  27.1214440  16.2762690  20.7393550
  26.3088950  15.9019580  20.3989430  27.6256080  15.5207770  21.0414740
  31.6239420  12.9405140  21.9776620  32.2268790  13.5125350  22.4525140
  30.8832410  13.5044580  21.7550520  34.7674020  13.3426700  17.2516900
  34.9624650  14.2410150  17.5184330  33.9803890  13.1113780  17.7449850
  21.5635310  29.0239870  17.6909520  21.0382930  29.4047900  16.9871480
  21.4879890  29.6490640  18.4119230  22.9525780  14.6887470  16.2893210
  23.4818540  13.9017270  16.1601160  23.5854100  15.3678660  16.5228740
  25.1463620  14.4262610  19.3438600  24.5166360  13.7249920  19.5108730
  24.6068760  15.1866740  19.1271760  36.3200630  30.5827410  19.0123460
  36.4952820  29.8965150  18.3684380  35.6222200  31.1074460  18.6200130
  25.2719180  13.7046590  31.7791090  24.9903450  14.2080190  31.0151910
  25.6538880  12.9068340  31.4133220  24.1628280  30.9722250  16.5658770
  24.8947100  30.6881530  16.0182660  24.4221950  30.7335530  17.4558150
  23.3243070  27.0886980  16.5705100  22.6951950  27.5572080  17.1190930
  23.4390900  26.2436200  17.0051290  31.8734640  13.1200170  32.3571560
  31.7600090  13.4394780  33.2523080  32.6904380  13.5212680  32.0608840
  30.7792790  21.1392640   2.7206300  30.6986840  20.2247250   2.4498010
  30.3657210  21.6359710   2.0146010  28.9110830  22.9171660   4.6015570
  28.1352930  22.4372100   4.8914140  29.5623760  22.2377310   4.4271730
  22.9276660  23.2291470   5.4791330  22.0961540  22.9740180   5.8787840
  23.5357640  23.3002240   6.2149250  32.9318260  27.3231850   3.3814700
  32.4699790  26.5519090   3.7101870  33.7443810  27.3497920   3.8867150
  22.9077920  27.2631560   5.6749350  23.2105960  26.3729300   5.4959570
  23.6521510  27.8201780   5.4471600  19.3001620  20.7899010   5.1473420
  19.8717730  20.0221210   5.1477060  19.3003160  21.0887770   4.2380030
  29.1581570  29.6089860   3.0018690  28.5393010  30.0647360   2.4313130
  30.0133350  29.7641320   2.6008390  28.3519820  25.5928850   4.6085730
  28.2828100  24.6518790   4.4474860  29.1139680  25.6830260   5.1808300
  20.5426490  16.1983370   6.9342350  20.3629330  15.3009120   7.2145110
  20.1406570  16.7455240   7.6089300  29.3824990  18.3999230   4.8354660
  29.7589810  17.5271110   4.7228330  29.2844500  18.7357930   3.9445100
  33.1649110  15.8949670   1.7683000  33.9858730  15.4046240   1.8108480
  33.1983190  16.4847330   2.5214840  21.1613160  18.6943870   5.5424690
  21.8423270  18.9582240   6.1612090  20.8461210  17.8544740   5.8762700
  25.3537730  19.7411230   4.6297280  25.8615950  20.2392200   5.2702300
  25.8850970  18.9646430   4.4536640  37.4548660  17.9116420   8.3326630
  36.7500830  18.2998130   7.8141740  37.7206580  18.6066710   8.9347560
  23.6373830  14.3809790   8.8960700  23.6392270  14.8982180   8.0906600
  22.8078140  13.9039970   8.8730630  24.8876680  24.0204970   7.0734200
  24.5546060  24.6473890   7.7155270  25.0643360  24.5466850   6.2935870
  33.4010590  17.8350050   4.5410540  32.6966160  18.1234940   5.1213650
  33.7622750  18.6450160   4.1810100  23.3189160  16.0919750   6.9031150
  23.6605970  16.9361800   6.6085020  22.3804970  16.2403490   7.0196490
  24.0995780  25.9885770   8.8883380  24.7169780  26.6636850   8.6067830
  23.2388900  26.3973750   8.7970880  35.0173370  27.4525180   6.8038020
  34.3336890  28.1224290   6.7954690  35.5567660  27.6505830   6.0382880
  36.4697510  17.2804840   4.9319750  35.5222420  17.3143820   5.0635180
  36.7947500  18.0943790   5.3169110  27.0017050  13.5802020   3.2275740
  27.3092030  13.0248910   2.5111240  26.0717750  13.7146480   3.0448730
  32.5532110  29.2969310   5.5183200  32.5659270  28.8931600   4.6505460
  32.0007330  30.0716600   5.4144630  31.9517550  24.1999150   6.8465810
  32.3686340  23.9859260   6.0119270  32.6757370  24.4571940   7.4174430
  35.8979650  22.5986370   6.9382050  35.0698280  22.6679460   6.4632180
  36.4930130  23.1840680   6.4697880  32.8621660  19.3855690   7.8836920
  32.4492840  20.2109400   8.1376910  32.1297610  18.8000730   7.6913280
  24.9954450  22.1715590   2.7455590  24.5911450  21.4592840   2.2501490
  25.0817570  21.8268830   3.6343630  25.4636150  25.8583150   4.9094800
  25.1664440  25.2528620   4.2302580  26.4135970  25.8960460   4.7984160
  23.7083070  18.9458800   6.5254630  24.2597660  19.0554140   5.7507880
  24.2226580  19.3196400   7.2409860  33.5521760  29.4315020   8.5717900
  33.0752320  30.2387210   8.3790510  32.8683550  28.7793350   8.7244110
  24.5554580  25.5964840  11.5602600  23.6583110  25.8204810  11.8076000
  24.5807450  25.7199780  10.6114000  23.3825800  22.4678160  10.1359970
  23.2433570  23.3400960  10.5047370  22.5007160  22.1250970   9.9907910
  25.1806150  28.4099860  12.3445120  25.1521580  28.8142810  11.4773550
  25.0171120  27.4810220  12.1816720  37.1320970  29.1926960  13.6409290
  37.6080690  29.6709850  14.3198370  37.7528130  29.1244450  12.9154790
  19.3344450  24.2375710   6.0530880  19.4124870  24.3724480   5.1086600
  19.9486130  23.5291600   6.2459000  20.5792080  25.9375900   2.4637060
  20.1720160  26.0790490   1.6090660  21.4705090  25.6536060   2.2608270
  36.5354220  26.3839810  10.8009300  36.6617280  26.1451690   9.8826480
  36.5775600  25.5524350  11.2731380  30.3970960  30.0867810   9.3704110
  30.9115630  29.9975820  10.1726540  29.5540040  30.4327510   9.6632020
  36.3878230  18.4372270  11.7659040  35.7722500  18.9451940  11.2374500
  36.0674650  17.5370600  11.7084980  19.3903970  25.2789880   8.5925340
  19.5535010  24.8095240   7.7744710  19.8556420  24.7713440   9.2574180
  24.1622740  14.4095640   3.6285910  23.7190890  15.1905180   3.2970430
  24.7207730  14.7325530   4.3356850  28.4492550  17.2764160   9.2321230
  27.9871920  17.4847180  10.0441170  28.0470660  16.4623510   8.9291900
  33.4497060  18.4973110  10.3617890  32.5990650  18.1978860  10.6826960
  33.2898850  18.7415120   9.4501710  30.5446770  19.9974860  12.4616680
  30.8700180  19.1638610  12.1218910  31.3327100  20.5203380  12.6095010
  26.1998640  14.9542970   5.4875510  26.4970970  15.8605800   5.4067530
  26.7484200  14.4661750   4.8735080  26.3936170  20.4314790  12.0227430
  26.2979770  19.4909520  11.8727830  27.2368150  20.6529860  11.6275500
  21.5246710  16.8428460  10.1761210  21.1310100  17.6903670  10.3833990
  20.8365110  16.2054830  10.3669850  28.0991760  16.9263430  13.2457950
  27.4090080  16.7335630  13.8804040  28.8424060  17.2098070  13.7782250
  18.8263760  14.7656920   4.2091290  18.5376810  15.3359780   4.9216270
  19.5709520  14.2861370   4.5722520  30.3754730  20.7661870   6.0811870
  29.6435850  21.2748680   6.4301970  29.9779070  19.9491850   5.7800650
  26.8132120  17.4416070   4.4864360  26.8168180  17.0006020   3.6368900
  27.7083240  17.7633400   4.5936180  22.6634500  17.3242560   3.4458570
  22.3234550  17.8017790   4.2025620  21.9011820  16.8707680   3.0859670
  30.8380640  16.2195550   5.4934810  30.8553380  16.6704200   6.3376660
  30.5896220  15.3201190   5.7068250  34.2651390  13.6327730  11.3321190
  34.5897160  12.9017390  11.8579170  34.3007900  13.3141370  10.4302180
  20.9642950  24.6541310  10.7521150  20.5797740  24.0134980  11.3504110
  21.2755140  25.3577430  11.3215880  27.1140090  21.5017850   6.2329770
  27.4810220  21.0276420   6.9791110  26.9245150  22.3759420   6.5738110
  19.9780580  16.2461540   2.3623240  19.6927500  15.8817210   3.2001860
  19.9159440  15.5142000   1.7486380  24.9039460  20.5426490   8.5513980
  24.5996530  21.4218470   8.7764340  25.8585920  20.6026280   8.5871420
  34.1909230  23.7452840   4.9407220  34.9108350  24.2408130   4.5503330
  33.9891050  23.0670730   4.2961090  29.5728030  23.8161900  10.8276220
  29.5065340  22.8957570  10.5733810  28.9433170  23.9137340  11.5420860
  23.4758650  24.4167860   2.7859640  23.9937320  23.6136120   2.7316530
  23.0242670  24.3547000   3.6276470  20.9603190  21.3829230   9.6985340
  20.6018130  22.0483080  10.2858680  20.6657750  20.5512780  10.0697960
  24.1616310  21.8413470  12.5824890  23.8616450  21.9870650  11.6852710
  24.9327550  21.2818760  12.4898280  29.5044760  26.6382470  10.5780020
  29.5189300  25.7063430  10.3598930  28.7969860  26.7242230  11.2169790
  35.7155970  23.2789810   9.9248600  34.9904160  23.8718590   9.7277990
  36.2431430  23.2713350   9.1261970  31.2455560  25.0049980   3.4232450
  31.5979380  24.4078110   2.7633820  30.3617890  24.6794210   3.5940700
  28.9378660  28.2800040   7.6720520  29.5820880  28.4859420   8.3493940
  29.3008100  27.5188440   7.2191370  30.2110740  26.2832390   6.3897970
  30.8532970  25.5825550   6.5030140  30.7360090  27.0630830   6.2094860
  31.9848360  27.0827290   9.5934030  32.3204600  27.6693980  10.2711950
  31.0648700  26.9520000   9.8231820  19.5351760  14.8722470  10.3757440
  18.8210280  15.0719390  10.9810050  19.9546800  14.0962040  10.7472240
  19.8224350  28.8602730  11.3623970  19.9315470  27.9197470  11.2219360
  19.1704910  29.1257480  10.7137700  27.8136940  27.1318620  12.7622090
  27.4933810  26.4127860  13.3067780  27.1395300  27.8073690  12.8358150
  31.0290540  17.3644780   8.1258890  31.3971360  16.5439990   8.4538460
  30.1688740  17.4246670   8.5414540  27.9892530  20.0184370   8.3496860
  28.4877780  20.4930190   9.0148710  28.1315480  19.0947890   8.5566890
  35.1959390  16.2352330   9.1925250  34.6932990  16.9757730   9.5319060
  36.0116050  16.6236330   8.8762040  33.4881400  21.4785510   2.6386610
  32.5471540  21.4935740   2.8134300  33.8025470  20.6921470   3.0846910
  35.4906980  28.6494360   4.3140870  35.6154400  29.4725530   4.7864680
  36.3572540  28.4385090   3.9665020  22.9624510  30.7425570   3.9858000
  23.6986990  30.1941030   4.2566570  23.3465430  31.6081580   3.8463990
  21.9682790  29.9271640  13.1743580  22.7695520  30.2483690  13.5878980
  21.4534610  29.5667220  13.8963490  30.8047420  26.0351510  13.1218990
  30.1985580  26.0583110  12.3814740  30.5001530  25.3034550  13.6586240
  32.2347790  29.7631800  11.7328400  33.1869540  29.6789820  11.6828640
  32.0876010  30.4273510  12.4062190  19.6880600  22.4145100  12.1179630
  20.1919620  21.8352380  12.6895860  18.9488020  22.6985330  12.6556000
  26.7418540  23.8216090  11.6515150  25.9764210  24.3901090  11.5669820
  26.9234500  23.5292300  10.7583380  33.8841890  25.5521420  12.2090170
  34.6251360  25.8897180  11.7057630  33.1214570  25.7213480  11.6559940
  21.7203680  20.5574690  13.0129700  21.7609020  20.2588560  13.9214930
  22.5749180  20.9582300  12.8537220  23.6609490  19.1366790  10.9804190
  23.1305950  18.6457740  10.3527530  24.3297560  19.5650990  10.4462120
  32.5587550  23.6036250  10.7445380  32.9728570  23.7581330  11.5935800
  31.6238550  23.7291470  10.9071160  33.0309720  20.9432410  12.7484530
  33.6130490  20.1884730  12.6605010  33.2071490  21.4739850  11.9716010
  24.1481790  16.1029160  11.0601480  24.0538660  15.4849910  10.3352350
  23.5679180  16.8295450  10.8331390  26.9143230  14.6602400   8.0928870
  26.4660530  14.6826660   7.2474420  26.2808430  14.2621420   8.6899170
  27.3202780  23.5556730   8.7141310  27.7390890  24.3989460   8.5417550
  26.4011410  23.6928770   8.4848090  29.6566680  21.2872910  10.0979150
  29.7762890  20.6914050  10.8373990  30.5160680  21.3242600   9.6780450
  31.9954580  21.8410100   8.6741660  31.4689800  22.3652720   8.0706800
  32.3385920  22.4737490   9.3051390  25.1710200  29.8609740   9.8299040
  24.6331290  30.5855800   9.5107740  25.4244160  29.3840080   9.0396380
  26.4235450  17.8294260  11.3554970  27.0135140  17.5210110  12.0432790
  25.6055690  17.3574010  11.5114870  31.2428880  17.4460070  11.5887990
  30.5544400  16.7841610  11.5237980  31.9634900  16.9998340  12.0336450
  28.0272410  31.0960950  10.0885690  27.9531110  31.9996090  10.3958060
  27.1251250  30.7772850  10.0607760  19.4299700  28.4235540   3.3919310
  19.7602710  27.5556600   3.1597950  19.8590700  28.6294060   4.2224270
  19.9189910  29.2906130   6.1300940  19.4820900  29.4706930   6.9625090
  20.4867590  30.0480750   5.9882660  35.5552090  28.7923130  10.4178250
  34.9554080  28.8515690   9.6742170  35.6845990  27.8528110  10.5475100
  19.7514340  21.8026360   2.4889820  19.0963180  21.5338000   1.8449520
  20.5892290  21.6930840   2.0391800  37.2569970  24.1338530   3.1024090
  37.6278800  23.3505850   2.6960060  37.8971900  24.8227630   2.9241390
  34.2403730  25.5175110   8.5154410  33.4263570  25.9472270   8.7780200
  34.6477930  26.1293520   7.9023460  20.7890270  22.1878930   7.0293160
  21.1563310  22.1006330   7.9089180  20.2201090  21.4245480   6.9300020
  35.5894130  20.6563310  10.0423630  35.3580220  20.4276060   9.1421580
  35.8498680  21.5762860   9.9968520  20.3406270  19.0988020  10.9351580
  19.4462320  19.0654780  11.2745290  20.8803820  19.2974810  11.7002830
  34.0282200  15.8819740  12.8203330  34.9052380  15.8903140  13.2037330
  34.0403040  15.1450580  12.2095680  35.4745470  19.7349280   3.7091350
  35.9982950  19.2411930   3.0781520  36.0604890  19.8699640   4.4538920
  35.6535190  19.8189150   7.2310900  34.7037900  19.7852690   7.3455890
  35.8348200  20.7289260   6.9960670  20.8445980  13.3736350   5.2834800
  21.4922170  12.8233730   4.8429960  21.2647820  13.6279500   6.1050610
  36.3932600  17.6283580   2.1821440  36.2831880  17.4739620   3.1203710
  37.1540190  17.1004520   1.9396850  34.7398320  13.5677710   8.6404440
  35.3770540  14.1811850   9.0063630  34.8873210  13.6038370   7.6953670
  20.5977980  13.5292020   8.0260120  20.2492800  13.9855840   8.7918300
  20.2665680  12.6349150   8.1082550  22.2042350  26.7011620  12.1913310
  22.1611980  26.3304530  13.0727770  22.3353360  27.6389190  12.3315130
  25.9048380  28.2571210   7.7923030  25.6639740  28.5245770   6.9053550
  26.8451020  28.4276940   7.8473890  28.1102800  14.7203900  11.5479540
  28.0491690  15.3125730  12.2974950  29.0503180  14.6129860  11.4029800
  30.7477360  14.3773960  11.1871830  31.3617770  14.6953250  10.5252910
  31.2926920  13.8922550  11.8067690  37.1652540  30.2765590   8.5933670
  36.6710820  30.6734460   7.8760800  36.5565830  29.6514800   8.9870950
  21.2698620  13.0568220  11.3010890  21.8181610  12.8756270  10.5377000
  21.3353930  12.2662330  11.8367200  22.0430380  29.6473870   9.3111090
  21.4490700  29.5158570  10.0501130  22.0354220  28.8112010   8.8453190
  31.4885400  12.9406100   7.5141120  30.6145240  13.2741210   7.3114050
  31.3796150  12.4679280   8.3392990  32.3957380  15.1476970   8.8982840
  32.0670740  14.3328730   8.5184570  33.3439680  15.1046780   8.7748530
  34.8491990  30.9189010   5.8720410  34.3894960  31.6704820   5.4978430
  34.2204450  30.1995480   5.8135210  21.6742610  27.0132250   8.2619130
  20.9476670  26.3937540   8.1945080  21.7351760  27.4072860   7.3917210
  25.2787710  29.2277250   5.0468540  25.7952730  28.6164610   4.5216800
  25.9285090  29.7306030   5.5379550  28.0183210  30.1185740   5.8737520
  28.3061020  29.8640040   4.9970530  28.5306430  29.5663100   6.4643090
  29.2360220  13.8575940   6.4534030  28.4532010  14.3321440   6.7330790
  28.9423150  12.9530770   6.3447210  33.7881290  14.5599040   4.4983120
  34.2289380  14.5044140   3.6504720  33.5188880  15.4757050   4.5693300
  35.6519860  14.1914280   2.5091940  35.5908260  13.2475500   2.3622960
  36.4311890  14.2994370   3.0545400  27.1214440  16.2762690   1.9650060
  26.3088950  15.9019580   1.6245940  27.6256080  15.5207770   2.2671250
  31.6239420  12.9405140   3.2033130  32.2268790  13.5125350   3.6781650
  30.8832410  13.5044580   2.9807030  28.0855570  31.0401840  13.2405720
  29.0122880  30.8046110  13.2841680  28.0706000  31.8673840  12.7591750
  25.2719180  13.7046590  13.0047600  24.9903450  14.2080190  12.2408420
  25.6538880  12.9068340  12.6389730  31.8734640  13.1200170  13.5828070
  31.7600090  13.4394780  14.4779590  32.6904380  13.5212680  13.2865350
  34.6533130  30.2671700  13.0646760  35.4458450  29.7720930  12.8572720
  34.9466280  30.9461840  13.6722370  28.9110830   4.1428170  79.6989530
  28.1352930   3.6628610  79.9888100  29.5623760   3.4633820  79.5245690
  22.9276660   4.4547980  80.5765290  22.0961540   4.1996690  80.9761800
  23.5357640   4.5258750  81.3123210  32.9318260   8.5488360  78.4788660
  32.4699790   7.7775600  78.8075830  33.7443810   8.5754430  78.9841110
  22.9077920   8.4888070  80.7723310  23.2105960   7.5985810  80.5933530
  23.6521510   9.0458290  80.5445560  29.1581570  10.8346370  78.0992650
  28.5393010  11.2903870  77.5287090  30.0133350  10.9897830  77.6982350
  28.3519820   6.8185360  79.7059690  28.2828100   5.8775300  79.5448820
  29.1139680   6.9086770  80.2782260  30.0244920   5.7185610  75.4924560
  29.4062190   6.1835060  74.9287280  30.5368170   6.4113090  75.9094070
  19.3928120   6.4042140  72.8664190  19.0156100   6.8929240  72.1349090
  19.6501190   7.0767420  73.4970720  35.0173370   8.6781690  81.9011980
  34.3336890   9.3480800  81.8928650  35.5567660   8.8762340  81.1356840
  32.5532110  10.5225820  80.6157160  32.5659270  10.1188110  79.7479420
  32.0007330  11.2973110  80.5118590  33.8477530   7.2442040  75.7047330
  33.7373860   6.3016370  75.8296750  33.8445780   7.6057680  76.5910090
  29.3897810   2.8707360  75.0609820  28.4627090   2.8044740  75.2898290
  29.5422630   3.8087490  74.9465060  35.8979650   3.8242880  82.0356010
  35.0698280   3.8935970  81.5606140  36.4930130   4.4097190  81.5671840
  33.4195100   4.4327660  75.5645070  32.8007520   4.0947210  74.9171370
  33.4019550   3.7887420  76.2724260  24.9954450   3.3972100  77.8429550
  24.5911450   2.6849350  77.3475450  25.0817570   3.0525340  78.7317590
  25.4636150   7.0839660  80.0068760  25.1664440   6.4785130  79.3276540
  26.4135970   7.1216970  79.8958120  31.5959800   3.6714470  72.5717820
  32.0353080   2.8336900  72.4255640  32.3088220   4.3043870  72.6581960
  29.7055180   8.6110540  76.5399060  30.1451090   9.3534870  76.1254450
  29.6442070   8.8537110  77.4638020  19.3344450   5.4632220  81.1504840
  19.4124870   5.5980990  80.2060560  19.9486130   4.7548110  81.3432960
  20.5792080   7.1632410  77.5611020  20.1720160   7.3047000  76.7064620
  21.4705090   6.8792570  77.3582230  32.3725360  11.5979660  73.8962070
  32.2126500  11.3082600  74.7943900  32.2072070  10.8219790  73.3607300
  24.8513740  11.3778190  75.6733690  24.6756220  10.4613730  75.4601490
  23.9969480  11.7365480  75.9131490  32.0751490   9.1067220  72.4560070
  31.3816650   9.1044510  71.7962350  32.8174350   8.6826540  72.0254240
  31.6401420  10.7329930  76.5308560  32.0958370   9.9519310  76.8447180
  31.9793940  11.4436750  77.0749740  27.1140090   2.7274360  81.3303730
  27.4810220   2.2532930  82.0765070  26.9245150   3.6015930  81.6712070
  23.4321250   5.9743990  74.2454790  22.6583510   5.4341610  74.0853510
  24.1615880   5.4550600  73.9072550  34.1909230   4.9709350  80.0381180
  34.9108350   5.4664640  79.6477290  33.9891050   4.2927240  79.3935050
  23.4758650   5.6424370  77.8833600  23.9937320   4.8392630  77.8290490
  23.0242670   5.5803510  78.7250430  28.3628150   6.9090650  73.1560900
  28.7043850   7.6532880  72.6604220  27.5340860   7.2221770  73.5185730
  34.6381830   2.0478800  71.9452590  34.5545550   2.4793020  71.0949030
  35.3576020   2.5077150  72.3779410  35.6669080   8.9021060  74.6734720
  35.0245240   8.2476680  74.9478440  35.2799740   9.3076150  73.8975390
  31.2455560   6.2306490  78.5206410  31.5979380   5.6334620  77.8607780
  30.3617890   5.9050720  78.6914660  27.3318840   6.9904180  75.9276820
  28.0189970   7.5373390  76.3084410  26.5451260   7.5344910  75.9626430
  19.4711240   2.6077000  71.4193900  20.3406090   2.8901800  71.7029820
  18.9801560   3.4212870  71.3042710  26.6346050   3.9950210  75.5402180
  27.0908830   4.8055460  75.7662370  26.2834260   3.6773350  76.3720670
  30.2110740   7.5088900  81.4871930  30.8532970   6.8082060  81.6004100
  30.7360090   8.2887340  81.3068820  34.0566460   7.7937520  71.2111070
  33.8304040   7.0767960  71.8035710  33.6662660   7.5449960  70.3732820
  19.8382490  11.8204380  71.9855530  20.1980130  12.4193720  71.3312800
  19.6974830  12.3664270  72.7590560  33.6382710   5.7109460  72.8725230
  33.3504410   6.1722150  73.6603110  34.4334880   5.2507230  73.1409450
  25.8551110   9.2035580  72.8029200  25.8461210   9.9365270  72.1873710
  24.9349470   8.9567160  72.8956160  21.4557750   4.4250470  73.5475960
  20.8485700   5.1649370  73.5571260  21.9307100   4.5149830  72.7214160
  28.8410710   9.2663820  71.4654390  28.9422690   9.0627810  70.5356370
  27.9412450   9.0122100  71.6702170  27.4828820  11.7850140  76.1602060
  27.7370320  11.7471530  75.2381430  26.5341300  11.6583470  76.1530310
  33.4881400   2.7042020  77.7360570  32.5471540   2.7192250  77.9108260
  33.8025470   1.9177980  78.1820870  23.4663040   4.3861620  71.2964530
  24.2326310   4.2742980  71.8589960  23.5437730   3.6899590  70.6441300
  35.4906980   9.8750870  79.4114830  35.6154400  10.6982040  79.8838640
  36.3572540   9.6641600  79.0638980  22.9624510  11.9682080  79.0831960
  23.6986990  11.4197540  79.3540530  23.3465430  12.8338090  78.9437950
  19.8469990   8.0355650  74.9573470  18.9209770   8.2776790  74.9478880
  20.3126420   8.8629910  74.8358220  26.0726820  11.1412390  70.9057530
  26.8655430  11.4301220  70.4539320  25.5531170  10.7104560  70.2270010
  35.1256990  10.3682520  72.3294270  34.8398500   9.9547660  71.5148450
  34.9276540  11.2970230  72.2094790  26.5904220   6.3615800  70.7699880
  26.4854860   5.7468150  71.4961260  26.4228440   5.8381690  69.9862890
  29.8306950   5.4235830  71.3741870  29.2817050   5.8705130  72.0184610
  30.4526210   4.9185080  71.8979540  25.4982070   4.3826750  73.2707170
  25.9198490   4.2166620  74.1138560  25.6232910   3.5726980  72.7762310
  28.0109710   3.4064360  70.5184270  28.5315370   2.6913380  70.1525420
  28.6578110   4.0450230  70.8184780  28.5757740  11.4875970  72.8086010
  29.4708530  11.8260940  72.8304770  28.6075370  10.7655380  72.1810290
  22.2153900   6.8603020  71.0373010  22.6528770   7.4032690  71.6930590
  22.7001630   6.0349970  71.0469350  19.4299700   9.6492050  78.4893270
  19.7602710   8.7813110  78.2571910  19.8590700   9.8550570  79.3198230
  24.0261620   7.9801060  76.1495240  23.7257160   7.8566030  77.0499150
  23.9199110   7.1209650  75.7410970  19.9189910  10.5162640  81.2274900
  19.4820900  10.6963440  82.0599050  20.4867590  11.2737260  81.0856620
  36.7953540   7.7597460  70.8521920  35.9646500   7.8274110  71.3229150
  36.9725370   8.6501580  70.5488780  36.2510000   4.5044940  73.3556120
  37.0128910   5.0741590  73.4615810  36.2664370   3.9372140  74.1264430
  19.7514340   3.0282870  77.5863780  19.0963180   2.7594510  76.9423480
  20.5892290   2.9187350  77.1365760  37.2569970   5.3595040  78.1998050
  37.6278800   4.5762360  77.7934020  37.8971900   6.0484140  78.0215350
  36.3029170   4.7979310  70.5128640  36.5778010   5.7058190  70.3847860
  36.1139910   4.7341840  71.4490630  36.1994510   2.7348300  75.5058070
  35.8238110   1.9676230  75.0739360  35.4697630   3.1171000  75.9933000
  34.2979780  11.4950220  77.1396640  34.8938850  11.1734790  76.4631060
  34.5557930  11.0222040  77.9309910  34.8491990  12.1445520  80.9694370
  34.3894960  12.8961330  80.5952390  34.2204450  11.4251990  80.9109170
  25.2787710  10.4533760  80.1442500  25.7952730   9.8421120  79.6190760
  25.9285090  10.9562540  80.6353510  28.0183210  11.3442250  80.9711480
  28.3061020  11.0896550  80.0944490  28.5306430  10.7919610  81.5617050
  19.9572610  11.5563150  76.5689850  19.7894650  10.9233830  77.2671740
  19.0907120  11.7622550  76.2184040  21.5635310  10.2496380  74.0139990
  21.0382930  10.6304410  73.3101950  21.4879890  10.8747150  74.7349700
  36.3200630  11.8083920  75.3353930  36.4952820  11.1221660  74.6914850
  35.6222200  12.3330970  74.9430600  24.1628280  12.1978760  72.8889240
  24.8947100  11.9138040  72.3413130  24.4221950  11.9592040  73.7788620
  23.3243070   8.3143490  72.8935570  22.6951950   8.7828590  73.4421400
  23.4390900   7.4692710  73.3281760  28.9110830   4.1428170  60.9246040
  28.1352930   3.6628610  61.2144610  29.5623760   3.4633820  60.7502200
  22.9276660   4.4547980  61.8021800  22.0961540   4.1996690  62.2018310
  23.5357640   4.5258750  62.5379720  32.9318260   8.5488360  59.7045170
  32.4699790   7.7775600  60.0332340  33.7443810   8.5754430  60.2097620
  22.9077920   8.4888070  61.9979820  23.2105960   7.5985810  61.8190040
  23.6521510   9.0458290  61.7702070  29.1581570  10.8346370  59.3249160
  28.5393010  11.2903870  58.7543600  30.0133350  10.9897830  58.9238860
  28.3519820   6.8185360  60.9316200  28.2828100   5.8775300  60.7705330
  29.1139680   6.9086770  61.5038770  30.0244920   5.7185610  56.7181070
  29.4062190   6.1835060  56.1543790  30.5368170   6.4113090  57.1350580
  24.8876680   5.2461480  63.3964670  24.5546060   5.8730400  64.0385740
  25.0643360   5.7723360  62.6166340  24.0995780   7.2142280  65.2113850
  24.7169780   7.8893360  64.9298300  23.2388900   7.6230260  65.1201350
  19.3928120   6.4042140  54.0920700  19.0156100   6.8929240  53.3605600
  19.6501190   7.0767420  54.7227230  35.0173370   8.6781690  63.1268490
  34.3336890   9.3480800  63.1185160  35.5567660   8.8762340  62.3613350
  32.5532110  10.5225820  61.8413670  32.5659270  10.1188110  60.9735930
  32.0007330  11.2973110  61.7375100  33.8477530   7.2442040  56.9303840
  33.7373860   6.3016370  57.0553260  33.8445780   7.6057680  57.8166600
  31.9517550   5.4255660  63.1696280  32.3686340   5.2115770  62.3349740
  32.6757370   5.6828450  63.7404900  29.3897810   2.8707360  56.2866330
  28.4627090   2.8044740  56.5154800  29.5422630   3.8087490  56.1721570
  35.8979650   3.8242880  63.2612520  35.0698280   3.8935970  62.7862650
  36.4930130   4.4097190  62.7928350  33.4195100   4.4327660  56.7901580
  32.8007520   4.0947210  56.1427880  33.4019550   3.7887420  57.4980770
  24.9954450   3.3972100  59.0686060  24.5911450   2.6849350  58.5731960
  25.0817570   3.0525340  59.9574100  25.4636150   7.0839660  61.2325270
  25.1664440   6.4785130  60.5533050  26.4135970   7.1216970  61.1214630
  33.5521760  10.6571530  64.8948370  33.0752320  11.4643720  64.7020980
  32.8683550  10.0049860  65.0474580  24.5554580   6.8221350  67.8833070
  23.6583110   7.0461320  68.1306470  24.5807450   6.9456290  66.9344470
  31.5959800   3.6714470  53.7974330  32.0353080   2.8336900  53.6512150
  32.3088220   4.3043870  53.8838470  23.3825800   3.6934670  66.4590440
  23.2433570   4.5657470  66.8277840  22.5007160   3.3507480  66.3138380
  29.7055180   8.6110540  57.7655570  30.1451090   9.3534870  57.3510960
  29.6442070   8.8537110  58.6894530  25.1806150   9.6356370  68.6675590
  25.1521580  10.0399320  67.8004020  25.0171120   8.7066730  68.5047190
  37.1320970  10.4183470  69.9639760  37.6080690  10.8966360  70.6428840
  37.7528130  10.3500960  69.2385260  19.3344450   5.4632220  62.3761350
  19.4124870   5.5980990  61.4317070  19.9486130   4.7548110  62.5689470
  20.5792080   7.1632410  58.7867530  20.1720160   7.3047000  57.9321130
  21.4705090   6.8792570  58.5838740  36.5354220   7.6096320  67.1239770
  36.6617280   7.3708200  66.2056950  36.5775600   6.7780860  67.5961850
  30.3970960  11.3124320  65.6934580  30.9115630  11.2232330  66.4957010
  29.5540040  11.6584020  65.9862490  32.3725360  11.5979660  55.1218580
  32.2126500  11.3082600  56.0200410  32.2072070  10.8219790  54.5863810
  24.8513740  11.3778190  56.8990200  24.6756220  10.4613730  56.6858000
  23.9969480  11.7365480  57.1388000  32.0751490   9.1067220  53.6816580
  31.3816650   9.1044510  53.0218860  32.8174350   8.6826540  53.2510750
  31.6401420  10.7329930  57.7565070  32.0958370   9.9519310  58.0703690
  31.9793940  11.4436750  58.3006250  19.3903970   6.5046390  64.9155810
  19.5535010   6.0351750  64.0975180  19.8556420   5.9969950  65.5804650
  20.9642950   5.8797820  67.0751620  20.5797740   5.2391490  67.6734580
  21.2755140   6.5833940  67.6446350  27.1140090   2.7274360  62.5560240
  27.4810220   2.2532930  63.3021580  26.9245150   3.6015930  62.8968580
  24.9039460   1.7683000  64.8744450  24.5996530   2.6474980  65.0994810
  25.8585920   1.8282790  64.9101890  23.4321250   5.9743990  55.4711300
  22.6583510   5.4341610  55.3110020  24.1615880   5.4550600  55.1329060
  34.1909230   4.9709350  61.2637690  34.9108350   5.4664640  60.8733800
  33.9891050   4.2927240  60.6191560  29.5728030   5.0418410  67.1506690
  29.5065340   4.1214080  66.8964280  28.9433170   5.1393850  67.8651330
  23.4758650   5.6424370  59.1090110  23.9937320   4.8392630  59.0547000
  23.0242670   5.5803510  59.9506940  28.3628150   6.9090650  54.3817410
  28.7043850   7.6532880  53.8860730  27.5340860   7.2221770  54.7442240
  20.9603190   2.6085740  66.0215810  20.6018130   3.2739590  66.6089150
  20.6657750   1.7769290  66.3928430  24.1616310   3.0669980  68.9055360
  23.8616450   3.2127160  68.0083180  24.9327550   2.5075270  68.8128750
  29.5044760   7.8638980  66.9010490  29.5189300   6.9319940  66.6829400
  28.7969860   7.9498740  67.5400260  34.6381830   2.0478800  53.1709100
  34.5545550   2.4793020  52.3205540  35.3576020   2.5077150  53.6035920
  35.7155970   4.5046320  66.2479070  34.9904160   5.0975100  66.0508460
  36.2431430   4.4969860  65.4492440  35.6669080   8.9021060  55.8991230
  35.0245240   8.2476680  56.1734950  35.2799740   9.3076150  55.1231900
  31.2455560   6.2306490  59.7462920  31.5979380   5.6334620  59.0864290
  30.3617890   5.9050720  59.9171170  27.3318840   6.9904180  57.1533330
  28.0189970   7.5373390  57.5340920  26.5451260   7.5344910  57.1882940
  19.4711240   2.6077000  52.6450410  20.3406090   2.8901800  52.9286330
  18.9801560   3.4212870  52.5299220  26.6346050   3.9950210  56.7658690
  27.0908830   4.8055460  56.9918880  26.2834260   3.6773350  57.5977180
  28.9378660   9.5056550  63.9950990  29.5820880   9.7115930  64.6724410
  29.3008100   8.7444950  63.5421840  30.2110740   7.5088900  62.7128440
  30.8532970   6.8082060  62.8260610  30.7360090   8.2887340  62.5325330
  34.0566460   7.7937520  52.4367580  33.8304040   7.0767960  53.0292220
  33.6662660   7.5449960  51.5989330  31.9848360   8.3083800  65.9164500
  32.3204600   8.8950490  66.5942420  31.0648700   8.1776510  66.1462290
  19.8382490  11.8204380  53.2112040  20.1980130  12.4193720  52.5569310
  19.6974830  12.3664270  53.9847070  33.6382710   5.7109460  54.0981740
  33.3504410   6.1722150  54.8859620  34.4334880   5.2507230  54.3665960
  19.8224350  10.0859240  67.6854440  19.9315470   9.1453980  67.5449830
  19.1704910  10.3513990  67.0368170  27.8136940   8.3575130  69.0852560
  27.4933810   7.6384370  69.6298250  27.1395300   9.0330200  69.1588620
  25.8551110   9.2035580  54.0285710  25.8461210   9.9365270  53.4130220
  24.9349470   8.9567160  54.1212670  21.4557750   4.4250470  54.7732470
  20.8485700   5.1649370  54.7827770  21.9307100   4.5149830  53.9470670
  28.8410710   9.2663820  52.6910900  28.9422690   9.0627810  51.7612880
  27.9412450   9.0122100  52.8958680  27.4828820  11.7850140  57.3858570
  27.7370320  11.7471530  56.4637940  26.5341300  11.6583470  57.3786820
  33.4881400   2.7042020  58.9617080  32.5471540   2.7192250  59.1364770
  33.8025470   1.9177980  59.4077380  23.4663040   4.3861620  52.5221040
  24.2326310   4.2742980  53.0846470  23.5437730   3.6899590  51.8697810
  35.4906980   9.8750870  60.6371340  35.6154400  10.6982040  61.1095150
  36.3572540   9.6641600  60.2895490  22.9624510  11.9682080  60.3088470
  23.6986990  11.4197540  60.5797040  23.3465430  12.8338090  60.1694460
  19.8469990   8.0355650  56.1829980  18.9209770   8.2776790  56.1735390
  20.3126420   8.8629910  56.0614730  21.9682790  11.1528150  69.4974050
  22.7695520  11.4740200  69.9109450  21.4534610  10.7923730  70.2193960
  26.0726820  11.1412390  52.1314040  26.8655430  11.4301220  51.6795830
  25.5531170  10.7104560  51.4526520  30.8047420   7.2608020  69.4449460
  30.1985580   7.2839620  68.7045210  30.5001530   6.5291060  69.9816710
  32.2347790  10.9888310  68.0558870  33.1869540  10.9046330  68.0059110
  32.0876010  11.6530020  68.7292660  35.1256990  10.3682520  53.5550780
  34.8398500   9.9547660  52.7404960  34.9276540  11.2970230  53.4351300
  19.6880600   3.6401610  68.4410100  20.1919620   3.0608890  69.0126330
  18.9488020   3.9241840  68.9786470  26.5904220   6.3615800  51.9956390
  26.4854860   5.7468150  52.7217770  26.4228440   5.8381690  51.2119400
  26.7418540   5.0472600  67.9745620  25.9764210   5.6157600  67.8900290
  26.9234500   4.7548810  67.0813850  29.8306950   5.4235830  52.5998380
  29.2817050   5.8705130  53.2441120  30.4526210   4.9185080  53.1236050
  33.8841890   6.7777930  68.5320640  34.6251360   7.1153690  68.0288100
  33.1214570   6.9469990  67.9790410  25.4982070   4.3826750  54.4963680
  25.9198490   4.2166620  55.3395070  25.6232910   3.5726980  54.0018820
  28.0109710   3.4064360  51.7440780  28.5315370   2.6913380  51.3781930
  28.6578110   4.0450230  52.0441290  32.5587550   4.8292760  67.0675850
  32.9728570   4.9837840  67.9166270  31.6238550   4.9547980  67.2301630
  27.3202780   4.7813240  65.0371780  27.7390890   5.6245970  64.8648020
  26.4011410   4.9185280  64.8078560  29.6566680   2.5129420  66.4209620
  29.7762890   1.9170560  67.1604460  30.5160680   2.5499110  66.0010920
  31.9954580   3.0666610  64.9972130  31.4689800   3.5909230  64.3937270
  32.3385920   3.6994000  65.6281860  25.1710200  11.0866250  66.1529510
  24.6331290  11.8112310  65.8338210  25.4244160  10.6096590  65.3626850
  28.0272410  12.3217460  66.4116160  27.9531110  13.2252600  66.7188530
  27.1251250  12.0029360  66.3838230  28.5757740  11.4875970  54.0342520
  29.4708530  11.8260940  54.0561280  28.6075370  10.7655380  53.4066800
  22.2153900   6.8603020  52.2629520  22.6528770   7.4032690  52.9187100
  22.7001630   6.0349970  52.2725860  19.4299700   9.6492050  59.7149780
  19.7602710   8.7813110  59.4828420  19.8590700   9.8550570  60.5454740
  24.0261620   7.9801060  57.3751750  23.7257160   7.8566030  58.2755660
  23.9199110   7.1209650  56.9667480  19.9189910  10.5162640  62.4531410
  19.4820900  10.6963440  63.2855560  20.4867590  11.2737260  62.3113130
  35.5552090  10.0179640  66.7408720  34.9554080  10.0772200  65.9972640
  35.6845990   9.0784620  66.8705570  36.7953540   7.7597460  52.0778430
  35.9646500   7.8274110  52.5485660  36.9725370   8.6501580  51.7745290
  36.2510000   4.5044940  54.5812630  37.0128910   5.0741590  54.6872320
  36.2664370   3.9372140  55.3520940  19.7514340   3.0282870  58.8120290
  19.0963180   2.7594510  58.1679990  20.5892290   2.9187350  58.3622270
  37.2569970   5.3595040  59.4254560  37.6278800   4.5762360  59.0190530
  37.8971900   6.0484140  59.2471860  34.2403730   6.7431620  64.8384880
  33.4263570   7.1728780  65.1010670  34.6477930   7.3550030  64.2253930
  36.3029170   4.7979310  51.7385150  36.5778010   5.7058190  51.6104370
  36.1139910   4.7341840  52.6747140  36.1994510   2.7348300  56.7314580
  35.8238110   1.9676230  56.2995870  35.4697630   3.1171000  57.2189510
  20.7890270   3.4135440  63.3523630  21.1563310   3.3262840  64.2319650
  20.2201090   2.6501990  63.2530490  34.2979780  11.4950220  58.3653150
  34.8938850  11.1734790  57.6887570  34.5557930  11.0222040  59.1566420
  22.2042350   7.9268130  68.5143780  22.1611980   7.5561040  69.3958240
  22.3353360   8.8645700  68.6545600  25.9048380   9.4827720  64.1153500
  25.6639740   9.7502280  63.2284020  26.8451020   9.6533450  64.1704360
  37.1652540  11.5022100  64.9164140  36.6710820  11.8990970  64.1991270
  36.5565830  10.8771310  65.3101420  22.0430380  10.8730380  65.6341560
  21.4490700  10.7415080  66.3731600  22.0354220  10.0368520  65.1683660
  34.8491990  12.1445520  62.1950880  34.3894960  12.8961330  61.8208900
  34.2204450  11.4251990  62.1365680  21.6742610   8.2388760  64.5849600
  20.9476670   7.6194050  64.5175550  21.7351760   8.6329370  63.7147680
  25.2787710  10.4533760  61.3699010  25.7952730   9.8421120  60.8447270
  25.9285090  10.9562540  61.8610020  28.0183210  11.3442250  62.1967990
  28.3061020  11.0896550  61.3201000  28.5306430  10.7919610  62.7873560
  19.9572610  11.5563150  57.7946360  19.7894650  10.9233830  58.4928250
  19.0907120  11.7622550  57.4440550  21.5635310  10.2496380  55.2396500
  21.0382930  10.6304410  54.5358460  21.4879890  10.8747150  55.9606210
  28.0855570  12.2658350  69.5636190  29.0122880  12.0302620  69.6072150
  28.0706000  13.0930350  69.0822220  36.3200630  11.8083920  56.5610440
  36.4952820  11.1221660  55.9171360  35.6222200  12.3330970  56.1687110
  24.1628280  12.1978760  54.1145750  24.8947100  11.9138040  53.5669640
  24.4221950  11.9592040  55.0045130  23.3243070   8.3143490  54.1192080
  22.6951950   8.7828590  54.6677910  23.4390900   7.4692710  54.5538270
  34.6533130  11.4928210  69.3877230  35.4458450  10.9977440  69.1803190
  34.9466280  12.1718350  69.9952840  28.9110830   4.1428170  42.1502550
  28.1352930   3.6628610  42.4401120  29.5623760   3.4633820  41.9758710
  22.9276660   4.4547980  43.0278310  22.0961540   4.1996690  43.4274820
  23.5357640   4.5258750  43.7636230  32.9318260   8.5488360  40.9301680
  32.4699790   7.7775600  41.2588850  33.7443810   8.5754430  41.4354130
  22.9077920   8.4888070  43.2236330  23.2105960   7.5985810  43.0446550
  23.6521510   9.0458290  42.9958580  29.1581570  10.8346370  40.5505670
  28.5393010  11.2903870  39.9800110  30.0133350  10.9897830  40.1495370
  28.3519820   6.8185360  42.1572710  28.2828100   5.8775300  41.9961840
  29.1139680   6.9086770  42.7295280  30.0244920   5.7185610  37.9437580
  29.4062190   6.1835060  37.3800300  30.5368170   6.4113090  38.3607090
  24.8876680   5.2461480  44.6221180  24.5546060   5.8730400  45.2642250
  25.0643360   5.7723360  43.8422850  24.0995780   7.2142280  46.4370360
  24.7169780   7.8893360  46.1554810  23.2388900   7.6230260  46.3457860
  19.3928120   6.4042140  35.3177210  19.0156100   6.8929240  34.5862110
  19.6501190   7.0767420  35.9483740  35.0173370   8.6781690  44.3525000
  34.3336890   9.3480800  44.3441670  35.5567660   8.8762340  43.5869860
  32.5532110  10.5225820  43.0670180  32.5659270  10.1188110  42.1992440
  32.0007330  11.2973110  42.9631610  33.8477530   7.2442040  38.1560350
  33.7373860   6.3016370  38.2809770  33.8445780   7.6057680  39.0423110
  31.9517550   5.4255660  44.3952790  32.3686340   5.2115770  43.5606250
  32.6757370   5.6828450  44.9661410  29.3897810   2.8707360  37.5122840
  28.4627090   2.8044740  37.7411310  29.5422630   3.8087490  37.3978080
  35.8979650   3.8242880  44.4869030  35.0698280   3.8935970  44.0119160
  36.4930130   4.4097190  44.0184860  33.4195100   4.4327660  38.0158090
  32.8007520   4.0947210  37.3684390  33.4019550   3.7887420  38.7237280
  24.9954450   3.3972100  40.2942570  24.5911450   2.6849350  39.7988470
  25.0817570   3.0525340  41.1830610  25.4636150   7.0839660  42.4581780
  25.1664440   6.4785130  41.7789560  26.4135970   7.1216970  42.3471140
  33.5521760  10.6571530  46.1204880  33.0752320  11.4643720  45.9277490
  32.8683550  10.0049860  46.2731090  24.5554580   6.8221350  49.1089580
  23.6583110   7.0461320  49.3562980  24.5807450   6.9456290  48.1600980
  31.5959800   3.6714470  35.0230840  32.0353080   2.8336900  34.8768660
  32.3088220   4.3043870  35.1094980  23.3825800   3.6934670  47.6846950
  23.2433570   4.5657470  48.0534350  22.5007160   3.3507480  47.5394890
  29.7055180   8.6110540  38.9912080  30.1451090   9.3534870  38.5767470
  29.6442070   8.8537110  39.9151040  25.1806150   9.6356370  49.8932100
  25.1521580  10.0399320  49.0260530  25.0171120   8.7066730  49.7303700
  37.1320970  10.4183470  51.1896270  37.6080690  10.8966360  51.8685350
  37.7528130  10.3500960  50.4641770  19.3344450   5.4632220  43.6017860
  19.4124870   5.5980990  42.6573580  19.9486130   4.7548110  43.7945980
  20.5792080   7.1632410  40.0124040  20.1720160   7.3047000  39.1577640
  21.4705090   6.8792570  39.8095250  36.5354220   7.6096320  48.3496280
  36.6617280   7.3708200  47.4313460  36.5775600   6.7780860  48.8218360
  30.3970960  11.3124320  46.9191090  30.9115630  11.2232330  47.7213520
  29.5540040  11.6584020  47.2119000  32.3725360  11.5979660  36.3475090
  32.2126500  11.3082600  37.2456920  32.2072070  10.8219790  35.8120320
  24.8513740  11.3778190  38.1246710  24.6756220  10.4613730  37.9114510
  23.9969480  11.7365480  38.3644510  32.0751490   9.1067220  34.9073090
  31.3816650   9.1044510  34.2475370  32.8174350   8.6826540  34.4767260
  31.6401420  10.7329930  38.9821580  32.0958370   9.9519310  39.2960200
  31.9793940  11.4436750  39.5262760  19.3903970   6.5046390  46.1412320
  19.5535010   6.0351750  45.3231690  19.8556420   5.9969950  46.8061160
  20.9642950   5.8797820  48.3008130  20.5797740   5.2391490  48.8991090
  21.2755140   6.5833940  48.8702860  27.1140090   2.7274360  43.7816750
  27.4810220   2.2532930  44.5278090  26.9245150   3.6015930  44.1225090
  24.9039460   1.7683000  46.1000960  24.5996530   2.6474980  46.3251320
  25.8585920   1.8282790  46.1358400  23.4321250   5.9743990  36.6967810
  22.6583510   5.4341610  36.5366530  24.1615880   5.4550600  36.3585570
  34.1909230   4.9709350  42.4894200  34.9108350   5.4664640  42.0990310
  33.9891050   4.2927240  41.8448070  29.5728030   5.0418410  48.3763200
  29.5065340   4.1214080  48.1220790  28.9433170   5.1393850  49.0907840
  23.4758650   5.6424370  40.3346620  23.9937320   4.8392630  40.2803510
  23.0242670   5.5803510  41.1763450  28.3628150   6.9090650  35.6073920
  28.7043850   7.6532880  35.1117240  27.5340860   7.2221770  35.9698750
  20.9603190   2.6085740  47.2472320  20.6018130   3.2739590  47.8345660
  20.6657750   1.7769290  47.6184940  24.1616310   3.0669980  50.1311870
  23.8616450   3.2127160  49.2339690  24.9327550   2.5075270  50.0385260
  29.5044760   7.8638980  48.1267000  29.5189300   6.9319940  47.9085910
  28.7969860   7.9498740  48.7656770  34.6381830   2.0478800  34.3965610
  34.5545550   2.4793020  33.5462050  35.3576020   2.5077150  34.8292430
  35.7155970   4.5046320  47.4735580  34.9904160   5.0975100  47.2764970
  36.2431430   4.4969860  46.6748950  35.6669080   8.9021060  37.1247740
  35.0245240   8.2476680  37.3991460  35.2799740   9.3076150  36.3488410
  31.2455560   6.2306490  40.9719430  31.5979380   5.6334620  40.3120800
  30.3617890   5.9050720  41.1427680  27.3318840   6.9904180  38.3789840
  28.0189970   7.5373390  38.7597430  26.5451260   7.5344910  38.4139450
  19.4711240   2.6077000  33.8706920  20.3406090   2.8901800  34.1542840
  18.9801560   3.4212870  33.7555730  26.6346050   3.9950210  37.9915200
  27.0908830   4.8055460  38.2175390  26.2834260   3.6773350  38.8233690
  28.9378660   9.5056550  45.2207500  29.5820880   9.7115930  45.8980920
  29.3008100   8.7444950  44.7678350  30.2110740   7.5088900  43.9384950
  30.8532970   6.8082060  44.0517120  30.7360090   8.2887340  43.7581840
  34.0566460   7.7937520  33.6624090  33.8304040   7.0767960  34.2548730
  33.6662660   7.5449960  32.8245840  31.9848360   8.3083800  47.1421010
  32.3204600   8.8950490  47.8198930  31.0648700   8.1776510  47.3718800
  19.8382490  11.8204380  34.4368550  20.1980130  12.4193720  33.7825820
  19.6974830  12.3664270  35.2103580  33.6382710   5.7109460  35.3238250
  33.3504410   6.1722150  36.1116130  34.4334880   5.2507230  35.5922470
  19.8224350  10.0859240  48.9110950  19.9315470   9.1453980  48.7706340
  19.1704910  10.3513990  48.2624680  27.8136940   8.3575130  50.3109070
  27.4933810   7.6384370  50.8554760  27.1395300   9.0330200  50.3845130
  25.8551110   9.2035580  35.2542220  25.8461210   9.9365270  34.6386730
  24.9349470   8.9567160  35.3469180  21.4557750   4.4250470  35.9988980
  20.8485700   5.1649370  36.0084280  21.9307100   4.5149830  35.1727180
  28.8410710   9.2663820  33.9167410  28.9422690   9.0627810  32.9869390
  27.9412450   9.0122100  34.1215190  27.4828820  11.7850140  38.6115080
  27.7370320  11.7471530  37.6894450  26.5341300  11.6583470  38.6043330
  33.4881400   2.7042020  40.1873590  32.5471540   2.7192250  40.3621280
  33.8025470   1.9177980  40.6333890  23.4663040   4.3861620  33.7477550
  24.2326310   4.2742980  34.3102980  23.5437730   3.6899590  33.0954320
  35.4906980   9.8750870  41.8627850  35.6154400  10.6982040  42.3351660
  36.3572540   9.6641600  41.5152000  22.9624510  11.9682080  41.5344980
  23.6986990  11.4197540  41.8053550  23.3465430  12.8338090  41.3950970
  19.8469990   8.0355650  37.4086490  18.9209770   8.2776790  37.3991900
  20.3126420   8.8629910  37.2871240  21.9682790  11.1528150  50.7230560
  22.7695520  11.4740200  51.1365960  21.4534610  10.7923730  51.4450470
  26.0726820  11.1412390  33.3570550  26.8655430  11.4301220  32.9052340
  25.5531170  10.7104560  32.6783030  30.8047420   7.2608020  50.6705970
  30.1985580   7.2839620  49.9301720  30.5001530   6.5291060  51.2073220
  32.2347790  10.9888310  49.2815380  33.1869540  10.9046330  49.2315620
  32.0876010  11.6530020  49.9549170  35.1256990  10.3682520  34.7807290
  34.8398500   9.9547660  33.9661470  34.9276540  11.2970230  34.6607810
  19.6880600   3.6401610  49.6666610  20.1919620   3.0608890  50.2382840
  18.9488020   3.9241840  50.2042980  26.5904220   6.3615800  33.2212900
  26.4854860   5.7468150  33.9474280  26.4228440   5.8381690  32.4375910
  26.7418540   5.0472600  49.2002130  25.9764210   5.6157600  49.1156800
  26.9234500   4.7548810  48.3070360  29.8306950   5.4235830  33.8254890
  29.2817050   5.8705130  34.4697630  30.4526210   4.9185080  34.3492560
  33.8841890   6.7777930  49.7577150  34.6251360   7.1153690  49.2544610
  33.1214570   6.9469990  49.2046920  25.4982070   4.3826750  35.7220190
  25.9198490   4.2166620  36.5651580  25.6232910   3.5726980  35.2275330
  28.0109710   3.4064360  32.9697290  28.5315370   2.6913380  32.6038440
  28.6578110   4.0450230  33.2697800  32.5587550   4.8292760  48.2932360
  32.9728570   4.9837840  49.1422780  31.6238550   4.9547980  48.4558140
  27.3202780   4.7813240  46.2628290  27.7390890   5.6245970  46.0904530
  26.4011410   4.9185280  46.0335070  29.6566680   2.5129420  47.6466130
  29.7762890   1.9170560  48.3860970  30.5160680   2.5499110  47.2267430
  31.9954580   3.0666610  46.2228640  31.4689800   3.5909230  45.6193780
  32.3385920   3.6994000  46.8538370  25.1710200  11.0866250  47.3786020
  24.6331290  11.8112310  47.0594720  25.4244160  10.6096590  46.5883360
  28.0272410  12.3217460  47.6372670  27.9531110  13.2252600  47.9445040
  27.1251250  12.0029360  47.6094740  28.5757740  11.4875970  35.2599030
  29.4708530  11.8260940  35.2817790  28.6075370  10.7655380  34.6323310
  22.2153900   6.8603020  33.4886030  22.6528770   7.4032690  34.1443610
  22.7001630   6.0349970  33.4982370  19.4299700   9.6492050  40.9406290
  19.7602710   8.7813110  40.7084930  19.8590700   9.8550570  41.7711250
  24.0261620   7.9801060  38.6008260  23.7257160   7.8566030  39.5012170
  23.9199110   7.1209650  38.1923990  19.9189910  10.5162640  43.6787920
  19.4820900  10.6963440  44.5112070  20.4867590  11.2737260  43.5369640
  35.5552090  10.0179640  47.9665230  34.9554080  10.0772200  47.2229150
  35.6845990   9.0784620  48.0962080  36.7953540   7.7597460  33.3034940
  35.9646500   7.8274110  33.7742170  36.9725370   8.6501580  33.0001800
  36.2510000   4.5044940  35.8069140  37.0128910   5.0741590  35.9128830
  36.2664370   3.9372140  36.5777450  19.7514340   3.0282870  40.0376800
  19.0963180   2.7594510  39.3936500  20.5892290   2.9187350  39.5878780
  37.2569970   5.3595040  40.6511070  37.6278800   4.5762360  40.2447040
  37.8971900   6.0484140  40.4728370  34.2403730   6.7431620  46.0641390
  33.4263570   7.1728780  46.3267180  34.6477930   7.3550030  45.4510440
  36.3029170   4.7979310  32.9641660  36.5778010   5.7058190  32.8360880
  36.1139910   4.7341840  33.9003650  36.1994510   2.7348300  37.9571090
  35.8238110   1.9676230  37.5252380  35.4697630   3.1171000  38.4446020
  20.7890270   3.4135440  44.5780140  21.1563310   3.3262840  45.4576160
  20.2201090   2.6501990  44.4787000  34.2979780  11.4950220  39.5909660
  34.8938850  11.1734790  38.9144080  34.5557930  11.0222040  40.3822930
  22.2042350   7.9268130  49.7400290  22.1611980   7.5561040  50.6214750
  22.3353360   8.8645700  49.8802110  25.9048380   9.4827720  45.3410010
  25.6639740   9.7502280  44.4540530  26.8451020   9.6533450  45.3960870
  37.1652540  11.5022100  46.1420650  36.6710820  11.8990970  45.4247780
  36.5565830  10.8771310  46.5357930  22.0430380  10.8730380  46.8598070
  21.4490700  10.7415080  47.5988110  22.0354220  10.0368520  46.3940170
  34.8491990  12.1445520  43.4207390  34.3894960  12.8961330  43.0465410
  34.2204450  11.4251990  43.3622190  21.6742610   8.2388760  45.8106110
  20.9476670   7.6194050  45.7432060  21.7351760   8.6329370  44.9404190
  25.2787710  10.4533760  42.5955520  25.7952730   9.8421120  42.0703780
  25.9285090  10.9562540  43.0866530  28.0183210  11.3442250  43.4224500
  28.3061020  11.0896550  42.5457510  28.5306430  10.7919610  44.0130070
  19.9572610  11.5563150  39.0202870  19.7894650  10.9233830  39.7184760
  19.0907120  11.7622550  38.6697060  21.5635310  10.2496380  36.4653010
  21.0382930  10.6304410  35.7614970  21.4879890  10.8747150  37.1862720
  28.0855570  12.2658350  50.7892700  29.0122880  12.0302620  50.8328660
  28.0706000  13.0930350  50.3078730  36.3200630  11.8083920  37.7866950
  36.4952820  11.1221660  37.1427870  35.6222200  12.3330970  37.3943620
  24.1628280  12.1978760  35.3402260  24.8947100  11.9138040  34.7926150
  24.4221950  11.9592040  36.2301640  23.3243070   8.3143490  35.3448590
  22.6951950   8.7828590  35.8934420  23.4390900   7.4692710  35.7794780
  34.6533130  11.4928210  50.6133740  35.4458450  10.9977440  50.4059700
  34.9466280  12.1718350  51.2209350  28.9110830   4.1428170  23.3759060
  28.1352930   3.6628610  23.6657630  29.5623760   3.4633820  23.2015220
  22.9276660   4.4547980  24.2534820  22.0961540   4.1996690  24.6531330
  23.5357640   4.5258750  24.9892740  32.9318260   8.5488360  22.1558190
  32.4699790   7.7775600  22.4845360  33.7443810   8.5754430  22.6610640
  22.9077920   8.4888070  24.4492840  23.2105960   7.5985810  24.2703060
  23.6521510   9.0458290  24.2215090  29.1581570  10.8346370  21.7762180
  28.5393010  11.2903870  21.2056620  30.0133350  10.9897830  21.3751880
  28.3519820   6.8185360  23.3829220  28.2828100   5.8775300  23.2218350
  29.1139680   6.9086770  23.9551790  30.0244920   5.7185610  19.1694090
  29.4062190   6.1835060  18.6056810  30.5368170   6.4113090  19.5863600
  24.8876680   5.2461480  25.8477690  24.5546060   5.8730400  26.4898760
  25.0643360   5.7723360  25.0679360  24.0995780   7.2142280  27.6626870
  24.7169780   7.8893360  27.3811320  23.2388900   7.6230260  27.5714370
  19.3928120   6.4042140  16.5433720  19.0156100   6.8929240  15.8118620
  19.6501190   7.0767420  17.1740250  35.0173370   8.6781690  25.5781510
  34.3336890   9.3480800  25.5698180  35.5567660   8.8762340  24.8126370
  32.5532110  10.5225820  24.2926690  32.5659270  10.1188110  23.4248950
  32.0007330  11.2973110  24.1888120  33.8477530   7.2442040  19.3816860
  33.7373860   6.3016370  19.5066280  33.8445780   7.6057680  20.2679620
  31.9517550   5.4255660  25.6209300  32.3686340   5.2115770  24.7862760
  32.6757370   5.6828450  26.1917920  29.3897810   2.8707360  18.7379350
  28.4627090   2.8044740  18.9667820  29.5422630   3.8087490  18.6234590
  35.8979650   3.8242880  25.7125540  35.0698280   3.8935970  25.2375670
  36.4930130   4.4097190  25.2441370  33.4195100   4.4327660  19.2414600
  32.8007520   4.0947210  18.5940900  33.4019550   3.7887420  19.9493790
  24.9954450   3.3972100  21.5199080  24.5911450   2.6849350  21.0244980
  25.0817570   3.0525340  22.4087120  25.4636150   7.0839660  23.6838290
  25.1664440   6.4785130  23.0046070  26.4135970   7.1216970  23.5727650
  33.5521760  10.6571530  27.3461390  33.0752320  11.4643720  27.1534000
  32.8683550  10.0049860  27.4987600  24.5554580   6.8221350  30.3346090
  23.6583110   7.0461320  30.5819490  24.5807450   6.9456290  29.3857490
  31.5959800   3.6714470  16.2487350  32.0353080   2.8336900  16.1025170
  32.3088220   4.3043870  16.3351490  23.3825800   3.6934670  28.9103460
  23.2433570   4.5657470  29.2790860  22.5007160   3.3507480  28.7651400
  29.7055180   8.6110540  20.2168590  30.1451090   9.3534870  19.8023980
  29.6442070   8.8537110  21.1407550  25.1806150   9.6356370  31.1188610
  25.1521580  10.0399320  30.2517040  25.0171120   8.7066730  30.9560210
  37.1320970  10.4183470  32.4152780  37.6080690  10.8966360  33.0941860
  37.7528130  10.3500960  31.6898280  19.3344450   5.4632220  24.8274370
  19.4124870   5.5980990  23.8830090  19.9486130   4.7548110  25.0202490
  20.5792080   7.1632410  21.2380550  20.1720160   7.3047000  20.3834150
  21.4705090   6.8792570  21.0351760  36.5354220   7.6096320  29.5752790
  36.6617280   7.3708200  28.6569970  36.5775600   6.7780860  30.0474870
  30.3970960  11.3124320  28.1447600  30.9115630  11.2232330  28.9470030
  29.5540040  11.6584020  28.4375510  32.3725360  11.5979660  17.5731600
  32.2126500  11.3082600  18.4713430  32.2072070  10.8219790  17.0376830
  24.8513740  11.3778190  19.3503220  24.6756220  10.4613730  19.1371020
  23.9969480  11.7365480  19.5901020  32.0751490   9.1067220  16.1329600
  31.3816650   9.1044510  15.4731880  32.8174350   8.6826540  15.7023770
  31.6401420  10.7329930  20.2078090  32.0958370   9.9519310  20.5216710
  31.9793940  11.4436750  20.7519270  19.3903970   6.5046390  27.3668830
  19.5535010   6.0351750  26.5488200  19.8556420   5.9969950  28.0317670
  20.9642950   5.8797820  29.5264640  20.5797740   5.2391490  30.1247600
  21.2755140   6.5833940  30.0959370  27.1140090   2.7274360  25.0073260
  27.4810220   2.2532930  25.7534600  26.9245150   3.6015930  25.3481600
  24.9039460   1.7683000  27.3257470  24.5996530   2.6474980  27.5507830
  25.8585920   1.8282790  27.3614910  23.4321250   5.9743990  17.9224320
  22.6583510   5.4341610  17.7623040  24.1615880   5.4550600  17.5842080
  34.1909230   4.9709350  23.7150710  34.9108350   5.4664640  23.3246820
  33.9891050   4.2927240  23.0704580  29.5728030   5.0418410  29.6019710
  29.5065340   4.1214080  29.3477300  28.9433170   5.1393850  30.3164350
  23.4758650   5.6424370  21.5603130  23.9937320   4.8392630  21.5060020
  23.0242670   5.5803510  22.4019960  28.3628150   6.9090650  16.8330430
  28.7043850   7.6532880  16.3373750  27.5340860   7.2221770  17.1955260
  20.9603190   2.6085740  28.4728830  20.6018130   3.2739590  29.0602170
  20.6657750   1.7769290  28.8441450  24.1616310   3.0669980  31.3568380
  23.8616450   3.2127160  30.4596200  24.9327550   2.5075270  31.2641770
  29.5044760   7.8638980  29.3523510  29.5189300   6.9319940  29.1342420
  28.7969860   7.9498740  29.9913280  34.6381830   2.0478800  15.6222120
  34.5545550   2.4793020  14.7718560  35.3576020   2.5077150  16.0548940
  35.7155970   4.5046320  28.6992090  34.9904160   5.0975100  28.5021480
  36.2431430   4.4969860  27.9005460  35.6669080   8.9021060  18.3504250
  35.0245240   8.2476680  18.6247970  35.2799740   9.3076150  17.5744920
  31.2455560   6.2306490  22.1975940  31.5979380   5.6334620  21.5377310
  30.3617890   5.9050720  22.3684190  27.3318840   6.9904180  19.6046350
  28.0189970   7.5373390  19.9853940  26.5451260   7.5344910  19.6395960
  19.4711240   2.6077000  15.0963430  20.3406090   2.8901800  15.3799350
  18.9801560   3.4212870  14.9812240  26.6346050   3.9950210  19.2171710
  27.0908830   4.8055460  19.4431900  26.2834260   3.6773350  20.0490200
  28.9378660   9.5056550  26.4464010  29.5820880   9.7115930  27.1237430
  29.3008100   8.7444950  25.9934860  30.2110740   7.5088900  25.1641460
  30.8532970   6.8082060  25.2773630  30.7360090   8.2887340  24.9838350
  34.0566460   7.7937520  14.8880600  33.8304040   7.0767960  15.4805240
  33.6662660   7.5449960  14.0502350  31.9848360   8.3083800  28.3677520
  32.3204600   8.8950490  29.0455440  31.0648700   8.1776510  28.5975310
  19.8382490  11.8204380  15.6625060  20.1980130  12.4193720  15.0082330
  19.6974830  12.3664270  16.4360090  33.6382710   5.7109460  16.5494760
  33.3504410   6.1722150  17.3372640  34.4334880   5.2507230  16.8178980
  19.8224350  10.0859240  30.1367460  19.9315470   9.1453980  29.9962850
  19.1704910  10.3513990  29.4881190  27.8136940   8.3575130  31.5365580
  27.4933810   7.6384370  32.0811270  27.1395300   9.0330200  31.6101640
  25.8551110   9.2035580  16.4798730  25.8461210   9.9365270  15.8643240
  24.9349470   8.9567160  16.5725690  21.4557750   4.4250470  17.2245490
  20.8485700   5.1649370  17.2340790  21.9307100   4.5149830  16.3983690
  28.8410710   9.2663820  15.1423920  28.9422690   9.0627810  14.2125900
  27.9412450   9.0122100  15.3471700  27.4828820  11.7850140  19.8371590
  27.7370320  11.7471530  18.9150960  26.5341300  11.6583470  19.8299840
  33.4881400   2.7042020  21.4130100  32.5471540   2.7192250  21.5877790
  33.8025470   1.9177980  21.8590400  23.4663040   4.3861620  14.9734060
  24.2326310   4.2742980  15.5359490  23.5437730   3.6899590  14.3210830
  35.4906980   9.8750870  23.0884360  35.6154400  10.6982040  23.5608170
  36.3572540   9.6641600  22.7408510  22.9624510  11.9682080  22.7601490
  23.6986990  11.4197540  23.0310060  23.3465430  12.8338090  22.6207480
  19.8469990   8.0355650  18.6343000  18.9209770   8.2776790  18.6248410
  20.3126420   8.8629910  18.5127750  21.9682790  11.1528150  31.9487070
  22.7695520  11.4740200  32.3622470  21.4534610  10.7923730  32.6706980
  26.0726820  11.1412390  14.5827060  26.8655430  11.4301220  14.1308850
  25.5531170  10.7104560  13.9039540  30.8047420   7.2608020  31.8962480
  30.1985580   7.2839620  31.1558230  30.5001530   6.5291060  32.4329730
  32.2347790  10.9888310  30.5071890  33.1869540  10.9046330  30.4572130
  32.0876010  11.6530020  31.1805680  35.1256990  10.3682520  16.0063800
  34.8398500   9.9547660  15.1917980  34.9276540  11.2970230  15.8864320
  19.6880600   3.6401610  30.8923120  20.1919620   3.0608890  31.4639350
  18.9488020   3.9241840  31.4299490  26.5904220   6.3615800  14.4469410
  26.4854860   5.7468150  15.1730790  26.4228440   5.8381690  13.6632420
  26.7418540   5.0472600  30.4258640  25.9764210   5.6157600  30.3413310
  26.9234500   4.7548810  29.5326870  29.8306950   5.4235830  15.0511400
  29.2817050   5.8705130  15.6954140  30.4526210   4.9185080  15.5749070
  33.8841890   6.7777930  30.9833660  34.6251360   7.1153690  30.4801120
  33.1214570   6.9469990  30.4303430  25.4982070   4.3826750  16.9476700
  25.9198490   4.2166620  17.7908090  25.6232910   3.5726980  16.4531840
  28.0109710   3.4064360  14.1953800  28.5315370   2.6913380  13.8294950
  28.6578110   4.0450230  14.4954310  32.5587550   4.8292760  29.5188870
  32.9728570   4.9837840  30.3679290  31.6238550   4.9547980  29.6814650
  27.3202780   4.7813240  27.4884800  27.7390890   5.6245970  27.3161040
  26.4011410   4.9185280  27.2591580  29.6566680   2.5129420  28.8722640
  29.7762890   1.9170560  29.6117480  30.5160680   2.5499110  28.4523940
  31.9954580   3.0666610  27.4485150  31.4689800   3.5909230  26.8450290
  32.3385920   3.6994000  28.0794880  25.1710200  11.0866250  28.6042530
  24.6331290  11.8112310  28.2851230  25.4244160  10.6096590  27.8139870
  28.0272410  12.3217460  28.8629180  27.9531110  13.2252600  29.1701550
  27.1251250  12.0029360  28.8351250  28.5757740  11.4875970  16.4855540
  29.4708530  11.8260940  16.5074300  28.6075370  10.7655380  15.8579820
  22.2153900   6.8603020  14.7142540  22.6528770   7.4032690  15.3700120
  22.7001630   6.0349970  14.7238880  19.4299700   9.6492050  22.1662800
  19.7602710   8.7813110  21.9341440  19.8590700   9.8550570  22.9967760
  24.0261620   7.9801060  19.8264770  23.7257160   7.8566030  20.7268680
  23.9199110   7.1209650  19.4180500  19.9189910  10.5162640  24.9044430
  19.4820900  10.6963440  25.7368580  20.4867590  11.2737260  24.7626150
  35.5552090  10.0179640  29.1921740  34.9554080  10.0772200  28.4485660
  35.6845990   9.0784620  29.3218590  36.7953540   7.7597460  14.5291450
  35.9646500   7.8274110  14.9998680  36.9725370   8.6501580  14.2258310
  36.2510000   4.5044940  17.0325650  37.0128910   5.0741590  17.1385340
  36.2664370   3.9372140  17.8033960  19.7514340   3.0282870  21.2633310
  19.0963180   2.7594510  20.6193010  20.5892290   2.9187350  20.8135290
  37.2569970   5.3595040  21.8767580  37.6278800   4.5762360  21.4703550
  37.8971900   6.0484140  21.6984880  34.2403730   6.7431620  27.2897900
  33.4263570   7.1728780  27.5523690  34.6477930   7.3550030  26.6766950
  36.3029170   4.7979310  14.1898170  36.5778010   5.7058190  14.0617390
  36.1139910   4.7341840  15.1260160  36.1994510   2.7348300  19.1827600
  35.8238110   1.9676230  18.7508890  35.4697630   3.1171000  19.6702530
  20.7890270   3.4135440  25.8036650  21.1563310   3.3262840  26.6832670
  20.2201090   2.6501990  25.7043510  34.2979780  11.4950220  20.8166170
  34.8938850  11.1734790  20.1400590  34.5557930  11.0222040  21.6079440
  22.2042350   7.9268130  30.9656800  22.1611980   7.5561040  31.8471260
  22.3353360   8.8645700  31.1058620  25.9048380   9.4827720  26.5666520
  25.6639740   9.7502280  25.6797040  26.8451020   9.6533450  26.6217380
  37.1652540  11.5022100  27.3677160  36.6710820  11.8990970  26.6504290
  36.5565830  10.8771310  27.7614440  22.0430380  10.8730380  28.0854580
  21.4490700  10.7415080  28.8244620  22.0354220  10.0368520  27.6196680
  34.8491990  12.1445520  24.6463900  34.3894960  12.8961330  24.2721920
  34.2204450  11.4251990  24.5878700  21.6742610   8.2388760  27.0362620
  20.9476670   7.6194050  26.9688570  21.7351760   8.6329370  26.1660700
  25.2787710  10.4533760  23.8212030  25.7952730   9.8421120  23.2960290
  25.9285090  10.9562540  24.3123040  28.0183210  11.3442250  24.6481010
  28.3061020  11.0896550  23.7714020  28.5306430  10.7919610  25.2386580
  19.9572610  11.5563150  20.2459380  19.7894650  10.9233830  20.9441270
  19.0907120  11.7622550  19.8953570  21.5635310  10.2496380  17.6909520
  21.0382930  10.6304410  16.9871480  21.4879890  10.8747150  18.4119230
  28.0855570  12.2658350  32.0149210  29.0122880  12.0302620  32.0585170
  28.0706000  13.0930350  31.5335240  36.3200630  11.8083920  19.0123460
  36.4952820  11.1221660  18.3684380  35.6222200  12.3330970  18.6200130
  24.1628280  12.1978760  16.5658770  24.8947100  11.9138040  16.0182660
  24.4221950  11.9592040  17.4558150  23.3243070   8.3143490  16.5705100
  22.6951950   8.7828590  17.1190930  23.4390900   7.4692710  17.0051290
  34.6533130  11.4928210  31.8390250  35.4458450  10.9977440  31.6316210
  34.9466280  12.1718350  32.4465860  28.9110830   4.1428170   4.6015570
  28.1352930   3.6628610   4.8914140  29.5623760   3.4633820   4.4271730
  22.9276660   4.4547980   5.4791330  22.0961540   4.1996690   5.8787840
  23.5357640   4.5258750   6.2149250  32.9318260   8.5488360   3.3814700
  32.4699790   7.7775600   3.7101870  33.7443810   8.5754430   3.8867150
  22.9077920   8.4888070   5.6749350  23.2105960   7.5985810   5.4959570
  23.6521510   9.0458290   5.4471600  29.1581570  10.8346370   3.0018690
  28.5393010  11.2903870   2.4313130  30.0133350  10.9897830   2.6008390
  28.3519820   6.8185360   4.6085730  28.2828100   5.8775300   4.4474860
  29.1139680   6.9086770   5.1808300  24.8876680   5.2461480   7.0734200
  24.5546060   5.8730400   7.7155270  25.0643360   5.7723360   6.2935870
  24.0995780   7.2142280   8.8883380  24.7169780   7.8893360   8.6067830
  23.2388900   7.6230260   8.7970880  35.0173370   8.6781690   6.8038020
  34.3336890   9.3480800   6.7954690  35.5567660   8.8762340   6.0382880
  32.5532110  10.5225820   5.5183200  32.5659270  10.1188110   4.6505460
  32.0007330  11.2973110   5.4144630  31.9517550   5.4255660   6.8465810
  32.3686340   5.2115770   6.0119270  32.6757370   5.6828450   7.4174430
  35.8979650   3.8242880   6.9382050  35.0698280   3.8935970   6.4632180
  36.4930130   4.4097190   6.4697880  24.9954450   3.3972100   2.7455590
  24.5911450   2.6849350   2.2501490  25.0817570   3.0525340   3.6343630
  25.4636150   7.0839660   4.9094800  25.1664440   6.4785130   4.2302580
  26.4135970   7.1216970   4.7984160  33.5521760  10.6571530   8.5717900
  33.0752320  11.4643720   8.3790510  32.8683550  10.0049860   8.7244110
  24.5554580   6.8221350  11.5602600  23.6583110   7.0461320  11.8076000
  24.5807450   6.9456290  10.6114000  23.3825800   3.6934670  10.1359970
  23.2433570   4.5657470  10.5047370  22.5007160   3.3507480   9.9907910
  25.1806150   9.6356370  12.3445120  25.1521580  10.0399320  11.4773550
  25.0171120   8.7066730  12.1816720  37.1320970  10.4183470  13.6409290
  37.6080690  10.8966360  14.3198370  37.7528130  10.3500960  12.9154790
  19.3344450   5.4632220   6.0530880  19.4124870   5.5980990   5.1086600
  19.9486130   4.7548110   6.2459000  20.5792080   7.1632410   2.4637060
  20.1720160   7.3047000   1.6090660  21.4705090   6.8792570   2.2608270
  36.5354220   7.6096320  10.8009300  36.6617280   7.3708200   9.8826480
  36.5775600   6.7780860  11.2731380  30.3970960  11.3124320   9.3704110
  30.9115630  11.2232330  10.1726540  29.5540040  11.6584020   9.6632020
  19.3903970   6.5046390   8.5925340  19.5535010   6.0351750   7.7744710
  19.8556420   5.9969950   9.2574180  20.9642950   5.8797820  10.7521150
  20.5797740   5.2391490  11.3504110  21.2755140   6.5833940  11.3215880
  27.1140090   2.7274360   6.2329770  27.4810220   2.2532930   6.9791110
  26.9245150   3.6015930   6.5738110  24.9039460   1.7683000   8.5513980
  24.5996530   2.6474980   8.7764340  25.8585920   1.8282790   8.5871420
  34.1909230   4.9709350   4.9407220  34.9108350   5.4664640   4.5503330
  33.9891050   4.2927240   4.2961090  29.5728030   5.0418410  10.8276220
  29.5065340   4.1214080  10.5733810  28.9433170   5.1393850  11.5420860
  23.4758650   5.6424370   2.7859640  23.9937320   4.8392630   2.7316530
  23.0242670   5.5803510   3.6276470  20.9603190   2.6085740   9.6985340
  20.6018130   3.2739590  10.2858680  20.6657750   1.7769290  10.0697960
  24.1616310   3.0669980  12.5824890  23.8616450   3.2127160  11.6852710
  24.9327550   2.5075270  12.4898280  29.5044760   7.8638980  10.5780020
  29.5189300   6.9319940  10.3598930  28.7969860   7.9498740  11.2169790
  35.7155970   4.5046320   9.9248600  34.9904160   5.0975100   9.7277990
  36.2431430   4.4969860   9.1261970  31.2455560   6.2306490   3.4232450
  31.5979380   5.6334620   2.7633820  30.3617890   5.9050720   3.5940700
  28.9378660   9.5056550   7.6720520  29.5820880   9.7115930   8.3493940
  29.3008100   8.7444950   7.2191370  30.2110740   7.5088900   6.3897970
  30.8532970   6.8082060   6.5030140  30.7360090   8.2887340   6.2094860
  31.9848360   8.3083800   9.5934030  32.3204600   8.8950490  10.2711950
  31.0648700   8.1776510   9.8231820  19.8224350  10.0859240  11.3623970
  19.9315470   9.1453980  11.2219360  19.1704910  10.3513990  10.7137700
  27.8136940   8.3575130  12.7622090  27.4933810   7.6384370  13.3067780
  27.1395300   9.0330200  12.8358150  33.4881400   2.7042020   2.6386610
  32.5471540   2.7192250   2.8134300  33.8025470   1.9177980   3.0846910
  35.4906980   9.8750870   4.3140870  35.6154400  10.6982040   4.7864680
  36.3572540   9.6641600   3.9665020  22.9624510  11.9682080   3.9858000
  23.6986990  11.4197540   4.2566570  23.3465430  12.8338090   3.8463990
  21.9682790  11.1528150  13.1743580  22.7695520  11.4740200  13.5878980
  21.4534610  10.7923730  13.8963490  30.8047420   7.2608020  13.1218990
  30.1985580   7.2839620  12.3814740  30.5001530   6.5291060  13.6586240
  32.2347790  10.9888310  11.7328400  33.1869540  10.9046330  11.6828640
  32.0876010  11.6530020  12.4062190  19.6880600   3.6401610  12.1179630
  20.1919620   3.0608890  12.6895860  18.9488020   3.9241840  12.6556000
  26.7418540   5.0472600  11.6515150  25.9764210   5.6157600  11.5669820
  26.9234500   4.7548810  10.7583380  33.8841890   6.7777930  12.2090170
  34.6251360   7.1153690  11.7057630  33.1214570   6.9469990  11.6559940
  32.5587550   4.8292760  10.7445380  32.9728570   4.9837840  11.5935800
  31.6238550   4.9547980  10.9071160  27.3202780   4.7813240   8.7141310
  27.7390890   5.6245970   8.5417550  26.4011410   4.9185280   8.4848090
  29.6566680   2.5129420  10.0979150  29.7762890   1.9170560  10.8373990
  30.5160680   2.5499110   9.6780450  31.9954580   3.0666610   8.6741660
  31.4689800   3.5909230   8.0706800  32.3385920   3.6994000   9.3051390
  25.1710200  11.0866250   9.8299040  24.6331290  11.8112310   9.5107740
  25.4244160  10.6096590   9.0396380  28.0272410  12.3217460  10.0885690
  27.9531110  13.2252600  10.3958060  27.1251250  12.0029360  10.0607760
  19.4299700   9.6492050   3.3919310  19.7602710   8.7813110   3.1597950
  19.8590700   9.8550570   4.2224270  19.9189910  10.5162640   6.1300940
  19.4820900  10.6963440   6.9625090  20.4867590  11.2737260   5.9882660
  35.5552090  10.0179640  10.4178250  34.9554080  10.0772200   9.6742170
  35.6845990   9.0784620  10.5475100  19.7514340   3.0282870   2.4889820
  19.0963180   2.7594510   1.8449520  20.5892290   2.9187350   2.0391800
  37.2569970   5.3595040   3.1024090  37.6278800   4.5762360   2.6960060
  37.8971900   6.0484140   2.9241390  34.2403730   6.7431620   8.5154410
  33.4263570   7.1728780   8.7780200  34.6477930   7.3550030   7.9023460
  20.7890270   3.4135440   7.0293160  21.1563310   3.3262840   7.9089180
  20.2201090   2.6501990   6.9300020  22.2042350   7.9268130  12.1913310
  22.1611980   7.5561040  13.0727770  22.3353360   8.8645700  12.3315130
  25.9048380   9.4827720   7.7923030  25.6639740   9.7502280   6.9053550
  26.8451020   9.6533450   7.8473890  37.1652540  11.5022100   8.5933670
  36.6710820  11.8990970   7.8760800  36.5565830  10.8771310   8.9870950
  22.0430380  10.8730380   9.3111090  21.4490700  10.7415080  10.0501130
  22.0354220  10.0368520   8.8453190  34.8491990  12.1445520   5.8720410
  34.3894960  12.8961330   5.4978430  34.2204450  11.4251990   5.8135210
  21.6742610   8.2388760   8.2619130  20.9476670   7.6194050   8.1945080
  21.7351760   8.6329370   7.3917210  25.2787710  10.4533760   5.0468540
  25.7952730   9.8421120   4.5216800  25.9285090  10.9562540   5.5379550
  28.0183210  11.3442250   5.8737520  28.3061020  11.0896550   4.9970530
  28.5306430  10.7919610   6.4643090  28.0855570  12.2658350  13.2405720
  29.0122880  12.0302620  13.2841680  28.0706000  13.0930350  12.7591750
  34.6533130  11.4928210  13.0646760  35.4458450  10.9977440  12.8572720
  34.9466280  12.1718350  13.6722370  12.0049300  96.2366600  77.8180260
  11.9243350  95.3221210  77.5471970  11.5913720  96.7333670  77.1119970
  10.1367340  98.0145620  79.6989530   9.3609440  97.5346060  79.9888100
  10.7880270  97.3351270  79.5245690   4.1533170  98.3265430  80.5765290
   3.3218050  98.0714140  80.9761800   4.7614150  98.3976200  81.3123210
   2.5625120  93.2867320  74.3607680   1.6741820  93.6283290  74.2587560
   2.8466310  93.0867640  73.4688510  10.6081500  93.4973190  79.9328620
  10.9846320  92.6245070  79.8202290  10.5101010  93.8331890  79.0419060
   4.7386510  91.8698820  75.3946060   4.8453260  92.7702550  75.7014820
   3.8278870  91.8216790  75.1040710  14.3905620  90.9923630  76.8656960
  15.2115240  90.5020200  76.9082440  14.4239700  91.5821290  77.6188800
   2.3869670  93.7917830  80.6398650   3.0679780  94.0556200  81.2586050
   2.0717720  92.9518700  80.9736660   6.5794240  94.8385190  79.7271240
   7.0872460  95.3366160  80.3676260   7.1107480  94.0620390  79.5510600
  14.6267100  92.9324010  79.6384500  13.9222670  93.2208900  80.2187610
  14.9879260  93.7424120  79.2784060   4.5445670  91.1893710  82.0005110
   4.8862480  92.0335760  81.7058980   3.6061480  91.3377450  82.1170450
  17.6954020  92.3778800  80.0293710  16.7478930  92.4117780  80.1609140
  18.0204010  93.1917750  80.4143070   8.2273560  88.6775980  78.3249700
   8.5348540  88.1222870  77.6085200   7.2974260  88.8120440  78.1422690
  10.6154320  96.7424810  75.0609820   9.6883600  96.6762190  75.2898290
  10.7679140  97.6804940  74.9465060  10.6023400  93.0141810  72.0576980
   9.6627070  93.1755770  72.1429440  10.9206660  93.7327490  71.5112970
  17.1236160  97.6960330  82.0356010  16.2954790  97.7653420  81.5606140
  17.7186640  98.2814640  81.5671840  14.6451610  98.3045110  75.5645070
  14.0264030  97.9664660  74.9171370  14.6276060  97.6604870  76.2724260
   6.2210960  97.2689550  77.8429550   5.8167960  96.5566800  77.3475450
   6.3074080  96.9242790  78.7317590  12.8216310  97.5431920  72.5717820
  13.2609590  96.7054350  72.4255640  13.5344730  98.1761320  72.6581960
  16.4033450  88.7974730  70.8858860  16.0906110  88.8901560  71.7857930
  17.1645920  89.3755760  70.8356290   2.9215590  96.1634530  75.3436200
   2.8013190  96.8896620  74.7317470   2.6116480  95.3937440  74.8664110
   5.3879250  89.5069600  78.7259870   4.9447400  90.2879140  78.3944390
   5.9464240  89.8299490  79.4330810   8.5038070  89.1280300  73.6065700
   7.8792250  89.1240170  74.3319010   8.4168190  88.2611260  73.2101670
   7.4255150  90.0516930  80.5849470   7.7227480  90.9579760  80.5041490
   7.9740710  89.5635710  79.9709040   5.1793470  94.6303170  76.4541120
   4.9534390  94.4140340  77.3587740   4.3986000  95.0631630  76.1087090
  12.4091230  94.6366540  75.0531770  11.8100120  95.3602340  74.8695390
  12.9570840  94.5743320  74.2708220  11.0156100  93.2730080  77.0835050
  11.4085670  93.5902280  76.2703740  11.3772950  92.3941960  77.1979570
  11.6011240  95.8635830  81.1785830  10.8692360  96.3722640  81.5275930
  11.2035580  95.0465810  80.8774610   8.0388630  92.5390030  79.5838320
   8.0424690  92.0979980  78.7342860   8.9339750  92.8607360  79.6910140
   3.8891010  92.4216520  78.5432530   3.5491060  92.8991750  79.2999580
   3.1268330  91.9681640  78.1833630   8.1008780  93.5402110  72.5745080
   8.2221600  93.4988590  73.5230900   7.7157290  94.4026260  72.4191810
  12.0637150  91.3169510  80.5908770  12.0809890  91.7678160  81.4350620
  11.8152730  90.4175150  80.8042210   7.1130280  95.8503250  71.9728380
   6.5447180  95.4021500  71.3464290   7.8219280  96.2096030  71.4393530
   8.3396600  96.5991810  81.3303730   8.7066730  96.1250380  82.0765070
   8.1501660  97.4733380  81.6712070  10.8775680  90.2364760  74.1810570
  10.0640290  89.7377930  74.1055880  10.6837630  91.0763010  73.7646920
  13.5924070  94.6084410  72.4772730  14.4803690  94.9201640  72.3024070
  13.5629160  93.7356660  72.0853310  15.8638340  95.9196250  71.9452590
  15.7802060  96.3510470  71.0949030  16.5832530  96.3794600  72.3779410
   3.7614340  88.2105310  76.0124700   3.6328970  88.2023210  76.9609620
   2.9376360  88.5488400  75.6615710  15.6209080  91.4175680  74.0320410
  14.9922240  91.5221350  73.3178640  15.1261000  91.6372460  74.8214290
   7.5893110  93.6961630  75.4478290   6.8809260  94.1647970  75.8891900
   7.8737590  93.0383640  76.0823480  11.6208540  90.4212290  76.8874080
  11.4976320  90.4398420  75.9383590  12.5693100  90.4691230  77.0072480
   5.7928130  92.0046710  72.8229000   6.6418660  92.4416860  72.7569190
   5.4259400  92.3166970  73.6501060  14.7137910  96.5759470  77.7360570
  13.7728050  96.5909700  77.9108260  15.0281980  95.7895430  78.1820870
   4.6919550  98.2579070  71.2964530   5.4582820  98.1460430  71.8589960
   4.7694240  97.5617040  70.6441300   3.3866310  95.6904140  71.9797420
   3.4669900  94.7431650  72.0914820   4.2786060  96.0211020  72.0858080
   6.7238580  98.2544200  73.2707170   7.1455000  98.0884070  74.1138560
   6.8489420  97.4444430  72.7762310   9.2366220  97.2781810  70.5184270
   9.7571880  96.5630830  70.1525420   9.8834620  97.9167680  70.8184780
   5.6197480  94.3277430  70.2165330   5.4186540  93.4644790  70.5778670
   5.4489530  94.2410790  69.2786930  13.0985790  89.1385660  72.7452210
  13.3788080  88.2953560  73.1011630  12.3251520  89.3708770  73.2590960
   4.4180280  91.4278050  70.2043210   4.7206180  91.4345480  69.2962360
   5.1574870  91.0775910  70.7010870   7.6365210  90.3712670  71.1899410
   7.2887210  89.6936660  70.6101860   7.8377980  89.9102180  72.0042800
  13.9261290  91.6941610  71.8082270  14.3446170  91.5072590  70.9678930
  13.6197350  90.8420660  72.1185200  17.4251020  96.6065750  75.5058070
  17.0494620  95.8393680  75.0739360  16.6954140  96.9888450  75.9933000
  16.7001980  94.8323240  78.8065310  17.2239460  94.3385890  78.1755480
  17.2861400  94.9673600  79.5512880   2.7336140  93.1664790  71.4383490
   3.4427840  92.7448010  70.9530770   2.0176080  93.2340020  70.8066840
   2.3810300  89.2204120  70.4786140   3.1038430  89.7613060  70.7967360
   2.6534820  88.9467540  69.6027680  16.1901950  94.0896590  74.7457720
  16.6861070  93.8567460  75.5306600  15.9918020  93.2508430  74.3295360
   2.0702490  88.4710310  80.3808760   2.7178680  87.9207690  79.9403920
   2.4904330  88.7253460  81.2024570  17.6189110  92.7257540  77.2795400
  17.5088390  92.5713580  78.2177670  18.3796700  92.1978480  77.0370810
  18.5079380  90.5565460  70.5201540  19.4328690  90.4246640  70.3119830
  18.4855170  90.6358280  71.4737990  18.5817870  91.3276120  73.1458250
  17.7869370  91.2621240  73.6751160  18.7861150  92.2626760  73.1343600
  10.4616730  88.9549900  81.5507990   9.6788520  89.4295400  81.8304750
  10.1679660  88.0504730  81.4421170  15.0137800  89.6573000  79.5957080
  15.4545890  89.6018100  78.7478680  14.7445390  90.5731010  79.6667260
  16.8776370  89.2888240  77.6065900  16.8164770  88.3449460  77.4596920
  17.6568400  89.3968330  78.1519360   1.8057140  89.2597380  74.0721710
   2.5636500  89.3726260  73.4985740   1.3434310  90.0966580  74.0265140
   8.3470950  91.3736650  77.0624020   7.5345460  90.9993540  76.7219900
   8.8512590  90.6181730  77.3645210  12.8495930  88.0379100  78.3007090
  13.4525300  88.6099310  78.7755610  12.1088920  88.6018540  78.0780990
  15.9930530  88.4400660  73.5747370  16.1881160  89.3384110  73.8414800
  15.2060400  88.2087740  74.0680320   4.1782290  89.7861430  72.6123680
   4.7075050  88.9991230  72.4831630   4.8110610  90.4652620  72.8459210
   6.3720130  89.5236570  75.6669070   5.7422870  88.8223880  75.8339200
   5.8325270  90.2840700  75.4502230  12.0049300  96.2366600  59.0436770
  11.9243350  95.3221210  58.7728480  11.5913720  96.7333670  58.3376480
  10.1367340  98.0145620  60.9246040   9.3609440  97.5346060  61.2144610
  10.7880270  97.3351270  60.7502200   4.1533170  98.3265430  61.8021800
   3.3218050  98.0714140  62.2018310   4.7614150  98.3976200  62.5379720
   2.5625120  93.2867320  55.5864190   1.6741820  93.6283290  55.4844070
   2.8466310  93.0867640  54.6945020   1.7683000  91.2957330  63.2572820
   1.5885840  90.3983080  63.5375580   1.3663080  91.8429200  63.9319770
  10.6081500  93.4973190  61.1585130  10.9846320  92.6245070  61.0458800
  10.5101010  93.8331890  60.2675570   4.7386510  91.8698820  56.6202570
   4.8453260  92.7702550  56.9271330   3.8278870  91.8216790  56.3297220
  14.3905620  90.9923630  58.0913470  15.2115240  90.5020200  58.1338950
  14.4239700  91.5821290  58.8445310   2.3869670  93.7917830  61.8655160
   3.0679780  94.0556200  62.4842560   2.0717720  92.9518700  62.1993170
   6.5794240  94.8385190  60.9527750   7.0872460  95.3366160  61.5932770
   7.1107480  94.0620390  60.7767110  18.6805170  93.0090380  64.6557100
  17.9757340  93.3972090  64.1372210  18.9463090  93.7040670  65.2578030
   4.8630340  89.4783750  65.2191170   4.8648780  89.9956140  64.4137070
   4.0334650  89.0013930  65.1961100  14.6267100  92.9324010  60.8641010
  13.9222670  93.2208900  61.4444120  14.9879260  93.7424120  60.5040570
   4.5445670  91.1893710  63.2261620   4.8862480  92.0335760  62.9315490
   3.6061480  91.3377450  63.3426960  17.6954020  92.3778800  61.2550220
  16.7478930  92.4117780  61.3865650  18.0204010  93.1917750  61.6399580
   8.2273560  88.6775980  59.5506210   8.5348540  88.1222870  58.8341710
   7.2974260  88.8120440  59.3679200  10.6154320  96.7424810  56.2866330
   9.6883600  96.6762190  56.5154800  10.7679140  97.6804940  56.1721570
  10.6023400  93.0141810  53.2833490   9.6627070  93.1755770  53.3685950
  10.9206660  93.7327490  52.7369480  17.1236160  97.6960330  63.2612520
  16.2954790  97.7653420  62.7862650  17.7186640  98.2814640  62.7928350
  14.6451610  98.3045110  56.7901580  14.0264030  97.9664660  56.1427880
  14.6276060  97.6604870  57.4980770  14.0878170  94.4829650  64.2067390
  13.6749350  95.3083360  64.4607380  13.3554120  93.8974690  64.0143750
   6.2210960  97.2689550  59.0686060   5.8167960  96.5566800  58.5731960
   6.3074080  96.9242790  59.9574100   4.9339580  94.0432760  62.8485100
   5.4854170  94.1528100  62.0738350   5.4483090  94.4170360  63.5640330
  12.8216310  97.5431920  53.7974330  13.2609590  96.7054350  53.6512150
  13.5344730  98.1761320  53.8838470   4.6082310  97.5652120  66.4590440
   4.4690080  98.4374920  66.8277840   3.7263670  97.2224930  66.3138380
  16.4033450  88.7974730  52.1115370  16.0906110  88.8901560  53.0114440
  17.1645920  89.3755760  52.0612800   2.9215590  96.1634530  56.5692710
   2.8013190  96.8896620  55.9573980   2.6116480  95.3937440  56.0920620
  17.6134740  93.5346230  68.0889510  16.9979010  94.0425900  67.5604970
  17.2931160  92.6344560  68.0315450   5.3879250  89.5069600  59.9516380
   4.9447400  90.2879140  59.6200900   5.9464240  89.8299490  60.6587320
   9.6749060  92.3738120  65.5551700   9.2128430  92.5821140  66.3671640
   9.2727170  91.5597470  65.2522370  14.6753570  93.5947070  66.6848360
  13.8247160  93.2952820  67.0057430  14.5155360  93.8389080  65.7732180
  11.7703280  95.0948820  68.7847150  12.0956690  94.2612570  68.4449380
  12.5583610  95.6177340  68.9325480   8.5038070  89.1280300  54.8322210
   7.8792250  89.1240170  55.5575520   8.4168190  88.2611260  54.4358180
   7.4255150  90.0516930  61.8105980   7.7227480  90.9579760  61.7298000
   7.9740710  89.5635710  61.1965550   5.1793470  94.6303170  57.6797630
   4.9534390  94.4140340  58.5844250   4.3986000  95.0631630  57.3343600
  12.4091230  94.6366540  56.2788280  11.8100120  95.3602340  56.0951900
  12.9570840  94.5743320  55.4964730   7.6192680  95.5288750  68.3457900
   7.5236280  94.5883480  68.1958300   8.4624660  95.7503820  67.9505970
  11.0156100  93.2730080  58.3091560  11.4085670  93.5902280  57.4960250
  11.3772950  92.3941960  58.4236080   2.7503220  91.9402420  66.4991680
   2.3566610  92.7877630  66.7064460   2.0621620  91.3028790  66.6900320
   9.3248270  92.0237390  69.5688420   8.6346590  91.8309590  70.2034510
  10.0680570  92.3072030  70.1012720  11.6011240  95.8635830  62.4042340
  10.8692360  96.3722640  62.7532440  11.2035580  95.0465810  62.1031120
   8.0388630  92.5390030  60.8094830   8.0424690  92.0979980  59.9599370
   8.9339750  92.8607360  60.9166650   3.8891010  92.4216520  59.7689040
   3.5491060  92.8991750  60.5256090   3.1268330  91.9681640  59.4090140
   8.1008780  93.5402110  53.8001590   8.2221600  93.4988590  54.7487410
   7.7157290  94.4026260  53.6448320  12.0637150  91.3169510  61.8165280
  12.0809890  91.7678160  62.6607130  11.8152730  90.4175150  62.0298720
   7.1130280  95.8503250  53.1984890   6.5447180  95.4021500  52.5720800
   7.8219280  96.2096030  52.6650040  15.4907900  88.7301690  67.6551660
  15.8153670  87.9991350  68.1809640  15.5264410  88.4115330  66.7532650
   8.3396600  96.5991810  62.5560240   8.7066730  96.1250380  63.3021580
   8.1501660  97.4733380  62.8968580   6.1295970  95.6400450  64.8744450
   5.8253040  96.5192430  65.0994810   7.0842430  95.7000240  64.9101890
  10.8775680  90.2364760  55.4067080  10.0640290  89.7377930  55.3312390
  10.6837630  91.0763010  54.9903430  13.5924070  94.6084410  53.7029240
  14.4803690  94.9201640  53.5280580  13.5629160  93.7356660  53.3109820
   2.1859700  96.4803190  66.0215810   1.8274640  97.1457040  66.6089150
   1.8914260  95.6486740  66.3928430   5.3872820  96.9387430  68.9055360
   5.0872960  97.0844610  68.0083180   6.1584060  96.3792720  68.8128750
  15.8638340  95.9196250  53.1709100  15.7802060  96.3510470  52.3205540
  16.5832530  96.3794600  53.6035920   3.7614340  88.2105310  57.2381210
   3.6328970  88.2023210  58.1866130   2.9376360  88.5488400  56.8872220
  12.2547050  92.4618740  64.4489360  12.6227870  91.6413950  64.7768930
  11.3945250  92.5220630  64.8645010  15.6209080  91.4175680  55.2576920
  14.9922240  91.5221350  54.5435150  15.1261000  91.6372460  56.0470800
   7.5893110  93.6961630  56.6734800   6.8809260  94.1647970  57.1148410
   7.8737590  93.0383640  57.3079990   9.2149040  95.1158330  64.6727330
   9.7134290  95.5904150  65.3379180   9.3571990  94.1921850  64.8797360
  11.6208540  90.4212290  58.1130590  11.4976320  90.4398420  57.1640100
  12.5693100  90.4691230  58.2328990   5.7928130  92.0046710  54.0485510
   6.6418660  92.4416860  53.9825700   5.4259400  92.3166970  54.8757570
  16.4215900  91.3326290  65.5155720  15.9189500  92.0731690  65.8549530
  17.2372560  91.7210290  65.1992510  14.7137910  96.5759470  58.9617080
  13.7728050  96.5909700  59.1364770  15.0281980  95.7895430  59.4077380
   4.6919550  98.2579070  52.5221040   5.4582820  98.1460430  53.0846470
   4.7694240  97.5617040  51.8697810   3.3866310  95.6904140  53.2053930
   3.4669900  94.7431650  53.3171330   4.2786060  96.0211020  53.3114590
   2.9460190  95.6548650  69.3360170   2.9865530  95.3562520  70.2445400
   3.8005690  96.0556260  69.1767690   6.7238580  98.2544200  54.4963680
   7.1455000  98.0884070  55.3395070   6.8489420  97.4444430  54.0018820
   4.8866000  94.2340750  67.3034660   4.3562460  93.7431700  66.6758000
   5.5554070  94.6624950  66.7692590   9.2366220  97.2781810  51.7440780
   9.7571880  96.5630830  51.3781930   9.8834620  97.9167680  52.0441290
  14.2566230  96.0406370  69.0715000  14.8387000  95.2858690  68.9835480
  14.4328000  96.5713810  68.2946480   5.3738300  91.2003120  67.3831950
   5.2795170  90.5823870  66.6582820   4.7935690  91.9269410  67.1561860
   8.1399740  89.7576360  64.4159340   7.6917040  89.7800620  63.5704890
   7.5064940  89.3595380  65.0129640  10.8823190  96.3846870  66.4209620
  11.0019400  95.7888010  67.1604460  11.7417190  96.4216560  66.0010920
  13.2211090  96.9384060  64.9972130  12.6946310  97.4626680  64.3937270
  13.5642430  97.5711450  65.6281860   5.6197480  94.3277430  51.4421840
   5.4186540  93.4644790  51.8035180   5.4489530  94.2410790  50.5043440
   7.6491960  92.9268220  67.6785440   8.2391650  92.6184070  68.3663260
   6.8312200  92.4547970  67.8345340  12.4685390  92.5434030  67.9118460
  11.7800910  91.8815570  67.8468450  13.1891410  92.0972300  68.3566920
  13.0985790  89.1385660  53.9708720  13.3788080  88.2953560  54.3268140
  12.3251520  89.3708770  54.4847470   4.4180280  91.4278050  51.4299720
   4.7206180  91.4345480  50.5218870   5.1574870  91.0775910  51.9267380
   7.6365210  90.3712670  52.4155920   7.2887210  89.6936660  51.8358370
   7.8377980  89.9102180  53.2299310  13.9261290  91.6941610  53.0338780
  14.3446170  91.5072590  52.1935440  13.6197350  90.8420660  53.3441710
  17.4251020  96.6065750  56.7314580  17.0494620  95.8393680  56.2995870
  16.6954140  96.9888450  57.2189510   2.0146780  97.2852890  63.3523630
   2.3819820  97.1980290  64.2319650   1.4457600  96.5219440  63.2530490
  16.8150640  95.7537270  66.3654100  16.5836730  95.5250020  65.4652050
  17.0755190  96.6736820  66.3198990  15.2538710  90.9793700  69.1433800
  16.1308890  90.9877100  69.5267800  15.2659550  90.2424540  68.5326150
  16.7001980  94.8323240  60.0321820  17.2239460  94.3385890  59.4011990
  17.2861400  94.9673600  60.7769390  16.8791700  94.9163110  63.5541370
  15.9294410  94.8826650  63.6686360  17.0604710  95.8263220  63.3191140
   2.7336140  93.1664790  52.6640000   3.4427840  92.7448010  52.1787280
   2.0176080  93.2340020  52.0323350   2.3810300  89.2204120  51.7042650
   3.1038430  89.7613060  52.0223870   2.6534820  88.9467540  50.8284190
  16.1901950  94.0896590  55.9714230  16.6861070  93.8567460  56.7563110
  15.9918020  93.2508430  55.5551870   2.0702490  88.4710310  61.6065270
   2.7178680  87.9207690  61.1660430   2.4904330  88.7253460  62.4281080
  17.6189110  92.7257540  58.5051910  17.5088390  92.5713580  59.4434180
  18.3796700  92.1978480  58.2627320  15.9654830  88.6651670  64.9634910
  16.6027050  89.2785810  65.3294100  16.1129720  88.7012330  64.0184140
  18.5079380  90.5565460  51.7458050  19.4328690  90.4246640  51.5376340
  18.4855170  90.6358280  52.6994500  18.5817870  91.3276120  54.3714760
  17.7869370  91.2621240  54.9007670  18.7861150  92.2626760  54.3600110
   1.8234490  88.6265980  64.3490590   1.4749310  89.0829800  65.1148770
   1.4922190  87.7323110  64.4313020   9.3359310  89.8177860  67.8710010
   9.2748200  90.4099690  68.6205420  10.2759690  89.7103820  67.7260270
  11.9733870  89.4747920  67.5102300  12.5874280  89.7927210  66.8483380
  12.5183430  88.9896510  68.1298160   2.4955130  88.1542180  67.6241360
   3.0438120  87.9730230  66.8607470   2.5610440  87.3636290  68.1597670
  12.7141910  88.0380060  63.8371590  11.8401750  88.3715170  63.6344520
  12.6052660  87.5653240  64.6623460  13.6213890  90.2450930  65.2213310
  13.2927250  89.4302690  64.8415040  14.5696190  90.2020740  65.0979000
  10.4616730  88.9549900  62.7764500   9.6788520  89.4295400  63.0561260
  10.1679660  88.0504730  62.6677680  15.0137800  89.6573000  60.8213590
  15.4545890  89.6018100  59.9735190  14.7445390  90.5731010  60.8923770
  16.8776370  89.2888240  58.8322410  16.8164770  88.3449460  58.6853430
  17.6568400  89.3968330  59.3775870   1.8057140  89.2597380  55.2978220
   2.5636500  89.3726260  54.7242250   1.3434310  90.0966580  55.2521650
   8.3470950  91.3736650  58.2880530   7.5345460  90.9993540  57.9476410
   8.8512590  90.6181730  58.5901720  12.8495930  88.0379100  59.5263600
  13.4525300  88.6099310  60.0012120  12.1088920  88.6018540  59.3037500
  15.9930530  88.4400660  54.8003880  16.1881160  89.3384110  55.0671310
  15.2060400  88.2087740  55.2936830   4.1782290  89.7861430  53.8380190
   4.7075050  88.9991230  53.7088140   4.8110610  90.4652620  54.0715720
   6.3720130  89.5236570  56.8925580   5.7422870  88.8223880  57.0595710
   5.8325270  90.2840700  56.6758740   6.4975690  88.8020550  69.3278070
   6.2159960  89.3054150  68.5638890   6.8795390  88.0042300  68.9620200
  13.0991150  88.2174130  69.9058540  12.9856600  88.5368740  70.8010060
  13.9160890  88.6186640  69.6095820  12.0049300  96.2366600  40.2693280
  11.9243350  95.3221210  39.9984990  11.5913720  96.7333670  39.5632990
  10.1367340  98.0145620  42.1502550   9.3609440  97.5346060  42.4401120
  10.7880270  97.3351270  41.9758710   4.1533170  98.3265430  43.0278310
   3.3218050  98.0714140  43.4274820   4.7614150  98.3976200  43.7636230
   2.5625120  93.2867320  36.8120700   1.6741820  93.6283290  36.7100580
   2.8466310  93.0867640  35.9201530   1.7683000  91.2957330  44.4829330
   1.5885840  90.3983080  44.7632090   1.3663080  91.8429200  45.1576280
  10.6081500  93.4973190  42.3841640  10.9846320  92.6245070  42.2715310
  10.5101010  93.8331890  41.4932080   4.7386510  91.8698820  37.8459080
   4.8453260  92.7702550  38.1527840   3.8278870  91.8216790  37.5553730
  14.3905620  90.9923630  39.3169980  15.2115240  90.5020200  39.3595460
  14.4239700  91.5821290  40.0701820   2.3869670  93.7917830  43.0911670
   3.0679780  94.0556200  43.7099070   2.0717720  92.9518700  43.4249680
   6.5794240  94.8385190  42.1784260   7.0872460  95.3366160  42.8189280
   7.1107480  94.0620390  42.0023620  18.6805170  93.0090380  45.8813610
  17.9757340  93.3972090  45.3628720  18.9463090  93.7040670  46.4834540
   4.8630340  89.4783750  46.4447680   4.8648780  89.9956140  45.6393580
   4.0334650  89.0013930  46.4217610  14.6267100  92.9324010  42.0897520
  13.9222670  93.2208900  42.6700630  14.9879260  93.7424120  41.7297080
   4.5445670  91.1893710  44.4518130   4.8862480  92.0335760  44.1572000
   3.6061480  91.3377450  44.5683470  17.6954020  92.3778800  42.4806730
  16.7478930  92.4117780  42.6122160  18.0204010  93.1917750  42.8656090
   8.2273560  88.6775980  40.7762720   8.5348540  88.1222870  40.0598220
   7.2974260  88.8120440  40.5935710  10.6154320  96.7424810  37.5122840
   9.6883600  96.6762190  37.7411310  10.7679140  97.6804940  37.3978080
  10.6023400  93.0141810  34.5090000   9.6627070  93.1755770  34.5942460
  10.9206660  93.7327490  33.9625990  17.1236160  97.6960330  44.4869030
  16.2954790  97.7653420  44.0119160  17.7186640  98.2814640  44.0184860
  14.6451610  98.3045110  38.0158090  14.0264030  97.9664660  37.3684390
  14.6276060  97.6604870  38.7237280  14.0878170  94.4829650  45.4323900
  13.6749350  95.3083360  45.6863890  13.3554120  93.8974690  45.2400260
   6.2210960  97.2689550  40.2942570   5.8167960  96.5566800  39.7988470
   6.3074080  96.9242790  41.1830610   4.9339580  94.0432760  44.0741610
   5.4854170  94.1528100  43.2994860   5.4483090  94.4170360  44.7896840
  12.8216310  97.5431920  35.0230840  13.2609590  96.7054350  34.8768660
  13.5344730  98.1761320  35.1094980   4.6082310  97.5652120  47.6846950
   4.4690080  98.4374920  48.0534350   3.7263670  97.2224930  47.5394890
  16.4033450  88.7974730  33.3371880  16.0906110  88.8901560  34.2370950
  17.1645920  89.3755760  33.2869310   2.9215590  96.1634530  37.7949220
   2.8013190  96.8896620  37.1830490   2.6116480  95.3937440  37.3177130
  17.6134740  93.5346230  49.3146020  16.9979010  94.0425900  48.7861480
  17.2931160  92.6344560  49.2571960   5.3879250  89.5069600  41.1772890
   4.9447400  90.2879140  40.8457410   5.9464240  89.8299490  41.8843830
   9.6749060  92.3738120  46.7808210   9.2128430  92.5821140  47.5928150
   9.2727170  91.5597470  46.4778880  14.6753570  93.5947070  47.9104870
  13.8247160  93.2952820  48.2313940  14.5155360  93.8389080  46.9988690
  11.7703280  95.0948820  50.0103660  12.0956690  94.2612570  49.6705890
  12.5583610  95.6177340  50.1581990   8.5038070  89.1280300  36.0578720
   7.8792250  89.1240170  36.7832030   8.4168190  88.2611260  35.6614690
   7.4255150  90.0516930  43.0362490   7.7227480  90.9579760  42.9554510
   7.9740710  89.5635710  42.4222060   5.1793470  94.6303170  38.9054140
   4.9534390  94.4140340  39.8100760   4.3986000  95.0631630  38.5600110
  12.4091230  94.6366540  37.5044790  11.8100120  95.3602340  37.3208410
  12.9570840  94.5743320  36.7221240   7.6192680  95.5288750  49.5714410
   7.5236280  94.5883480  49.4214810   8.4624660  95.7503820  49.1762480
  11.0156100  93.2730080  39.5348070  11.4085670  93.5902280  38.7216760
  11.3772950  92.3941960  39.6492590   2.7503220  91.9402420  47.7248190
   2.3566610  92.7877630  47.9320970   2.0621620  91.3028790  47.9156830
   9.3248270  92.0237390  50.7944930   8.6346590  91.8309590  51.4291020
  10.0680570  92.3072030  51.3269230  11.6011240  95.8635830  43.6298850
  10.8692360  96.3722640  43.9788950  11.2035580  95.0465810  43.3287630
   8.0388630  92.5390030  42.0351340   8.0424690  92.0979980  41.1855880
   8.9339750  92.8607360  42.1423160   3.8891010  92.4216520  40.9945550
   3.5491060  92.8991750  41.7512600   3.1268330  91.9681640  40.6346650
   8.1008780  93.5402110  35.0258100   8.2221600  93.4988590  35.9743920
   7.7157290  94.4026260  34.8704830  12.0637150  91.3169510  43.0421790
  12.0809890  91.7678160  43.8863640  11.8152730  90.4175150  43.2555230
   7.1130280  95.8503250  34.4241400   6.5447180  95.4021500  33.7977310
   7.8219280  96.2096030  33.8906550  15.4907900  88.7301690  48.8808170
  15.8153670  87.9991350  49.4066150  15.5264410  88.4115330  47.9789160
   8.3396600  96.5991810  43.7816750   8.7066730  96.1250380  44.5278090
   8.1501660  97.4733380  44.1225090   6.1295970  95.6400450  46.1000960
   5.8253040  96.5192430  46.3251320   7.0842430  95.7000240  46.1358400
  10.8775680  90.2364760  36.6323590  10.0640290  89.7377930  36.5568900
  10.6837630  91.0763010  36.2159940  13.5924070  94.6084410  34.9285750
  14.4803690  94.9201640  34.7537090  13.5629160  93.7356660  34.5366330
   2.1859700  96.4803190  47.2472320   1.8274640  97.1457040  47.8345660
   1.8914260  95.6486740  47.6184940   5.3872820  96.9387430  50.1311870
   5.0872960  97.0844610  49.2339690   6.1584060  96.3792720  50.0385260
  15.8638340  95.9196250  34.3965610  15.7802060  96.3510470  33.5462050
  16.5832530  96.3794600  34.8292430   3.7614340  88.2105310  38.4637720
   3.6328970  88.2023210  39.4122640   2.9376360  88.5488400  38.1128730
  12.2547050  92.4618740  45.6745870  12.6227870  91.6413950  46.0025440
  11.3945250  92.5220630  46.0901520  15.6209080  91.4175680  36.4833430
  14.9922240  91.5221350  35.7691660  15.1261000  91.6372460  37.2727310
   7.5893110  93.6961630  37.8991310   6.8809260  94.1647970  38.3404920
   7.8737590  93.0383640  38.5336500   9.2149040  95.1158330  45.8983840
   9.7134290  95.5904150  46.5635690   9.3571990  94.1921850  46.1053870
  11.6208540  90.4212290  39.3387100  11.4976320  90.4398420  38.3896610
  12.5693100  90.4691230  39.4585500   5.7928130  92.0046710  35.2742020
   6.6418660  92.4416860  35.2082210   5.4259400  92.3166970  36.1014080
  16.4215900  91.3326290  46.7412230  15.9189500  92.0731690  47.0806040
  17.2372560  91.7210290  46.4249020  14.7137910  96.5759470  40.1873590
  13.7728050  96.5909700  40.3621280  15.0281980  95.7895430  40.6333890
   4.6919550  98.2579070  33.7477550   5.4582820  98.1460430  34.3102980
   4.7694240  97.5617040  33.0954320   3.3866310  95.6904140  34.4310440
   3.4669900  94.7431650  34.5427840   4.2786060  96.0211020  34.5371100
   2.9460190  95.6548650  50.5616680   2.9865530  95.3562520  51.4701910
   3.8005690  96.0556260  50.4024200   6.7238580  98.2544200  35.7220190
   7.1455000  98.0884070  36.5651580   6.8489420  97.4444430  35.2275330
   4.8866000  94.2340750  48.5291170   4.3562460  93.7431700  47.9014510
   5.5554070  94.6624950  47.9949100   9.2366220  97.2781810  32.9697290
   9.7571880  96.5630830  32.6038440   9.8834620  97.9167680  33.2697800
  14.2566230  96.0406370  50.2971510  14.8387000  95.2858690  50.2091990
  14.4328000  96.5713810  49.5202990   5.3738300  91.2003120  48.6088460
   5.2795170  90.5823870  47.8839330   4.7935690  91.9269410  48.3818370
   8.1399740  89.7576360  45.6415850   7.6917040  89.7800620  44.7961400
   7.5064940  89.3595380  46.2386150  10.8823190  96.3846870  47.6466130
  11.0019400  95.7888010  48.3860970  11.7417190  96.4216560  47.2267430
  13.2211090  96.9384060  46.2228640  12.6946310  97.4626680  45.6193780
  13.5642430  97.5711450  46.8538370   5.6197480  94.3277430  32.6678350
   5.4186540  93.4644790  33.0291690   5.4489530  94.2410790  31.7299950
   7.6491960  92.9268220  48.9041950   8.2391650  92.6184070  49.5919770
   6.8312200  92.4547970  49.0601850  12.4685390  92.5434030  49.1374970
  11.7800910  91.8815570  49.0724960  13.1891410  92.0972300  49.5823430
  13.0985790  89.1385660  35.1965230  13.3788080  88.2953560  35.5524650
  12.3251520  89.3708770  35.7103980   4.4180280  91.4278050  32.6556230
   4.7206180  91.4345480  31.7475380   5.1574870  91.0775910  33.1523890
   7.6365210  90.3712670  33.6412430   7.2887210  89.6936660  33.0614880
   7.8377980  89.9102180  34.4555820  13.9261290  91.6941610  34.2595290
  14.3446170  91.5072590  33.4191950  13.6197350  90.8420660  34.5698220
  17.4251020  96.6065750  37.9571090  17.0494620  95.8393680  37.5252380
  16.6954140  96.9888450  38.4446020   2.0146780  97.2852890  44.5780140
   2.3819820  97.1980290  45.4576160   1.4457600  96.5219440  44.4787000
  16.8150640  95.7537270  47.5910610  16.5836730  95.5250020  46.6908560
  17.0755190  96.6736820  47.5455500  15.2538710  90.9793700  50.3690310
  16.1308890  90.9877100  50.7524310  15.2659550  90.2424540  49.7582660
  16.7001980  94.8323240  41.2578330  17.2239460  94.3385890  40.6268500
  17.2861400  94.9673600  42.0025900  16.8791700  94.9163110  44.7797880
  15.9294410  94.8826650  44.8942870  17.0604710  95.8263220  44.5447650
   2.7336140  93.1664790  33.8896510   3.4427840  92.7448010  33.4043790
   2.0176080  93.2340020  33.2579860   2.3810300  89.2204120  32.9299160
   3.1038430  89.7613060  33.2480380   2.6534820  88.9467540  32.0540700
  16.1901950  94.0896590  37.1970740  16.6861070  93.8567460  37.9819620
  15.9918020  93.2508430  36.7808380   2.0702490  88.4710310  42.8321780
   2.7178680  87.9207690  42.3916940   2.4904330  88.7253460  43.6537590
  17.6189110  92.7257540  39.7308420  17.5088390  92.5713580  40.6690690
  18.3796700  92.1978480  39.4883830  15.9654830  88.6651670  46.1891420
  16.6027050  89.2785810  46.5550610  16.1129720  88.7012330  45.2440650
  18.5079380  90.5565460  32.9714560  19.4328690  90.4246640  32.7632850
  18.4855170  90.6358280  33.9251010  18.5817870  91.3276120  35.5971270
  17.7869370  91.2621240  36.1264180  18.7861150  92.2626760  35.5856620
   1.8234490  88.6265980  45.5747100   1.4749310  89.0829800  46.3405280
   1.4922190  87.7323110  45.6569530   9.3359310  89.8177860  49.0966520
   9.2748200  90.4099690  49.8461930  10.2759690  89.7103820  48.9516780
  11.9733870  89.4747920  48.7358810  12.5874280  89.7927210  48.0739890
  12.5183430  88.9896510  49.3554670   2.4955130  88.1542180  48.8497870
   3.0438120  87.9730230  48.0863980   2.5610440  87.3636290  49.3854180
  12.7141910  88.0380060  45.0628100  11.8401750  88.3715170  44.8601030
  12.6052660  87.5653240  45.8879970  13.6213890  90.2450930  46.4469820
  13.2927250  89.4302690  46.0671550  14.5696190  90.2020740  46.3235510
  10.4616730  88.9549900  44.0021010   9.6788520  89.4295400  44.2817770
  10.1679660  88.0504730  43.8934190  15.0137800  89.6573000  42.0470100
  15.4545890  89.6018100  41.1991700  14.7445390  90.5731010  42.1180280
  16.8776370  89.2888240  40.0578920  16.8164770  88.3449460  39.9109940
  17.6568400  89.3968330  40.6032380   1.8057140  89.2597380  36.5234730
   2.5636500  89.3726260  35.9498760   1.3434310  90.0966580  36.4778160
   8.3470950  91.3736650  39.5137040   7.5345460  90.9993540  39.1732920
   8.8512590  90.6181730  39.8158230  12.8495930  88.0379100  40.7520110
  13.4525300  88.6099310  41.2268630  12.1088920  88.6018540  40.5294010
  15.9930530  88.4400660  36.0260390  16.1881160  89.3384110  36.2927820
  15.2060400  88.2087740  36.5193340   4.1782290  89.7861430  35.0636700
   4.7075050  88.9991230  34.9344650   4.8110610  90.4652620  35.2972230
   6.3720130  89.5236570  38.1182090   5.7422870  88.8223880  38.2852220
   5.8325270  90.2840700  37.9015250   6.4975690  88.8020550  50.5534580
   6.2159960  89.3054150  49.7895400   6.8795390  88.0042300  50.1876710
  13.0991150  88.2174130  51.1315050  12.9856600  88.5368740  52.0266570
  13.9160890  88.6186640  50.8352330  12.0049300  96.2366600  21.4949790
  11.9243350  95.3221210  21.2241500  11.5913720  96.7333670  20.7889500
  10.1367340  98.0145620  23.3759060   9.3609440  97.5346060  23.6657630
  10.7880270  97.3351270  23.2015220   4.1533170  98.3265430  24.2534820
   3.3218050  98.0714140  24.6531330   4.7614150  98.3976200  24.9892740
   2.5625120  93.2867320  18.0377210   1.6741820  93.6283290  17.9357090
   2.8466310  93.0867640  17.1458040   1.7683000  91.2957330  25.7085840
   1.5885840  90.3983080  25.9888600   1.3663080  91.8429200  26.3832790
  10.6081500  93.4973190  23.6098150  10.9846320  92.6245070  23.4971820
  10.5101010  93.8331890  22.7188590   4.7386510  91.8698820  19.0715590
   4.8453260  92.7702550  19.3784350   3.8278870  91.8216790  18.7810240
  14.3905620  90.9923630  20.5426490  15.2115240  90.5020200  20.5851970
  14.4239700  91.5821290  21.2958330   2.3869670  93.7917830  24.3168180
   3.0679780  94.0556200  24.9355580   2.0717720  92.9518700  24.6506190
   6.5794240  94.8385190  23.4040770   7.0872460  95.3366160  24.0445790
   7.1107480  94.0620390  23.2280130  18.6805170  93.0090380  27.1070120
  17.9757340  93.3972090  26.5885230  18.9463090  93.7040670  27.7091050
   4.8630340  89.4783750  27.6704190   4.8648780  89.9956140  26.8650090
   4.0334650  89.0013930  27.6474120  14.6267100  92.9324010  23.3154030
  13.9222670  93.2208900  23.8957140  14.9879260  93.7424120  22.9553590
   4.5445670  91.1893710  25.6774640   4.8862480  92.0335760  25.3828510
   3.6061480  91.3377450  25.7939980  17.6954020  92.3778800  23.7063240
  16.7478930  92.4117780  23.8378670  18.0204010  93.1917750  24.0912600
   8.2273560  88.6775980  22.0019230   8.5348540  88.1222870  21.2854730
   7.2974260  88.8120440  21.8192220  10.6154320  96.7424810  18.7379350
   9.6883600  96.6762190  18.9667820  10.7679140  97.6804940  18.6234590
  10.6023400  93.0141810  15.7346510   9.6627070  93.1755770  15.8198970
  10.9206660  93.7327490  15.1882500  17.1236160  97.6960330  25.7125540
  16.2954790  97.7653420  25.2375670  17.7186640  98.2814640  25.2441370
  14.6451610  98.3045110  19.2414600  14.0264030  97.9664660  18.5940900
  14.6276060  97.6604870  19.9493790  14.0878170  94.4829650  26.6580410
  13.6749350  95.3083360  26.9120400  13.3554120  93.8974690  26.4656770
   6.2210960  97.2689550  21.5199080   5.8167960  96.5566800  21.0244980
   6.3074080  96.9242790  22.4087120   4.9339580  94.0432760  25.2998120
   5.4854170  94.1528100  24.5251370   5.4483090  94.4170360  26.0153350
  12.8216310  97.5431920  16.2487350  13.2609590  96.7054350  16.1025170
  13.5344730  98.1761320  16.3351490   4.6082310  97.5652120  28.9103460
   4.4690080  98.4374920  29.2790860   3.7263670  97.2224930  28.7651400
  16.4033450  88.7974730  14.5628390  16.0906110  88.8901560  15.4627460
  17.1645920  89.3755760  14.5125820   2.9215590  96.1634530  19.0205730
   2.8013190  96.8896620  18.4087000   2.6116480  95.3937440  18.5433640
  17.6134740  93.5346230  30.5402530  16.9979010  94.0425900  30.0117990
  17.2931160  92.6344560  30.4828470   5.3879250  89.5069600  22.4029400
   4.9447400  90.2879140  22.0713920   5.9464240  89.8299490  23.1100340
   9.6749060  92.3738120  28.0064720   9.2128430  92.5821140  28.8184660
   9.2727170  91.5597470  27.7035390  14.6753570  93.5947070  29.1361380
  13.8247160  93.2952820  29.4570450  14.5155360  93.8389080  28.2245200
  11.7703280  95.0948820  31.2360170  12.0956690  94.2612570  30.8962400
  12.5583610  95.6177340  31.3838500   8.5038070  89.1280300  17.2835230
   7.8792250  89.1240170  18.0088540   8.4168190  88.2611260  16.8871200
   7.4255150  90.0516930  24.2619000   7.7227480  90.9579760  24.1811020
   7.9740710  89.5635710  23.6478570   5.1793470  94.6303170  20.1310650
   4.9534390  94.4140340  21.0357270   4.3986000  95.0631630  19.7856620
  12.4091230  94.6366540  18.7301300  11.8100120  95.3602340  18.5464920
  12.9570840  94.5743320  17.9477750   7.6192680  95.5288750  30.7970920
   7.5236280  94.5883480  30.6471320   8.4624660  95.7503820  30.4018990
  11.0156100  93.2730080  20.7604580  11.4085670  93.5902280  19.9473270
  11.3772950  92.3941960  20.8749100   2.7503220  91.9402420  28.9504700
   2.3566610  92.7877630  29.1577480   2.0621620  91.3028790  29.1413340
   9.3248270  92.0237390  32.0201440   8.6346590  91.8309590  32.6547530
  10.0680570  92.3072030  32.5525740  11.6011240  95.8635830  24.8555360
  10.8692360  96.3722640  25.2045460  11.2035580  95.0465810  24.5544140
   8.0388630  92.5390030  23.2607850   8.0424690  92.0979980  22.4112390
   8.9339750  92.8607360  23.3679670   3.8891010  92.4216520  22.2202060
   3.5491060  92.8991750  22.9769110   3.1268330  91.9681640  21.8603160
   8.1008780  93.5402110  16.2514610   8.2221600  93.4988590  17.2000430
   7.7157290  94.4026260  16.0961340  12.0637150  91.3169510  24.2678300
  12.0809890  91.7678160  25.1120150  11.8152730  90.4175150  24.4811740
   7.1130280  95.8503250  15.6497910   6.5447180  95.4021500  15.0233820
   7.8219280  96.2096030  15.1163060  15.4907900  88.7301690  30.1064680
  15.8153670  87.9991350  30.6322660  15.5264410  88.4115330  29.2045670
   8.3396600  96.5991810  25.0073260   8.7066730  96.1250380  25.7534600
   8.1501660  97.4733380  25.3481600   6.1295970  95.6400450  27.3257470
   5.8253040  96.5192430  27.5507830   7.0842430  95.7000240  27.3614910
  10.8775680  90.2364760  17.8580100  10.0640290  89.7377930  17.7825410
  10.6837630  91.0763010  17.4416450  13.5924070  94.6084410  16.1542260
  14.4803690  94.9201640  15.9793600  13.5629160  93.7356660  15.7622840
   2.1859700  96.4803190  28.4728830   1.8274640  97.1457040  29.0602170
   1.8914260  95.6486740  28.8441450   5.3872820  96.9387430  31.3568380
   5.0872960  97.0844610  30.4596200   6.1584060  96.3792720  31.2641770
  15.8638340  95.9196250  15.6222120  15.7802060  96.3510470  14.7718560
  16.5832530  96.3794600  16.0548940   3.7614340  88.2105310  19.6894230
   3.6328970  88.2023210  20.6379150   2.9376360  88.5488400  19.3385240
  12.2547050  92.4618740  26.9002380  12.6227870  91.6413950  27.2281950
  11.3945250  92.5220630  27.3158030  15.6209080  91.4175680  17.7089940
  14.9922240  91.5221350  16.9948170  15.1261000  91.6372460  18.4983820
   7.5893110  93.6961630  19.1247820   6.8809260  94.1647970  19.5661430
   7.8737590  93.0383640  19.7593010   9.2149040  95.1158330  27.1240350
   9.7134290  95.5904150  27.7892200   9.3571990  94.1921850  27.3310380
  11.6208540  90.4212290  20.5643610  11.4976320  90.4398420  19.6153120
  12.5693100  90.4691230  20.6842010   5.7928130  92.0046710  16.4998530
   6.6418660  92.4416860  16.4338720   5.4259400  92.3166970  17.3270590
  16.4215900  91.3326290  27.9668740  15.9189500  92.0731690  28.3062550
  17.2372560  91.7210290  27.6505530  14.7137910  96.5759470  21.4130100
  13.7728050  96.5909700  21.5877790  15.0281980  95.7895430  21.8590400
   4.6919550  98.2579070  14.9734060   5.4582820  98.1460430  15.5359490
   4.7694240  97.5617040  14.3210830   3.3866310  95.6904140  15.6566950
   3.4669900  94.7431650  15.7684350   4.2786060  96.0211020  15.7627610
   2.9460190  95.6548650  31.7873190   2.9865530  95.3562520  32.6958420
   3.8005690  96.0556260  31.6280710   6.7238580  98.2544200  16.9476700
   7.1455000  98.0884070  17.7908090   6.8489420  97.4444430  16.4531840
   4.8866000  94.2340750  29.7547680   4.3562460  93.7431700  29.1271020
   5.5554070  94.6624950  29.2205610   9.2366220  97.2781810  14.1953800
   9.7571880  96.5630830  13.8294950   9.8834620  97.9167680  14.4954310
  14.2566230  96.0406370  31.5228020  14.8387000  95.2858690  31.4348500
  14.4328000  96.5713810  30.7459500   5.3738300  91.2003120  29.8344970
   5.2795170  90.5823870  29.1095840   4.7935690  91.9269410  29.6074880
   8.1399740  89.7576360  26.8672360   7.6917040  89.7800620  26.0217910
   7.5064940  89.3595380  27.4642660  10.8823190  96.3846870  28.8722640
  11.0019400  95.7888010  29.6117480  11.7417190  96.4216560  28.4523940
  13.2211090  96.9384060  27.4485150  12.6946310  97.4626680  26.8450290
  13.5642430  97.5711450  28.0794880   5.6197480  94.3277430  13.8934860
   5.4186540  93.4644790  14.2548200   5.4489530  94.2410790  12.9556460
   7.6491960  92.9268220  30.1298460   8.2391650  92.6184070  30.8176280
   6.8312200  92.4547970  30.2858360  12.4685390  92.5434030  30.3631480
  11.7800910  91.8815570  30.2981470  13.1891410  92.0972300  30.8079940
  13.0985790  89.1385660  16.4221740  13.3788080  88.2953560  16.7781160
  12.3251520  89.3708770  16.9360490   4.4180280  91.4278050  13.8812740
   4.7206180  91.4345480  12.9731890   5.1574870  91.0775910  14.3780400
   7.6365210  90.3712670  14.8668940   7.2887210  89.6936660  14.2871390
   7.8377980  89.9102180  15.6812330  13.9261290  91.6941610  15.4851800
  14.3446170  91.5072590  14.6448460  13.6197350  90.8420660  15.7954730
  17.4251020  96.6065750  19.1827600  17.0494620  95.8393680  18.7508890
  16.6954140  96.9888450  19.6702530   2.0146780  97.2852890  25.8036650
   2.3819820  97.1980290  26.6832670   1.4457600  96.5219440  25.7043510
  16.8150640  95.7537270  28.8167120  16.5836730  95.5250020  27.9165070
  17.0755190  96.6736820  28.7712010  15.2538710  90.9793700  31.5946820
  16.1308890  90.9877100  31.9780820  15.2659550  90.2424540  30.9839170
  16.7001980  94.8323240  22.4834840  17.2239460  94.3385890  21.8525010
  17.2861400  94.9673600  23.2282410  16.8791700  94.9163110  26.0054390
  15.9294410  94.8826650  26.1199380  17.0604710  95.8263220  25.7704160
   2.7336140  93.1664790  15.1153020   3.4427840  92.7448010  14.6300300
   2.0176080  93.2340020  14.4836370   2.3810300  89.2204120  14.1555670
   3.1038430  89.7613060  14.4736890   2.6534820  88.9467540  13.2797210
  16.1901950  94.0896590  18.4227250  16.6861070  93.8567460  19.2076130
  15.9918020  93.2508430  18.0064890   2.0702490  88.4710310  24.0578290
   2.7178680  87.9207690  23.6173450   2.4904330  88.7253460  24.8794100
  17.6189110  92.7257540  20.9564930  17.5088390  92.5713580  21.8947200
  18.3796700  92.1978480  20.7140340  15.9654830  88.6651670  27.4147930
  16.6027050  89.2785810  27.7807120  16.1129720  88.7012330  26.4697160
  18.5079380  90.5565460  14.1971070  19.4328690  90.4246640  13.9889360
  18.4855170  90.6358280  15.1507520  18.5817870  91.3276120  16.8227780
  17.7869370  91.2621240  17.3520690  18.7861150  92.2626760  16.8113130
   1.8234490  88.6265980  26.8003610   1.4749310  89.0829800  27.5661790
   1.4922190  87.7323110  26.8826040   9.3359310  89.8177860  30.3223030
   9.2748200  90.4099690  31.0718440  10.2759690  89.7103820  30.1773290
  11.9733870  89.4747920  29.9615320  12.5874280  89.7927210  29.2996400
  12.5183430  88.9896510  30.5811180   2.4955130  88.1542180  30.0754380
   3.0438120  87.9730230  29.3120490   2.5610440  87.3636290  30.6110690
  12.7141910  88.0380060  26.2884610  11.8401750  88.3715170  26.0857540
  12.6052660  87.5653240  27.1136480  13.6213890  90.2450930  27.6726330
  13.2927250  89.4302690  27.2928060  14.5696190  90.2020740  27.5492020
  10.4616730  88.9549900  25.2277520   9.6788520  89.4295400  25.5074280
  10.1679660  88.0504730  25.1190700  15.0137800  89.6573000  23.2726610
  15.4545890  89.6018100  22.4248210  14.7445390  90.5731010  23.3436790
  16.8776370  89.2888240  21.2835430  16.8164770  88.3449460  21.1366450
  17.6568400  89.3968330  21.8288890   1.8057140  89.2597380  17.7491240
   2.5636500  89.3726260  17.1755270   1.3434310  90.0966580  17.7034670
   8.3470950  91.3736650  20.7393550   7.5345460  90.9993540  20.3989430
   8.8512590  90.6181730  21.0414740  12.8495930  88.0379100  21.9776620
  13.4525300  88.6099310  22.4525140  12.1088920  88.6018540  21.7550520
  15.9930530  88.4400660  17.2516900  16.1881160  89.3384110  17.5184330
  15.2060400  88.2087740  17.7449850   4.1782290  89.7861430  16.2893210
   4.7075050  88.9991230  16.1601160   4.8110610  90.4652620  16.5228740
   6.3720130  89.5236570  19.3438600   5.7422870  88.8223880  19.5108730
   5.8325270  90.2840700  19.1271760   6.4975690  88.8020550  31.7791090
   6.2159960  89.3054150  31.0151910   6.8795390  88.0042300  31.4133220
  13.0991150  88.2174130  32.3571560  12.9856600  88.5368740  33.2523080
  13.9160890  88.6186640  32.0608840  12.0049300  96.2366600   2.7206300
  11.9243350  95.3221210   2.4498010  11.5913720  96.7333670   2.0146010
  10.1367340  98.0145620   4.6015570   9.3609440  97.5346060   4.8914140
  10.7880270  97.3351270   4.4271730   4.1533170  98.3265430   5.4791330
   3.3218050  98.0714140   5.8787840   4.7614150  98.3976200   6.2149250
   1.7683000  91.2957330   6.9342350   1.5885840  90.3983080   7.2145110
   1.3663080  91.8429200   7.6089300  10.6081500  93.4973190   4.8354660
  10.9846320  92.6245070   4.7228330  10.5101010  93.8331890   3.9445100
  14.3905620  90.9923630   1.7683000  15.2115240  90.5020200   1.8108480
  14.4239700  91.5821290   2.5214840   2.3869670  93.7917830   5.5424690
   3.0679780  94.0556200   6.1612090   2.0717720  92.9518700   5.8762700
   6.5794240  94.8385190   4.6297280   7.0872460  95.3366160   5.2702300
   7.1107480  94.0620390   4.4536640  18.6805170  93.0090380   8.3326630
  17.9757340  93.3972090   7.8141740  18.9463090  93.7040670   8.9347560
   4.8630340  89.4783750   8.8960700   4.8648780  89.9956140   8.0906600
   4.0334650  89.0013930   8.8730630  14.6267100  92.9324010   4.5410540
  13.9222670  93.2208900   5.1213650  14.9879260  93.7424120   4.1810100
   4.5445670  91.1893710   6.9031150   4.8862480  92.0335760   6.6085020
   3.6061480  91.3377450   7.0196490  17.6954020  92.3778800   4.9319750
  16.7478930  92.4117780   5.0635180  18.0204010  93.1917750   5.3169110
   8.2273560  88.6775980   3.2275740   8.5348540  88.1222870   2.5111240
   7.2974260  88.8120440   3.0448730  17.1236160  97.6960330   6.9382050
  16.2954790  97.7653420   6.4632180  17.7186640  98.2814640   6.4697880
  14.0878170  94.4829650   7.8836920  13.6749350  95.3083360   8.1376910
  13.3554120  93.8974690   7.6913280   6.2210960  97.2689550   2.7455590
   5.8167960  96.5566800   2.2501490   6.3074080  96.9242790   3.6343630
   4.9339580  94.0432760   6.5254630   5.4854170  94.1528100   5.7507880
   5.4483090  94.4170360   7.2409860   4.6082310  97.5652120  10.1359970
   4.4690080  98.4374920  10.5047370   3.7263670  97.2224930   9.9907910
  17.6134740  93.5346230  11.7659040  16.9979010  94.0425900  11.2374500
  17.2931160  92.6344560  11.7084980   5.3879250  89.5069600   3.6285910
   4.9447400  90.2879140   3.2970430   5.9464240  89.8299490   4.3356850
   9.6749060  92.3738120   9.2321230   9.2128430  92.5821140  10.0441170
   9.2727170  91.5597470   8.9291900  14.6753570  93.5947070  10.3617890
  13.8247160  93.2952820  10.6826960  14.5155360  93.8389080   9.4501710
  11.7703280  95.0948820  12.4616680  12.0956690  94.2612570  12.1218910
  12.5583610  95.6177340  12.6095010   7.4255150  90.0516930   5.4875510
   7.7227480  90.9579760   5.4067530   7.9740710  89.5635710   4.8735080
   7.6192680  95.5288750  12.0227430   7.5236280  94.5883480  11.8727830
   8.4624660  95.7503820  11.6275500   2.7503220  91.9402420  10.1761210
   2.3566610  92.7877630  10.3833990   2.0621620  91.3028790  10.3669850
   9.3248270  92.0237390  13.2457950   8.6346590  91.8309590  13.8804040
  10.0680570  92.3072030  13.7782250  11.6011240  95.8635830   6.0811870
  10.8692360  96.3722640   6.4301970  11.2035580  95.0465810   5.7800650
   8.0388630  92.5390030   4.4864360   8.0424690  92.0979980   3.6368900
   8.9339750  92.8607360   4.5936180   3.8891010  92.4216520   3.4458570
   3.5491060  92.8991750   4.2025620   3.1268330  91.9681640   3.0859670
  12.0637150  91.3169510   5.4934810  12.0809890  91.7678160   6.3376660
  11.8152730  90.4175150   5.7068250  15.4907900  88.7301690  11.3321190
  15.8153670  87.9991350  11.8579170  15.5264410  88.4115330  10.4302180
   8.3396600  96.5991810   6.2329770   8.7066730  96.1250380   6.9791110
   8.1501660  97.4733380   6.5738110   6.1295970  95.6400450   8.5513980
   5.8253040  96.5192430   8.7764340   7.0842430  95.7000240   8.5871420
   2.1859700  96.4803190   9.6985340   1.8274640  97.1457040  10.2858680
   1.8914260  95.6486740  10.0697960   5.3872820  96.9387430  12.5824890
   5.0872960  97.0844610  11.6852710   6.1584060  96.3792720  12.4898280
  12.2547050  92.4618740   8.1258890  12.6227870  91.6413950   8.4538460
  11.3945250  92.5220630   8.5414540   9.2149040  95.1158330   8.3496860
   9.7134290  95.5904150   9.0148710   9.3571990  94.1921850   8.5566890
  16.4215900  91.3326290   9.1925250  15.9189500  92.0731690   9.5319060
  17.2372560  91.7210290   8.8762040  14.7137910  96.5759470   2.6386610
  13.7728050  96.5909700   2.8134300  15.0281980  95.7895430   3.0846910
   2.9460190  95.6548650  13.0129700   2.9865530  95.3562520  13.9214930
   3.8005690  96.0556260  12.8537220   4.8866000  94.2340750  10.9804190
   4.3562460  93.7431700  10.3527530   5.5554070  94.6624950  10.4462120
  14.2566230  96.0406370  12.7484530  14.8387000  95.2858690  12.6605010
  14.4328000  96.5713810  11.9716010   5.3738300  91.2003120  11.0601480
   5.2795170  90.5823870  10.3352350   4.7935690  91.9269410  10.8331390
   8.1399740  89.7576360   8.0928870   7.6917040  89.7800620   7.2474420
   7.5064940  89.3595380   8.6899170  10.8823190  96.3846870  10.0979150
  11.0019400  95.7888010  10.8373990  11.7417190  96.4216560   9.6780450
  13.2211090  96.9384060   8.6741660  12.6946310  97.4626680   8.0706800
  13.5642430  97.5711450   9.3051390   7.6491960  92.9268220  11.3554970
   8.2391650  92.6184070  12.0432790   6.8312200  92.4547970  11.5114870
  12.4685390  92.5434030  11.5887990  11.7800910  91.8815570  11.5237980
  13.1891410  92.0972300  12.0336450   2.0146780  97.2852890   7.0293160
   2.3819820  97.1980290   7.9089180   1.4457600  96.5219440   6.9300020
  16.8150640  95.7537270  10.0423630  16.5836730  95.5250020   9.1421580
  17.0755190  96.6736820   9.9968520  15.2538710  90.9793700  12.8203330
  16.1308890  90.9877100  13.2037330  15.2659550  90.2424540  12.2095680
  16.7001980  94.8323240   3.7091350  17.2239460  94.3385890   3.0781520
  17.2861400  94.9673600   4.4538920  16.8791700  94.9163110   7.2310900
  15.9294410  94.8826650   7.3455890  17.0604710  95.8263220   6.9960670
   2.0702490  88.4710310   5.2834800   2.7178680  87.9207690   4.8429960
   2.4904330  88.7253460   6.1050610  17.6189110  92.7257540   2.1821440
  17.5088390  92.5713580   3.1203710  18.3796700  92.1978480   1.9396850
  15.9654830  88.6651670   8.6404440  16.6027050  89.2785810   9.0063630
  16.1129720  88.7012330   7.6953670   1.8234490  88.6265980   8.0260120
   1.4749310  89.0829800   8.7918300   1.4922190  87.7323110   8.1082550
   9.3359310  89.8177860  11.5479540   9.2748200  90.4099690  12.2974950
  10.2759690  89.7103820  11.4029800  11.9733870  89.4747920  11.1871830
  12.5874280  89.7927210  10.5252910  12.5183430  88.9896510  11.8067690
   2.4955130  88.1542180  11.3010890   3.0438120  87.9730230  10.5377000
   2.5610440  87.3636290  11.8367200  12.7141910  88.0380060   7.5141120
  11.8401750  88.3715170   7.3114050  12.6052660  87.5653240   8.3392990
  13.6213890  90.2450930   8.8982840  13.2927250  89.4302690   8.5184570
  14.5696190  90.2020740   8.7748530  10.4616730  88.9549900   6.4534030
   9.6788520  89.4295400   6.7330790  10.1679660  88.0504730   6.3447210
  15.0137800  89.6573000   4.4983120  15.4545890  89.6018100   3.6504720
  14.7445390  90.5731010   4.5693300  16.8776370  89.2888240   2.5091940
  16.8164770  88.3449460   2.3622960  17.6568400  89.3968330   3.0545400
   8.3470950  91.3736650   1.9650060   7.5345460  90.9993540   1.6245940
   8.8512590  90.6181730   2.2671250  12.8495930  88.0379100   3.2033130
  13.4525300  88.6099310   3.6781650  12.1088920  88.6018540   2.9807030
   6.4975690  88.8020550  13.0047600   6.2159960  89.3054150  12.2408420
   6.8795390  88.0042300  12.6389730  13.0991150  88.2174130  13.5828070
  12.9856600  88.5368740  14.4779590  13.9160890  88.6186640  13.2865350
  12.0049300  77.4623110  77.8180260  11.9243350  76.5477720  77.5471970
  11.5913720  77.9590180  77.1119970  10.1367340  79.2402130  79.6989530
   9.3609440  78.7602570  79.9888100  10.7880270  78.5607780  79.5245690
   4.1533170  79.5521940  80.5765290   3.3218050  79.2970650  80.9761800
   4.7614150  79.6232710  81.3123210  14.1574770  83.6462320  78.4788660
  13.6956300  82.8749560  78.8075830  14.9700320  83.6728390  78.9841110
   4.1334430  83.5862030  80.7723310   4.4362470  82.6959770  80.5933530
   4.8778020  84.1432250  80.5445560   2.5625120  74.5123830  74.3607680
   1.6741820  74.8539800  74.2587560   2.8466310  74.3124150  73.4688510
  10.3838080  85.9320330  78.0992650   9.7649520  86.3877830  77.5287090
  11.2389860  86.0871790  77.6982350   9.5776330  81.9159320  79.7059690
   9.5084610  80.9749260  79.5448820  10.3396190  82.0060730  80.2782260
  10.6081500  74.7229700  79.9328620  10.9846320  73.8501580  79.8202290
  10.5101010  75.0588400  79.0419060   4.7386510  73.0955330  75.3946060
   4.8453260  73.9959060  75.7014820   3.8278870  73.0473300  75.1040710
  14.3905620  72.2180140  76.8656960  15.2115240  71.7276710  76.9082440
  14.4239700  72.8077800  77.6188800   2.3869670  75.0174340  80.6398650
   3.0679780  75.2812710  81.2586050   2.0717720  74.1775210  80.9736660
   6.5794240  76.0641700  79.7271240   7.0872460  76.5622670  80.3676260
   7.1107480  75.2876900  79.5510600  11.2501430  80.8159570  75.4924560
  10.6318700  81.2809020  74.9287280  11.7624680  81.5087050  75.9094070
  14.6267100  74.1580520  79.6384500  13.9222670  74.4465410  80.2187610
  14.9879260  74.9680630  79.2784060   4.5445670  72.4150220  82.0005110
   4.8862480  73.2592270  81.7058980   3.6061480  72.5633960  82.1170450
  16.2429880  83.7755650  81.9011980  15.5593400  84.4454760  81.8928650
  16.7824170  83.9736300  81.1356840  17.6954020  73.6035310  80.0293710
  16.7478930  73.6374290  80.1609140  18.0204010  74.4174260  80.4143070
   8.2273560  69.9032490  78.3249700   8.5348540  69.3479380  77.6085200
   7.2974260  70.0376950  78.1422690  13.7788620  85.6199780  80.6157160
  13.7915780  85.2162070  79.7479420  13.2263840  86.3947070  80.5118590
  15.0734040  82.3416000  75.7047330  14.9630370  81.3990330  75.8296750
  15.0702290  82.7031640  76.5910090  10.6154320  77.9681320  75.0609820
   9.6883600  77.9018700  75.2898290  10.7679140  78.9061450  74.9465060
  10.6023400  74.2398320  72.0576980   9.6627070  74.4012280  72.1429440
  10.9206660  74.9584000  71.5112970  17.1236160  78.9216840  82.0356010
  16.2954790  78.9909930  81.5606140  17.7186640  79.5071150  81.5671840
  14.6451610  79.5301620  75.5645070  14.0264030  79.1921170  74.9171370
  14.6276060  78.8861380  76.2724260   6.2210960  78.4946060  77.8429550
   5.8167960  77.7823310  77.3475450   6.3074080  78.1499300  78.7317590
   6.6892660  82.1813620  80.0068760   6.3920950  81.5759090  79.3276540
   7.6392480  82.2190930  79.8958120  12.8216310  78.7688430  72.5717820
  13.2609590  77.9310860  72.4255640  13.5344730  79.4017830  72.6581960
  10.9311690  83.7084500  76.5399060  11.3707600  84.4508830  76.1254450
  10.8698580  83.9511070  77.4638020  16.4033450  70.0231240  70.8858860
  16.0906110  70.1158070  71.7857930  17.1645920  70.6012270  70.8356290
   2.9215590  77.3891040  75.3436200   2.8013190  78.1153130  74.7317470
   2.6116480  76.6193950  74.8664110   1.8048590  82.2606370  77.5611020
   1.3976670  82.4020960  76.7064620   2.6961600  81.9766530  77.3582230
  13.5981870  86.6953620  73.8962070  13.4383010  86.4056560  74.7943900
  13.4328580  85.9193750  73.3607300   6.0770250  86.4752150  75.6733690
   5.9012730  85.5587690  75.4601490   5.2225990  86.8339440  75.9131490
  13.3008000  84.2041180  72.4560070  12.6073160  84.2018470  71.7962350
  14.0430860  83.7800500  72.0254240  12.8657930  85.8303890  76.5308560
  13.3214880  85.0493270  76.8447180  13.2050450  86.5410710  77.0749740
   5.3879250  70.7326110  78.7259870   4.9447400  71.5135650  78.3944390
   5.9464240  71.0556000  79.4330810   8.5038070  70.3536810  73.6065700
   7.8792250  70.3496680  74.3319010   8.4168190  69.4867770  73.2101670
   7.4255150  71.2773440  80.5849470   7.7227480  72.1836270  80.5041490
   7.9740710  70.7892220  79.9709040   5.1793470  75.8559680  76.4541120
   4.9534390  75.6396850  77.3587740   4.3986000  76.2888140  76.1087090
  12.4091230  75.8623050  75.0531770  11.8100120  76.5858850  74.8695390
  12.9570840  75.7999830  74.2708220  11.0156100  74.4986590  77.0835050
  11.4085670  74.8158790  76.2703740  11.3772950  73.6198470  77.1979570
  11.6011240  77.0892340  81.1785830  10.8692360  77.5979150  81.5275930
  11.2035580  76.2722320  80.8774610   8.0388630  73.7646540  79.5838320
   8.0424690  73.3236490  78.7342860   8.9339750  74.0863870  79.6910140
   3.8891010  73.6473030  78.5432530   3.5491060  74.1248260  79.2999580
   3.1268330  73.1938150  78.1833630   8.1008780  74.7658620  72.5745080
   8.2221600  74.7245100  73.5230900   7.7157290  75.6282770  72.4191810
  12.0637150  72.5426020  80.5908770  12.0809890  72.9934670  81.4350620
  11.8152730  71.6431660  80.8042210   7.1130280  77.0759760  71.9728380
   6.5447180  76.6278010  71.3464290   7.8219280  77.4352540  71.4393530
   8.3396600  77.8248320  81.3303730   8.7066730  77.3506890  82.0765070
   8.1501660  78.6989890  81.6712070   4.6577760  81.0717950  74.2454790
   3.8840020  80.5315570  74.0853510   5.3872390  80.5524560  73.9072550
  15.4165740  80.0683310  80.0381180  16.1364860  80.5638600  79.6477290
  15.2147560  79.3901200  79.3935050  10.8775680  71.4621270  74.1810570
  10.0640290  70.9634440  74.1055880  10.6837630  72.3019520  73.7646920
  13.5924070  75.8340920  72.4772730  14.4803690  76.1458150  72.3024070
  13.5629160  74.9613170  72.0853310   4.7015160  80.7398330  77.8833600
   5.2193830  79.9366590  77.8290490   4.2499180  80.6777470  78.7250430
   9.5884660  82.0064610  73.1560900   9.9300360  82.7506840  72.6604220
   8.7597370  82.3195730  73.5185730  15.8638340  77.1452760  71.9452590
  15.7802060  77.5766980  71.0949030  16.5832530  77.6051110  72.3779410
  16.8925590  83.9995020  74.6734720  16.2501750  83.3450640  74.9478440
  16.5056250  84.4050110  73.8975390  12.4712070  81.3280450  78.5206410
  12.8235890  80.7308580  77.8607780  11.5874400  81.0024680  78.6914660
   8.5575350  82.0878140  75.9276820   9.2446480  82.6347350  76.3084410
   7.7707770  82.6318870  75.9626430   7.8602560  79.0924170  75.5402180
   8.3165340  79.9029420  75.7662370   7.5090770  78.7747310  76.3720670
   3.7614340  69.4361820  76.0124700   3.6328970  69.4279720  76.9609620
   2.9376360  69.7744910  75.6615710  11.4367250  82.6062860  81.4871930
  12.0789480  81.9056020  81.6004100  11.9616600  83.3861300  81.3068820
  15.2822970  82.8911480  71.2111070  15.0560550  82.1741920  71.8035710
  14.8919170  82.6423920  70.3732820  14.8639220  80.8083420  72.8725230
  14.5760920  81.2696110  73.6603110  15.6591390  80.3481190  73.1409450
   7.0807620  84.3009540  72.8029200   7.0717720  85.0339230  72.1873710
   6.1605980  84.0541120  72.8956160   2.6814260  79.5224430  73.5475960
   2.0742210  80.2623330  73.5571260   3.1563610  79.6123790  72.7214160
  15.6209080  72.6432190  74.0320410  14.9922240  72.7477860  73.3178640
  15.1261000  72.8628970  74.8214290  10.0667220  84.3637780  71.4654390
  10.1679200  84.1601770  70.5356370   9.1668960  84.1096060  71.6702170
   7.5893110  74.9218140  75.4478290   6.8809260  75.3904480  75.8891900
   7.8737590  74.2640150  76.0823480  11.6208540  71.6468800  76.8874080
  11.4976320  71.6654930  75.9383590  12.5693100  71.6947740  77.0072480
   8.7085330  86.8824100  76.1602060   8.9626830  86.8445490  75.2381430
   7.7597810  86.7557430  76.1530310   5.7928130  73.2303220  72.8229000
   6.6418660  73.6673370  72.7569190   5.4259400  73.5423480  73.6501060
  14.7137910  77.8015980  77.7360570  13.7728050  77.8166210  77.9108260
  15.0281980  77.0151940  78.1820870   4.6919550  79.4835580  71.2964530
   5.4582820  79.3716940  71.8589960   4.7694240  78.7873550  70.6441300
   3.3866310  76.9160650  71.9797420   3.4669900  75.9688160  72.0914820
   4.2786060  77.2467530  72.0858080  16.7163490  84.9724830  79.4114830
  16.8410910  85.7956000  79.8838640  17.5829050  84.7615560  79.0638980
   4.1881020  87.0656040  79.0831960   4.9243500  86.5171500  79.3540530
   4.5721940  87.9312050  78.9437950   7.2983330  86.2386350  70.9057530
   8.0911940  86.5275180  70.4539320   6.7787680  85.8078520  70.2270010
  16.3513500  85.4656480  72.3294270  16.0655010  85.0521620  71.5148450
  16.1533050  86.3944190  72.2094790   7.8160730  81.4589760  70.7699880
   7.7111370  80.8442110  71.4961260   7.6484950  80.9355650  69.9862890
  11.0563460  80.5209790  71.3741870  10.5073560  80.9679090  72.0184610
  11.6782720  80.0159040  71.8979540   6.7238580  79.4800710  73.2707170
   7.1455000  79.3140580  74.1138560   6.8489420  78.6700940  72.7762310
   9.2366220  78.5038320  70.5184270   9.7571880  77.7887340  70.1525420
   9.8834620  79.1424190  70.8184780   5.6197480  75.5533940  70.2165330
   5.4186540  74.6901300  70.5778670   5.4489530  75.4667300  69.2786930
  13.0985790  70.3642170  72.7452210  13.3788080  69.5210070  73.1011630
  12.3251520  70.5965280  73.2590960   4.4180280  72.6534560  70.2043210
   4.7206180  72.6601990  69.2962360   5.1574870  72.3032420  70.7010870
   7.6365210  71.5969180  71.1899410   7.2887210  70.9193170  70.6101860
   7.8377980  71.1358690  72.0042800   9.8014250  86.5849930  72.8086010
  10.6965040  86.9234900  72.8304770   9.8331880  85.8629340  72.1810290
   3.4410410  81.9576980  71.0373010   3.8785280  82.5006650  71.6930590
   3.9258140  81.1323930  71.0469350   5.2518130  83.0775020  76.1495240
   4.9513670  82.9539990  77.0499150   5.1455620  82.2183610  75.7410970
  18.0210050  82.8571420  70.8521920  17.1903010  82.9248070  71.3229150
  18.1981880  83.7475540  70.5488780  17.4766510  79.6018900  73.3556120
  18.2385420  80.1715550  73.4615810  17.4920880  79.0346100  74.1264430
  18.4826480  80.4569000  78.1998050  18.8535310  79.6736320  77.7934020
  19.1228410  81.1458100  78.0215350  17.5285680  79.8953270  70.5128640
  17.8034520  80.8032150  70.3847860  17.3396420  79.8315800  71.4490630
  13.9261290  72.9198120  71.8082270  14.3446170  72.7329100  70.9678930
  13.6197350  72.0677170  72.1185200  17.4251020  77.8322260  75.5058070
  17.0494620  77.0650190  75.0739360  16.6954140  78.2144960  75.9933000
  16.7001980  76.0579750  78.8065310  17.2239460  75.5642400  78.1755480
  17.2861400  76.1930110  79.5512880   2.7336140  74.3921300  71.4383490
   3.4427840  73.9704520  70.9530770   2.0176080  74.4596530  70.8066840
   2.3810300  70.4460630  70.4786140   3.1038430  70.9869570  70.7967360
   2.6534820  70.1724050  69.6027680  16.1901950  75.3153100  74.7457720
  16.6861070  75.0823970  75.5306600  15.9918020  74.4764940  74.3295360
   2.0702490  69.6966820  80.3808760   2.7178680  69.1464200  79.9403920
   2.4904330  69.9509970  81.2024570  17.6189110  73.9514050  77.2795400
  17.5088390  73.7970090  78.2177670  18.3796700  73.4234990  77.0370810
  18.5079380  71.7821970  70.5201540  19.4328690  71.6503150  70.3119830
  18.4855170  71.8614790  71.4737990  18.5817870  72.5532630  73.1458250
  17.7869370  72.4877750  73.6751160  18.7861150  73.4883270  73.1343600
  15.5236290  86.5924180  77.1396640  16.1195360  86.2708750  76.4631060
  15.7814440  86.1196000  77.9309910  16.0748500  87.2419480  80.9694370
  15.6151470  87.9935290  80.5952390  15.4460960  86.5225950  80.9109170
   6.5044220  85.5507720  80.1442500   7.0209240  84.9395080  79.6190760
   7.1541600  86.0536500  80.6353510   9.2439720  86.4416210  80.9711480
   9.5317530  86.1870510  80.0944490   9.7562940  85.8893570  81.5617050
  10.4616730  70.1806410  81.5507990   9.6788520  70.6551910  81.8304750
  10.1679660  69.2761240  81.4421170  15.0137800  70.8829510  79.5957080
  15.4545890  70.8274610  78.7478680  14.7445390  71.7987520  79.6667260
  16.8776370  70.5144750  77.6065900  16.8164770  69.5705970  77.4596920
  17.6568400  70.6224840  78.1519360   1.8057140  70.4853890  74.0721710
   2.5636500  70.5982770  73.4985740   1.3434310  71.3223090  74.0265140
   8.3470950  72.5993160  77.0624020   7.5345460  72.2250050  76.7219900
   8.8512590  71.8438240  77.3645210  12.8495930  69.2635610  78.3007090
  13.4525300  69.8355820  78.7755610  12.1088920  69.8275050  78.0780990
  15.9930530  69.6657170  73.5747370  16.1881160  70.5640620  73.8414800
  15.2060400  69.4344250  74.0680320   2.7891820  85.3470340  74.0139990
   2.2639440  85.7278370  73.3101950   2.7136400  85.9721110  74.7349700
   4.1782290  71.0117940  72.6123680   4.7075050  70.2247740  72.4831630
   4.8110610  71.6909130  72.8459210   6.3720130  70.7493080  75.6669070
   5.7422870  70.0480390  75.8339200   5.8325270  71.5097210  75.4502230
  17.5457140  86.9057880  75.3353930  17.7209330  86.2195620  74.6914850
  16.8478710  87.4304930  74.9430600   5.3884790  87.2952720  72.8889240
   6.1203610  87.0112000  72.3413130   5.6478460  87.0566000  73.7788620
   4.5499580  83.4117450  72.8935570   3.9208460  83.8802550  73.4421400
   4.6647410  82.5666670  73.3281760  12.0049300  77.4623110  59.0436770
  11.9243350  76.5477720  58.7728480  11.5913720  77.9590180  58.3376480
  10.1367340  79.2402130  60.9246040   9.3609440  78.7602570  61.2144610
  10.7880270  78.5607780  60.7502200   4.1533170  79.5521940  61.8021800
   3.3218050  79.2970650  62.2018310   4.7614150  79.6232710  62.5379720
  14.1574770  83.6462320  59.7045170  13.6956300  82.8749560  60.0332340
  14.9700320  83.6728390  60.2097620   4.1334430  83.5862030  61.9979820
   4.4362470  82.6959770  61.8190040   4.8778020  84.1432250  61.7702070
   2.5625120  74.5123830  55.5864190   1.6741820  74.8539800  55.4844070
   2.8466310  74.3124150  54.6945020  10.3838080  85.9320330  59.3249160
   9.7649520  86.3877830  58.7543600  11.2389860  86.0871790  58.9238860
   9.5776330  81.9159320  60.9316200   9.5084610  80.9749260  60.7705330
  10.3396190  82.0060730  61.5038770   1.7683000  72.5213840  63.2572820
   1.5885840  71.6239590  63.5375580   1.3663080  73.0685710  63.9319770
  10.6081500  74.7229700  61.1585130  10.9846320  73.8501580  61.0458800
  10.5101010  75.0588400  60.2675570   4.7386510  73.0955330  56.6202570
   4.8453260  73.9959060  56.9271330   3.8278870  73.0473300  56.3297220
  14.3905620  72.2180140  58.0913470  15.2115240  71.7276710  58.1338950
  14.4239700  72.8077800  58.8445310   2.3869670  75.0174340  61.8655160
   3.0679780  75.2812710  62.4842560   2.0717720  74.1775210  62.1993170
   6.5794240  76.0641700  60.9527750   7.0872460  76.5622670  61.5932770
   7.1107480  75.2876900  60.7767110  18.6805170  74.2346890  64.6557100
  17.9757340  74.6228600  64.1372210  18.9463090  74.9297180  65.2578030
   4.8630340  70.7040260  65.2191170   4.8648780  71.2212650  64.4137070
   4.0334650  70.2270440  65.1961100  11.2501430  80.8159570  56.7181070
  10.6318700  81.2809020  56.1543790  11.7624680  81.5087050  57.1350580
   6.1133190  80.3435440  63.3964670   5.7802570  80.9704360  64.0385740
   6.2899870  80.8697320  62.6166340  14.6267100  74.1580520  60.8641010
  13.9222670  74.4465410  61.4444120  14.9879260  74.9680630  60.5040570
   4.5445670  72.4150220  63.2261620   4.8862480  73.2592270  62.9315490
   3.6061480  72.5633960  63.3426960   5.3252290  82.3116240  65.2113850
   5.9426290  82.9867320  64.9298300   4.4645410  82.7204220  65.1201350
  16.2429880  83.7755650  63.1268490  15.5593400  84.4454760  63.1185160
  16.7824170  83.9736300  62.3613350  17.6954020  73.6035310  61.2550220
  16.7478930  73.6374290  61.3865650  18.0204010  74.4174260  61.6399580
   8.2273560  69.9032490  59.5506210   8.5348540  69.3479380  58.8341710
   7.2974260  70.0376950  59.3679200  13.7788620  85.6199780  61.8413670
  13.7915780  85.2162070  60.9735930  13.2263840  86.3947070  61.7375100
  15.0734040  82.3416000  56.9303840  14.9630370  81.3990330  57.0553260
  15.0702290  82.7031640  57.8166600  13.1774060  80.5229620  63.1696280
  13.5942850  80.3089730  62.3349740  13.9013880  80.7802410  63.7404900
  10.6154320  77.9681320  56.2866330   9.6883600  77.9018700  56.5154800
  10.7679140  78.9061450  56.1721570  10.6023400  74.2398320  53.2833490
   9.6627070  74.4012280  53.3685950  10.9206660  74.9584000  52.7369480
  17.1236160  78.9216840  63.2612520  16.2954790  78.9909930  62.7862650
  17.7186640  79.5071150  62.7928350  14.6451610  79.5301620  56.7901580
  14.0264030  79.1921170  56.1427880  14.6276060  78.8861380  57.4980770
  14.0878170  75.7086160  64.2067390  13.6749350  76.5339870  64.4607380
  13.3554120  75.1231200  64.0143750   6.2210960  78.4946060  59.0686060
   5.8167960  77.7823310  58.5731960   6.3074080  78.1499300  59.9574100
   6.6892660  82.1813620  61.2325270   6.3920950  81.5759090  60.5533050
   7.6392480  82.2190930  61.1214630   4.9339580  75.2689270  62.8485100
   5.4854170  75.3784610  62.0738350   5.4483090  75.6426870  63.5640330
  14.7778270  85.7545490  64.8948370  14.3008830  86.5617680  64.7020980
  14.0940060  85.1023820  65.0474580   5.7811090  81.9195310  67.8833070
   4.8839620  82.1435280  68.1306470   5.8063960  82.0430250  66.9344470
  12.8216310  78.7688430  53.7974330  13.2609590  77.9310860  53.6512150
  13.5344730  79.4017830  53.8838470   4.6082310  78.7908630  66.4590440
   4.4690080  79.6631430  66.8277840   3.7263670  78.4481440  66.3138380
  10.9311690  83.7084500  57.7655570  11.3707600  84.4508830  57.3510960
  10.8698580  83.9511070  58.6894530   6.4062660  84.7330330  68.6675590
   6.3778090  85.1373280  67.8004020   6.2427630  83.8040690  68.5047190
  16.4033450  70.0231240  52.1115370  16.0906110  70.1158070  53.0114440
  17.1645920  70.6012270  52.0612800   2.9215590  77.3891040  56.5692710
   2.8013190  78.1153130  55.9573980   2.6116480  76.6193950  56.0920620
  18.3577480  85.5157430  69.9639760  18.8337200  85.9940320  70.6428840
  18.9784640  85.4474920  69.2385260   1.8048590  82.2606370  58.7867530
   1.3976670  82.4020960  57.9321130   2.6961600  81.9766530  58.5838740
  17.7610730  82.7070280  67.1239770  17.8873790  82.4682160  66.2056950
  17.8032110  81.8754820  67.5961850  11.6227470  86.4098280  65.6934580
  12.1372140  86.3206290  66.4957010  10.7796550  86.7557980  65.9862490
  13.5981870  86.6953620  55.1218580  13.4383010  86.4056560  56.0200410
  13.4328580  85.9193750  54.5863810   6.0770250  86.4752150  56.8990200
   5.9012730  85.5587690  56.6858000   5.2225990  86.8339440  57.1388000
  13.3008000  84.2041180  53.6816580  12.6073160  84.2018470  53.0218860
  14.0430860  83.7800500  53.2510750  12.8657930  85.8303890  57.7565070
  13.3214880  85.0493270  58.0703690  13.2050450  86.5410710  58.3006250
  17.6134740  74.7602740  68.0889510  16.9979010  75.2682410  67.5604970
  17.2931160  73.8601070  68.0315450   5.3879250  70.7326110  59.9516380
   4.9447400  71.5135650  59.6200900   5.9464240  71.0556000  60.6587320
   9.6749060  73.5994630  65.5551700   9.2128430  73.8077650  66.3671640
   9.2727170  72.7853980  65.2522370  14.6753570  74.8203580  66.6848360
  13.8247160  74.5209330  67.0057430  14.5155360  75.0645590  65.7732180
  11.7703280  76.3205330  68.7847150  12.0956690  75.4869080  68.4449380
  12.5583610  76.8433850  68.9325480   8.5038070  70.3536810  54.8322210
   7.8792250  70.3496680  55.5575520   8.4168190  69.4867770  54.4358180
   7.4255150  71.2773440  61.8105980   7.7227480  72.1836270  61.7298000
   7.9740710  70.7892220  61.1965550   5.1793470  75.8559680  57.6797630
   4.9534390  75.6396850  58.5844250   4.3986000  76.2888140  57.3343600
  12.4091230  75.8623050  56.2788280  11.8100120  76.5858850  56.0951900
  12.9570840  75.7999830  55.4964730   7.6192680  76.7545260  68.3457900
   7.5236280  75.8139990  68.1958300   8.4624660  76.9760330  67.9505970
  11.0156100  74.4986590  58.3091560  11.4085670  74.8158790  57.4960250
  11.3772950  73.6198470  58.4236080   2.7503220  73.1658930  66.4991680
   2.3566610  74.0134140  66.7064460   2.0621620  72.5285300  66.6900320
   9.3248270  73.2493900  69.5688420   8.6346590  73.0566100  70.2034510
  10.0680570  73.5328540  70.1012720  11.6011240  77.0892340  62.4042340
  10.8692360  77.5979150  62.7532440  11.2035580  76.2722320  62.1031120
   8.0388630  73.7646540  60.8094830   8.0424690  73.3236490  59.9599370
   8.9339750  74.0863870  60.9166650   3.8891010  73.6473030  59.7689040
   3.5491060  74.1248260  60.5256090   3.1268330  73.1938150  59.4090140
   8.1008780  74.7658620  53.8001590   8.2221600  74.7245100  54.7487410
   7.7157290  75.6282770  53.6448320  12.0637150  72.5426020  61.8165280
  12.0809890  72.9934670  62.6607130  11.8152730  71.6431660  62.0298720
   7.1130280  77.0759760  53.1984890   6.5447180  76.6278010  52.5720800
   7.8219280  77.4352540  52.6650040  15.4907900  69.9558200  67.6551660
  15.8153670  69.2247860  68.1809640  15.5264410  69.6371840  66.7532650
   2.1899460  80.9771780  67.0751620   1.8054250  80.3365450  67.6734580
   2.5011650  81.6807900  67.6446350   8.3396600  77.8248320  62.5560240
   8.7066730  77.3506890  63.3021580   8.1501660  78.6989890  62.8968580
   6.1295970  76.8656960  64.8744450   5.8253040  77.7448940  65.0994810
   7.0842430  76.9256750  64.9101890   4.6577760  81.0717950  55.4711300
   3.8840020  80.5315570  55.3110020   5.3872390  80.5524560  55.1329060
  15.4165740  80.0683310  61.2637690  16.1364860  80.5638600  60.8733800
  15.2147560  79.3901200  60.6191560  10.8775680  71.4621270  55.4067080
  10.0640290  70.9634440  55.3312390  10.6837630  72.3019520  54.9903430
  10.7984540  80.1392370  67.1506690  10.7321850  79.2188040  66.8964280
  10.1689680  80.2367810  67.8651330  13.5924070  75.8340920  53.7029240
  14.4803690  76.1458150  53.5280580  13.5629160  74.9613170  53.3109820
   4.7015160  80.7398330  59.1090110   5.2193830  79.9366590  59.0547000
   4.2499180  80.6777470  59.9506940   9.5884660  82.0064610  54.3817410
   9.9300360  82.7506840  53.8860730   8.7597370  82.3195730  54.7442240
   2.1859700  77.7059700  66.0215810   1.8274640  78.3713550  66.6089150
   1.8914260  76.8743250  66.3928430   5.3872820  78.1643940  68.9055360
   5.0872960  78.3101120  68.0083180   6.1584060  77.6049230  68.8128750
  10.7301270  82.9612940  66.9010490  10.7445810  82.0293900  66.6829400
  10.0226370  83.0472700  67.5400260  15.8638340  77.1452760  53.1709100
  15.7802060  77.5766980  52.3205540  16.5832530  77.6051110  53.6035920
  16.9412480  79.6020280  66.2479070  16.2160670  80.1949060  66.0508460
  17.4687940  79.5943820  65.4492440  16.8925590  83.9995020  55.8991230
  16.2501750  83.3450640  56.1734950  16.5056250  84.4050110  55.1231900
  12.4712070  81.3280450  59.7462920  12.8235890  80.7308580  59.0864290
  11.5874400  81.0024680  59.9171170   8.5575350  82.0878140  57.1533330
   9.2446480  82.6347350  57.5340920   7.7707770  82.6318870  57.1882940
   7.8602560  79.0924170  56.7658690   8.3165340  79.9029420  56.9918880
   7.5090770  78.7747310  57.5977180  10.1635170  84.6030510  63.9950990
  10.8077390  84.8089890  64.6724410  10.5264610  83.8418910  63.5421840
   3.7614340  69.4361820  57.2381210   3.6328970  69.4279720  58.1866130
   2.9376360  69.7744910  56.8872220  11.4367250  82.6062860  62.7128440
  12.0789480  81.9056020  62.8260610  11.9616600  83.3861300  62.5325330
  15.2822970  82.8911480  52.4367580  15.0560550  82.1741920  53.0292220
  14.8919170  82.6423920  51.5989330  13.2104870  83.4057760  65.9164500
  13.5461110  83.9924450  66.5942420  12.2905210  83.2750470  66.1462290
  14.8639220  80.8083420  54.0981740  14.5760920  81.2696110  54.8859620
  15.6591390  80.3481190  54.3665960   9.0393450  83.4549090  69.0852560
   8.7190320  82.7358330  69.6298250   8.3651810  84.1304160  69.1588620
   7.0807620  84.3009540  54.0285710   7.0717720  85.0339230  53.4130220
   6.1605980  84.0541120  54.1212670   2.6814260  79.5224430  54.7732470
   2.0742210  80.2623330  54.7827770   3.1563610  79.6123790  53.9470670
  12.2547050  73.6875250  64.4489360  12.6227870  72.8670460  64.7768930
  11.3945250  73.7477140  64.8645010  15.6209080  72.6432190  55.2576920
  14.9922240  72.7477860  54.5435150  15.1261000  72.8628970  56.0470800
  10.0667220  84.3637780  52.6910900  10.1679200  84.1601770  51.7612880
   9.1668960  84.1096060  52.8958680   7.5893110  74.9218140  56.6734800
   6.8809260  75.3904480  57.1148410   7.8737590  74.2640150  57.3079990
   9.2149040  76.3414840  64.6727330   9.7134290  76.8160660  65.3379180
   9.3571990  75.4178360  64.8797360  11.6208540  71.6468800  58.1130590
  11.4976320  71.6654930  57.1640100  12.5693100  71.6947740  58.2328990
   8.7085330  86.8824100  57.3858570   8.9626830  86.8445490  56.4637940
   7.7597810  86.7557430  57.3786820   5.7928130  73.2303220  54.0485510
   6.6418660  73.6673370  53.9825700   5.4259400  73.5423480  54.8757570
  16.4215900  72.5582800  65.5155720  15.9189500  73.2988200  65.8549530
  17.2372560  72.9466800  65.1992510  14.7137910  77.8015980  58.9617080
  13.7728050  77.8166210  59.1364770  15.0281980  77.0151940  59.4077380
   4.6919550  79.4835580  52.5221040   5.4582820  79.3716940  53.0846470
   4.7694240  78.7873550  51.8697810   3.3866310  76.9160650  53.2053930
   3.4669900  75.9688160  53.3171330   4.2786060  77.2467530  53.3114590
  16.7163490  84.9724830  60.6371340  16.8410910  85.7956000  61.1095150
  17.5829050  84.7615560  60.2895490   4.1881020  87.0656040  60.3088470
   4.9243500  86.5171500  60.5797040   4.5721940  87.9312050  60.1694460
   3.1939300  86.2502110  69.4974050   3.9952030  86.5714160  69.9109450
   2.6791120  85.8897690  70.2193960   7.2983330  86.2386350  52.1314040
   8.0911940  86.5275180  51.6795830   6.7787680  85.8078520  51.4526520
  12.0303930  82.3581980  69.4449460  11.4242090  82.3813580  68.7045210
  11.7258040  81.6265020  69.9816710  13.4604300  86.0862270  68.0558870
  14.4126050  86.0020290  68.0059110  13.3132520  86.7503980  68.7292660
  16.3513500  85.4656480  53.5550780  16.0655010  85.0521620  52.7404960
  16.1533050  86.3944190  53.4351300   7.8160730  81.4589760  51.9956390
   7.7111370  80.8442110  52.7217770   7.6484950  80.9355650  51.2119400
   7.9675050  80.1446560  67.9745620   7.2020720  80.7131560  67.8900290
   8.1491010  79.8522770  67.0813850  11.0563460  80.5209790  52.5998380
  10.5073560  80.9679090  53.2441120  11.6782720  80.0159040  53.1236050
  15.1098400  81.8751890  68.5320640  15.8507870  82.2127650  68.0288100
  14.3471080  82.0443950  67.9790410   2.9460190  76.8805160  69.3360170
   2.9865530  76.5819030  70.2445400   3.8005690  77.2812770  69.1767690
   6.7238580  79.4800710  54.4963680   7.1455000  79.3140580  55.3395070
   6.8489420  78.6700940  54.0018820   4.8866000  75.4597260  67.3034660
   4.3562460  74.9688210  66.6758000   5.5554070  75.8881460  66.7692590
   9.2366220  78.5038320  51.7440780   9.7571880  77.7887340  51.3781930
   9.8834620  79.1424190  52.0441290  13.7844060  79.9266720  67.0675850
  14.1985080  80.0811800  67.9166270  12.8495060  80.0521940  67.2301630
  14.2566230  77.2662880  69.0715000  14.8387000  76.5115200  68.9835480
  14.4328000  77.7970320  68.2946480   5.3738300  72.4259630  67.3831950
   5.2795170  71.8080380  66.6582820   4.7935690  73.1525920  67.1561860
   8.1399740  70.9832870  64.4159340   7.6917040  71.0057130  63.5704890
   7.5064940  70.5851890  65.0129640   8.5459290  79.8787200  65.0371780
   8.9647400  80.7219930  64.8648020   7.6267920  80.0159240  64.8078560
  10.8823190  77.6103380  66.4209620  11.0019400  77.0144520  67.1604460
  11.7417190  77.6473070  66.0010920  13.2211090  78.1640570  64.9972130
  12.6946310  78.6883190  64.3937270  13.5642430  78.7967960  65.6281860
   5.6197480  75.5533940  51.4421840   5.4186540  74.6901300  51.8035180
   5.4489530  75.4667300  50.5043440   6.3966710  86.1840210  66.1529510
   5.8587800  86.9086270  65.8338210   6.6500670  85.7070550  65.3626850
   7.6491960  74.1524730  67.6785440   8.2391650  73.8440580  68.3663260
   6.8312200  73.6804480  67.8345340  12.4685390  73.7690540  67.9118460
  11.7800910  73.1072080  67.8468450  13.1891410  73.3228810  68.3566920
  13.0985790  70.3642170  53.9708720  13.3788080  69.5210070  54.3268140
  12.3251520  70.5965280  54.4847470   4.4180280  72.6534560  51.4299720
   4.7206180  72.6601990  50.5218870   5.1574870  72.3032420  51.9267380
   9.2528920  87.4191420  66.4116160   9.1787620  88.3226560  66.7188530
   8.3507760  87.1003320  66.3838230   7.6365210  71.5969180  52.4155920
   7.2887210  70.9193170  51.8358370   7.8377980  71.1358690  53.2299310
   9.8014250  86.5849930  54.0342520  10.6965040  86.9234900  54.0561280
   9.8331880  85.8629340  53.4066800   3.4410410  81.9576980  52.2629520
   3.8785280  82.5006650  52.9187100   3.9258140  81.1323930  52.2725860
   5.2518130  83.0775020  57.3751750   4.9513670  82.9539990  58.2755660
   5.1455620  82.2183610  56.9667480  16.7808600  85.1153600  66.7408720
  16.1810590  85.1746160  65.9972640  16.9102500  84.1758580  66.8705570
  18.0210050  82.8571420  52.0778430  17.1903010  82.9248070  52.5485660
  18.1981880  83.7475540  51.7745290  17.4766510  79.6018900  54.5812630
  18.2385420  80.1715550  54.6872320  17.4920880  79.0346100  55.3520940
  18.4826480  80.4569000  59.4254560  18.8535310  79.6736320  59.0190530
  19.1228410  81.1458100  59.2471860  15.4660240  81.8405580  64.8384880
  14.6520080  82.2702740  65.1010670  15.8734440  82.4523990  64.2253930
  17.5285680  79.8953270  51.7385150  17.8034520  80.8032150  51.6104370
  17.3396420  79.8315800  52.6747140  13.9261290  72.9198120  53.0338780
  14.3446170  72.7329100  52.1935440  13.6197350  72.0677170  53.3441710
  17.4251020  77.8322260  56.7314580  17.0494620  77.0650190  56.2995870
  16.6954140  78.2144960  57.2189510   2.0146780  78.5109400  63.3523630
   2.3819820  78.4236800  64.2319650   1.4457600  77.7475950  63.2530490
  16.8150640  76.9793780  66.3654100  16.5836730  76.7506530  65.4652050
  17.0755190  77.8993330  66.3198990  15.2538710  72.2050210  69.1433800
  16.1308890  72.2133610  69.5267800  15.2659550  71.4681050  68.5326150
  16.7001980  76.0579750  60.0321820  17.2239460  75.5642400  59.4011990
  17.2861400  76.1930110  60.7769390  16.8791700  76.1419620  63.5541370
  15.9294410  76.1083160  63.6686360  17.0604710  77.0519730  63.3191140
   2.7336140  74.3921300  52.6640000   3.4427840  73.9704520  52.1787280
   2.0176080  74.4596530  52.0323350   2.3810300  70.4460630  51.7042650
   3.1038430  70.9869570  52.0223870   2.6534820  70.1724050  50.8284190
  16.1901950  75.3153100  55.9714230  16.6861070  75.0823970  56.7563110
  15.9918020  74.4764940  55.5551870   2.0702490  69.6966820  61.6065270
   2.7178680  69.1464200  61.1660430   2.4904330  69.9509970  62.4281080
  17.6189110  73.9514050  58.5051910  17.5088390  73.7970090  59.4434180
  18.3796700  73.4234990  58.2627320  15.9654830  69.8908180  64.9634910
  16.6027050  70.5042320  65.3294100  16.1129720  69.9268840  64.0184140
  18.5079380  71.7821970  51.7458050  19.4328690  71.6503150  51.5376340
  18.4855170  71.8614790  52.6994500  18.5817870  72.5532630  54.3714760
  17.7869370  72.4877750  54.9007670  18.7861150  73.4883270  54.3600110
  15.5236290  86.5924180  58.3653150  16.1195360  86.2708750  57.6887570
  15.7814440  86.1196000  59.1566420   1.8234490  69.8522490  64.3490590
   1.4749310  70.3086310  65.1148770   1.4922190  68.9579620  64.4313020
   3.4298860  83.0242090  68.5143780   3.3868490  82.6535000  69.3958240
   3.5609870  83.9619660  68.6545600   7.1304890  84.5801680  64.1153500
   6.8896250  84.8476240  63.2284020   8.0707530  84.7507410  64.1704360
   9.3359310  71.0434370  67.8710010   9.2748200  71.6356200  68.6205420
  10.2759690  70.9360330  67.7260270  11.9733870  70.7004430  67.5102300
  12.5874280  71.0183720  66.8483380  12.5183430  70.2153020  68.1298160
  18.3909050  86.5996060  64.9164140  17.8967330  86.9964930  64.1991270
  17.7822340  85.9745270  65.3101420   2.4955130  69.3798690  67.6241360
   3.0438120  69.1986740  66.8607470   2.5610440  68.5892800  68.1597670
   3.2686890  85.9704340  65.6341560   2.6747210  85.8389040  66.3731600
   3.2610730  85.1342480  65.1683660  12.7141910  69.2636570  63.8371590
  11.8401750  69.5971680  63.6344520  12.6052660  68.7909750  64.6623460
  13.6213890  71.4707440  65.2213310  13.2927250  70.6559200  64.8415040
  14.5696190  71.4277250  65.0979000  16.0748500  87.2419480  62.1950880
  15.6151470  87.9935290  61.8208900  15.4460960  86.5225950  62.1365680
   2.8999120  83.3362720  64.5849600   2.1733180  82.7168010  64.5175550
   2.9608270  83.7303330  63.7147680   6.5044220  85.5507720  61.3699010
   7.0209240  84.9395080  60.8447270   7.1541600  86.0536500  61.8610020
   9.2439720  86.4416210  62.1967990   9.5317530  86.1870510  61.3201000
   9.7562940  85.8893570  62.7873560  10.4616730  70.1806410  62.7764500
   9.6788520  70.6551910  63.0561260  10.1679660  69.2761240  62.6677680
  15.0137800  70.8829510  60.8213590  15.4545890  70.8274610  59.9735190
  14.7445390  71.7987520  60.8923770  16.8776370  70.5144750  58.8322410
  16.8164770  69.5705970  58.6853430  17.6568400  70.6224840  59.3775870
   1.8057140  70.4853890  55.2978220   2.5636500  70.5982770  54.7242250
   1.3434310  71.3223090  55.2521650   8.3470950  72.5993160  58.2880530
   7.5345460  72.2250050  57.9476410   8.8512590  71.8438240  58.5901720
  12.8495930  69.2635610  59.5263600  13.4525300  69.8355820  60.0012120
  12.1088920  69.8275050  59.3037500  15.9930530  69.6657170  54.8003880
  16.1881160  70.5640620  55.0671310  15.2060400  69.4344250  55.2936830
   2.7891820  85.3470340  55.2396500   2.2639440  85.7278370  54.5358460
   2.7136400  85.9721110  55.9606210   4.1782290  71.0117940  53.8380190
   4.7075050  70.2247740  53.7088140   4.8110610  71.6909130  54.0715720
   6.3720130  70.7493080  56.8925580   5.7422870  70.0480390  57.0595710
   5.8325270  71.5097210  56.6758740   9.3112080  87.3632310  69.5636190
  10.2379390  87.1276580  69.6072150   9.2962510  88.1904310  69.0822220
  17.5457140  86.9057880  56.5610440  17.7209330  86.2195620  55.9171360
  16.8478710  87.4304930  56.1687110   6.4975690  70.0277060  69.3278070
   6.2159960  70.5310660  68.5638890   6.8795390  69.2298810  68.9620200
   5.3884790  87.2952720  54.1145750   6.1203610  87.0112000  53.5669640
   5.6478460  87.0566000  55.0045130   4.5499580  83.4117450  54.1192080
   3.9208460  83.8802550  54.6677910   4.6647410  82.5666670  54.5538270
  13.0991150  69.4430640  69.9058540  12.9856600  69.7625250  70.8010060
  13.9160890  69.8443150  69.6095820  15.8789640  86.5902170  69.3877230
  16.6714960  86.0951400  69.1803190  16.1722790  87.2692310  69.9952840
  12.0049300  77.4623110  40.2693280  11.9243350  76.5477720  39.9984990
  11.5913720  77.9590180  39.5632990  10.1367340  79.2402130  42.1502550
   9.3609440  78.7602570  42.4401120  10.7880270  78.5607780  41.9758710
   4.1533170  79.5521940  43.0278310   3.3218050  79.2970650  43.4274820
   4.7614150  79.6232710  43.7636230  14.1574770  83.6462320  40.9301680
  13.6956300  82.8749560  41.2588850  14.9700320  83.6728390  41.4354130
   4.1334430  83.5862030  43.2236330   4.4362470  82.6959770  43.0446550
   4.8778020  84.1432250  42.9958580   2.5625120  74.5123830  36.8120700
   1.6741820  74.8539800  36.7100580   2.8466310  74.3124150  35.9201530
  10.3838080  85.9320330  40.5505670   9.7649520  86.3877830  39.9800110
  11.2389860  86.0871790  40.1495370   9.5776330  81.9159320  42.1572710
   9.5084610  80.9749260  41.9961840  10.3396190  82.0060730  42.7295280
   1.7683000  72.5213840  44.4829330   1.5885840  71.6239590  44.7632090
   1.3663080  73.0685710  45.1576280  10.6081500  74.7229700  42.3841640
  10.9846320  73.8501580  42.2715310  10.5101010  75.0588400  41.4932080
   4.7386510  73.0955330  37.8459080   4.8453260  73.9959060  38.1527840
   3.8278870  73.0473300  37.5553730  14.3905620  72.2180140  39.3169980
  15.2115240  71.7276710  39.3595460  14.4239700  72.8077800  40.0701820
   2.3869670  75.0174340  43.0911670   3.0679780  75.2812710  43.7099070
   2.0717720  74.1775210  43.4249680   6.5794240  76.0641700  42.1784260
   7.0872460  76.5622670  42.8189280   7.1107480  75.2876900  42.0023620
  18.6805170  74.2346890  45.8813610  17.9757340  74.6228600  45.3628720
  18.9463090  74.9297180  46.4834540   4.8630340  70.7040260  46.4447680
   4.8648780  71.2212650  45.6393580   4.0334650  70.2270440  46.4217610
  11.2501430  80.8159570  37.9437580  10.6318700  81.2809020  37.3800300
  11.7624680  81.5087050  38.3607090   6.1133190  80.3435440  44.6221180
   5.7802570  80.9704360  45.2642250   6.2899870  80.8697320  43.8422850
  14.6267100  74.1580520  42.0897520  13.9222670  74.4465410  42.6700630
  14.9879260  74.9680630  41.7297080   4.5445670  72.4150220  44.4518130
   4.8862480  73.2592270  44.1572000   3.6061480  72.5633960  44.5683470
   5.3252290  82.3116240  46.4370360   5.9426290  82.9867320  46.1554810
   4.4645410  82.7204220  46.3457860  16.2429880  83.7755650  44.3525000
  15.5593400  84.4454760  44.3441670  16.7824170  83.9736300  43.5869860
  17.6954020  73.6035310  42.4806730  16.7478930  73.6374290  42.6122160
  18.0204010  74.4174260  42.8656090   8.2273560  69.9032490  40.7762720
   8.5348540  69.3479380  40.0598220   7.2974260  70.0376950  40.5935710
  13.7788620  85.6199780  43.0670180  13.7915780  85.2162070  42.1992440
  13.2263840  86.3947070  42.9631610  15.0734040  82.3416000  38.1560350
  14.9630370  81.3990330  38.2809770  15.0702290  82.7031640  39.0423110
  13.1774060  80.5229620  44.3952790  13.5942850  80.3089730  43.5606250
  13.9013880  80.7802410  44.9661410  10.6154320  77.9681320  37.5122840
   9.6883600  77.9018700  37.7411310  10.7679140  78.9061450  37.3978080
  10.6023400  74.2398320  34.5090000   9.6627070  74.4012280  34.5942460
  10.9206660  74.9584000  33.9625990  17.1236160  78.9216840  44.4869030
  16.2954790  78.9909930  44.0119160  17.7186640  79.5071150  44.0184860
  14.6451610  79.5301620  38.0158090  14.0264030  79.1921170  37.3684390
  14.6276060  78.8861380  38.7237280  14.0878170  75.7086160  45.4323900
  13.6749350  76.5339870  45.6863890  13.3554120  75.1231200  45.2400260
   6.2210960  78.4946060  40.2942570   5.8167960  77.7823310  39.7988470
   6.3074080  78.1499300  41.1830610   6.6892660  82.1813620  42.4581780
   6.3920950  81.5759090  41.7789560   7.6392480  82.2190930  42.3471140
   4.9339580  75.2689270  44.0741610   5.4854170  75.3784610  43.2994860
   5.4483090  75.6426870  44.7896840  14.7778270  85.7545490  46.1204880
  14.3008830  86.5617680  45.9277490  14.0940060  85.1023820  46.2731090
   5.7811090  81.9195310  49.1089580   4.8839620  82.1435280  49.3562980
   5.8063960  82.0430250  48.1600980  12.8216310  78.7688430  35.0230840
  13.2609590  77.9310860  34.8768660  13.5344730  79.4017830  35.1094980
   4.6082310  78.7908630  47.6846950   4.4690080  79.6631430  48.0534350
   3.7263670  78.4481440  47.5394890  10.9311690  83.7084500  38.9912080
  11.3707600  84.4508830  38.5767470  10.8698580  83.9511070  39.9151040
   6.4062660  84.7330330  49.8932100   6.3778090  85.1373280  49.0260530
   6.2427630  83.8040690  49.7303700  16.4033450  70.0231240  33.3371880
  16.0906110  70.1158070  34.2370950  17.1645920  70.6012270  33.2869310
   2.9215590  77.3891040  37.7949220   2.8013190  78.1153130  37.1830490
   2.6116480  76.6193950  37.3177130  18.3577480  85.5157430  51.1896270
  18.8337200  85.9940320  51.8685350  18.9784640  85.4474920  50.4641770
   1.8048590  82.2606370  40.0124040   1.3976670  82.4020960  39.1577640
   2.6961600  81.9766530  39.8095250  17.7610730  82.7070280  48.3496280
  17.8873790  82.4682160  47.4313460  17.8032110  81.8754820  48.8218360
  11.6227470  86.4098280  46.9191090  12.1372140  86.3206290  47.7213520
  10.7796550  86.7557980  47.2119000  13.5981870  86.6953620  36.3475090
  13.4383010  86.4056560  37.2456920  13.4328580  85.9193750  35.8120320
   6.0770250  86.4752150  38.1246710   5.9012730  85.5587690  37.9114510
   5.2225990  86.8339440  38.3644510  13.3008000  84.2041180  34.9073090
  12.6073160  84.2018470  34.2475370  14.0430860  83.7800500  34.4767260
  12.8657930  85.8303890  38.9821580  13.3214880  85.0493270  39.2960200
  13.2050450  86.5410710  39.5262760  17.6134740  74.7602740  49.3146020
  16.9979010  75.2682410  48.7861480  17.2931160  73.8601070  49.2571960
   5.3879250  70.7326110  41.1772890   4.9447400  71.5135650  40.8457410
   5.9464240  71.0556000  41.8843830   9.6749060  73.5994630  46.7808210
   9.2128430  73.8077650  47.5928150   9.2727170  72.7853980  46.4778880
  14.6753570  74.8203580  47.9104870  13.8247160  74.5209330  48.2313940
  14.5155360  75.0645590  46.9988690  11.7703280  76.3205330  50.0103660
  12.0956690  75.4869080  49.6705890  12.5583610  76.8433850  50.1581990
   8.5038070  70.3536810  36.0578720   7.8792250  70.3496680  36.7832030
   8.4168190  69.4867770  35.6614690   7.4255150  71.2773440  43.0362490
   7.7227480  72.1836270  42.9554510   7.9740710  70.7892220  42.4222060
   5.1793470  75.8559680  38.9054140   4.9534390  75.6396850  39.8100760
   4.3986000  76.2888140  38.5600110  12.4091230  75.8623050  37.5044790
  11.8100120  76.5858850  37.3208410  12.9570840  75.7999830  36.7221240
   7.6192680  76.7545260  49.5714410   7.5236280  75.8139990  49.4214810
   8.4624660  76.9760330  49.1762480  11.0156100  74.4986590  39.5348070
  11.4085670  74.8158790  38.7216760  11.3772950  73.6198470  39.6492590
   2.7503220  73.1658930  47.7248190   2.3566610  74.0134140  47.9320970
   2.0621620  72.5285300  47.9156830   9.3248270  73.2493900  50.7944930
   8.6346590  73.0566100  51.4291020  10.0680570  73.5328540  51.3269230
  11.6011240  77.0892340  43.6298850  10.8692360  77.5979150  43.9788950
  11.2035580  76.2722320  43.3287630   8.0388630  73.7646540  42.0351340
   8.0424690  73.3236490  41.1855880   8.9339750  74.0863870  42.1423160
   3.8891010  73.6473030  40.9945550   3.5491060  74.1248260  41.7512600
   3.1268330  73.1938150  40.6346650   8.1008780  74.7658620  35.0258100
   8.2221600  74.7245100  35.9743920   7.7157290  75.6282770  34.8704830
  12.0637150  72.5426020  43.0421790  12.0809890  72.9934670  43.8863640
  11.8152730  71.6431660  43.2555230   7.1130280  77.0759760  34.4241400
   6.5447180  76.6278010  33.7977310   7.8219280  77.4352540  33.8906550
  15.4907900  69.9558200  48.8808170  15.8153670  69.2247860  49.4066150
  15.5264410  69.6371840  47.9789160   2.1899460  80.9771780  48.3008130
   1.8054250  80.3365450  48.8991090   2.5011650  81.6807900  48.8702860
   8.3396600  77.8248320  43.7816750   8.7066730  77.3506890  44.5278090
   8.1501660  78.6989890  44.1225090   6.1295970  76.8656960  46.1000960
   5.8253040  77.7448940  46.3251320   7.0842430  76.9256750  46.1358400
   4.6577760  81.0717950  36.6967810   3.8840020  80.5315570  36.5366530
   5.3872390  80.5524560  36.3585570  15.4165740  80.0683310  42.4894200
  16.1364860  80.5638600  42.0990310  15.2147560  79.3901200  41.8448070
  10.8775680  71.4621270  36.6323590  10.0640290  70.9634440  36.5568900
  10.6837630  72.3019520  36.2159940  10.7984540  80.1392370  48.3763200
  10.7321850  79.2188040  48.1220790  10.1689680  80.2367810  49.0907840
  13.5924070  75.8340920  34.9285750  14.4803690  76.1458150  34.7537090
  13.5629160  74.9613170  34.5366330   4.7015160  80.7398330  40.3346620
   5.2193830  79.9366590  40.2803510   4.2499180  80.6777470  41.1763450
   9.5884660  82.0064610  35.6073920   9.9300360  82.7506840  35.1117240
   8.7597370  82.3195730  35.9698750   2.1859700  77.7059700  47.2472320
   1.8274640  78.3713550  47.8345660   1.8914260  76.8743250  47.6184940
   5.3872820  78.1643940  50.1311870   5.0872960  78.3101120  49.2339690
   6.1584060  77.6049230  50.0385260  10.7301270  82.9612940  48.1267000
  10.7445810  82.0293900  47.9085910  10.0226370  83.0472700  48.7656770
  15.8638340  77.1452760  34.3965610  15.7802060  77.5766980  33.5462050
  16.5832530  77.6051110  34.8292430  16.9412480  79.6020280  47.4735580
  16.2160670  80.1949060  47.2764970  17.4687940  79.5943820  46.6748950
  16.8925590  83.9995020  37.1247740  16.2501750  83.3450640  37.3991460
  16.5056250  84.4050110  36.3488410  12.4712070  81.3280450  40.9719430
  12.8235890  80.7308580  40.3120800  11.5874400  81.0024680  41.1427680
   8.5575350  82.0878140  38.3789840   9.2446480  82.6347350  38.7597430
   7.7707770  82.6318870  38.4139450   7.8602560  79.0924170  37.9915200
   8.3165340  79.9029420  38.2175390   7.5090770  78.7747310  38.8233690
  10.1635170  84.6030510  45.2207500  10.8077390  84.8089890  45.8980920
  10.5264610  83.8418910  44.7678350   3.7614340  69.4361820  38.4637720
   3.6328970  69.4279720  39.4122640   2.9376360  69.7744910  38.1128730
  11.4367250  82.6062860  43.9384950  12.0789480  81.9056020  44.0517120
  11.9616600  83.3861300  43.7581840  15.2822970  82.8911480  33.6624090
  15.0560550  82.1741920  34.2548730  14.8919170  82.6423920  32.8245840
  13.2104870  83.4057760  47.1421010  13.5461110  83.9924450  47.8198930
  12.2905210  83.2750470  47.3718800  14.8639220  80.8083420  35.3238250
  14.5760920  81.2696110  36.1116130  15.6591390  80.3481190  35.5922470
   9.0393450  83.4549090  50.3109070   8.7190320  82.7358330  50.8554760
   8.3651810  84.1304160  50.3845130   7.0807620  84.3009540  35.2542220
   7.0717720  85.0339230  34.6386730   6.1605980  84.0541120  35.3469180
   2.6814260  79.5224430  35.9988980   2.0742210  80.2623330  36.0084280
   3.1563610  79.6123790  35.1727180  12.2547050  73.6875250  45.6745870
  12.6227870  72.8670460  46.0025440  11.3945250  73.7477140  46.0901520
  15.6209080  72.6432190  36.4833430  14.9922240  72.7477860  35.7691660
  15.1261000  72.8628970  37.2727310  10.0667220  84.3637780  33.9167410
  10.1679200  84.1601770  32.9869390   9.1668960  84.1096060  34.1215190
   7.5893110  74.9218140  37.8991310   6.8809260  75.3904480  38.3404920
   7.8737590  74.2640150  38.5336500   9.2149040  76.3414840  45.8983840
   9.7134290  76.8160660  46.5635690   9.3571990  75.4178360  46.1053870
  11.6208540  71.6468800  39.3387100  11.4976320  71.6654930  38.3896610
  12.5693100  71.6947740  39.4585500   8.7085330  86.8824100  38.6115080
   8.9626830  86.8445490  37.6894450   7.7597810  86.7557430  38.6043330
   5.7928130  73.2303220  35.2742020   6.6418660  73.6673370  35.2082210
   5.4259400  73.5423480  36.1014080  16.4215900  72.5582800  46.7412230
  15.9189500  73.2988200  47.0806040  17.2372560  72.9466800  46.4249020
  14.7137910  77.8015980  40.1873590  13.7728050  77.8166210  40.3621280
  15.0281980  77.0151940  40.6333890   4.6919550  79.4835580  33.7477550
   5.4582820  79.3716940  34.3102980   4.7694240  78.7873550  33.0954320
   3.3866310  76.9160650  34.4310440   3.4669900  75.9688160  34.5427840
   4.2786060  77.2467530  34.5371100  16.7163490  84.9724830  41.8627850
  16.8410910  85.7956000  42.3351660  17.5829050  84.7615560  41.5152000
   4.1881020  87.0656040  41.5344980   4.9243500  86.5171500  41.8053550
   4.5721940  87.9312050  41.3950970   3.1939300  86.2502110  50.7230560
   3.9952030  86.5714160  51.1365960   2.6791120  85.8897690  51.4450470
   7.2983330  86.2386350  33.3570550   8.0911940  86.5275180  32.9052340
   6.7787680  85.8078520  32.6783030  12.0303930  82.3581980  50.6705970
  11.4242090  82.3813580  49.9301720  11.7258040  81.6265020  51.2073220
  13.4604300  86.0862270  49.2815380  14.4126050  86.0020290  49.2315620
  13.3132520  86.7503980  49.9549170  16.3513500  85.4656480  34.7807290
  16.0655010  85.0521620  33.9661470  16.1533050  86.3944190  34.6607810
   7.8160730  81.4589760  33.2212900   7.7111370  80.8442110  33.9474280
   7.6484950  80.9355650  32.4375910   7.9675050  80.1446560  49.2002130
   7.2020720  80.7131560  49.1156800   8.1491010  79.8522770  48.3070360
  11.0563460  80.5209790  33.8254890  10.5073560  80.9679090  34.4697630
  11.6782720  80.0159040  34.3492560  15.1098400  81.8751890  49.7577150
  15.8507870  82.2127650  49.2544610  14.3471080  82.0443950  49.2046920
   2.9460190  76.8805160  50.5616680   2.9865530  76.5819030  51.4701910
   3.8005690  77.2812770  50.4024200   6.7238580  79.4800710  35.7220190
   7.1455000  79.3140580  36.5651580   6.8489420  78.6700940  35.2275330
   4.8866000  75.4597260  48.5291170   4.3562460  74.9688210  47.9014510
   5.5554070  75.8881460  47.9949100   9.2366220  78.5038320  32.9697290
   9.7571880  77.7887340  32.6038440   9.8834620  79.1424190  33.2697800
  13.7844060  79.9266720  48.2932360  14.1985080  80.0811800  49.1422780
  12.8495060  80.0521940  48.4558140  14.2566230  77.2662880  50.2971510
  14.8387000  76.5115200  50.2091990  14.4328000  77.7970320  49.5202990
   5.3738300  72.4259630  48.6088460   5.2795170  71.8080380  47.8839330
   4.7935690  73.1525920  48.3818370   8.1399740  70.9832870  45.6415850
   7.6917040  71.0057130  44.7961400   7.5064940  70.5851890  46.2386150
   8.5459290  79.8787200  46.2628290   8.9647400  80.7219930  46.0904530
   7.6267920  80.0159240  46.0335070  10.8823190  77.6103380  47.6466130
  11.0019400  77.0144520  48.3860970  11.7417190  77.6473070  47.2267430
  13.2211090  78.1640570  46.2228640  12.6946310  78.6883190  45.6193780
  13.5642430  78.7967960  46.8538370   5.6197480  75.5533940  32.6678350
   5.4186540  74.6901300  33.0291690   5.4489530  75.4667300  31.7299950
   6.3966710  86.1840210  47.3786020   5.8587800  86.9086270  47.0594720
   6.6500670  85.7070550  46.5883360   7.6491960  74.1524730  48.9041950
   8.2391650  73.8440580  49.5919770   6.8312200  73.6804480  49.0601850
  12.4685390  73.7690540  49.1374970  11.7800910  73.1072080  49.0724960
  13.1891410  73.3228810  49.5823430  13.0985790  70.3642170  35.1965230
  13.3788080  69.5210070  35.5524650  12.3251520  70.5965280  35.7103980
   4.4180280  72.6534560  32.6556230   4.7206180  72.6601990  31.7475380
   5.1574870  72.3032420  33.1523890   9.2528920  87.4191420  47.6372670
   9.1787620  88.3226560  47.9445040   8.3507760  87.1003320  47.6094740
   7.6365210  71.5969180  33.6412430   7.2887210  70.9193170  33.0614880
   7.8377980  71.1358690  34.4555820   9.8014250  86.5849930  35.2599030
  10.6965040  86.9234900  35.2817790   9.8331880  85.8629340  34.6323310
   3.4410410  81.9576980  33.4886030   3.8785280  82.5006650  34.1443610
   3.9258140  81.1323930  33.4982370   5.2518130  83.0775020  38.6008260
   4.9513670  82.9539990  39.5012170   5.1455620  82.2183610  38.1923990
  16.7808600  85.1153600  47.9665230  16.1810590  85.1746160  47.2229150
  16.9102500  84.1758580  48.0962080  18.0210050  82.8571420  33.3034940
  17.1903010  82.9248070  33.7742170  18.1981880  83.7475540  33.0001800
  17.4766510  79.6018900  35.8069140  18.2385420  80.1715550  35.9128830
  17.4920880  79.0346100  36.5777450  18.4826480  80.4569000  40.6511070
  18.8535310  79.6736320  40.2447040  19.1228410  81.1458100  40.4728370
  15.4660240  81.8405580  46.0641390  14.6520080  82.2702740  46.3267180
  15.8734440  82.4523990  45.4510440  17.5285680  79.8953270  32.9641660
  17.8034520  80.8032150  32.8360880  17.3396420  79.8315800  33.9003650
  13.9261290  72.9198120  34.2595290  14.3446170  72.7329100  33.4191950
  13.6197350  72.0677170  34.5698220  17.4251020  77.8322260  37.9571090
  17.0494620  77.0650190  37.5252380  16.6954140  78.2144960  38.4446020
   2.0146780  78.5109400  44.5780140   2.3819820  78.4236800  45.4576160
   1.4457600  77.7475950  44.4787000  16.8150640  76.9793780  47.5910610
  16.5836730  76.7506530  46.6908560  17.0755190  77.8993330  47.5455500
  15.2538710  72.2050210  50.3690310  16.1308890  72.2133610  50.7524310
  15.2659550  71.4681050  49.7582660  16.7001980  76.0579750  41.2578330
  17.2239460  75.5642400  40.6268500  17.2861400  76.1930110  42.0025900
  16.8791700  76.1419620  44.7797880  15.9294410  76.1083160  44.8942870
  17.0604710  77.0519730  44.5447650   2.7336140  74.3921300  33.8896510
   3.4427840  73.9704520  33.4043790   2.0176080  74.4596530  33.2579860
   2.3810300  70.4460630  32.9299160   3.1038430  70.9869570  33.2480380
   2.6534820  70.1724050  32.0540700  16.1901950  75.3153100  37.1970740
  16.6861070  75.0823970  37.9819620  15.9918020  74.4764940  36.7808380
   2.0702490  69.6966820  42.8321780   2.7178680  69.1464200  42.3916940
   2.4904330  69.9509970  43.6537590  17.6189110  73.9514050  39.7308420
  17.5088390  73.7970090  40.6690690  18.3796700  73.4234990  39.4883830
  15.9654830  69.8908180  46.1891420  16.6027050  70.5042320  46.5550610
  16.1129720  69.9268840  45.2440650  18.5079380  71.7821970  32.9714560
  19.4328690  71.6503150  32.7632850  18.4855170  71.8614790  33.9251010
  18.5817870  72.5532630  35.5971270  17.7869370  72.4877750  36.1264180
  18.7861150  73.4883270  35.5856620  15.5236290  86.5924180  39.5909660
  16.1195360  86.2708750  38.9144080  15.7814440  86.1196000  40.3822930
   1.8234490  69.8522490  45.5747100   1.4749310  70.3086310  46.3405280
   1.4922190  68.9579620  45.6569530   3.4298860  83.0242090  49.7400290
   3.3868490  82.6535000  50.6214750   3.5609870  83.9619660  49.8802110
   7.1304890  84.5801680  45.3410010   6.8896250  84.8476240  44.4540530
   8.0707530  84.7507410  45.3960870   9.3359310  71.0434370  49.0966520
   9.2748200  71.6356200  49.8461930  10.2759690  70.9360330  48.9516780
  11.9733870  70.7004430  48.7358810  12.5874280  71.0183720  48.0739890
  12.5183430  70.2153020  49.3554670  18.3909050  86.5996060  46.1420650
  17.8967330  86.9964930  45.4247780  17.7822340  85.9745270  46.5357930
   2.4955130  69.3798690  48.8497870   3.0438120  69.1986740  48.0863980
   2.5610440  68.5892800  49.3854180   3.2686890  85.9704340  46.8598070
   2.6747210  85.8389040  47.5988110   3.2610730  85.1342480  46.3940170
  12.7141910  69.2636570  45.0628100  11.8401750  69.5971680  44.8601030
  12.6052660  68.7909750  45.8879970  13.6213890  71.4707440  46.4469820
  13.2927250  70.6559200  46.0671550  14.5696190  71.4277250  46.3235510
  16.0748500  87.2419480  43.4207390  15.6151470  87.9935290  43.0465410
  15.4460960  86.5225950  43.3622190   2.8999120  83.3362720  45.8106110
   2.1733180  82.7168010  45.7432060   2.9608270  83.7303330  44.9404190
   6.5044220  85.5507720  42.5955520   7.0209240  84.9395080  42.0703780
   7.1541600  86.0536500  43.0866530   9.2439720  86.4416210  43.4224500
   9.5317530  86.1870510  42.5457510   9.7562940  85.8893570  44.0130070
  10.4616730  70.1806410  44.0021010   9.6788520  70.6551910  44.2817770
  10.1679660  69.2761240  43.8934190  15.0137800  70.8829510  42.0470100
  15.4545890  70.8274610  41.1991700  14.7445390  71.7987520  42.1180280
  16.8776370  70.5144750  40.0578920  16.8164770  69.5705970  39.9109940
  17.6568400  70.6224840  40.6032380   1.8057140  70.4853890  36.5234730
   2.5636500  70.5982770  35.9498760   1.3434310  71.3223090  36.4778160
   8.3470950  72.5993160  39.5137040   7.5345460  72.2250050  39.1732920
   8.8512590  71.8438240  39.8158230  12.8495930  69.2635610  40.7520110
  13.4525300  69.8355820  41.2268630  12.1088920  69.8275050  40.5294010
  15.9930530  69.6657170  36.0260390  16.1881160  70.5640620  36.2927820
  15.2060400  69.4344250  36.5193340   2.7891820  85.3470340  36.4653010
   2.2639440  85.7278370  35.7614970   2.7136400  85.9721110  37.1862720
   4.1782290  71.0117940  35.0636700   4.7075050  70.2247740  34.9344650
   4.8110610  71.6909130  35.2972230   6.3720130  70.7493080  38.1182090
   5.7422870  70.0480390  38.2852220   5.8325270  71.5097210  37.9015250
   9.3112080  87.3632310  50.7892700  10.2379390  87.1276580  50.8328660
   9.2962510  88.1904310  50.3078730  17.5457140  86.9057880  37.7866950
  17.7209330  86.2195620  37.1427870  16.8478710  87.4304930  37.3943620
   6.4975690  70.0277060  50.5534580   6.2159960  70.5310660  49.7895400
   6.8795390  69.2298810  50.1876710   5.3884790  87.2952720  35.3402260
   6.1203610  87.0112000  34.7926150   5.6478460  87.0566000  36.2301640
   4.5499580  83.4117450  35.3448590   3.9208460  83.8802550  35.8934420
   4.6647410  82.5666670  35.7794780  13.0991150  69.4430640  51.1315050
  12.9856600  69.7625250  52.0266570  13.9160890  69.8443150  50.8352330
  15.8789640  86.5902170  50.6133740  16.6714960  86.0951400  50.4059700
  16.1722790  87.2692310  51.2209350  12.0049300  77.4623110  21.4949790
  11.9243350  76.5477720  21.2241500  11.5913720  77.9590180  20.7889500
  10.1367340  79.2402130  23.3759060   9.3609440  78.7602570  23.6657630
  10.7880270  78.5607780  23.2015220   4.1533170  79.5521940  24.2534820
   3.3218050  79.2970650  24.6531330   4.7614150  79.6232710  24.9892740
  14.1574770  83.6462320  22.1558190  13.6956300  82.8749560  22.4845360
  14.9700320  83.6728390  22.6610640   4.1334430  83.5862030  24.4492840
   4.4362470  82.6959770  24.2703060   4.8778020  84.1432250  24.2215090
   2.5625120  74.5123830  18.0377210   1.6741820  74.8539800  17.9357090
   2.8466310  74.3124150  17.1458040  10.3838080  85.9320330  21.7762180
   9.7649520  86.3877830  21.2056620  11.2389860  86.0871790  21.3751880
   9.5776330  81.9159320  23.3829220   9.5084610  80.9749260  23.2218350
  10.3396190  82.0060730  23.9551790   1.7683000  72.5213840  25.7085840
   1.5885840  71.6239590  25.9888600   1.3663080  73.0685710  26.3832790
  10.6081500  74.7229700  23.6098150  10.9846320  73.8501580  23.4971820
  10.5101010  75.0588400  22.7188590   4.7386510  73.0955330  19.0715590
   4.8453260  73.9959060  19.3784350   3.8278870  73.0473300  18.7810240
  14.3905620  72.2180140  20.5426490  15.2115240  71.7276710  20.5851970
  14.4239700  72.8077800  21.2958330   2.3869670  75.0174340  24.3168180
   3.0679780  75.2812710  24.9355580   2.0717720  74.1775210  24.6506190
   6.5794240  76.0641700  23.4040770   7.0872460  76.5622670  24.0445790
   7.1107480  75.2876900  23.2280130  18.6805170  74.2346890  27.1070120
  17.9757340  74.6228600  26.5885230  18.9463090  74.9297180  27.7091050
   4.8630340  70.7040260  27.6704190   4.8648780  71.2212650  26.8650090
   4.0334650  70.2270440  27.6474120  11.2501430  80.8159570  19.1694090
  10.6318700  81.2809020  18.6056810  11.7624680  81.5087050  19.5863600
   6.1133190  80.3435440  25.8477690   5.7802570  80.9704360  26.4898760
   6.2899870  80.8697320  25.0679360  14.6267100  74.1580520  23.3154030
  13.9222670  74.4465410  23.8957140  14.9879260  74.9680630  22.9553590
   4.5445670  72.4150220  25.6774640   4.8862480  73.2592270  25.3828510
   3.6061480  72.5633960  25.7939980   5.3252290  82.3116240  27.6626870
   5.9426290  82.9867320  27.3811320   4.4645410  82.7204220  27.5714370
  16.2429880  83.7755650  25.5781510  15.5593400  84.4454760  25.5698180
  16.7824170  83.9736300  24.8126370  17.6954020  73.6035310  23.7063240
  16.7478930  73.6374290  23.8378670  18.0204010  74.4174260  24.0912600
   8.2273560  69.9032490  22.0019230   8.5348540  69.3479380  21.2854730
   7.2974260  70.0376950  21.8192220  13.7788620  85.6199780  24.2926690
  13.7915780  85.2162070  23.4248950  13.2263840  86.3947070  24.1888120
  15.0734040  82.3416000  19.3816860  14.9630370  81.3990330  19.5066280
  15.0702290  82.7031640  20.2679620  13.1774060  80.5229620  25.6209300
  13.5942850  80.3089730  24.7862760  13.9013880  80.7802410  26.1917920
  10.6154320  77.9681320  18.7379350   9.6883600  77.9018700  18.9667820
  10.7679140  78.9061450  18.6234590  10.6023400  74.2398320  15.7346510
   9.6627070  74.4012280  15.8198970  10.9206660  74.9584000  15.1882500
  17.1236160  78.9216840  25.7125540  16.2954790  78.9909930  25.2375670
  17.7186640  79.5071150  25.2441370  14.6451610  79.5301620  19.2414600
  14.0264030  79.1921170  18.5940900  14.6276060  78.8861380  19.9493790
  14.0878170  75.7086160  26.6580410  13.6749350  76.5339870  26.9120400
  13.3554120  75.1231200  26.4656770   6.2210960  78.4946060  21.5199080
   5.8167960  77.7823310  21.0244980   6.3074080  78.1499300  22.4087120
   6.6892660  82.1813620  23.6838290   6.3920950  81.5759090  23.0046070
   7.6392480  82.2190930  23.5727650   4.9339580  75.2689270  25.2998120
   5.4854170  75.3784610  24.5251370   5.4483090  75.6426870  26.0153350
  14.7778270  85.7545490  27.3461390  14.3008830  86.5617680  27.1534000
  14.0940060  85.1023820  27.4987600   5.7811090  81.9195310  30.3346090
   4.8839620  82.1435280  30.5819490   5.8063960  82.0430250  29.3857490
  12.8216310  78.7688430  16.2487350  13.2609590  77.9310860  16.1025170
  13.5344730  79.4017830  16.3351490   4.6082310  78.7908630  28.9103460
   4.4690080  79.6631430  29.2790860   3.7263670  78.4481440  28.7651400
  10.9311690  83.7084500  20.2168590  11.3707600  84.4508830  19.8023980
  10.8698580  83.9511070  21.1407550   6.4062660  84.7330330  31.1188610
   6.3778090  85.1373280  30.2517040   6.2427630  83.8040690  30.9560210
  16.4033450  70.0231240  14.5628390  16.0906110  70.1158070  15.4627460
  17.1645920  70.6012270  14.5125820   2.9215590  77.3891040  19.0205730
   2.8013190  78.1153130  18.4087000   2.6116480  76.6193950  18.5433640
  18.3577480  85.5157430  32.4152780  18.8337200  85.9940320  33.0941860
  18.9784640  85.4474920  31.6898280   1.8048590  82.2606370  21.2380550
   1.3976670  82.4020960  20.3834150   2.6961600  81.9766530  21.0351760
  17.7610730  82.7070280  29.5752790  17.8873790  82.4682160  28.6569970
  17.8032110  81.8754820  30.0474870  11.6227470  86.4098280  28.1447600
  12.1372140  86.3206290  28.9470030  10.7796550  86.7557980  28.4375510
  13.5981870  86.6953620  17.5731600  13.4383010  86.4056560  18.4713430
  13.4328580  85.9193750  17.0376830   6.0770250  86.4752150  19.3503220
   5.9012730  85.5587690  19.1371020   5.2225990  86.8339440  19.5901020
  13.3008000  84.2041180  16.1329600  12.6073160  84.2018470  15.4731880
  14.0430860  83.7800500  15.7023770  12.8657930  85.8303890  20.2078090
  13.3214880  85.0493270  20.5216710  13.2050450  86.5410710  20.7519270
  17.6134740  74.7602740  30.5402530  16.9979010  75.2682410  30.0117990
  17.2931160  73.8601070  30.4828470   5.3879250  70.7326110  22.4029400
   4.9447400  71.5135650  22.0713920   5.9464240  71.0556000  23.1100340
   9.6749060  73.5994630  28.0064720   9.2128430  73.8077650  28.8184660
   9.2727170  72.7853980  27.7035390  14.6753570  74.8203580  29.1361380
  13.8247160  74.5209330  29.4570450  14.5155360  75.0645590  28.2245200
  11.7703280  76.3205330  31.2360170  12.0956690  75.4869080  30.8962400
  12.5583610  76.8433850  31.3838500   8.5038070  70.3536810  17.2835230
   7.8792250  70.3496680  18.0088540   8.4168190  69.4867770  16.8871200
   7.4255150  71.2773440  24.2619000   7.7227480  72.1836270  24.1811020
   7.9740710  70.7892220  23.6478570   5.1793470  75.8559680  20.1310650
   4.9534390  75.6396850  21.0357270   4.3986000  76.2888140  19.7856620
  12.4091230  75.8623050  18.7301300  11.8100120  76.5858850  18.5464920
  12.9570840  75.7999830  17.9477750   7.6192680  76.7545260  30.7970920
   7.5236280  75.8139990  30.6471320   8.4624660  76.9760330  30.4018990
  11.0156100  74.4986590  20.7604580  11.4085670  74.8158790  19.9473270
  11.3772950  73.6198470  20.8749100   2.7503220  73.1658930  28.9504700
   2.3566610  74.0134140  29.1577480   2.0621620  72.5285300  29.1413340
   9.3248270  73.2493900  32.0201440   8.6346590  73.0566100  32.6547530
  10.0680570  73.5328540  32.5525740  11.6011240  77.0892340  24.8555360
  10.8692360  77.5979150  25.2045460  11.2035580  76.2722320  24.5544140
   8.0388630  73.7646540  23.2607850   8.0424690  73.3236490  22.4112390
   8.9339750  74.0863870  23.3679670   3.8891010  73.6473030  22.2202060
   3.5491060  74.1248260  22.9769110   3.1268330  73.1938150  21.8603160
   8.1008780  74.7658620  16.2514610   8.2221600  74.7245100  17.2000430
   7.7157290  75.6282770  16.0961340  12.0637150  72.5426020  24.2678300
  12.0809890  72.9934670  25.1120150  11.8152730  71.6431660  24.4811740
   7.1130280  77.0759760  15.6497910   6.5447180  76.6278010  15.0233820
   7.8219280  77.4352540  15.1163060  15.4907900  69.9558200  30.1064680
  15.8153670  69.2247860  30.6322660  15.5264410  69.6371840  29.2045670
   2.1899460  80.9771780  29.5264640   1.8054250  80.3365450  30.1247600
   2.5011650  81.6807900  30.0959370   8.3396600  77.8248320  25.0073260
   8.7066730  77.3506890  25.7534600   8.1501660  78.6989890  25.3481600
   6.1295970  76.8656960  27.3257470   5.8253040  77.7448940  27.5507830
   7.0842430  76.9256750  27.3614910   4.6577760  81.0717950  17.9224320
   3.8840020  80.5315570  17.7623040   5.3872390  80.5524560  17.5842080
  15.4165740  80.0683310  23.7150710  16.1364860  80.5638600  23.3246820
  15.2147560  79.3901200  23.0704580  10.8775680  71.4621270  17.8580100
  10.0640290  70.9634440  17.7825410  10.6837630  72.3019520  17.4416450
  10.7984540  80.1392370  29.6019710  10.7321850  79.2188040  29.3477300
  10.1689680  80.2367810  30.3164350  13.5924070  75.8340920  16.1542260
  14.4803690  76.1458150  15.9793600  13.5629160  74.9613170  15.7622840
   4.7015160  80.7398330  21.5603130   5.2193830  79.9366590  21.5060020
   4.2499180  80.6777470  22.4019960   9.5884660  82.0064610  16.8330430
   9.9300360  82.7506840  16.3373750   8.7597370  82.3195730  17.1955260
   2.1859700  77.7059700  28.4728830   1.8274640  78.3713550  29.0602170
   1.8914260  76.8743250  28.8441450   5.3872820  78.1643940  31.3568380
   5.0872960  78.3101120  30.4596200   6.1584060  77.6049230  31.2641770
  10.7301270  82.9612940  29.3523510  10.7445810  82.0293900  29.1342420
  10.0226370  83.0472700  29.9913280  15.8638340  77.1452760  15.6222120
  15.7802060  77.5766980  14.7718560  16.5832530  77.6051110  16.0548940
  16.9412480  79.6020280  28.6992090  16.2160670  80.1949060  28.5021480
  17.4687940  79.5943820  27.9005460  16.8925590  83.9995020  18.3504250
  16.2501750  83.3450640  18.6247970  16.5056250  84.4050110  17.5744920
  12.4712070  81.3280450  22.1975940  12.8235890  80.7308580  21.5377310
  11.5874400  81.0024680  22.3684190   8.5575350  82.0878140  19.6046350
   9.2446480  82.6347350  19.9853940   7.7707770  82.6318870  19.6395960
   7.8602560  79.0924170  19.2171710   8.3165340  79.9029420  19.4431900
   7.5090770  78.7747310  20.0490200  10.1635170  84.6030510  26.4464010
  10.8077390  84.8089890  27.1237430  10.5264610  83.8418910  25.9934860
   3.7614340  69.4361820  19.6894230   3.6328970  69.4279720  20.6379150
   2.9376360  69.7744910  19.3385240  11.4367250  82.6062860  25.1641460
  12.0789480  81.9056020  25.2773630  11.9616600  83.3861300  24.9838350
  15.2822970  82.8911480  14.8880600  15.0560550  82.1741920  15.4805240
  14.8919170  82.6423920  14.0502350  13.2104870  83.4057760  28.3677520
  13.5461110  83.9924450  29.0455440  12.2905210  83.2750470  28.5975310
  14.8639220  80.8083420  16.5494760  14.5760920  81.2696110  17.3372640
  15.6591390  80.3481190  16.8178980   9.0393450  83.4549090  31.5365580
   8.7190320  82.7358330  32.0811270   8.3651810  84.1304160  31.6101640
   7.0807620  84.3009540  16.4798730   7.0717720  85.0339230  15.8643240
   6.1605980  84.0541120  16.5725690   2.6814260  79.5224430  17.2245490
   2.0742210  80.2623330  17.2340790   3.1563610  79.6123790  16.3983690
  12.2547050  73.6875250  26.9002380  12.6227870  72.8670460  27.2281950
  11.3945250  73.7477140  27.3158030  15.6209080  72.6432190  17.7089940
  14.9922240  72.7477860  16.9948170  15.1261000  72.8628970  18.4983820
  10.0667220  84.3637780  15.1423920  10.1679200  84.1601770  14.2125900
   9.1668960  84.1096060  15.3471700   7.5893110  74.9218140  19.1247820
   6.8809260  75.3904480  19.5661430   7.8737590  74.2640150  19.7593010
   9.2149040  76.3414840  27.1240350   9.7134290  76.8160660  27.7892200
   9.3571990  75.4178360  27.3310380  11.6208540  71.6468800  20.5643610
  11.4976320  71.6654930  19.6153120  12.5693100  71.6947740  20.6842010
   8.7085330  86.8824100  19.8371590   8.9626830  86.8445490  18.9150960
   7.7597810  86.7557430  19.8299840   5.7928130  73.2303220  16.4998530
   6.6418660  73.6673370  16.4338720   5.4259400  73.5423480  17.3270590
  16.4215900  72.5582800  27.9668740  15.9189500  73.2988200  28.3062550
  17.2372560  72.9466800  27.6505530  14.7137910  77.8015980  21.4130100
  13.7728050  77.8166210  21.5877790  15.0281980  77.0151940  21.8590400
   4.6919550  79.4835580  14.9734060   5.4582820  79.3716940  15.5359490
   4.7694240  78.7873550  14.3210830   3.3866310  76.9160650  15.6566950
   3.4669900  75.9688160  15.7684350   4.2786060  77.2467530  15.7627610
  16.7163490  84.9724830  23.0884360  16.8410910  85.7956000  23.5608170
  17.5829050  84.7615560  22.7408510   4.1881020  87.0656040  22.7601490
   4.9243500  86.5171500  23.0310060   4.5721940  87.9312050  22.6207480
   3.1939300  86.2502110  31.9487070   3.9952030  86.5714160  32.3622470
   2.6791120  85.8897690  32.6706980   7.2983330  86.2386350  14.5827060
   8.0911940  86.5275180  14.1308850   6.7787680  85.8078520  13.9039540
  12.0303930  82.3581980  31.8962480  11.4242090  82.3813580  31.1558230
  11.7258040  81.6265020  32.4329730  13.4604300  86.0862270  30.5071890
  14.4126050  86.0020290  30.4572130  13.3132520  86.7503980  31.1805680
  16.3513500  85.4656480  16.0063800  16.0655010  85.0521620  15.1917980
  16.1533050  86.3944190  15.8864320   7.8160730  81.4589760  14.4469410
   7.7111370  80.8442110  15.1730790   7.6484950  80.9355650  13.6632420
   7.9675050  80.1446560  30.4258640   7.2020720  80.7131560  30.3413310
   8.1491010  79.8522770  29.5326870  11.0563460  80.5209790  15.0511400
  10.5073560  80.9679090  15.6954140  11.6782720  80.0159040  15.5749070
  15.1098400  81.8751890  30.9833660  15.8507870  82.2127650  30.4801120
  14.3471080  82.0443950  30.4303430   2.9460190  76.8805160  31.7873190
   2.9865530  76.5819030  32.6958420   3.8005690  77.2812770  31.6280710
   6.7238580  79.4800710  16.9476700   7.1455000  79.3140580  17.7908090
   6.8489420  78.6700940  16.4531840   4.8866000  75.4597260  29.7547680
   4.3562460  74.9688210  29.1271020   5.5554070  75.8881460  29.2205610
   9.2366220  78.5038320  14.1953800   9.7571880  77.7887340  13.8294950
   9.8834620  79.1424190  14.4954310  13.7844060  79.9266720  29.5188870
  14.1985080  80.0811800  30.3679290  12.8495060  80.0521940  29.6814650
  14.2566230  77.2662880  31.5228020  14.8387000  76.5115200  31.4348500
  14.4328000  77.7970320  30.7459500   5.3738300  72.4259630  29.8344970
   5.2795170  71.8080380  29.1095840   4.7935690  73.1525920  29.6074880
   8.1399740  70.9832870  26.8672360   7.6917040  71.0057130  26.0217910
   7.5064940  70.5851890  27.4642660   8.5459290  79.8787200  27.4884800
   8.9647400  80.7219930  27.3161040   7.6267920  80.0159240  27.2591580
  10.8823190  77.6103380  28.8722640  11.0019400  77.0144520  29.6117480
  11.7417190  77.6473070  28.4523940  13.2211090  78.1640570  27.4485150
  12.6946310  78.6883190  26.8450290  13.5642430  78.7967960  28.0794880
   5.6197480  75.5533940  13.8934860   5.4186540  74.6901300  14.2548200
   5.4489530  75.4667300  12.9556460   6.3966710  86.1840210  28.6042530
   5.8587800  86.9086270  28.2851230   6.6500670  85.7070550  27.8139870
   7.6491960  74.1524730  30.1298460   8.2391650  73.8440580  30.8176280
   6.8312200  73.6804480  30.2858360  12.4685390  73.7690540  30.3631480
  11.7800910  73.1072080  30.2981470  13.1891410  73.3228810  30.8079940
  13.0985790  70.3642170  16.4221740  13.3788080  69.5210070  16.7781160
  12.3251520  70.5965280  16.9360490   4.4180280  72.6534560  13.8812740
   4.7206180  72.6601990  12.9731890   5.1574870  72.3032420  14.3780400
   9.2528920  87.4191420  28.8629180   9.1787620  88.3226560  29.1701550
   8.3507760  87.1003320  28.8351250   7.6365210  71.5969180  14.8668940
   7.2887210  70.9193170  14.2871390   7.8377980  71.1358690  15.6812330
   9.8014250  86.5849930  16.4855540  10.6965040  86.9234900  16.5074300
   9.8331880  85.8629340  15.8579820   3.4410410  81.9576980  14.7142540
   3.8785280  82.5006650  15.3700120   3.9258140  81.1323930  14.7238880
   5.2518130  83.0775020  19.8264770   4.9513670  82.9539990  20.7268680
   5.1455620  82.2183610  19.4180500  16.7808600  85.1153600  29.1921740
  16.1810590  85.1746160  28.4485660  16.9102500  84.1758580  29.3218590
  18.0210050  82.8571420  14.5291450  17.1903010  82.9248070  14.9998680
  18.1981880  83.7475540  14.2258310  17.4766510  79.6018900  17.0325650
  18.2385420  80.1715550  17.1385340  17.4920880  79.0346100  17.8033960
  18.4826480  80.4569000  21.8767580  18.8535310  79.6736320  21.4703550
  19.1228410  81.1458100  21.6984880  15.4660240  81.8405580  27.2897900
  14.6520080  82.2702740  27.5523690  15.8734440  82.4523990  26.6766950
  17.5285680  79.8953270  14.1898170  17.8034520  80.8032150  14.0617390
  17.3396420  79.8315800  15.1260160  13.9261290  72.9198120  15.4851800
  14.3446170  72.7329100  14.6448460  13.6197350  72.0677170  15.7954730
  17.4251020  77.8322260  19.1827600  17.0494620  77.0650190  18.7508890
  16.6954140  78.2144960  19.6702530   2.0146780  78.5109400  25.8036650
   2.3819820  78.4236800  26.6832670   1.4457600  77.7475950  25.7043510
  16.8150640  76.9793780  28.8167120  16.5836730  76.7506530  27.9165070
  17.0755190  77.8993330  28.7712010  15.2538710  72.2050210  31.5946820
  16.1308890  72.2133610  31.9780820  15.2659550  71.4681050  30.9839170
  16.7001980  76.0579750  22.4834840  17.2239460  75.5642400  21.8525010
  17.2861400  76.1930110  23.2282410  16.8791700  76.1419620  26.0054390
  15.9294410  76.1083160  26.1199380  17.0604710  77.0519730  25.7704160
   2.7336140  74.3921300  15.1153020   3.4427840  73.9704520  14.6300300
   2.0176080  74.4596530  14.4836370   2.3810300  70.4460630  14.1555670
   3.1038430  70.9869570  14.4736890   2.6534820  70.1724050  13.2797210
  16.1901950  75.3153100  18.4227250  16.6861070  75.0823970  19.2076130
  15.9918020  74.4764940  18.0064890   2.0702490  69.6966820  24.0578290
   2.7178680  69.1464200  23.6173450   2.4904330  69.9509970  24.8794100
  17.6189110  73.9514050  20.9564930  17.5088390  73.7970090  21.8947200
  18.3796700  73.4234990  20.7140340  15.9654830  69.8908180  27.4147930
  16.6027050  70.5042320  27.7807120  16.1129720  69.9268840  26.4697160
  18.5079380  71.7821970  14.1971070  19.4328690  71.6503150  13.9889360
  18.4855170  71.8614790  15.1507520  18.5817870  72.5532630  16.8227780
  17.7869370  72.4877750  17.3520690  18.7861150  73.4883270  16.8113130
  15.5236290  86.5924180  20.8166170  16.1195360  86.2708750  20.1400590
  15.7814440  86.1196000  21.6079440   1.8234490  69.8522490  26.8003610
   1.4749310  70.3086310  27.5661790   1.4922190  68.9579620  26.8826040
   3.4298860  83.0242090  30.9656800   3.3868490  82.6535000  31.8471260
   3.5609870  83.9619660  31.1058620   7.1304890  84.5801680  26.5666520
   6.8896250  84.8476240  25.6797040   8.0707530  84.7507410  26.6217380
   9.3359310  71.0434370  30.3223030   9.2748200  71.6356200  31.0718440
  10.2759690  70.9360330  30.1773290  11.9733870  70.7004430  29.9615320
  12.5874280  71.0183720  29.2996400  12.5183430  70.2153020  30.5811180
  18.3909050  86.5996060  27.3677160  17.8967330  86.9964930  26.6504290
  17.7822340  85.9745270  27.7614440   2.4955130  69.3798690  30.0754380
   3.0438120  69.1986740  29.3120490   2.5610440  68.5892800  30.6110690
   3.2686890  85.9704340  28.0854580   2.6747210  85.8389040  28.8244620
   3.2610730  85.1342480  27.6196680  12.7141910  69.2636570  26.2884610
  11.8401750  69.5971680  26.0857540  12.6052660  68.7909750  27.1136480
  13.6213890  71.4707440  27.6726330  13.2927250  70.6559200  27.2928060
  14.5696190  71.4277250  27.5492020  16.0748500  87.2419480  24.6463900
  15.6151470  87.9935290  24.2721920  15.4460960  86.5225950  24.5878700
   2.8999120  83.3362720  27.0362620   2.1733180  82.7168010  26.9688570
   2.9608270  83.7303330  26.1660700   6.5044220  85.5507720  23.8212030
   7.0209240  84.9395080  23.2960290   7.1541600  86.0536500  24.3123040
   9.2439720  86.4416210  24.6481010   9.5317530  86.1870510  23.7714020
   9.7562940  85.8893570  25.2386580  10.4616730  70.1806410  25.2277520
   9.6788520  70.6551910  25.5074280  10.1679660  69.2761240  25.1190700
  15.0137800  70.8829510  23.2726610  15.4545890  70.8274610  22.4248210
  14.7445390  71.7987520  23.3436790  16.8776370  70.5144750  21.2835430
  16.8164770  69.5705970  21.1366450  17.6568400  70.6224840  21.8288890
   1.8057140  70.4853890  17.7491240   2.5636500  70.5982770  17.1755270
   1.3434310  71.3223090  17.7034670   8.3470950  72.5993160  20.7393550
   7.5345460  72.2250050  20.3989430   8.8512590  71.8438240  21.0414740
  12.8495930  69.2635610  21.9776620  13.4525300  69.8355820  22.4525140
  12.1088920  69.8275050  21.7550520  15.9930530  69.6657170  17.2516900
  16.1881160  70.5640620  17.5184330  15.2060400  69.4344250  17.7449850
   2.7891820  85.3470340  17.6909520   2.2639440  85.7278370  16.9871480
   2.7136400  85.9721110  18.4119230   4.1782290  71.0117940  16.2893210
   4.7075050  70.2247740  16.1601160   4.8110610  71.6909130  16.5228740
   6.3720130  70.7493080  19.3438600   5.7422870  70.0480390  19.5108730
   5.8325270  71.5097210  19.1271760   9.3112080  87.3632310  32.0149210
  10.2379390  87.1276580  32.0585170   9.2962510  88.1904310  31.5335240
  17.5457140  86.9057880  19.0123460  17.7209330  86.2195620  18.3684380
  16.8478710  87.4304930  18.6200130   6.4975690  70.0277060  31.7791090
   6.2159960  70.5310660  31.0151910   6.8795390  69.2298810  31.4133220
   5.3884790  87.2952720  16.5658770   6.1203610  87.0112000  16.0182660
   5.6478460  87.0566000  17.4558150   4.5499580  83.4117450  16.5705100
   3.9208460  83.8802550  17.1190930   4.6647410  82.5666670  17.0051290
  13.0991150  69.4430640  32.3571560  12.9856600  69.7625250  33.2523080
  13.9160890  69.8443150  32.0608840  15.8789640  86.5902170  31.8390250
  16.6714960  86.0951400  31.6316210  16.1722790  87.2692310  32.4465860
  12.0049300  77.4623110   2.7206300  11.9243350  76.5477720   2.4498010
  11.5913720  77.9590180   2.0146010  10.1367340  79.2402130   4.6015570
   9.3609440  78.7602570   4.8914140  10.7880270  78.5607780   4.4271730
   4.1533170  79.5521940   5.4791330   3.3218050  79.2970650   5.8787840
   4.7614150  79.6232710   6.2149250  14.1574770  83.6462320   3.3814700
  13.6956300  82.8749560   3.7101870  14.9700320  83.6728390   3.8867150
   4.1334430  83.5862030   5.6749350   4.4362470  82.6959770   5.4959570
   4.8778020  84.1432250   5.4471600  10.3838080  85.9320330   3.0018690
   9.7649520  86.3877830   2.4313130  11.2389860  86.0871790   2.6008390
   9.5776330  81.9159320   4.6085730   9.5084610  80.9749260   4.4474860
  10.3396190  82.0060730   5.1808300   1.7683000  72.5213840   6.9342350
   1.5885840  71.6239590   7.2145110   1.3663080  73.0685710   7.6089300
  10.6081500  74.7229700   4.8354660  10.9846320  73.8501580   4.7228330
  10.5101010  75.0588400   3.9445100  14.3905620  72.2180140   1.7683000
  15.2115240  71.7276710   1.8108480  14.4239700  72.8077800   2.5214840
   2.3869670  75.0174340   5.5424690   3.0679780  75.2812710   6.1612090
   2.0717720  74.1775210   5.8762700   6.5794240  76.0641700   4.6297280
   7.0872460  76.5622670   5.2702300   7.1107480  75.2876900   4.4536640
  18.6805170  74.2346890   8.3326630  17.9757340  74.6228600   7.8141740
  18.9463090  74.9297180   8.9347560   4.8630340  70.7040260   8.8960700
   4.8648780  71.2212650   8.0906600   4.0334650  70.2270440   8.8730630
   6.1133190  80.3435440   7.0734200   5.7802570  80.9704360   7.7155270
   6.2899870  80.8697320   6.2935870  14.6267100  74.1580520   4.5410540
  13.9222670  74.4465410   5.1213650  14.9879260  74.9680630   4.1810100
   4.5445670  72.4150220   6.9031150   4.8862480  73.2592270   6.6085020
   3.6061480  72.5633960   7.0196490   5.3252290  82.3116240   8.8883380
   5.9426290  82.9867320   8.6067830   4.4645410  82.7204220   8.7970880
  16.2429880  83.7755650   6.8038020  15.5593400  84.4454760   6.7954690
  16.7824170  83.9736300   6.0382880  17.6954020  73.6035310   4.9319750
  16.7478930  73.6374290   5.0635180  18.0204010  74.4174260   5.3169110
   8.2273560  69.9032490   3.2275740   8.5348540  69.3479380   2.5111240
   7.2974260  70.0376950   3.0448730  13.7788620  85.6199780   5.5183200
  13.7915780  85.2162070   4.6505460  13.2263840  86.3947070   5.4144630
  13.1774060  80.5229620   6.8465810  13.5942850  80.3089730   6.0119270
  13.9013880  80.7802410   7.4174430  17.1236160  78.9216840   6.9382050
  16.2954790  78.9909930   6.4632180  17.7186640  79.5071150   6.4697880
  14.0878170  75.7086160   7.8836920  13.6749350  76.5339870   8.1376910
  13.3554120  75.1231200   7.6913280   6.2210960  78.4946060   2.7455590
   5.8167960  77.7823310   2.2501490   6.3074080  78.1499300   3.6343630
   6.6892660  82.1813620   4.9094800   6.3920950  81.5759090   4.2302580
   7.6392480  82.2190930   4.7984160   4.9339580  75.2689270   6.5254630
   5.4854170  75.3784610   5.7507880   5.4483090  75.6426870   7.2409860
  14.7778270  85.7545490   8.5717900  14.3008830  86.5617680   8.3790510
  14.0940060  85.1023820   8.7244110   5.7811090  81.9195310  11.5602600
   4.8839620  82.1435280  11.8076000   5.8063960  82.0430250  10.6114000
   4.6082310  78.7908630  10.1359970   4.4690080  79.6631430  10.5047370
   3.7263670  78.4481440   9.9907910   6.4062660  84.7330330  12.3445120
   6.3778090  85.1373280  11.4773550   6.2427630  83.8040690  12.1816720
  18.3577480  85.5157430  13.6409290  18.8337200  85.9940320  14.3198370
  18.9784640  85.4474920  12.9154790   1.8048590  82.2606370   2.4637060
   1.3976670  82.4020960   1.6090660   2.6961600  81.9766530   2.2608270
  17.7610730  82.7070280  10.8009300  17.8873790  82.4682160   9.8826480
  17.8032110  81.8754820  11.2731380  11.6227470  86.4098280   9.3704110
  12.1372140  86.3206290  10.1726540  10.7796550  86.7557980   9.6632020
  17.6134740  74.7602740  11.7659040  16.9979010  75.2682410  11.2374500
  17.2931160  73.8601070  11.7084980   5.3879250  70.7326110   3.6285910
   4.9447400  71.5135650   3.2970430   5.9464240  71.0556000   4.3356850
   9.6749060  73.5994630   9.2321230   9.2128430  73.8077650  10.0441170
   9.2727170  72.7853980   8.9291900  14.6753570  74.8203580  10.3617890
  13.8247160  74.5209330  10.6826960  14.5155360  75.0645590   9.4501710
  11.7703280  76.3205330  12.4616680  12.0956690  75.4869080  12.1218910
  12.5583610  76.8433850  12.6095010   7.4255150  71.2773440   5.4875510
   7.7227480  72.1836270   5.4067530   7.9740710  70.7892220   4.8735080
   7.6192680  76.7545260  12.0227430   7.5236280  75.8139990  11.8727830
   8.4624660  76.9760330  11.6275500   2.7503220  73.1658930  10.1761210
   2.3566610  74.0134140  10.3833990   2.0621620  72.5285300  10.3669850
   9.3248270  73.2493900  13.2457950   8.6346590  73.0566100  13.8804040
  10.0680570  73.5328540  13.7782250  11.6011240  77.0892340   6.0811870
  10.8692360  77.5979150   6.4301970  11.2035580  76.2722320   5.7800650
   8.0388630  73.7646540   4.4864360   8.0424690  73.3236490   3.6368900
   8.9339750  74.0863870   4.5936180   3.8891010  73.6473030   3.4458570
   3.5491060  74.1248260   4.2025620   3.1268330  73.1938150   3.0859670
  12.0637150  72.5426020   5.4934810  12.0809890  72.9934670   6.3376660
  11.8152730  71.6431660   5.7068250  15.4907900  69.9558200  11.3321190
  15.8153670  69.2247860  11.8579170  15.5264410  69.6371840  10.4302180
   2.1899460  80.9771780  10.7521150   1.8054250  80.3365450  11.3504110
   2.5011650  81.6807900  11.3215880   8.3396600  77.8248320   6.2329770
   8.7066730  77.3506890   6.9791110   8.1501660  78.6989890   6.5738110
   6.1295970  76.8656960   8.5513980   5.8253040  77.7448940   8.7764340
   7.0842430  76.9256750   8.5871420  15.4165740  80.0683310   4.9407220
  16.1364860  80.5638600   4.5503330  15.2147560  79.3901200   4.2961090
  10.7984540  80.1392370  10.8276220  10.7321850  79.2188040  10.5733810
  10.1689680  80.2367810  11.5420860   4.7015160  80.7398330   2.7859640
   5.2193830  79.9366590   2.7316530   4.2499180  80.6777470   3.6276470
   2.1859700  77.7059700   9.6985340   1.8274640  78.3713550  10.2858680
   1.8914260  76.8743250  10.0697960   5.3872820  78.1643940  12.5824890
   5.0872960  78.3101120  11.6852710   6.1584060  77.6049230  12.4898280
  10.7301270  82.9612940  10.5780020  10.7445810  82.0293900  10.3598930
  10.0226370  83.0472700  11.2169790  16.9412480  79.6020280   9.9248600
  16.2160670  80.1949060   9.7277990  17.4687940  79.5943820   9.1261970
  12.4712070  81.3280450   3.4232450  12.8235890  80.7308580   2.7633820
  11.5874400  81.0024680   3.5940700  10.1635170  84.6030510   7.6720520
  10.8077390  84.8089890   8.3493940  10.5264610  83.8418910   7.2191370
  11.4367250  82.6062860   6.3897970  12.0789480  81.9056020   6.5030140
  11.9616600  83.3861300   6.2094860  13.2104870  83.4057760   9.5934030
  13.5461110  83.9924450  10.2711950  12.2905210  83.2750470   9.8231820
   9.0393450  83.4549090  12.7622090   8.7190320  82.7358330  13.3067780
   8.3651810  84.1304160  12.8358150  12.2547050  73.6875250   8.1258890
  12.6227870  72.8670460   8.4538460  11.3945250  73.7477140   8.5414540
   9.2149040  76.3414840   8.3496860   9.7134290  76.8160660   9.0148710
   9.3571990  75.4178360   8.5566890  16.4215900  72.5582800   9.1925250
  15.9189500  73.2988200   9.5319060  17.2372560  72.9466800   8.8762040
  14.7137910  77.8015980   2.6386610  13.7728050  77.8166210   2.8134300
  15.0281980  77.0151940   3.0846910  16.7163490  84.9724830   4.3140870
  16.8410910  85.7956000   4.7864680  17.5829050  84.7615560   3.9665020
   4.1881020  87.0656040   3.9858000   4.9243500  86.5171500   4.2566570
   4.5721940  87.9312050   3.8463990   3.1939300  86.2502110  13.1743580
   3.9952030  86.5714160  13.5878980   2.6791120  85.8897690  13.8963490
  12.0303930  82.3581980  13.1218990  11.4242090  82.3813580  12.3814740
  11.7258040  81.6265020  13.6586240  13.4604300  86.0862270  11.7328400
  14.4126050  86.0020290  11.6828640  13.3132520  86.7503980  12.4062190
   7.9675050  80.1446560  11.6515150   7.2020720  80.7131560  11.5669820
   8.1491010  79.8522770  10.7583380  15.1098400  81.8751890  12.2090170
  15.8507870  82.2127650  11.7057630  14.3471080  82.0443950  11.6559940
   2.9460190  76.8805160  13.0129700   2.9865530  76.5819030  13.9214930
   3.8005690  77.2812770  12.8537220   4.8866000  75.4597260  10.9804190
   4.3562460  74.9688210  10.3527530   5.5554070  75.8881460  10.4462120
  13.7844060  79.9266720  10.7445380  14.1985080  80.0811800  11.5935800
  12.8495060  80.0521940  10.9071160  14.2566230  77.2662880  12.7484530
  14.8387000  76.5115200  12.6605010  14.4328000  77.7970320  11.9716010
   5.3738300  72.4259630  11.0601480   5.2795170  71.8080380  10.3352350
   4.7935690  73.1525920  10.8331390   8.1399740  70.9832870   8.0928870
   7.6917040  71.0057130   7.2474420   7.5064940  70.5851890   8.6899170
   8.5459290  79.8787200   8.7141310   8.9647400  80.7219930   8.5417550
   7.6267920  80.0159240   8.4848090  10.8823190  77.6103380  10.0979150
  11.0019400  77.0144520  10.8373990  11.7417190  77.6473070   9.6780450
  13.2211090  78.1640570   8.6741660  12.6946310  78.6883190   8.0706800
  13.5642430  78.7967960   9.3051390   6.3966710  86.1840210   9.8299040
   5.8587800  86.9086270   9.5107740   6.6500670  85.7070550   9.0396380
   7.6491960  74.1524730  11.3554970   8.2391650  73.8440580  12.0432790
   6.8312200  73.6804480  11.5114870  12.4685390  73.7690540  11.5887990
  11.7800910  73.1072080  11.5237980  13.1891410  73.3228810  12.0336450
   9.2528920  87.4191420  10.0885690   9.1787620  88.3226560  10.3958060
   8.3507760  87.1003320  10.0607760  16.7808600  85.1153600  10.4178250
  16.1810590  85.1746160   9.6742170  16.9102500  84.1758580  10.5475100
  18.4826480  80.4569000   3.1024090  18.8535310  79.6736320   2.6960060
  19.1228410  81.1458100   2.9241390  15.4660240  81.8405580   8.5154410
  14.6520080  82.2702740   8.7780200  15.8734440  82.4523990   7.9023460
   2.0146780  78.5109400   7.0293160   2.3819820  78.4236800   7.9089180
   1.4457600  77.7475950   6.9300020  16.8150640  76.9793780  10.0423630
  16.5836730  76.7506530   9.1421580  17.0755190  77.8993330   9.9968520
  15.2538710  72.2050210  12.8203330  16.1308890  72.2133610  13.2037330
  15.2659550  71.4681050  12.2095680  16.7001980  76.0579750   3.7091350
  17.2239460  75.5642400   3.0781520  17.2861400  76.1930110   4.4538920
  16.8791700  76.1419620   7.2310900  15.9294410  76.1083160   7.3455890
  17.0604710  77.0519730   6.9960670   2.0702490  69.6966820   5.2834800
   2.7178680  69.1464200   4.8429960   2.4904330  69.9509970   6.1050610
  17.6189110  73.9514050   2.1821440  17.5088390  73.7970090   3.1203710
  18.3796700  73.4234990   1.9396850  15.9654830  69.8908180   8.6404440
  16.6027050  70.5042320   9.0063630  16.1129720  69.9268840   7.6953670
   1.8234490  69.8522490   8.0260120   1.4749310  70.3086310   8.7918300
   1.4922190  68.9579620   8.1082550   3.4298860  83.0242090  12.1913310
   3.3868490  82.6535000  13.0727770   3.5609870  83.9619660  12.3315130
   7.1304890  84.5801680   7.7923030   6.8896250  84.8476240   6.9053550
   8.0707530  84.7507410   7.8473890   9.3359310  71.0434370  11.5479540
   9.2748200  71.6356200  12.2974950  10.2759690  70.9360330  11.4029800
  11.9733870  70.7004430  11.1871830  12.5874280  71.0183720  10.5252910
  12.5183430  70.2153020  11.8067690  18.3909050  86.5996060   8.5933670
  17.8967330  86.9964930   7.8760800  17.7822340  85.9745270   8.9870950
   2.4955130  69.3798690  11.3010890   3.0438120  69.1986740  10.5377000
   2.5610440  68.5892800  11.8367200   3.2686890  85.9704340   9.3111090
   2.6747210  85.8389040  10.0501130   3.2610730  85.1342480   8.8453190
  12.7141910  69.2636570   7.5141120  11.8401750  69.5971680   7.3114050
  12.6052660  68.7909750   8.3392990  13.6213890  71.4707440   8.8982840
  13.2927250  70.6559200   8.5184570  14.5696190  71.4277250   8.7748530
  16.0748500  87.2419480   5.8720410  15.6151470  87.9935290   5.4978430
  15.4460960  86.5225950   5.8135210   2.8999120  83.3362720   8.2619130
   2.1733180  82.7168010   8.1945080   2.9608270  83.7303330   7.3917210
   6.5044220  85.5507720   5.0468540   7.0209240  84.9395080   4.5216800
   7.1541600  86.0536500   5.5379550   9.2439720  86.4416210   5.8737520
   9.5317530  86.1870510   4.9970530   9.7562940  85.8893570   6.4643090
  10.4616730  70.1806410   6.4534030   9.6788520  70.6551910   6.7330790
  10.1679660  69.2761240   6.3447210  15.0137800  70.8829510   4.4983120
  15.4545890  70.8274610   3.6504720  14.7445390  71.7987520   4.5693300
  16.8776370  70.5144750   2.5091940  16.8164770  69.5705970   2.3622960
  17.6568400  70.6224840   3.0545400   8.3470950  72.5993160   1.9650060
   7.5345460  72.2250050   1.6245940   8.8512590  71.8438240   2.2671250
  12.8495930  69.2635610   3.2033130  13.4525300  69.8355820   3.6781650
  12.1088920  69.8275050   2.9807030   9.3112080  87.3632310  13.2405720
  10.2379390  87.1276580  13.2841680   9.2962510  88.1904310  12.7591750
   6.4975690  70.0277060  13.0047600   6.2159960  70.5310660  12.2408420
   6.8795390  69.2298810  12.6389730  13.0991150  69.4430640  13.5828070
  12.9856600  69.7625250  14.4779590  13.9160890  69.8443150  13.2865350
  15.8789640  86.5902170  13.0646760  16.6714960  86.0951400  12.8572720
  16.1722790  87.2692310  13.6722370  12.0049300  58.6879620  77.8180260
  11.9243350  57.7734230  77.5471970  11.5913720  59.1846690  77.1119970
  10.1367340  60.4658640  79.6989530   9.3609440  59.9859080  79.9888100
  10.7880270  59.7864290  79.5245690   4.1533170  60.7778450  80.5765290
   3.3218050  60.5227160  80.9761800   4.7614150  60.8489220  81.3123210
  14.1574770  64.8718830  78.4788660  13.6956300  64.1006070  78.8075830
  14.9700320  64.8984900  78.9841110   4.1334430  64.8118540  80.7723310
   4.4362470  63.9216280  80.5933530   4.8778020  65.3688760  80.5445560
   2.5625120  55.7380340  74.3607680   1.6741820  56.0796310  74.2587560
   2.8466310  55.5380660  73.4688510  10.3838080  67.1576840  78.0992650
   9.7649520  67.6134340  77.5287090  11.2389860  67.3128300  77.6982350
   9.5776330  63.1415830  79.7059690   9.5084610  62.2005770  79.5448820
  10.3396190  63.2317240  80.2782260  10.6081500  55.9486210  79.9328620
  10.9846320  55.0758090  79.8202290  10.5101010  56.2844910  79.0419060
   4.7386510  54.3211840  75.3946060   4.8453260  55.2215570  75.7014820
   3.8278870  54.2729810  75.1040710  14.3905620  53.4436650  76.8656960
  15.2115240  52.9533220  76.9082440  14.4239700  54.0334310  77.6188800
   2.3869670  56.2430850  80.6398650   3.0679780  56.5069220  81.2586050
   2.0717720  55.4031720  80.9736660   6.5794240  57.2898210  79.7271240
   7.0872460  57.7879180  80.3676260   7.1107480  56.5133410  79.5510600
  11.2501430  62.0416080  75.4924560  10.6318700  62.5065530  74.9287280
  11.7624680  62.7343560  75.9094070  14.6267100  55.3837030  79.6384500
  13.9222670  55.6721920  80.2187610  14.9879260  56.1937140  79.2784060
   4.5445670  53.6406730  82.0005110   4.8862480  54.4848780  81.7058980
   3.6061480  53.7890470  82.1170450  16.2429880  65.0012160  81.9011980
  15.5593400  65.6711270  81.8928650  16.7824170  65.1992810  81.1356840
  17.6954020  54.8291820  80.0293710  16.7478930  54.8630800  80.1609140
  18.0204010  55.6430770  80.4143070   8.2273560  51.1289000  78.3249700
   8.5348540  50.5735890  77.6085200   7.2974260  51.2633460  78.1422690
  13.7788620  66.8456290  80.6157160  13.7915780  66.4418580  79.7479420
  13.2263840  67.6203580  80.5118590  15.0734040  63.5672510  75.7047330
  14.9630370  62.6246840  75.8296750  15.0702290  63.9288150  76.5910090
  10.6154320  59.1937830  75.0609820   9.6883600  59.1275210  75.2898290
  10.7679140  60.1317960  74.9465060  10.6023400  55.4654830  72.0576980
   9.6627070  55.6268790  72.1429440  10.9206660  56.1840510  71.5112970
  17.1236160  60.1473350  82.0356010  16.2954790  60.2166440  81.5606140
  17.7186640  60.7327660  81.5671840  14.6451610  60.7558130  75.5645070
  14.0264030  60.4177680  74.9171370  14.6276060  60.1117890  76.2724260
   6.2210960  59.7202570  77.8429550   5.8167960  59.0079820  77.3475450
   6.3074080  59.3755810  78.7317590   6.6892660  63.4070130  80.0068760
   6.3920950  62.8015600  79.3276540   7.6392480  63.4447440  79.8958120
  12.8216310  59.9944940  72.5717820  13.2609590  59.1567370  72.4255640
  13.5344730  60.6274340  72.6581960  10.9311690  64.9341010  76.5399060
  11.3707600  65.6765340  76.1254450  10.8698580  65.1767580  77.4638020
  16.4033450  51.2487750  70.8858860  16.0906110  51.3414580  71.7857930
  17.1645920  51.8268780  70.8356290   2.9215590  58.6147550  75.3436200
   2.8013190  59.3409640  74.7317470   2.6116480  57.8450460  74.8664110
   1.8048590  63.4862880  77.5611020   1.3976670  63.6277470  76.7064620
   2.6961600  63.2023040  77.3582230  13.5981870  67.9210130  73.8962070
  13.4383010  67.6313070  74.7943900  13.4328580  67.1450260  73.3607300
   6.0770250  67.7008660  75.6733690   5.9012730  66.7844200  75.4601490
   5.2225990  68.0595950  75.9131490  13.3008000  65.4297690  72.4560070
  12.6073160  65.4274980  71.7962350  14.0430860  65.0057010  72.0254240
  12.8657930  67.0560400  76.5308560  13.3214880  66.2749780  76.8447180
  13.2050450  67.7667220  77.0749740   5.3879250  51.9582620  78.7259870
   4.9447400  52.7392160  78.3944390   5.9464240  52.2812510  79.4330810
   8.5038070  51.5793320  73.6065700   7.8792250  51.5753190  74.3319010
   8.4168190  50.7124280  73.2101670   7.4255150  52.5029950  80.5849470
   7.7227480  53.4092780  80.5041490   7.9740710  52.0148730  79.9709040
   5.1793470  57.0816190  76.4541120   4.9534390  56.8653360  77.3587740
   4.3986000  57.5144650  76.1087090  12.4091230  57.0879560  75.0531770
  11.8100120  57.8115360  74.8695390  12.9570840  57.0256340  74.2708220
  11.0156100  55.7243100  77.0835050  11.4085670  56.0415300  76.2703740
  11.3772950  54.8454980  77.1979570  11.6011240  58.3148850  81.1785830
  10.8692360  58.8235660  81.5275930  11.2035580  57.4978830  80.8774610
   8.0388630  54.9903050  79.5838320   8.0424690  54.5493000  78.7342860
   8.9339750  55.3120380  79.6910140   3.8891010  54.8729540  78.5432530
   3.5491060  55.3504770  79.2999580   3.1268330  54.4194660  78.1833630
   8.1008780  55.9915130  72.5745080   8.2221600  55.9501610  73.5230900
   7.7157290  56.8539280  72.4191810  12.0637150  53.7682530  80.5908770
  12.0809890  54.2191180  81.4350620  11.8152730  52.8688170  80.8042210
   7.1130280  58.3016270  71.9728380   6.5447180  57.8534520  71.3464290
   7.8219280  58.6609050  71.4393530   8.3396600  59.0504830  81.3303730
   8.7066730  58.5763400  82.0765070   8.1501660  59.9246400  81.6712070
   4.6577760  62.2974460  74.2454790   3.8840020  61.7572080  74.0853510
   5.3872390  61.7781070  73.9072550  15.4165740  61.2939820  80.0381180
  16.1364860  61.7895110  79.6477290  15.2147560  60.6157710  79.3935050
  10.8775680  52.6877780  74.1810570  10.0640290  52.1890950  74.1055880
  10.6837630  53.5276030  73.7646920  13.5924070  57.0597430  72.4772730
  14.4803690  57.3714660  72.3024070  13.5629160  56.1869680  72.0853310
   4.7015160  61.9654840  77.8833600   5.2193830  61.1623100  77.8290490
   4.2499180  61.9033980  78.7250430   9.5884660  63.2321120  73.1560900
   9.9300360  63.9763350  72.6604220   8.7597370  63.5452240  73.5185730
  15.8638340  58.3709270  71.9452590  15.7802060  58.8023490  71.0949030
  16.5832530  58.8307620  72.3779410  16.8925590  65.2251530  74.6734720
  16.2501750  64.5707150  74.9478440  16.5056250  65.6306620  73.8975390
  12.4712070  62.5536960  78.5206410  12.8235890  61.9565090  77.8607780
  11.5874400  62.2281190  78.6914660   8.5575350  63.3134650  75.9276820
   9.2446480  63.8603860  76.3084410   7.7707770  63.8575380  75.9626430
   7.8602560  60.3180680  75.5402180   8.3165340  61.1285930  75.7662370
   7.5090770  60.0003820  76.3720670   3.7614340  50.6618330  76.0124700
   3.6328970  50.6536230  76.9609620   2.9376360  51.0001420  75.6615710
  11.4367250  63.8319370  81.4871930  12.0789480  63.1312530  81.6004100
  11.9616600  64.6117810  81.3068820  15.2822970  64.1167990  71.2111070
  15.0560550  63.3998430  71.8035710  14.8919170  63.8680430  70.3732820
  14.8639220  62.0339930  72.8725230  14.5760920  62.4952620  73.6603110
  15.6591390  61.5737700  73.1409450   7.0807620  65.5266050  72.8029200
   7.0717720  66.2595740  72.1873710   6.1605980  65.2797630  72.8956160
   2.6814260  60.7480940  73.5475960   2.0742210  61.4879840  73.5571260
   3.1563610  60.8380300  72.7214160  15.6209080  53.8688700  74.0320410
  14.9922240  53.9734370  73.3178640  15.1261000  54.0885480  74.8214290
  10.0667220  65.5894290  71.4654390  10.1679200  65.3858280  70.5356370
   9.1668960  65.3352570  71.6702170   7.5893110  56.1474650  75.4478290
   6.8809260  56.6160990  75.8891900   7.8737590  55.4896660  76.0823480
  11.6208540  52.8725310  76.8874080  11.4976320  52.8911440  75.9383590
  12.5693100  52.9204250  77.0072480   8.7085330  68.1080610  76.1602060
   8.9626830  68.0702000  75.2381430   7.7597810  67.9813940  76.1530310
   5.7928130  54.4559730  72.8229000   6.6418660  54.8929880  72.7569190
   5.4259400  54.7679990  73.6501060  14.7137910  59.0272490  77.7360570
  13.7728050  59.0422720  77.9108260  15.0281980  58.2408450  78.1820870
   4.6919550  60.7092090  71.2964530   5.4582820  60.5973450  71.8589960
   4.7694240  60.0130060  70.6441300   3.3866310  58.1417160  71.9797420
   3.4669900  57.1944670  72.0914820   4.2786060  58.4724040  72.0858080
  16.7163490  66.1981340  79.4114830  16.8410910  67.0212510  79.8838640
  17.5829050  65.9872070  79.0638980   4.1881020  68.2912550  79.0831960
   4.9243500  67.7428010  79.3540530   4.5721940  69.1568560  78.9437950
   7.2983330  67.4642860  70.9057530   8.0911940  67.7531690  70.4539320
   6.7787680  67.0335030  70.2270010  16.3513500  66.6912990  72.3294270
  16.0655010  66.2778130  71.5148450  16.1533050  67.6200700  72.2094790
   7.8160730  62.6846270  70.7699880   7.7111370  62.0698620  71.4961260
   7.6484950  62.1612160  69.9862890  11.0563460  61.7466300  71.3741870
  10.5073560  62.1935600  72.0184610  11.6782720  61.2415550  71.8979540
   6.7238580  60.7057220  73.2707170   7.1455000  60.5397090  74.1138560
   6.8489420  59.8957450  72.7762310   9.2366220  59.7294830  70.5184270
   9.7571880  59.0143850  70.1525420   9.8834620  60.3680700  70.8184780
   5.6197480  56.7790450  70.2165330   5.4186540  55.9157810  70.5778670
   5.4489530  56.6923810  69.2786930  13.0985790  51.5898680  72.7452210
  13.3788080  50.7466580  73.1011630  12.3251520  51.8221790  73.2590960
   4.4180280  53.8791070  70.2043210   4.7206180  53.8858500  69.2962360
   5.1574870  53.5288930  70.7010870   7.6365210  52.8225690  71.1899410
   7.2887210  52.1449680  70.6101860   7.8377980  52.3615200  72.0042800
   9.8014250  67.8106440  72.8086010  10.6965040  68.1491410  72.8304770
   9.8331880  67.0885850  72.1810290   3.4410410  63.1833490  71.0373010
   3.8785280  63.7263160  71.6930590   3.9258140  62.3580440  71.0469350
   5.2518130  64.3031530  76.1495240   4.9513670  64.1796500  77.0499150
   5.1455620  63.4440120  75.7410970  18.0210050  64.0827930  70.8521920
  17.1903010  64.1504580  71.3229150  18.1981880  64.9732050  70.5488780
  17.4766510  60.8275410  73.3556120  18.2385420  61.3972060  73.4615810
  17.4920880  60.2602610  74.1264430  18.4826480  61.6825510  78.1998050
  18.8535310  60.8992830  77.7934020  19.1228410  62.3714610  78.0215350
  17.5285680  61.1209780  70.5128640  17.8034520  62.0288660  70.3847860
  17.3396420  61.0572310  71.4490630  13.9261290  54.1454630  71.8082270
  14.3446170  53.9585610  70.9678930  13.6197350  53.2933680  72.1185200
  17.4251020  59.0578770  75.5058070  17.0494620  58.2906700  75.0739360
  16.6954140  59.4401470  75.9933000  16.7001980  57.2836260  78.8065310
  17.2239460  56.7898910  78.1755480  17.2861400  57.4186620  79.5512880
   2.7336140  55.6177810  71.4383490   3.4427840  55.1961030  70.9530770
   2.0176080  55.6853040  70.8066840   2.3810300  51.6717140  70.4786140
   3.1038430  52.2126080  70.7967360   2.6534820  51.3980560  69.6027680
  16.1901950  56.5409610  74.7457720  16.6861070  56.3080480  75.5306600
  15.9918020  55.7021450  74.3295360   2.0702490  50.9223330  80.3808760
   2.7178680  50.3720710  79.9403920   2.4904330  51.1766480  81.2024570
  17.6189110  55.1770560  77.2795400  17.5088390  55.0226600  78.2177670
  18.3796700  54.6491500  77.0370810  18.5079380  53.0078480  70.5201540
  19.4328690  52.8759660  70.3119830  18.4855170  53.0871300  71.4737990
  18.5817870  53.7789140  73.1458250  17.7869370  53.7134260  73.6751160
  18.7861150  54.7139780  73.1343600  15.5236290  67.8180690  77.1396640
  16.1195360  67.4965260  76.4631060  15.7814440  67.3452510  77.9309910
  16.0748500  68.4675990  80.9694370  15.6151470  69.2191800  80.5952390
  15.4460960  67.7482460  80.9109170   6.5044220  66.7764230  80.1442500
   7.0209240  66.1651590  79.6190760   7.1541600  67.2793010  80.6353510
   9.2439720  67.6672720  80.9711480   9.5317530  67.4127020  80.0944490
   9.7562940  67.1150080  81.5617050  10.4616730  51.4062920  81.5507990
   9.6788520  51.8808420  81.8304750  10.1679660  50.5017750  81.4421170
  15.0137800  52.1086020  79.5957080  15.4545890  52.0531120  78.7478680
  14.7445390  53.0244030  79.6667260  16.8776370  51.7401260  77.6065900
  16.8164770  50.7962480  77.4596920  17.6568400  51.8481350  78.1519360
   1.8057140  51.7110400  74.0721710   2.5636500  51.8239280  73.4985740
   1.3434310  52.5479600  74.0265140   8.3470950  53.8249670  77.0624020
   7.5345460  53.4506560  76.7219900   8.8512590  53.0694750  77.3645210
  12.8495930  50.4892120  78.3007090  13.4525300  51.0612330  78.7755610
  12.1088920  51.0531560  78.0780990  15.9930530  50.8913680  73.5747370
  16.1881160  51.7897130  73.8414800  15.2060400  50.6600760  74.0680320
   2.7891820  66.5726850  74.0139990   2.2639440  66.9534880  73.3101950
   2.7136400  67.1977620  74.7349700   4.1782290  52.2374450  72.6123680
   4.7075050  51.4504250  72.4831630   4.8110610  52.9165640  72.8459210
   6.3720130  51.9749590  75.6669070   5.7422870  51.2736900  75.8339200
   5.8325270  52.7353720  75.4502230  17.5457140  68.1314390  75.3353930
  17.7209330  67.4452130  74.6914850  16.8478710  68.6561440  74.9430600
   5.3884790  68.5209230  72.8889240   6.1203610  68.2368510  72.3413130
   5.6478460  68.2822510  73.7788620   4.5499580  64.6373960  72.8935570
   3.9208460  65.1059060  73.4421400   4.6647410  63.7923180  73.3281760
  12.0049300  58.6879620  59.0436770  11.9243350  57.7734230  58.7728480
  11.5913720  59.1846690  58.3376480  10.1367340  60.4658640  60.9246040
   9.3609440  59.9859080  61.2144610  10.7880270  59.7864290  60.7502200
   4.1533170  60.7778450  61.8021800   3.3218050  60.5227160  62.2018310
   4.7614150  60.8489220  62.5379720  14.1574770  64.8718830  59.7045170
  13.6956300  64.1006070  60.0332340  14.9700320  64.8984900  60.2097620
   4.1334430  64.8118540  61.9979820   4.4362470  63.9216280  61.8190040
   4.8778020  65.3688760  61.7702070   2.5625120  55.7380340  55.5864190
   1.6741820  56.0796310  55.4844070   2.8466310  55.5380660  54.6945020
  10.3838080  67.1576840  59.3249160   9.7649520  67.6134340  58.7543600
  11.2389860  67.3128300  58.9238860   9.5776330  63.1415830  60.9316200
   9.5084610  62.2005770  60.7705330  10.3396190  63.2317240  61.5038770
   1.7683000  53.7470350  63.2572820   1.5885840  52.8496100  63.5375580
   1.3663080  54.2942220  63.9319770  10.6081500  55.9486210  61.1585130
  10.9846320  55.0758090  61.0458800  10.5101010  56.2844910  60.2675570
   4.7386510  54.3211840  56.6202570   4.8453260  55.2215570  56.9271330
   3.8278870  54.2729810  56.3297220  14.3905620  53.4436650  58.0913470
  15.2115240  52.9533220  58.1338950  14.4239700  54.0334310  58.8445310
   2.3869670  56.2430850  61.8655160   3.0679780  56.5069220  62.4842560
   2.0717720  55.4031720  62.1993170   6.5794240  57.2898210  60.9527750
   7.0872460  57.7879180  61.5932770   7.1107480  56.5133410  60.7767110
  18.6805170  55.4603400  64.6557100  17.9757340  55.8485110  64.1372210
  18.9463090  56.1553690  65.2578030   4.8630340  51.9296770  65.2191170
   4.8648780  52.4469160  64.4137070   4.0334650  51.4526950  65.1961100
  11.2501430  62.0416080  56.7181070  10.6318700  62.5065530  56.1543790
  11.7624680  62.7343560  57.1350580   6.1133190  61.5691950  63.3964670
   5.7802570  62.1960870  64.0385740   6.2899870  62.0953830  62.6166340
  14.6267100  55.3837030  60.8641010  13.9222670  55.6721920  61.4444120
  14.9879260  56.1937140  60.5040570   4.5445670  53.6406730  63.2261620
   4.8862480  54.4848780  62.9315490   3.6061480  53.7890470  63.3426960
   5.3252290  63.5372750  65.2113850   5.9426290  64.2123830  64.9298300
   4.4645410  63.9460730  65.1201350  16.2429880  65.0012160  63.1268490
  15.5593400  65.6711270  63.1185160  16.7824170  65.1992810  62.3613350
  17.6954020  54.8291820  61.2550220  16.7478930  54.8630800  61.3865650
  18.0204010  55.6430770  61.6399580   8.2273560  51.1289000  59.5506210
   8.5348540  50.5735890  58.8341710   7.2974260  51.2633460  59.3679200
  13.7788620  66.8456290  61.8413670  13.7915780  66.4418580  60.9735930
  13.2263840  67.6203580  61.7375100  15.0734040  63.5672510  56.9303840
  14.9630370  62.6246840  57.0553260  15.0702290  63.9288150  57.8166600
  13.1774060  61.7486130  63.1696280  13.5942850  61.5346240  62.3349740
  13.9013880  62.0058920  63.7404900  10.6154320  59.1937830  56.2866330
   9.6883600  59.1275210  56.5154800  10.7679140  60.1317960  56.1721570
  10.6023400  55.4654830  53.2833490   9.6627070  55.6268790  53.3685950
  10.9206660  56.1840510  52.7369480  17.1236160  60.1473350  63.2612520
  16.2954790  60.2166440  62.7862650  17.7186640  60.7327660  62.7928350
  14.6451610  60.7558130  56.7901580  14.0264030  60.4177680  56.1427880
  14.6276060  60.1117890  57.4980770  14.0878170  56.9342670  64.2067390
  13.6749350  57.7596380  64.4607380  13.3554120  56.3487710  64.0143750
   6.2210960  59.7202570  59.0686060   5.8167960  59.0079820  58.5731960
   6.3074080  59.3755810  59.9574100   6.6892660  63.4070130  61.2325270
   6.3920950  62.8015600  60.5533050   7.6392480  63.4447440  61.1214630
   4.9339580  56.4945780  62.8485100   5.4854170  56.6041120  62.0738350
   5.4483090  56.8683380  63.5640330  14.7778270  66.9802000  64.8948370
  14.3008830  67.7874190  64.7020980  14.0940060  66.3280330  65.0474580
   5.7811090  63.1451820  67.8833070   4.8839620  63.3691790  68.1306470
   5.8063960  63.2686760  66.9344470  12.8216310  59.9944940  53.7974330
  13.2609590  59.1567370  53.6512150  13.5344730  60.6274340  53.8838470
   4.6082310  60.0165140  66.4590440   4.4690080  60.8887940  66.8277840
   3.7263670  59.6737950  66.3138380  10.9311690  64.9341010  57.7655570
  11.3707600  65.6765340  57.3510960  10.8698580  65.1767580  58.6894530
   6.4062660  65.9586840  68.6675590   6.3778090  66.3629790  67.8004020
   6.2427630  65.0297200  68.5047190  16.4033450  51.2487750  52.1115370
  16.0906110  51.3414580  53.0114440  17.1645920  51.8268780  52.0612800
   2.9215590  58.6147550  56.5692710   2.8013190  59.3409640  55.9573980
   2.6116480  57.8450460  56.0920620  18.3577480  66.7413940  69.9639760
  18.8337200  67.2196830  70.6428840  18.9784640  66.6731430  69.2385260
   1.8048590  63.4862880  58.7867530   1.3976670  63.6277470  57.9321130
   2.6961600  63.2023040  58.5838740  17.7610730  63.9326790  67.1239770
  17.8873790  63.6938670  66.2056950  17.8032110  63.1011330  67.5961850
  11.6227470  67.6354790  65.6934580  12.1372140  67.5462800  66.4957010
  10.7796550  67.9814490  65.9862490  13.5981870  67.9210130  55.1218580
  13.4383010  67.6313070  56.0200410  13.4328580  67.1450260  54.5863810
   6.0770250  67.7008660  56.8990200   5.9012730  66.7844200  56.6858000
   5.2225990  68.0595950  57.1388000  13.3008000  65.4297690  53.6816580
  12.6073160  65.4274980  53.0218860  14.0430860  65.0057010  53.2510750
  12.8657930  67.0560400  57.7565070  13.3214880  66.2749780  58.0703690
  13.2050450  67.7667220  58.3006250  17.6134740  55.9859250  68.0889510
  16.9979010  56.4938920  67.5604970  17.2931160  55.0857580  68.0315450
   5.3879250  51.9582620  59.9516380   4.9447400  52.7392160  59.6200900
   5.9464240  52.2812510  60.6587320   9.6749060  54.8251140  65.5551700
   9.2128430  55.0334160  66.3671640   9.2727170  54.0110490  65.2522370
  14.6753570  56.0460090  66.6848360  13.8247160  55.7465840  67.0057430
  14.5155360  56.2902100  65.7732180  11.7703280  57.5461840  68.7847150
  12.0956690  56.7125590  68.4449380  12.5583610  58.0690360  68.9325480
   8.5038070  51.5793320  54.8322210   7.8792250  51.5753190  55.5575520
   8.4168190  50.7124280  54.4358180   7.4255150  52.5029950  61.8105980
   7.7227480  53.4092780  61.7298000   7.9740710  52.0148730  61.1965550
   5.1793470  57.0816190  57.6797630   4.9534390  56.8653360  58.5844250
   4.3986000  57.5144650  57.3343600  12.4091230  57.0879560  56.2788280
  11.8100120  57.8115360  56.0951900  12.9570840  57.0256340  55.4964730
   7.6192680  57.9801770  68.3457900   7.5236280  57.0396500  68.1958300
   8.4624660  58.2016840  67.9505970  11.0156100  55.7243100  58.3091560
  11.4085670  56.0415300  57.4960250  11.3772950  54.8454980  58.4236080
   2.7503220  54.3915440  66.4991680   2.3566610  55.2390650  66.7064460
   2.0621620  53.7541810  66.6900320   9.3248270  54.4750410  69.5688420
   8.6346590  54.2822610  70.2034510  10.0680570  54.7585050  70.1012720
  11.6011240  58.3148850  62.4042340  10.8692360  58.8235660  62.7532440
  11.2035580  57.4978830  62.1031120   8.0388630  54.9903050  60.8094830
   8.0424690  54.5493000  59.9599370   8.9339750  55.3120380  60.9166650
   3.8891010  54.8729540  59.7689040   3.5491060  55.3504770  60.5256090
   3.1268330  54.4194660  59.4090140   8.1008780  55.9915130  53.8001590
   8.2221600  55.9501610  54.7487410   7.7157290  56.8539280  53.6448320
  12.0637150  53.7682530  61.8165280  12.0809890  54.2191180  62.6607130
  11.8152730  52.8688170  62.0298720   7.1130280  58.3016270  53.1984890
   6.5447180  57.8534520  52.5720800   7.8219280  58.6609050  52.6650040
  15.4907900  51.1814710  67.6551660  15.8153670  50.4504370  68.1809640
  15.5264410  50.8628350  66.7532650   2.1899460  62.2028290  67.0751620
   1.8054250  61.5621960  67.6734580   2.5011650  62.9064410  67.6446350
   8.3396600  59.0504830  62.5560240   8.7066730  58.5763400  63.3021580
   8.1501660  59.9246400  62.8968580   6.1295970  58.0913470  64.8744450
   5.8253040  58.9705450  65.0994810   7.0842430  58.1513260  64.9101890
   4.6577760  62.2974460  55.4711300   3.8840020  61.7572080  55.3110020
   5.3872390  61.7781070  55.1329060  15.4165740  61.2939820  61.2637690
  16.1364860  61.7895110  60.8733800  15.2147560  60.6157710  60.6191560
  10.8775680  52.6877780  55.4067080  10.0640290  52.1890950  55.3312390
  10.6837630  53.5276030  54.9903430  10.7984540  61.3648880  67.1506690
  10.7321850  60.4444550  66.8964280  10.1689680  61.4624320  67.8651330
  13.5924070  57.0597430  53.7029240  14.4803690  57.3714660  53.5280580
  13.5629160  56.1869680  53.3109820   4.7015160  61.9654840  59.1090110
   5.2193830  61.1623100  59.0547000   4.2499180  61.9033980  59.9506940
   9.5884660  63.2321120  54.3817410   9.9300360  63.9763350  53.8860730
   8.7597370  63.5452240  54.7442240   2.1859700  58.9316210  66.0215810
   1.8274640  59.5970060  66.6089150   1.8914260  58.0999760  66.3928430
   5.3872820  59.3900450  68.9055360   5.0872960  59.5357630  68.0083180
   6.1584060  58.8305740  68.8128750  10.7301270  64.1869450  66.9010490
  10.7445810  63.2550410  66.6829400  10.0226370  64.2729210  67.5400260
  15.8638340  58.3709270  53.1709100  15.7802060  58.8023490  52.3205540
  16.5832530  58.8307620  53.6035920  16.9412480  60.8276790  66.2479070
  16.2160670  61.4205570  66.0508460  17.4687940  60.8200330  65.4492440
  16.8925590  65.2251530  55.8991230  16.2501750  64.5707150  56.1734950
  16.5056250  65.6306620  55.1231900  12.4712070  62.5536960  59.7462920
  12.8235890  61.9565090  59.0864290  11.5874400  62.2281190  59.9171170
   8.5575350  63.3134650  57.1533330   9.2446480  63.8603860  57.5340920
   7.7707770  63.8575380  57.1882940   7.8602560  60.3180680  56.7658690
   8.3165340  61.1285930  56.9918880   7.5090770  60.0003820  57.5977180
  10.1635170  65.8287020  63.9950990  10.8077390  66.0346400  64.6724410
  10.5264610  65.0675420  63.5421840   3.7614340  50.6618330  57.2381210
   3.6328970  50.6536230  58.1866130   2.9376360  51.0001420  56.8872220
  11.4367250  63.8319370  62.7128440  12.0789480  63.1312530  62.8260610
  11.9616600  64.6117810  62.5325330  15.2822970  64.1167990  52.4367580
  15.0560550  63.3998430  53.0292220  14.8919170  63.8680430  51.5989330
  13.2104870  64.6314270  65.9164500  13.5461110  65.2180960  66.5942420
  12.2905210  64.5006980  66.1462290  14.8639220  62.0339930  54.0981740
  14.5760920  62.4952620  54.8859620  15.6591390  61.5737700  54.3665960
   9.0393450  64.6805600  69.0852560   8.7190320  63.9614840  69.6298250
   8.3651810  65.3560670  69.1588620   7.0807620  65.5266050  54.0285710
   7.0717720  66.2595740  53.4130220   6.1605980  65.2797630  54.1212670
   2.6814260  60.7480940  54.7732470   2.0742210  61.4879840  54.7827770
   3.1563610  60.8380300  53.9470670  12.2547050  54.9131760  64.4489360
  12.6227870  54.0926970  64.7768930  11.3945250  54.9733650  64.8645010
  15.6209080  53.8688700  55.2576920  14.9922240  53.9734370  54.5435150
  15.1261000  54.0885480  56.0470800  10.0667220  65.5894290  52.6910900
  10.1679200  65.3858280  51.7612880   9.1668960  65.3352570  52.8958680
   7.5893110  56.1474650  56.6734800   6.8809260  56.6160990  57.1148410
   7.8737590  55.4896660  57.3079990   9.2149040  57.5671350  64.6727330
   9.7134290  58.0417170  65.3379180   9.3571990  56.6434870  64.8797360
  11.6208540  52.8725310  58.1130590  11.4976320  52.8911440  57.1640100
  12.5693100  52.9204250  58.2328990   8.7085330  68.1080610  57.3858570
   8.9626830  68.0702000  56.4637940   7.7597810  67.9813940  57.3786820
   5.7928130  54.4559730  54.0485510   6.6418660  54.8929880  53.9825700
   5.4259400  54.7679990  54.8757570  16.4215900  53.7839310  65.5155720
  15.9189500  54.5244710  65.8549530  17.2372560  54.1723310  65.1992510
  14.7137910  59.0272490  58.9617080  13.7728050  59.0422720  59.1364770
  15.0281980  58.2408450  59.4077380   4.6919550  60.7092090  52.5221040
   5.4582820  60.5973450  53.0846470   4.7694240  60.0130060  51.8697810
   3.3866310  58.1417160  53.2053930   3.4669900  57.1944670  53.3171330
   4.2786060  58.4724040  53.3114590  16.7163490  66.1981340  60.6371340
  16.8410910  67.0212510  61.1095150  17.5829050  65.9872070  60.2895490
   4.1881020  68.2912550  60.3088470   4.9243500  67.7428010  60.5797040
   4.5721940  69.1568560  60.1694460   3.1939300  67.4758620  69.4974050
   3.9952030  67.7970670  69.9109450   2.6791120  67.1154200  70.2193960
   7.2983330  67.4642860  52.1314040   8.0911940  67.7531690  51.6795830
   6.7787680  67.0335030  51.4526520  12.0303930  63.5838490  69.4449460
  11.4242090  63.6070090  68.7045210  11.7258040  62.8521530  69.9816710
  13.4604300  67.3118780  68.0558870  14.4126050  67.2276800  68.0059110
  13.3132520  67.9760490  68.7292660  16.3513500  66.6912990  53.5550780
  16.0655010  66.2778130  52.7404960  16.1533050  67.6200700  53.4351300
   7.8160730  62.6846270  51.9956390   7.7111370  62.0698620  52.7217770
   7.6484950  62.1612160  51.2119400   7.9675050  61.3703070  67.9745620
   7.2020720  61.9388070  67.8900290   8.1491010  61.0779280  67.0813850
  11.0563460  61.7466300  52.5998380  10.5073560  62.1935600  53.2441120
  11.6782720  61.2415550  53.1236050  15.1098400  63.1008400  68.5320640
  15.8507870  63.4384160  68.0288100  14.3471080  63.2700460  67.9790410
   2.9460190  58.1061670  69.3360170   2.9865530  57.8075540  70.2445400
   3.8005690  58.5069280  69.1767690   6.7238580  60.7057220  54.4963680
   7.1455000  60.5397090  55.3395070   6.8489420  59.8957450  54.0018820
   4.8866000  56.6853770  67.3034660   4.3562460  56.1944720  66.6758000
   5.5554070  57.1137970  66.7692590   9.2366220  59.7294830  51.7440780
   9.7571880  59.0143850  51.3781930   9.8834620  60.3680700  52.0441290
  13.7844060  61.1523230  67.0675850  14.1985080  61.3068310  67.9166270
  12.8495060  61.2778450  67.2301630  14.2566230  58.4919390  69.0715000
  14.8387000  57.7371710  68.9835480  14.4328000  59.0226830  68.2946480
   5.3738300  53.6516140  67.3831950   5.2795170  53.0336890  66.6582820
   4.7935690  54.3782430  67.1561860   8.1399740  52.2089380  64.4159340
   7.6917040  52.2313640  63.5704890   7.5064940  51.8108400  65.0129640
   8.5459290  61.1043710  65.0371780   8.9647400  61.9476440  64.8648020
   7.6267920  61.2415750  64.8078560  10.8823190  58.8359890  66.4209620
  11.0019400  58.2401030  67.1604460  11.7417190  58.8729580  66.0010920
  13.2211090  59.3897080  64.9972130  12.6946310  59.9139700  64.3937270
  13.5642430  60.0224470  65.6281860   5.6197480  56.7790450  51.4421840
   5.4186540  55.9157810  51.8035180   5.4489530  56.6923810  50.5043440
   6.3966710  67.4096720  66.1529510   5.8587800  68.1342780  65.8338210
   6.6500670  66.9327060  65.3626850   7.6491960  55.3781240  67.6785440
   8.2391650  55.0697090  68.3663260   6.8312200  54.9060990  67.8345340
  12.4685390  54.9947050  67.9118460  11.7800910  54.3328590  67.8468450
  13.1891410  54.5485320  68.3566920  13.0985790  51.5898680  53.9708720
  13.3788080  50.7466580  54.3268140  12.3251520  51.8221790  54.4847470
   4.4180280  53.8791070  51.4299720   4.7206180  53.8858500  50.5218870
   5.1574870  53.5288930  51.9267380   9.2528920  68.6447930  66.4116160
   9.1787620  69.5483070  66.7188530   8.3507760  68.3259830  66.3838230
   7.6365210  52.8225690  52.4155920   7.2887210  52.1449680  51.8358370
   7.8377980  52.3615200  53.2299310   9.8014250  67.8106440  54.0342520
  10.6965040  68.1491410  54.0561280   9.8331880  67.0885850  53.4066800
   3.4410410  63.1833490  52.2629520   3.8785280  63.7263160  52.9187100
   3.9258140  62.3580440  52.2725860   5.2518130  64.3031530  57.3751750
   4.9513670  64.1796500  58.2755660   5.1455620  63.4440120  56.9667480
  16.7808600  66.3410110  66.7408720  16.1810590  66.4002670  65.9972640
  16.9102500  65.4015090  66.8705570  18.0210050  64.0827930  52.0778430
  17.1903010  64.1504580  52.5485660  18.1981880  64.9732050  51.7745290
  17.4766510  60.8275410  54.5812630  18.2385420  61.3972060  54.6872320
  17.4920880  60.2602610  55.3520940  18.4826480  61.6825510  59.4254560
  18.8535310  60.8992830  59.0190530  19.1228410  62.3714610  59.2471860
  15.4660240  63.0662090  64.8384880  14.6520080  63.4959250  65.1010670
  15.8734440  63.6780500  64.2253930  17.5285680  61.1209780  51.7385150
  17.8034520  62.0288660  51.6104370  17.3396420  61.0572310  52.6747140
  13.9261290  54.1454630  53.0338780  14.3446170  53.9585610  52.1935440
  13.6197350  53.2933680  53.3441710  17.4251020  59.0578770  56.7314580
  17.0494620  58.2906700  56.2995870  16.6954140  59.4401470  57.2189510
   2.0146780  59.7365910  63.3523630   2.3819820  59.6493310  64.2319650
   1.4457600  58.9732460  63.2530490  16.8150640  58.2050290  66.3654100
  16.5836730  57.9763040  65.4652050  17.0755190  59.1249840  66.3198990
  15.2538710  53.4306720  69.1433800  16.1308890  53.4390120  69.5267800
  15.2659550  52.6937560  68.5326150  16.7001980  57.2836260  60.0321820
  17.2239460  56.7898910  59.4011990  17.2861400  57.4186620  60.7769390
  16.8791700  57.3676130  63.5541370  15.9294410  57.3339670  63.6686360
  17.0604710  58.2776240  63.3191140   2.7336140  55.6177810  52.6640000
   3.4427840  55.1961030  52.1787280   2.0176080  55.6853040  52.0323350
   2.3810300  51.6717140  51.7042650   3.1038430  52.2126080  52.0223870
   2.6534820  51.3980560  50.8284190  16.1901950  56.5409610  55.9714230
  16.6861070  56.3080480  56.7563110  15.9918020  55.7021450  55.5551870
   2.0702490  50.9223330  61.6065270   2.7178680  50.3720710  61.1660430
   2.4904330  51.1766480  62.4281080  17.6189110  55.1770560  58.5051910
  17.5088390  55.0226600  59.4434180  18.3796700  54.6491500  58.2627320
  15.9654830  51.1164690  64.9634910  16.6027050  51.7298830  65.3294100
  16.1129720  51.1525350  64.0184140  18.5079380  53.0078480  51.7458050
  19.4328690  52.8759660  51.5376340  18.4855170  53.0871300  52.6994500
  18.5817870  53.7789140  54.3714760  17.7869370  53.7134260  54.9007670
  18.7861150  54.7139780  54.3600110  15.5236290  67.8180690  58.3653150
  16.1195360  67.4965260  57.6887570  15.7814440  67.3452510  59.1566420
   1.8234490  51.0779000  64.3490590   1.4749310  51.5342820  65.1148770
   1.4922190  50.1836130  64.4313020   3.4298860  64.2498600  68.5143780
   3.3868490  63.8791510  69.3958240   3.5609870  65.1876170  68.6545600
   7.1304890  65.8058190  64.1153500   6.8896250  66.0732750  63.2284020
   8.0707530  65.9763920  64.1704360   9.3359310  52.2690880  67.8710010
   9.2748200  52.8612710  68.6205420  10.2759690  52.1616840  67.7260270
  11.9733870  51.9260940  67.5102300  12.5874280  52.2440230  66.8483380
  12.5183430  51.4409530  68.1298160  18.3909050  67.8252570  64.9164140
  17.8967330  68.2221440  64.1991270  17.7822340  67.2001780  65.3101420
   2.4955130  50.6055200  67.6241360   3.0438120  50.4243250  66.8607470
   2.5610440  49.8149310  68.1597670   3.2686890  67.1960850  65.6341560
   2.6747210  67.0645550  66.3731600   3.2610730  66.3598990  65.1683660
  12.7141910  50.4893080  63.8371590  11.8401750  50.8228190  63.6344520
  12.6052660  50.0166260  64.6623460  13.6213890  52.6963950  65.2213310
  13.2927250  51.8815710  64.8415040  14.5696190  52.6533760  65.0979000
  16.0748500  68.4675990  62.1950880  15.6151470  69.2191800  61.8208900
  15.4460960  67.7482460  62.1365680   2.8999120  64.5619230  64.5849600
   2.1733180  63.9424520  64.5175550   2.9608270  64.9559840  63.7147680
   6.5044220  66.7764230  61.3699010   7.0209240  66.1651590  60.8447270
   7.1541600  67.2793010  61.8610020   9.2439720  67.6672720  62.1967990
   9.5317530  67.4127020  61.3201000   9.7562940  67.1150080  62.7873560
  10.4616730  51.4062920  62.7764500   9.6788520  51.8808420  63.0561260
  10.1679660  50.5017750  62.6677680  15.0137800  52.1086020  60.8213590
  15.4545890  52.0531120  59.9735190  14.7445390  53.0244030  60.8923770
  16.8776370  51.7401260  58.8322410  16.8164770  50.7962480  58.6853430
  17.6568400  51.8481350  59.3775870   1.8057140  51.7110400  55.2978220
   2.5636500  51.8239280  54.7242250   1.3434310  52.5479600  55.2521650
   8.3470950  53.8249670  58.2880530   7.5345460  53.4506560  57.9476410
   8.8512590  53.0694750  58.5901720  12.8495930  50.4892120  59.5263600
  13.4525300  51.0612330  60.0012120  12.1088920  51.0531560  59.3037500
  15.9930530  50.8913680  54.8003880  16.1881160  51.7897130  55.0671310
  15.2060400  50.6600760  55.2936830   2.7891820  66.5726850  55.2396500
   2.2639440  66.9534880  54.5358460   2.7136400  67.1977620  55.9606210
   4.1782290  52.2374450  53.8380190   4.7075050  51.4504250  53.7088140
   4.8110610  52.9165640  54.0715720   6.3720130  51.9749590  56.8925580
   5.7422870  51.2736900  57.0595710   5.8325270  52.7353720  56.6758740
   9.3112080  68.5888820  69.5636190  10.2379390  68.3533090  69.6072150
   9.2962510  69.4160820  69.0822220  17.5457140  68.1314390  56.5610440
  17.7209330  67.4452130  55.9171360  16.8478710  68.6561440  56.1687110
   6.4975690  51.2533570  69.3278070   6.2159960  51.7567170  68.5638890
   6.8795390  50.4555320  68.9620200   5.3884790  68.5209230  54.1145750
   6.1203610  68.2368510  53.5669640   5.6478460  68.2822510  55.0045130
   4.5499580  64.6373960  54.1192080   3.9208460  65.1059060  54.6677910
   4.6647410  63.7923180  54.5538270  13.0991150  50.6687150  69.9058540
  12.9856600  50.9881760  70.8010060  13.9160890  51.0699660  69.6095820
  15.8789640  67.8158680  69.3877230  16.6714960  67.3207910  69.1803190
  16.1722790  68.4948820  69.9952840  12.0049300  58.6879620  40.2693280
  11.9243350  57.7734230  39.9984990  11.5913720  59.1846690  39.5632990
  10.1367340  60.4658640  42.1502550   9.3609440  59.9859080  42.4401120
  10.7880270  59.7864290  41.9758710   4.1533170  60.7778450  43.0278310
   3.3218050  60.5227160  43.4274820   4.7614150  60.8489220  43.7636230
  14.1574770  64.8718830  40.9301680  13.6956300  64.1006070  41.2588850
  14.9700320  64.8984900  41.4354130   4.1334430  64.8118540  43.2236330
   4.4362470  63.9216280  43.0446550   4.8778020  65.3688760  42.9958580
   2.5625120  55.7380340  36.8120700   1.6741820  56.0796310  36.7100580
   2.8466310  55.5380660  35.9201530  10.3838080  67.1576840  40.5505670
   9.7649520  67.6134340  39.9800110  11.2389860  67.3128300  40.1495370
   9.5776330  63.1415830  42.1572710   9.5084610  62.2005770  41.9961840
  10.3396190  63.2317240  42.7295280   1.7683000  53.7470350  44.4829330
   1.5885840  52.8496100  44.7632090   1.3663080  54.2942220  45.1576280
  10.6081500  55.9486210  42.3841640  10.9846320  55.0758090  42.2715310
  10.5101010  56.2844910  41.4932080   4.7386510  54.3211840  37.8459080
   4.8453260  55.2215570  38.1527840   3.8278870  54.2729810  37.5553730
  14.3905620  53.4436650  39.3169980  15.2115240  52.9533220  39.3595460
  14.4239700  54.0334310  40.0701820   2.3869670  56.2430850  43.0911670
   3.0679780  56.5069220  43.7099070   2.0717720  55.4031720  43.4249680
   6.5794240  57.2898210  42.1784260   7.0872460  57.7879180  42.8189280
   7.1107480  56.5133410  42.0023620  18.6805170  55.4603400  45.8813610
  17.9757340  55.8485110  45.3628720  18.9463090  56.1553690  46.4834540
   4.8630340  51.9296770  46.4447680   4.8648780  52.4469160  45.6393580
   4.0334650  51.4526950  46.4217610  11.2501430  62.0416080  37.9437580
  10.6318700  62.5065530  37.3800300  11.7624680  62.7343560  38.3607090
   6.1133190  61.5691950  44.6221180   5.7802570  62.1960870  45.2642250
   6.2899870  62.0953830  43.8422850  14.6267100  55.3837030  42.0897520
  13.9222670  55.6721920  42.6700630  14.9879260  56.1937140  41.7297080
   4.5445670  53.6406730  44.4518130   4.8862480  54.4848780  44.1572000
   3.6061480  53.7890470  44.5683470   5.3252290  63.5372750  46.4370360
   5.9426290  64.2123830  46.1554810   4.4645410  63.9460730  46.3457860
  16.2429880  65.0012160  44.3525000  15.5593400  65.6711270  44.3441670
  16.7824170  65.1992810  43.5869860  17.6954020  54.8291820  42.4806730
  16.7478930  54.8630800  42.6122160  18.0204010  55.6430770  42.8656090
   8.2273560  51.1289000  40.7762720   8.5348540  50.5735890  40.0598220
   7.2974260  51.2633460  40.5935710  13.7788620  66.8456290  43.0670180
  13.7915780  66.4418580  42.1992440  13.2263840  67.6203580  42.9631610
  15.0734040  63.5672510  38.1560350  14.9630370  62.6246840  38.2809770
  15.0702290  63.9288150  39.0423110  13.1774060  61.7486130  44.3952790
  13.5942850  61.5346240  43.5606250  13.9013880  62.0058920  44.9661410
  10.6154320  59.1937830  37.5122840   9.6883600  59.1275210  37.7411310
  10.7679140  60.1317960  37.3978080  10.6023400  55.4654830  34.5090000
   9.6627070  55.6268790  34.5942460  10.9206660  56.1840510  33.9625990
  17.1236160  60.1473350  44.4869030  16.2954790  60.2166440  44.0119160
  17.7186640  60.7327660  44.0184860  14.6451610  60.7558130  38.0158090
  14.0264030  60.4177680  37.3684390  14.6276060  60.1117890  38.7237280
  14.0878170  56.9342670  45.4323900  13.6749350  57.7596380  45.6863890
  13.3554120  56.3487710  45.2400260   6.2210960  59.7202570  40.2942570
   5.8167960  59.0079820  39.7988470   6.3074080  59.3755810  41.1830610
   6.6892660  63.4070130  42.4581780   6.3920950  62.8015600  41.7789560
   7.6392480  63.4447440  42.3471140   4.9339580  56.4945780  44.0741610
   5.4854170  56.6041120  43.2994860   5.4483090  56.8683380  44.7896840
  14.7778270  66.9802000  46.1204880  14.3008830  67.7874190  45.9277490
  14.0940060  66.3280330  46.2731090   5.7811090  63.1451820  49.1089580
   4.8839620  63.3691790  49.3562980   5.8063960  63.2686760  48.1600980
  12.8216310  59.9944940  35.0230840  13.2609590  59.1567370  34.8768660
  13.5344730  60.6274340  35.1094980   4.6082310  60.0165140  47.6846950
   4.4690080  60.8887940  48.0534350   3.7263670  59.6737950  47.5394890
  10.9311690  64.9341010  38.9912080  11.3707600  65.6765340  38.5767470
  10.8698580  65.1767580  39.9151040   6.4062660  65.9586840  49.8932100
   6.3778090  66.3629790  49.0260530   6.2427630  65.0297200  49.7303700
  16.4033450  51.2487750  33.3371880  16.0906110  51.3414580  34.2370950
  17.1645920  51.8268780  33.2869310   2.9215590  58.6147550  37.7949220
   2.8013190  59.3409640  37.1830490   2.6116480  57.8450460  37.3177130
  18.3577480  66.7413940  51.1896270  18.8337200  67.2196830  51.8685350
  18.9784640  66.6731430  50.4641770   1.8048590  63.4862880  40.0124040
   1.3976670  63.6277470  39.1577640   2.6961600  63.2023040  39.8095250
  17.7610730  63.9326790  48.3496280  17.8873790  63.6938670  47.4313460
  17.8032110  63.1011330  48.8218360  11.6227470  67.6354790  46.9191090
  12.1372140  67.5462800  47.7213520  10.7796550  67.9814490  47.2119000
  13.5981870  67.9210130  36.3475090  13.4383010  67.6313070  37.2456920
  13.4328580  67.1450260  35.8120320   6.0770250  67.7008660  38.1246710
   5.9012730  66.7844200  37.9114510   5.2225990  68.0595950  38.3644510
  13.3008000  65.4297690  34.9073090  12.6073160  65.4274980  34.2475370
  14.0430860  65.0057010  34.4767260  12.8657930  67.0560400  38.9821580
  13.3214880  66.2749780  39.2960200  13.2050450  67.7667220  39.5262760
  17.6134740  55.9859250  49.3146020  16.9979010  56.4938920  48.7861480
  17.2931160  55.0857580  49.2571960   5.3879250  51.9582620  41.1772890
   4.9447400  52.7392160  40.8457410   5.9464240  52.2812510  41.8843830
   9.6749060  54.8251140  46.7808210   9.2128430  55.0334160  47.5928150
   9.2727170  54.0110490  46.4778880  14.6753570  56.0460090  47.9104870
  13.8247160  55.7465840  48.2313940  14.5155360  56.2902100  46.9988690
  11.7703280  57.5461840  50.0103660  12.0956690  56.7125590  49.6705890
  12.5583610  58.0690360  50.1581990   8.5038070  51.5793320  36.0578720
   7.8792250  51.5753190  36.7832030   8.4168190  50.7124280  35.6614690
   7.4255150  52.5029950  43.0362490   7.7227480  53.4092780  42.9554510
   7.9740710  52.0148730  42.4222060   5.1793470  57.0816190  38.9054140
   4.9534390  56.8653360  39.8100760   4.3986000  57.5144650  38.5600110
  12.4091230  57.0879560  37.5044790  11.8100120  57.8115360  37.3208410
  12.9570840  57.0256340  36.7221240   7.6192680  57.9801770  49.5714410
   7.5236280  57.0396500  49.4214810   8.4624660  58.2016840  49.1762480
  11.0156100  55.7243100  39.5348070  11.4085670  56.0415300  38.7216760
  11.3772950  54.8454980  39.6492590   2.7503220  54.3915440  47.7248190
   2.3566610  55.2390650  47.9320970   2.0621620  53.7541810  47.9156830
   9.3248270  54.4750410  50.7944930   8.6346590  54.2822610  51.4291020
  10.0680570  54.7585050  51.3269230  11.6011240  58.3148850  43.6298850
  10.8692360  58.8235660  43.9788950  11.2035580  57.4978830  43.3287630
   8.0388630  54.9903050  42.0351340   8.0424690  54.5493000  41.1855880
   8.9339750  55.3120380  42.1423160   3.8891010  54.8729540  40.9945550
   3.5491060  55.3504770  41.7512600   3.1268330  54.4194660  40.6346650
   8.1008780  55.9915130  35.0258100   8.2221600  55.9501610  35.9743920
   7.7157290  56.8539280  34.8704830  12.0637150  53.7682530  43.0421790
  12.0809890  54.2191180  43.8863640  11.8152730  52.8688170  43.2555230
   7.1130280  58.3016270  34.4241400   6.5447180  57.8534520  33.7977310
   7.8219280  58.6609050  33.8906550  15.4907900  51.1814710  48.8808170
  15.8153670  50.4504370  49.4066150  15.5264410  50.8628350  47.9789160
   2.1899460  62.2028290  48.3008130   1.8054250  61.5621960  48.8991090
   2.5011650  62.9064410  48.8702860   8.3396600  59.0504830  43.7816750
   8.7066730  58.5763400  44.5278090   8.1501660  59.9246400  44.1225090
   6.1295970  58.0913470  46.1000960   5.8253040  58.9705450  46.3251320
   7.0842430  58.1513260  46.1358400   4.6577760  62.2974460  36.6967810
   3.8840020  61.7572080  36.5366530   5.3872390  61.7781070  36.3585570
  15.4165740  61.2939820  42.4894200  16.1364860  61.7895110  42.0990310
  15.2147560  60.6157710  41.8448070  10.8775680  52.6877780  36.6323590
  10.0640290  52.1890950  36.5568900  10.6837630  53.5276030  36.2159940
  10.7984540  61.3648880  48.3763200  10.7321850  60.4444550  48.1220790
  10.1689680  61.4624320  49.0907840  13.5924070  57.0597430  34.9285750
  14.4803690  57.3714660  34.7537090  13.5629160  56.1869680  34.5366330
   4.7015160  61.9654840  40.3346620   5.2193830  61.1623100  40.2803510
   4.2499180  61.9033980  41.1763450   9.5884660  63.2321120  35.6073920
   9.9300360  63.9763350  35.1117240   8.7597370  63.5452240  35.9698750
   2.1859700  58.9316210  47.2472320   1.8274640  59.5970060  47.8345660
   1.8914260  58.0999760  47.6184940   5.3872820  59.3900450  50.1311870
   5.0872960  59.5357630  49.2339690   6.1584060  58.8305740  50.0385260
  10.7301270  64.1869450  48.1267000  10.7445810  63.2550410  47.9085910
  10.0226370  64.2729210  48.7656770  15.8638340  58.3709270  34.3965610
  15.7802060  58.8023490  33.5462050  16.5832530  58.8307620  34.8292430
  16.9412480  60.8276790  47.4735580  16.2160670  61.4205570  47.2764970
  17.4687940  60.8200330  46.6748950  16.8925590  65.2251530  37.1247740
  16.2501750  64.5707150  37.3991460  16.5056250  65.6306620  36.3488410
  12.4712070  62.5536960  40.9719430  12.8235890  61.9565090  40.3120800
  11.5874400  62.2281190  41.1427680   8.5575350  63.3134650  38.3789840
   9.2446480  63.8603860  38.7597430   7.7707770  63.8575380  38.4139450
   7.8602560  60.3180680  37.9915200   8.3165340  61.1285930  38.2175390
   7.5090770  60.0003820  38.8233690  10.1635170  65.8287020  45.2207500
  10.8077390  66.0346400  45.8980920  10.5264610  65.0675420  44.7678350
   3.7614340  50.6618330  38.4637720   3.6328970  50.6536230  39.4122640
   2.9376360  51.0001420  38.1128730  11.4367250  63.8319370  43.9384950
  12.0789480  63.1312530  44.0517120  11.9616600  64.6117810  43.7581840
  15.2822970  64.1167990  33.6624090  15.0560550  63.3998430  34.2548730
  14.8919170  63.8680430  32.8245840  13.2104870  64.6314270  47.1421010
  13.5461110  65.2180960  47.8198930  12.2905210  64.5006980  47.3718800
  14.8639220  62.0339930  35.3238250  14.5760920  62.4952620  36.1116130
  15.6591390  61.5737700  35.5922470   9.0393450  64.6805600  50.3109070
   8.7190320  63.9614840  50.8554760   8.3651810  65.3560670  50.3845130
   7.0807620  65.5266050  35.2542220   7.0717720  66.2595740  34.6386730
   6.1605980  65.2797630  35.3469180   2.6814260  60.7480940  35.9988980
   2.0742210  61.4879840  36.0084280   3.1563610  60.8380300  35.1727180
  12.2547050  54.9131760  45.6745870  12.6227870  54.0926970  46.0025440
  11.3945250  54.9733650  46.0901520  15.6209080  53.8688700  36.4833430
  14.9922240  53.9734370  35.7691660  15.1261000  54.0885480  37.2727310
  10.0667220  65.5894290  33.9167410  10.1679200  65.3858280  32.9869390
   9.1668960  65.3352570  34.1215190   7.5893110  56.1474650  37.8991310
   6.8809260  56.6160990  38.3404920   7.8737590  55.4896660  38.5336500
   9.2149040  57.5671350  45.8983840   9.7134290  58.0417170  46.5635690
   9.3571990  56.6434870  46.1053870  11.6208540  52.8725310  39.3387100
  11.4976320  52.8911440  38.3896610  12.5693100  52.9204250  39.4585500
   8.7085330  68.1080610  38.6115080   8.9626830  68.0702000  37.6894450
   7.7597810  67.9813940  38.6043330   5.7928130  54.4559730  35.2742020
   6.6418660  54.8929880  35.2082210   5.4259400  54.7679990  36.1014080
  16.4215900  53.7839310  46.7412230  15.9189500  54.5244710  47.0806040
  17.2372560  54.1723310  46.4249020  14.7137910  59.0272490  40.1873590
  13.7728050  59.0422720  40.3621280  15.0281980  58.2408450  40.6333890
   4.6919550  60.7092090  33.7477550   5.4582820  60.5973450  34.3102980
   4.7694240  60.0130060  33.0954320   3.3866310  58.1417160  34.4310440
   3.4669900  57.1944670  34.5427840   4.2786060  58.4724040  34.5371100
  16.7163490  66.1981340  41.8627850  16.8410910  67.0212510  42.3351660
  17.5829050  65.9872070  41.5152000   4.1881020  68.2912550  41.5344980
   4.9243500  67.7428010  41.8053550   4.5721940  69.1568560  41.3950970
   3.1939300  67.4758620  50.7230560   3.9952030  67.7970670  51.1365960
   2.6791120  67.1154200  51.4450470   7.2983330  67.4642860  33.3570550
   8.0911940  67.7531690  32.9052340   6.7787680  67.0335030  32.6783030
  12.0303930  63.5838490  50.6705970  11.4242090  63.6070090  49.9301720
  11.7258040  62.8521530  51.2073220  13.4604300  67.3118780  49.2815380
  14.4126050  67.2276800  49.2315620  13.3132520  67.9760490  49.9549170
  16.3513500  66.6912990  34.7807290  16.0655010  66.2778130  33.9661470
  16.1533050  67.6200700  34.6607810   7.8160730  62.6846270  33.2212900
   7.7111370  62.0698620  33.9474280   7.6484950  62.1612160  32.4375910
   7.9675050  61.3703070  49.2002130   7.2020720  61.9388070  49.1156800
   8.1491010  61.0779280  48.3070360  11.0563460  61.7466300  33.8254890
  10.5073560  62.1935600  34.4697630  11.6782720  61.2415550  34.3492560
  15.1098400  63.1008400  49.7577150  15.8507870  63.4384160  49.2544610
  14.3471080  63.2700460  49.2046920   2.9460190  58.1061670  50.5616680
   2.9865530  57.8075540  51.4701910   3.8005690  58.5069280  50.4024200
   6.7238580  60.7057220  35.7220190   7.1455000  60.5397090  36.5651580
   6.8489420  59.8957450  35.2275330   4.8866000  56.6853770  48.5291170
   4.3562460  56.1944720  47.9014510   5.5554070  57.1137970  47.9949100
   9.2366220  59.7294830  32.9697290   9.7571880  59.0143850  32.6038440
   9.8834620  60.3680700  33.2697800  13.7844060  61.1523230  48.2932360
  14.1985080  61.3068310  49.1422780  12.8495060  61.2778450  48.4558140
  14.2566230  58.4919390  50.2971510  14.8387000  57.7371710  50.2091990
  14.4328000  59.0226830  49.5202990   5.3738300  53.6516140  48.6088460
   5.2795170  53.0336890  47.8839330   4.7935690  54.3782430  48.3818370
   8.1399740  52.2089380  45.6415850   7.6917040  52.2313640  44.7961400
   7.5064940  51.8108400  46.2386150   8.5459290  61.1043710  46.2628290
   8.9647400  61.9476440  46.0904530   7.6267920  61.2415750  46.0335070
  10.8823190  58.8359890  47.6466130  11.0019400  58.2401030  48.3860970
  11.7417190  58.8729580  47.2267430  13.2211090  59.3897080  46.2228640
  12.6946310  59.9139700  45.6193780  13.5642430  60.0224470  46.8538370
   5.6197480  56.7790450  32.6678350   5.4186540  55.9157810  33.0291690
   5.4489530  56.6923810  31.7299950   6.3966710  67.4096720  47.3786020
   5.8587800  68.1342780  47.0594720   6.6500670  66.9327060  46.5883360
   7.6491960  55.3781240  48.9041950   8.2391650  55.0697090  49.5919770
   6.8312200  54.9060990  49.0601850  12.4685390  54.9947050  49.1374970
  11.7800910  54.3328590  49.0724960  13.1891410  54.5485320  49.5823430
  13.0985790  51.5898680  35.1965230  13.3788080  50.7466580  35.5524650
  12.3251520  51.8221790  35.7103980   4.4180280  53.8791070  32.6556230
   4.7206180  53.8858500  31.7475380   5.1574870  53.5288930  33.1523890
   9.2528920  68.6447930  47.6372670   9.1787620  69.5483070  47.9445040
   8.3507760  68.3259830  47.6094740   7.6365210  52.8225690  33.6412430
   7.2887210  52.1449680  33.0614880   7.8377980  52.3615200  34.4555820
   9.8014250  67.8106440  35.2599030  10.6965040  68.1491410  35.2817790
   9.8331880  67.0885850  34.6323310   3.4410410  63.1833490  33.4886030
   3.8785280  63.7263160  34.1443610   3.9258140  62.3580440  33.4982370
   5.2518130  64.3031530  38.6008260   4.9513670  64.1796500  39.5012170
   5.1455620  63.4440120  38.1923990  16.7808600  66.3410110  47.9665230
  16.1810590  66.4002670  47.2229150  16.9102500  65.4015090  48.0962080
  18.0210050  64.0827930  33.3034940  17.1903010  64.1504580  33.7742170
  18.1981880  64.9732050  33.0001800  17.4766510  60.8275410  35.8069140
  18.2385420  61.3972060  35.9128830  17.4920880  60.2602610  36.5777450
  18.4826480  61.6825510  40.6511070  18.8535310  60.8992830  40.2447040
  19.1228410  62.3714610  40.4728370  15.4660240  63.0662090  46.0641390
  14.6520080  63.4959250  46.3267180  15.8734440  63.6780500  45.4510440
  17.5285680  61.1209780  32.9641660  17.8034520  62.0288660  32.8360880
  17.3396420  61.0572310  33.9003650  13.9261290  54.1454630  34.2595290
  14.3446170  53.9585610  33.4191950  13.6197350  53.2933680  34.5698220
  17.4251020  59.0578770  37.9571090  17.0494620  58.2906700  37.5252380
  16.6954140  59.4401470  38.4446020   2.0146780  59.7365910  44.5780140
   2.3819820  59.6493310  45.4576160   1.4457600  58.9732460  44.4787000
  16.8150640  58.2050290  47.5910610  16.5836730  57.9763040  46.6908560
  17.0755190  59.1249840  47.5455500  15.2538710  53.4306720  50.3690310
  16.1308890  53.4390120  50.7524310  15.2659550  52.6937560  49.7582660
  16.7001980  57.2836260  41.2578330  17.2239460  56.7898910  40.6268500
  17.2861400  57.4186620  42.0025900  16.8791700  57.3676130  44.7797880
  15.9294410  57.3339670  44.8942870  17.0604710  58.2776240  44.5447650
   2.7336140  55.6177810  33.8896510   3.4427840  55.1961030  33.4043790
   2.0176080  55.6853040  33.2579860   2.3810300  51.6717140  32.9299160
   3.1038430  52.2126080  33.2480380   2.6534820  51.3980560  32.0540700
  16.1901950  56.5409610  37.1970740  16.6861070  56.3080480  37.9819620
  15.9918020  55.7021450  36.7808380   2.0702490  50.9223330  42.8321780
   2.7178680  50.3720710  42.3916940   2.4904330  51.1766480  43.6537590
  17.6189110  55.1770560  39.7308420  17.5088390  55.0226600  40.6690690
  18.3796700  54.6491500  39.4883830  15.9654830  51.1164690  46.1891420
  16.6027050  51.7298830  46.5550610  16.1129720  51.1525350  45.2440650
  18.5079380  53.0078480  32.9714560  19.4328690  52.8759660  32.7632850
  18.4855170  53.0871300  33.9251010  18.5817870  53.7789140  35.5971270
  17.7869370  53.7134260  36.1264180  18.7861150  54.7139780  35.5856620
  15.5236290  67.8180690  39.5909660  16.1195360  67.4965260  38.9144080
  15.7814440  67.3452510  40.3822930   1.8234490  51.0779000  45.5747100
   1.4749310  51.5342820  46.3405280   1.4922190  50.1836130  45.6569530
   3.4298860  64.2498600  49.7400290   3.3868490  63.8791510  50.6214750
   3.5609870  65.1876170  49.8802110   7.1304890  65.8058190  45.3410010
   6.8896250  66.0732750  44.4540530   8.0707530  65.9763920  45.3960870
   9.3359310  52.2690880  49.0966520   9.2748200  52.8612710  49.8461930
  10.2759690  52.1616840  48.9516780  11.9733870  51.9260940  48.7358810
  12.5874280  52.2440230  48.0739890  12.5183430  51.4409530  49.3554670
  18.3909050  67.8252570  46.1420650  17.8967330  68.2221440  45.4247780
  17.7822340  67.2001780  46.5357930   2.4955130  50.6055200  48.8497870
   3.0438120  50.4243250  48.0863980   2.5610440  49.8149310  49.3854180
   3.2686890  67.1960850  46.8598070   2.6747210  67.0645550  47.5988110
   3.2610730  66.3598990  46.3940170  12.7141910  50.4893080  45.0628100
  11.8401750  50.8228190  44.8601030  12.6052660  50.0166260  45.8879970
  13.6213890  52.6963950  46.4469820  13.2927250  51.8815710  46.0671550
  14.5696190  52.6533760  46.3235510  16.0748500  68.4675990  43.4207390
  15.6151470  69.2191800  43.0465410  15.4460960  67.7482460  43.3622190
   2.8999120  64.5619230  45.8106110   2.1733180  63.9424520  45.7432060
   2.9608270  64.9559840  44.9404190   6.5044220  66.7764230  42.5955520
   7.0209240  66.1651590  42.0703780   7.1541600  67.2793010  43.0866530
   9.2439720  67.6672720  43.4224500   9.5317530  67.4127020  42.5457510
   9.7562940  67.1150080  44.0130070  10.4616730  51.4062920  44.0021010
   9.6788520  51.8808420  44.2817770  10.1679660  50.5017750  43.8934190
  15.0137800  52.1086020  42.0470100  15.4545890  52.0531120  41.1991700
  14.7445390  53.0244030  42.1180280  16.8776370  51.7401260  40.0578920
  16.8164770  50.7962480  39.9109940  17.6568400  51.8481350  40.6032380
   1.8057140  51.7110400  36.5234730   2.5636500  51.8239280  35.9498760
   1.3434310  52.5479600  36.4778160   8.3470950  53.8249670  39.5137040
   7.5345460  53.4506560  39.1732920   8.8512590  53.0694750  39.8158230
  12.8495930  50.4892120  40.7520110  13.4525300  51.0612330  41.2268630
  12.1088920  51.0531560  40.5294010  15.9930530  50.8913680  36.0260390
  16.1881160  51.7897130  36.2927820  15.2060400  50.6600760  36.5193340
   2.7891820  66.5726850  36.4653010   2.2639440  66.9534880  35.7614970
   2.7136400  67.1977620  37.1862720   4.1782290  52.2374450  35.0636700
   4.7075050  51.4504250  34.9344650   4.8110610  52.9165640  35.2972230
   6.3720130  51.9749590  38.1182090   5.7422870  51.2736900  38.2852220
   5.8325270  52.7353720  37.9015250   9.3112080  68.5888820  50.7892700
  10.2379390  68.3533090  50.8328660   9.2962510  69.4160820  50.3078730
  17.5457140  68.1314390  37.7866950  17.7209330  67.4452130  37.1427870
  16.8478710  68.6561440  37.3943620   6.4975690  51.2533570  50.5534580
   6.2159960  51.7567170  49.7895400   6.8795390  50.4555320  50.1876710
   5.3884790  68.5209230  35.3402260   6.1203610  68.2368510  34.7926150
   5.6478460  68.2822510  36.2301640   4.5499580  64.6373960  35.3448590
   3.9208460  65.1059060  35.8934420   4.6647410  63.7923180  35.7794780
  13.0991150  50.6687150  51.1315050  12.9856600  50.9881760  52.0266570
  13.9160890  51.0699660  50.8352330  15.8789640  67.8158680  50.6133740
  16.6714960  67.3207910  50.4059700  16.1722790  68.4948820  51.2209350
  12.0049300  58.6879620  21.4949790  11.9243350  57.7734230  21.2241500
  11.5913720  59.1846690  20.7889500  10.1367340  60.4658640  23.3759060
   9.3609440  59.9859080  23.6657630  10.7880270  59.7864290  23.2015220
   4.1533170  60.7778450  24.2534820   3.3218050  60.5227160  24.6531330
   4.7614150  60.8489220  24.9892740  14.1574770  64.8718830  22.1558190
  13.6956300  64.1006070  22.4845360  14.9700320  64.8984900  22.6610640
   4.1334430  64.8118540  24.4492840   4.4362470  63.9216280  24.2703060
   4.8778020  65.3688760  24.2215090   2.5625120  55.7380340  18.0377210
   1.6741820  56.0796310  17.9357090   2.8466310  55.5380660  17.1458040
  10.3838080  67.1576840  21.7762180   9.7649520  67.6134340  21.2056620
  11.2389860  67.3128300  21.3751880   9.5776330  63.1415830  23.3829220
   9.5084610  62.2005770  23.2218350  10.3396190  63.2317240  23.9551790
   1.7683000  53.7470350  25.7085840   1.5885840  52.8496100  25.9888600
   1.3663080  54.2942220  26.3832790  10.6081500  55.9486210  23.6098150
  10.9846320  55.0758090  23.4971820  10.5101010  56.2844910  22.7188590
   4.7386510  54.3211840  19.0715590   4.8453260  55.2215570  19.3784350
   3.8278870  54.2729810  18.7810240  14.3905620  53.4436650  20.5426490
  15.2115240  52.9533220  20.5851970  14.4239700  54.0334310  21.2958330
   2.3869670  56.2430850  24.3168180   3.0679780  56.5069220  24.9355580
   2.0717720  55.4031720  24.6506190   6.5794240  57.2898210  23.4040770
   7.0872460  57.7879180  24.0445790   7.1107480  56.5133410  23.2280130
  18.6805170  55.4603400  27.1070120  17.9757340  55.8485110  26.5885230
  18.9463090  56.1553690  27.7091050   4.8630340  51.9296770  27.6704190
   4.8648780  52.4469160  26.8650090   4.0334650  51.4526950  27.6474120
  11.2501430  62.0416080  19.1694090  10.6318700  62.5065530  18.6056810
  11.7624680  62.7343560  19.5863600   6.1133190  61.5691950  25.8477690
   5.7802570  62.1960870  26.4898760   6.2899870  62.0953830  25.0679360
  14.6267100  55.3837030  23.3154030  13.9222670  55.6721920  23.8957140
  14.9879260  56.1937140  22.9553590   4.5445670  53.6406730  25.6774640
   4.8862480  54.4848780  25.3828510   3.6061480  53.7890470  25.7939980
   5.3252290  63.5372750  27.6626870   5.9426290  64.2123830  27.3811320
   4.4645410  63.9460730  27.5714370  16.2429880  65.0012160  25.5781510
  15.5593400  65.6711270  25.5698180  16.7824170  65.1992810  24.8126370
  17.6954020  54.8291820  23.7063240  16.7478930  54.8630800  23.8378670
  18.0204010  55.6430770  24.0912600   8.2273560  51.1289000  22.0019230
   8.5348540  50.5735890  21.2854730   7.2974260  51.2633460  21.8192220
  13.7788620  66.8456290  24.2926690  13.7915780  66.4418580  23.4248950
  13.2263840  67.6203580  24.1888120  15.0734040  63.5672510  19.3816860
  14.9630370  62.6246840  19.5066280  15.0702290  63.9288150  20.2679620
  13.1774060  61.7486130  25.6209300  13.5942850  61.5346240  24.7862760
  13.9013880  62.0058920  26.1917920  10.6154320  59.1937830  18.7379350
   9.6883600  59.1275210  18.9667820  10.7679140  60.1317960  18.6234590
  10.6023400  55.4654830  15.7346510   9.6627070  55.6268790  15.8198970
  10.9206660  56.1840510  15.1882500  17.1236160  60.1473350  25.7125540
  16.2954790  60.2166440  25.2375670  17.7186640  60.7327660  25.2441370
  14.6451610  60.7558130  19.2414600  14.0264030  60.4177680  18.5940900
  14.6276060  60.1117890  19.9493790  14.0878170  56.9342670  26.6580410
  13.6749350  57.7596380  26.9120400  13.3554120  56.3487710  26.4656770
   6.2210960  59.7202570  21.5199080   5.8167960  59.0079820  21.0244980
   6.3074080  59.3755810  22.4087120   6.6892660  63.4070130  23.6838290
   6.3920950  62.8015600  23.0046070   7.6392480  63.4447440  23.5727650
   4.9339580  56.4945780  25.2998120   5.4854170  56.6041120  24.5251370
   5.4483090  56.8683380  26.0153350  14.7778270  66.9802000  27.3461390
  14.3008830  67.7874190  27.1534000  14.0940060  66.3280330  27.4987600
   5.7811090  63.1451820  30.3346090   4.8839620  63.3691790  30.5819490
   5.8063960  63.2686760  29.3857490  12.8216310  59.9944940  16.2487350
  13.2609590  59.1567370  16.1025170  13.5344730  60.6274340  16.3351490
   4.6082310  60.0165140  28.9103460   4.4690080  60.8887940  29.2790860
   3.7263670  59.6737950  28.7651400  10.9311690  64.9341010  20.2168590
  11.3707600  65.6765340  19.8023980  10.8698580  65.1767580  21.1407550
   6.4062660  65.9586840  31.1188610   6.3778090  66.3629790  30.2517040
   6.2427630  65.0297200  30.9560210  16.4033450  51.2487750  14.5628390
  16.0906110  51.3414580  15.4627460  17.1645920  51.8268780  14.5125820
   2.9215590  58.6147550  19.0205730   2.8013190  59.3409640  18.4087000
   2.6116480  57.8450460  18.5433640  18.3577480  66.7413940  32.4152780
  18.8337200  67.2196830  33.0941860  18.9784640  66.6731430  31.6898280
   1.8048590  63.4862880  21.2380550   1.3976670  63.6277470  20.3834150
   2.6961600  63.2023040  21.0351760  17.7610730  63.9326790  29.5752790
  17.8873790  63.6938670  28.6569970  17.8032110  63.1011330  30.0474870
  11.6227470  67.6354790  28.1447600  12.1372140  67.5462800  28.9470030
  10.7796550  67.9814490  28.4375510  13.5981870  67.9210130  17.5731600
  13.4383010  67.6313070  18.4713430  13.4328580  67.1450260  17.0376830
   6.0770250  67.7008660  19.3503220   5.9012730  66.7844200  19.1371020
   5.2225990  68.0595950  19.5901020  13.3008000  65.4297690  16.1329600
  12.6073160  65.4274980  15.4731880  14.0430860  65.0057010  15.7023770
  12.8657930  67.0560400  20.2078090  13.3214880  66.2749780  20.5216710
  13.2050450  67.7667220  20.7519270  17.6134740  55.9859250  30.5402530
  16.9979010  56.4938920  30.0117990  17.2931160  55.0857580  30.4828470
   5.3879250  51.9582620  22.4029400   4.9447400  52.7392160  22.0713920
   5.9464240  52.2812510  23.1100340   9.6749060  54.8251140  28.0064720
   9.2128430  55.0334160  28.8184660   9.2727170  54.0110490  27.7035390
  14.6753570  56.0460090  29.1361380  13.8247160  55.7465840  29.4570450
  14.5155360  56.2902100  28.2245200  11.7703280  57.5461840  31.2360170
  12.0956690  56.7125590  30.8962400  12.5583610  58.0690360  31.3838500
   8.5038070  51.5793320  17.2835230   7.8792250  51.5753190  18.0088540
   8.4168190  50.7124280  16.8871200   7.4255150  52.5029950  24.2619000
   7.7227480  53.4092780  24.1811020   7.9740710  52.0148730  23.6478570
   5.1793470  57.0816190  20.1310650   4.9534390  56.8653360  21.0357270
   4.3986000  57.5144650  19.7856620  12.4091230  57.0879560  18.7301300
  11.8100120  57.8115360  18.5464920  12.9570840  57.0256340  17.9477750
   7.6192680  57.9801770  30.7970920   7.5236280  57.0396500  30.6471320
   8.4624660  58.2016840  30.4018990  11.0156100  55.7243100  20.7604580
  11.4085670  56.0415300  19.9473270  11.3772950  54.8454980  20.8749100
   2.7503220  54.3915440  28.9504700   2.3566610  55.2390650  29.1577480
   2.0621620  53.7541810  29.1413340   9.3248270  54.4750410  32.0201440
   8.6346590  54.2822610  32.6547530  10.0680570  54.7585050  32.5525740
  11.6011240  58.3148850  24.8555360  10.8692360  58.8235660  25.2045460
  11.2035580  57.4978830  24.5544140   8.0388630  54.9903050  23.2607850
   8.0424690  54.5493000  22.4112390   8.9339750  55.3120380  23.3679670
   3.8891010  54.8729540  22.2202060   3.5491060  55.3504770  22.9769110
   3.1268330  54.4194660  21.8603160   8.1008780  55.9915130  16.2514610
   8.2221600  55.9501610  17.2000430   7.7157290  56.8539280  16.0961340
  12.0637150  53.7682530  24.2678300  12.0809890  54.2191180  25.1120150
  11.8152730  52.8688170  24.4811740   7.1130280  58.3016270  15.6497910
   6.5447180  57.8534520  15.0233820   7.8219280  58.6609050  15.1163060
  15.4907900  51.1814710  30.1064680  15.8153670  50.4504370  30.6322660
  15.5264410  50.8628350  29.2045670   2.1899460  62.2028290  29.5264640
   1.8054250  61.5621960  30.1247600   2.5011650  62.9064410  30.0959370
   8.3396600  59.0504830  25.0073260   8.7066730  58.5763400  25.7534600
   8.1501660  59.9246400  25.3481600   6.1295970  58.0913470  27.3257470
   5.8253040  58.9705450  27.5507830   7.0842430  58.1513260  27.3614910
   4.6577760  62.2974460  17.9224320   3.8840020  61.7572080  17.7623040
   5.3872390  61.7781070  17.5842080  15.4165740  61.2939820  23.7150710
  16.1364860  61.7895110  23.3246820  15.2147560  60.6157710  23.0704580
  10.8775680  52.6877780  17.8580100  10.0640290  52.1890950  17.7825410
  10.6837630  53.5276030  17.4416450  10.7984540  61.3648880  29.6019710
  10.7321850  60.4444550  29.3477300  10.1689680  61.4624320  30.3164350
  13.5924070  57.0597430  16.1542260  14.4803690  57.3714660  15.9793600
  13.5629160  56.1869680  15.7622840   4.7015160  61.9654840  21.5603130
   5.2193830  61.1623100  21.5060020   4.2499180  61.9033980  22.4019960
   9.5884660  63.2321120  16.8330430   9.9300360  63.9763350  16.3373750
   8.7597370  63.5452240  17.1955260   2.1859700  58.9316210  28.4728830
   1.8274640  59.5970060  29.0602170   1.8914260  58.0999760  28.8441450
   5.3872820  59.3900450  31.3568380   5.0872960  59.5357630  30.4596200
   6.1584060  58.8305740  31.2641770  10.7301270  64.1869450  29.3523510
  10.7445810  63.2550410  29.1342420  10.0226370  64.2729210  29.9913280
  15.8638340  58.3709270  15.6222120  15.7802060  58.8023490  14.7718560
  16.5832530  58.8307620  16.0548940  16.9412480  60.8276790  28.6992090
  16.2160670  61.4205570  28.5021480  17.4687940  60.8200330  27.9005460
  16.8925590  65.2251530  18.3504250  16.2501750  64.5707150  18.6247970
  16.5056250  65.6306620  17.5744920  12.4712070  62.5536960  22.1975940
  12.8235890  61.9565090  21.5377310  11.5874400  62.2281190  22.3684190
   8.5575350  63.3134650  19.6046350   9.2446480  63.8603860  19.9853940
   7.7707770  63.8575380  19.6395960   7.8602560  60.3180680  19.2171710
   8.3165340  61.1285930  19.4431900   7.5090770  60.0003820  20.0490200
  10.1635170  65.8287020  26.4464010  10.8077390  66.0346400  27.1237430
  10.5264610  65.0675420  25.9934860   3.7614340  50.6618330  19.6894230
   3.6328970  50.6536230  20.6379150   2.9376360  51.0001420  19.3385240
  11.4367250  63.8319370  25.1641460  12.0789480  63.1312530  25.2773630
  11.9616600  64.6117810  24.9838350  15.2822970  64.1167990  14.8880600
  15.0560550  63.3998430  15.4805240  14.8919170  63.8680430  14.0502350
  13.2104870  64.6314270  28.3677520  13.5461110  65.2180960  29.0455440
  12.2905210  64.5006980  28.5975310  14.8639220  62.0339930  16.5494760
  14.5760920  62.4952620  17.3372640  15.6591390  61.5737700  16.8178980
   9.0393450  64.6805600  31.5365580   8.7190320  63.9614840  32.0811270
   8.3651810  65.3560670  31.6101640   7.0807620  65.5266050  16.4798730
   7.0717720  66.2595740  15.8643240   6.1605980  65.2797630  16.5725690
   2.6814260  60.7480940  17.2245490   2.0742210  61.4879840  17.2340790
   3.1563610  60.8380300  16.3983690  12.2547050  54.9131760  26.9002380
  12.6227870  54.0926970  27.2281950  11.3945250  54.9733650  27.3158030
  15.6209080  53.8688700  17.7089940  14.9922240  53.9734370  16.9948170
  15.1261000  54.0885480  18.4983820  10.0667220  65.5894290  15.1423920
  10.1679200  65.3858280  14.2125900   9.1668960  65.3352570  15.3471700
   7.5893110  56.1474650  19.1247820   6.8809260  56.6160990  19.5661430
   7.8737590  55.4896660  19.7593010   9.2149040  57.5671350  27.1240350
   9.7134290  58.0417170  27.7892200   9.3571990  56.6434870  27.3310380
  11.6208540  52.8725310  20.5643610  11.4976320  52.8911440  19.6153120
  12.5693100  52.9204250  20.6842010   8.7085330  68.1080610  19.8371590
   8.9626830  68.0702000  18.9150960   7.7597810  67.9813940  19.8299840
   5.7928130  54.4559730  16.4998530   6.6418660  54.8929880  16.4338720
   5.4259400  54.7679990  17.3270590  16.4215900  53.7839310  27.9668740
  15.9189500  54.5244710  28.3062550  17.2372560  54.1723310  27.6505530
  14.7137910  59.0272490  21.4130100  13.7728050  59.0422720  21.5877790
  15.0281980  58.2408450  21.8590400   4.6919550  60.7092090  14.9734060
   5.4582820  60.5973450  15.5359490   4.7694240  60.0130060  14.3210830
   3.3866310  58.1417160  15.6566950   3.4669900  57.1944670  15.7684350
   4.2786060  58.4724040  15.7627610  16.7163490  66.1981340  23.0884360
  16.8410910  67.0212510  23.5608170  17.5829050  65.9872070  22.7408510
   4.1881020  68.2912550  22.7601490   4.9243500  67.7428010  23.0310060
   4.5721940  69.1568560  22.6207480   3.1939300  67.4758620  31.9487070
   3.9952030  67.7970670  32.3622470   2.6791120  67.1154200  32.6706980
   7.2983330  67.4642860  14.5827060   8.0911940  67.7531690  14.1308850
   6.7787680  67.0335030  13.9039540  12.0303930  63.5838490  31.8962480
  11.4242090  63.6070090  31.1558230  11.7258040  62.8521530  32.4329730
  13.4604300  67.3118780  30.5071890  14.4126050  67.2276800  30.4572130
  13.3132520  67.9760490  31.1805680  16.3513500  66.6912990  16.0063800
  16.0655010  66.2778130  15.1917980  16.1533050  67.6200700  15.8864320
   7.8160730  62.6846270  14.4469410   7.7111370  62.0698620  15.1730790
   7.6484950  62.1612160  13.6632420   7.9675050  61.3703070  30.4258640
   7.2020720  61.9388070  30.3413310   8.1491010  61.0779280  29.5326870
  11.0563460  61.7466300  15.0511400  10.5073560  62.1935600  15.6954140
  11.6782720  61.2415550  15.5749070  15.1098400  63.1008400  30.9833660
  15.8507870  63.4384160  30.4801120  14.3471080  63.2700460  30.4303430
   2.9460190  58.1061670  31.7873190   2.9865530  57.8075540  32.6958420
   3.8005690  58.5069280  31.6280710   6.7238580  60.7057220  16.9476700
   7.1455000  60.5397090  17.7908090   6.8489420  59.8957450  16.4531840
   4.8866000  56.6853770  29.7547680   4.3562460  56.1944720  29.1271020
   5.5554070  57.1137970  29.2205610   9.2366220  59.7294830  14.1953800
   9.7571880  59.0143850  13.8294950   9.8834620  60.3680700  14.4954310
  13.7844060  61.1523230  29.5188870  14.1985080  61.3068310  30.3679290
  12.8495060  61.2778450  29.6814650  14.2566230  58.4919390  31.5228020
  14.8387000  57.7371710  31.4348500  14.4328000  59.0226830  30.7459500
   5.3738300  53.6516140  29.8344970   5.2795170  53.0336890  29.1095840
   4.7935690  54.3782430  29.6074880   8.1399740  52.2089380  26.8672360
   7.6917040  52.2313640  26.0217910   7.5064940  51.8108400  27.4642660
   8.5459290  61.1043710  27.4884800   8.9647400  61.9476440  27.3161040
   7.6267920  61.2415750  27.2591580  10.8823190  58.8359890  28.8722640
  11.0019400  58.2401030  29.6117480  11.7417190  58.8729580  28.4523940
  13.2211090  59.3897080  27.4485150  12.6946310  59.9139700  26.8450290
  13.5642430  60.0224470  28.0794880   5.6197480  56.7790450  13.8934860
   5.4186540  55.9157810  14.2548200   5.4489530  56.6923810  12.9556460
   6.3966710  67.4096720  28.6042530   5.8587800  68.1342780  28.2851230
   6.6500670  66.9327060  27.8139870   7.6491960  55.3781240  30.1298460
   8.2391650  55.0697090  30.8176280   6.8312200  54.9060990  30.2858360
  12.4685390  54.9947050  30.3631480  11.7800910  54.3328590  30.2981470
  13.1891410  54.5485320  30.8079940  13.0985790  51.5898680  16.4221740
  13.3788080  50.7466580  16.7781160  12.3251520  51.8221790  16.9360490
   4.4180280  53.8791070  13.8812740   4.7206180  53.8858500  12.9731890
   5.1574870  53.5288930  14.3780400   9.2528920  68.6447930  28.8629180
   9.1787620  69.5483070  29.1701550   8.3507760  68.3259830  28.8351250
   7.6365210  52.8225690  14.8668940   7.2887210  52.1449680  14.2871390
   7.8377980  52.3615200  15.6812330   9.8014250  67.8106440  16.4855540
  10.6965040  68.1491410  16.5074300   9.8331880  67.0885850  15.8579820
   3.4410410  63.1833490  14.7142540   3.8785280  63.7263160  15.3700120
   3.9258140  62.3580440  14.7238880   5.2518130  64.3031530  19.8264770
   4.9513670  64.1796500  20.7268680   5.1455620  63.4440120  19.4180500
  16.7808600  66.3410110  29.1921740  16.1810590  66.4002670  28.4485660
  16.9102500  65.4015090  29.3218590  18.0210050  64.0827930  14.5291450
  17.1903010  64.1504580  14.9998680  18.1981880  64.9732050  14.2258310
  17.4766510  60.8275410  17.0325650  18.2385420  61.3972060  17.1385340
  17.4920880  60.2602610  17.8033960  18.4826480  61.6825510  21.8767580
  18.8535310  60.8992830  21.4703550  19.1228410  62.3714610  21.6984880
  15.4660240  63.0662090  27.2897900  14.6520080  63.4959250  27.5523690
  15.8734440  63.6780500  26.6766950  17.5285680  61.1209780  14.1898170
  17.8034520  62.0288660  14.0617390  17.3396420  61.0572310  15.1260160
  13.9261290  54.1454630  15.4851800  14.3446170  53.9585610  14.6448460
  13.6197350  53.2933680  15.7954730  17.4251020  59.0578770  19.1827600
  17.0494620  58.2906700  18.7508890  16.6954140  59.4401470  19.6702530
   2.0146780  59.7365910  25.8036650   2.3819820  59.6493310  26.6832670
   1.4457600  58.9732460  25.7043510  16.8150640  58.2050290  28.8167120
  16.5836730  57.9763040  27.9165070  17.0755190  59.1249840  28.7712010
  15.2538710  53.4306720  31.5946820  16.1308890  53.4390120  31.9780820
  15.2659550  52.6937560  30.9839170  16.7001980  57.2836260  22.4834840
  17.2239460  56.7898910  21.8525010  17.2861400  57.4186620  23.2282410
  16.8791700  57.3676130  26.0054390  15.9294410  57.3339670  26.1199380
  17.0604710  58.2776240  25.7704160   2.7336140  55.6177810  15.1153020
   3.4427840  55.1961030  14.6300300   2.0176080  55.6853040  14.4836370
   2.3810300  51.6717140  14.1555670   3.1038430  52.2126080  14.4736890
   2.6534820  51.3980560  13.2797210  16.1901950  56.5409610  18.4227250
  16.6861070  56.3080480  19.2076130  15.9918020  55.7021450  18.0064890
   2.0702490  50.9223330  24.0578290   2.7178680  50.3720710  23.6173450
   2.4904330  51.1766480  24.8794100  17.6189110  55.1770560  20.9564930
  17.5088390  55.0226600  21.8947200  18.3796700  54.6491500  20.7140340
  15.9654830  51.1164690  27.4147930  16.6027050  51.7298830  27.7807120
  16.1129720  51.1525350  26.4697160  18.5079380  53.0078480  14.1971070
  19.4328690  52.8759660  13.9889360  18.4855170  53.0871300  15.1507520
  18.5817870  53.7789140  16.8227780  17.7869370  53.7134260  17.3520690
  18.7861150  54.7139780  16.8113130  15.5236290  67.8180690  20.8166170
  16.1195360  67.4965260  20.1400590  15.7814440  67.3452510  21.6079440
   1.8234490  51.0779000  26.8003610   1.4749310  51.5342820  27.5661790
   1.4922190  50.1836130  26.8826040   3.4298860  64.2498600  30.9656800
   3.3868490  63.8791510  31.8471260   3.5609870  65.1876170  31.1058620
   7.1304890  65.8058190  26.5666520   6.8896250  66.0732750  25.6797040
   8.0707530  65.9763920  26.6217380   9.3359310  52.2690880  30.3223030
   9.2748200  52.8612710  31.0718440  10.2759690  52.1616840  30.1773290
  11.9733870  51.9260940  29.9615320  12.5874280  52.2440230  29.2996400
  12.5183430  51.4409530  30.5811180  18.3909050  67.8252570  27.3677160
  17.8967330  68.2221440  26.6504290  17.7822340  67.2001780  27.7614440
   2.4955130  50.6055200  30.0754380   3.0438120  50.4243250  29.3120490
   2.5610440  49.8149310  30.6110690   3.2686890  67.1960850  28.0854580
   2.6747210  67.0645550  28.8244620   3.2610730  66.3598990  27.6196680
  12.7141910  50.4893080  26.2884610  11.8401750  50.8228190  26.0857540
  12.6052660  50.0166260  27.1136480  13.6213890  52.6963950  27.6726330
  13.2927250  51.8815710  27.2928060  14.5696190  52.6533760  27.5492020
  16.0748500  68.4675990  24.6463900  15.6151470  69.2191800  24.2721920
  15.4460960  67.7482460  24.5878700   2.8999120  64.5619230  27.0362620
   2.1733180  63.9424520  26.9688570   2.9608270  64.9559840  26.1660700
   6.5044220  66.7764230  23.8212030   7.0209240  66.1651590  23.2960290
   7.1541600  67.2793010  24.3123040   9.2439720  67.6672720  24.6481010
   9.5317530  67.4127020  23.7714020   9.7562940  67.1150080  25.2386580
  10.4616730  51.4062920  25.2277520   9.6788520  51.8808420  25.5074280
  10.1679660  50.5017750  25.1190700  15.0137800  52.1086020  23.2726610
  15.4545890  52.0531120  22.4248210  14.7445390  53.0244030  23.3436790
  16.8776370  51.7401260  21.2835430  16.8164770  50.7962480  21.1366450
  17.6568400  51.8481350  21.8288890   1.8057140  51.7110400  17.7491240
   2.5636500  51.8239280  17.1755270   1.3434310  52.5479600  17.7034670
   8.3470950  53.8249670  20.7393550   7.5345460  53.4506560  20.3989430
   8.8512590  53.0694750  21.0414740  12.8495930  50.4892120  21.9776620
  13.4525300  51.0612330  22.4525140  12.1088920  51.0531560  21.7550520
  15.9930530  50.8913680  17.2516900  16.1881160  51.7897130  17.5184330
  15.2060400  50.6600760  17.7449850   2.7891820  66.5726850  17.6909520
   2.2639440  66.9534880  16.9871480   2.7136400  67.1977620  18.4119230
   4.1782290  52.2374450  16.2893210   4.7075050  51.4504250  16.1601160
   4.8110610  52.9165640  16.5228740   6.3720130  51.9749590  19.3438600
   5.7422870  51.2736900  19.5108730   5.8325270  52.7353720  19.1271760
   9.3112080  68.5888820  32.0149210  10.2379390  68.3533090  32.0585170
   9.2962510  69.4160820  31.5335240  17.5457140  68.1314390  19.0123460
  17.7209330  67.4452130  18.3684380  16.8478710  68.6561440  18.6200130
   6.4975690  51.2533570  31.7791090   6.2159960  51.7567170  31.0151910
   6.8795390  50.4555320  31.4133220   5.3884790  68.5209230  16.5658770
   6.1203610  68.2368510  16.0182660   5.6478460  68.2822510  17.4558150
   4.5499580  64.6373960  16.5705100   3.9208460  65.1059060  17.1190930
   4.6647410  63.7923180  17.0051290  13.0991150  50.6687150  32.3571560
  12.9856600  50.9881760  33.2523080  13.9160890  51.0699660  32.0608840
  15.8789640  67.8158680  31.8390250  16.6714960  67.3207910  31.6316210
  16.1722790  68.4948820  32.4465860  12.0049300  58.6879620   2.7206300
  11.9243350  57.7734230   2.4498010  11.5913720  59.1846690   2.0146010
  10.1367340  60.4658640   4.6015570   9.3609440  59.9859080   4.8914140
  10.7880270  59.7864290   4.4271730   4.1533170  60.7778450   5.4791330
   3.3218050  60.5227160   5.8787840   4.7614150  60.8489220   6.2149250
  14.1574770  64.8718830   3.3814700  13.6956300  64.1006070   3.7101870
  14.9700320  64.8984900   3.8867150   4.1334430  64.8118540   5.6749350
   4.4362470  63.9216280   5.4959570   4.8778020  65.3688760   5.4471600
  10.3838080  67.1576840   3.0018690   9.7649520  67.6134340   2.4313130
  11.2389860  67.3128300   2.6008390   9.5776330  63.1415830   4.6085730
   9.5084610  62.2005770   4.4474860  10.3396190  63.2317240   5.1808300
   1.7683000  53.7470350   6.9342350   1.5885840  52.8496100   7.2145110
   1.3663080  54.2942220   7.6089300  10.6081500  55.9486210   4.8354660
  10.9846320  55.0758090   4.7228330  10.5101010  56.2844910   3.9445100
  14.3905620  53.4436650   1.7683000  15.2115240  52.9533220   1.8108480
  14.4239700  54.0334310   2.5214840   2.3869670  56.2430850   5.5424690
   3.0679780  56.5069220   6.1612090   2.0717720  55.4031720   5.8762700
   6.5794240  57.2898210   4.6297280   7.0872460  57.7879180   5.2702300
   7.1107480  56.5133410   4.4536640  18.6805170  55.4603400   8.3326630
  17.9757340  55.8485110   7.8141740  18.9463090  56.1553690   8.9347560
   4.8630340  51.9296770   8.8960700   4.8648780  52.4469160   8.0906600
   4.0334650  51.4526950   8.8730630   6.1133190  61.5691950   7.0734200
   5.7802570  62.1960870   7.7155270   6.2899870  62.0953830   6.2935870
  14.6267100  55.3837030   4.5410540  13.9222670  55.6721920   5.1213650
  14.9879260  56.1937140   4.1810100   4.5445670  53.6406730   6.9031150
   4.8862480  54.4848780   6.6085020   3.6061480  53.7890470   7.0196490
   5.3252290  63.5372750   8.8883380   5.9426290  64.2123830   8.6067830
   4.4645410  63.9460730   8.7970880  16.2429880  65.0012160   6.8038020
  15.5593400  65.6711270   6.7954690  16.7824170  65.1992810   6.0382880
  17.6954020  54.8291820   4.9319750  16.7478930  54.8630800   5.0635180
  18.0204010  55.6430770   5.3169110   8.2273560  51.1289000   3.2275740
   8.5348540  50.5735890   2.5111240   7.2974260  51.2633460   3.0448730
  13.7788620  66.8456290   5.5183200  13.7915780  66.4418580   4.6505460
  13.2263840  67.6203580   5.4144630  13.1774060  61.7486130   6.8465810
  13.5942850  61.5346240   6.0119270  13.9013880  62.0058920   7.4174430
  17.1236160  60.1473350   6.9382050  16.2954790  60.2166440   6.4632180
  17.7186640  60.7327660   6.4697880  14.0878170  56.9342670   7.8836920
  13.6749350  57.7596380   8.1376910  13.3554120  56.3487710   7.6913280
   6.2210960  59.7202570   2.7455590   5.8167960  59.0079820   2.2501490
   6.3074080  59.3755810   3.6343630   6.6892660  63.4070130   4.9094800
   6.3920950  62.8015600   4.2302580   7.6392480  63.4447440   4.7984160
   4.9339580  56.4945780   6.5254630   5.4854170  56.6041120   5.7507880
   5.4483090  56.8683380   7.2409860  14.7778270  66.9802000   8.5717900
  14.3008830  67.7874190   8.3790510  14.0940060  66.3280330   8.7244110
   5.7811090  63.1451820  11.5602600   4.8839620  63.3691790  11.8076000
   5.8063960  63.2686760  10.6114000   4.6082310  60.0165140  10.1359970
   4.4690080  60.8887940  10.5047370   3.7263670  59.6737950   9.9907910
   6.4062660  65.9586840  12.3445120   6.3778090  66.3629790  11.4773550
   6.2427630  65.0297200  12.1816720  18.3577480  66.7413940  13.6409290
  18.8337200  67.2196830  14.3198370  18.9784640  66.6731430  12.9154790
   1.8048590  63.4862880   2.4637060   1.3976670  63.6277470   1.6090660
   2.6961600  63.2023040   2.2608270  17.7610730  63.9326790  10.8009300
  17.8873790  63.6938670   9.8826480  17.8032110  63.1011330  11.2731380
  11.6227470  67.6354790   9.3704110  12.1372140  67.5462800  10.1726540
  10.7796550  67.9814490   9.6632020  17.6134740  55.9859250  11.7659040
  16.9979010  56.4938920  11.2374500  17.2931160  55.0857580  11.7084980
   5.3879250  51.9582620   3.6285910   4.9447400  52.7392160   3.2970430
   5.9464240  52.2812510   4.3356850   9.6749060  54.8251140   9.2321230
   9.2128430  55.0334160  10.0441170   9.2727170  54.0110490   8.9291900
  14.6753570  56.0460090  10.3617890  13.8247160  55.7465840  10.6826960
  14.5155360  56.2902100   9.4501710  11.7703280  57.5461840  12.4616680
  12.0956690  56.7125590  12.1218910  12.5583610  58.0690360  12.6095010
   7.4255150  52.5029950   5.4875510   7.7227480  53.4092780   5.4067530
   7.9740710  52.0148730   4.8735080   7.6192680  57.9801770  12.0227430
   7.5236280  57.0396500  11.8727830   8.4624660  58.2016840  11.6275500
   2.7503220  54.3915440  10.1761210   2.3566610  55.2390650  10.3833990
   2.0621620  53.7541810  10.3669850   9.3248270  54.4750410  13.2457950
   8.6346590  54.2822610  13.8804040  10.0680570  54.7585050  13.7782250
  11.6011240  58.3148850   6.0811870  10.8692360  58.8235660   6.4301970
  11.2035580  57.4978830   5.7800650   8.0388630  54.9903050   4.4864360
   8.0424690  54.5493000   3.6368900   8.9339750  55.3120380   4.5936180
   3.8891010  54.8729540   3.4458570   3.5491060  55.3504770   4.2025620
   3.1268330  54.4194660   3.0859670  12.0637150  53.7682530   5.4934810
  12.0809890  54.2191180   6.3376660  11.8152730  52.8688170   5.7068250
  15.4907900  51.1814710  11.3321190  15.8153670  50.4504370  11.8579170
  15.5264410  50.8628350  10.4302180   2.1899460  62.2028290  10.7521150
   1.8054250  61.5621960  11.3504110   2.5011650  62.9064410  11.3215880
   8.3396600  59.0504830   6.2329770   8.7066730  58.5763400   6.9791110
   8.1501660  59.9246400   6.5738110   6.1295970  58.0913470   8.5513980
   5.8253040  58.9705450   8.7764340   7.0842430  58.1513260   8.5871420
  15.4165740  61.2939820   4.9407220  16.1364860  61.7895110   4.5503330
  15.2147560  60.6157710   4.2961090  10.7984540  61.3648880  10.8276220
  10.7321850  60.4444550  10.5733810  10.1689680  61.4624320  11.5420860
   4.7015160  61.9654840   2.7859640   5.2193830  61.1623100   2.7316530
   4.2499180  61.9033980   3.6276470   2.1859700  58.9316210   9.6985340
   1.8274640  59.5970060  10.2858680   1.8914260  58.0999760  10.0697960
   5.3872820  59.3900450  12.5824890   5.0872960  59.5357630  11.6852710
   6.1584060  58.8305740  12.4898280  10.7301270  64.1869450  10.5780020
  10.7445810  63.2550410  10.3598930  10.0226370  64.2729210  11.2169790
  16.9412480  60.8276790   9.9248600  16.2160670  61.4205570   9.7277990
  17.4687940  60.8200330   9.1261970  12.4712070  62.5536960   3.4232450
  12.8235890  61.9565090   2.7633820  11.5874400  62.2281190   3.5940700
  10.1635170  65.8287020   7.6720520  10.8077390  66.0346400   8.3493940
  10.5264610  65.0675420   7.2191370  11.4367250  63.8319370   6.3897970
  12.0789480  63.1312530   6.5030140  11.9616600  64.6117810   6.2094860
  13.2104870  64.6314270   9.5934030  13.5461110  65.2180960  10.2711950
  12.2905210  64.5006980   9.8231820   9.0393450  64.6805600  12.7622090
   8.7190320  63.9614840  13.3067780   8.3651810  65.3560670  12.8358150
  12.2547050  54.9131760   8.1258890  12.6227870  54.0926970   8.4538460
  11.3945250  54.9733650   8.5414540   9.2149040  57.5671350   8.3496860
   9.7134290  58.0417170   9.0148710   9.3571990  56.6434870   8.5566890
  16.4215900  53.7839310   9.1925250  15.9189500  54.5244710   9.5319060
  17.2372560  54.1723310   8.8762040  14.7137910  59.0272490   2.6386610
  13.7728050  59.0422720   2.8134300  15.0281980  58.2408450   3.0846910
  16.7163490  66.1981340   4.3140870  16.8410910  67.0212510   4.7864680
  17.5829050  65.9872070   3.9665020   4.1881020  68.2912550   3.9858000
   4.9243500  67.7428010   4.2566570   4.5721940  69.1568560   3.8463990
   3.1939300  67.4758620  13.1743580   3.9952030  67.7970670  13.5878980
   2.6791120  67.1154200  13.8963490  12.0303930  63.5838490  13.1218990
  11.4242090  63.6070090  12.3814740  11.7258040  62.8521530  13.6586240
  13.4604300  67.3118780  11.7328400  14.4126050  67.2276800  11.6828640
  13.3132520  67.9760490  12.4062190   7.9675050  61.3703070  11.6515150
   7.2020720  61.9388070  11.5669820   8.1491010  61.0779280  10.7583380
  15.1098400  63.1008400  12.2090170  15.8507870  63.4384160  11.7057630
  14.3471080  63.2700460  11.6559940   2.9460190  58.1061670  13.0129700
   2.9865530  57.8075540  13.9214930   3.8005690  58.5069280  12.8537220
   4.8866000  56.6853770  10.9804190   4.3562460  56.1944720  10.3527530
   5.5554070  57.1137970  10.4462120  13.7844060  61.1523230  10.7445380
  14.1985080  61.3068310  11.5935800  12.8495060  61.2778450  10.9071160
  14.2566230  58.4919390  12.7484530  14.8387000  57.7371710  12.6605010
  14.4328000  59.0226830  11.9716010   5.3738300  53.6516140  11.0601480
   5.2795170  53.0336890  10.3352350   4.7935690  54.3782430  10.8331390
   8.1399740  52.2089380   8.0928870   7.6917040  52.2313640   7.2474420
   7.5064940  51.8108400   8.6899170   8.5459290  61.1043710   8.7141310
   8.9647400  61.9476440   8.5417550   7.6267920  61.2415750   8.4848090
  10.8823190  58.8359890  10.0979150  11.0019400  58.2401030  10.8373990
  11.7417190  58.8729580   9.6780450  13.2211090  59.3897080   8.6741660
  12.6946310  59.9139700   8.0706800  13.5642430  60.0224470   9.3051390
   6.3966710  67.4096720   9.8299040   5.8587800  68.1342780   9.5107740
   6.6500670  66.9327060   9.0396380   7.6491960  55.3781240  11.3554970
   8.2391650  55.0697090  12.0432790   6.8312200  54.9060990  11.5114870
  12.4685390  54.9947050  11.5887990  11.7800910  54.3328590  11.5237980
  13.1891410  54.5485320  12.0336450   9.2528920  68.6447930  10.0885690
   9.1787620  69.5483070  10.3958060   8.3507760  68.3259830  10.0607760
  16.7808600  66.3410110  10.4178250  16.1810590  66.4002670   9.6742170
  16.9102500  65.4015090  10.5475100  18.4826480  61.6825510   3.1024090
  18.8535310  60.8992830   2.6960060  19.1228410  62.3714610   2.9241390
  15.4660240  63.0662090   8.5154410  14.6520080  63.4959250   8.7780200
  15.8734440  63.6780500   7.9023460   2.0146780  59.7365910   7.0293160
   2.3819820  59.6493310   7.9089180   1.4457600  58.9732460   6.9300020
  16.8150640  58.2050290  10.0423630  16.5836730  57.9763040   9.1421580
  17.0755190  59.1249840   9.9968520  15.2538710  53.4306720  12.8203330
  16.1308890  53.4390120  13.2037330  15.2659550  52.6937560  12.2095680
  16.7001980  57.2836260   3.7091350  17.2239460  56.7898910   3.0781520
  17.2861400  57.4186620   4.4538920  16.8791700  57.3676130   7.2310900
  15.9294410  57.3339670   7.3455890  17.0604710  58.2776240   6.9960670
   2.0702490  50.9223330   5.2834800   2.7178680  50.3720710   4.8429960
   2.4904330  51.1766480   6.1050610  17.6189110  55.1770560   2.1821440
  17.5088390  55.0226600   3.1203710  18.3796700  54.6491500   1.9396850
  15.9654830  51.1164690   8.6404440  16.6027050  51.7298830   9.0063630
  16.1129720  51.1525350   7.6953670   1.8234490  51.0779000   8.0260120
   1.4749310  51.5342820   8.7918300   1.4922190  50.1836130   8.1082550
   3.4298860  64.2498600  12.1913310   3.3868490  63.8791510  13.0727770
   3.5609870  65.1876170  12.3315130   7.1304890  65.8058190   7.7923030
   6.8896250  66.0732750   6.9053550   8.0707530  65.9763920   7.8473890
   9.3359310  52.2690880  11.5479540   9.2748200  52.8612710  12.2974950
  10.2759690  52.1616840  11.4029800  11.9733870  51.9260940  11.1871830
  12.5874280  52.2440230  10.5252910  12.5183430  51.4409530  11.8067690
  18.3909050  67.8252570   8.5933670  17.8967330  68.2221440   7.8760800
  17.7822340  67.2001780   8.9870950   2.4955130  50.6055200  11.3010890
   3.0438120  50.4243250  10.5377000   2.5610440  49.8149310  11.8367200
   3.2686890  67.1960850   9.3111090   2.6747210  67.0645550  10.0501130
   3.2610730  66.3598990   8.8453190  12.7141910  50.4893080   7.5141120
  11.8401750  50.8228190   7.3114050  12.6052660  50.0166260   8.3392990
  13.6213890  52.6963950   8.8982840  13.2927250  51.8815710   8.5184570
  14.5696190  52.6533760   8.7748530  16.0748500  68.4675990   5.8720410
  15.6151470  69.2191800   5.4978430  15.4460960  67.7482460   5.8135210
   2.8999120  64.5619230   8.2619130   2.1733180  63.9424520   8.1945080
   2.9608270  64.9559840   7.3917210   6.5044220  66.7764230   5.0468540
   7.0209240  66.1651590   4.5216800   7.1541600  67.2793010   5.5379550
   9.2439720  67.6672720   5.8737520   9.5317530  67.4127020   4.9970530
   9.7562940  67.1150080   6.4643090  10.4616730  51.4062920   6.4534030
   9.6788520  51.8808420   6.7330790  10.1679660  50.5017750   6.3447210
  15.0137800  52.1086020   4.4983120  15.4545890  52.0531120   3.6504720
  14.7445390  53.0244030   4.5693300  16.8776370  51.7401260   2.5091940
  16.8164770  50.7962480   2.3622960  17.6568400  51.8481350   3.0545400
   8.3470950  53.8249670   1.9650060   7.5345460  53.4506560   1.6245940
   8.8512590  53.0694750   2.2671250  12.8495930  50.4892120   3.2033130
  13.4525300  51.0612330   3.6781650  12.1088920  51.0531560   2.9807030
   9.3112080  68.5888820  13.2405720  10.2379390  68.3533090  13.2841680
   9.2962510  69.4160820  12.7591750   6.4975690  51.2533570  13.0047600
   6.2159960  51.7567170  12.2408420   6.8795390  50.4555320  12.6389730
  13.0991150  50.6687150  13.5828070  12.9856600  50.9881760  14.4779590
  13.9160890  51.0699660  13.2865350  15.8789640  67.8158680  13.0646760
  16.6714960  67.3207910  12.8572720  16.1722790  68.4948820  13.6722370
  12.0049300  39.9136130  77.8180260  11.9243350  38.9990740  77.5471970
  11.5913720  40.4103200  77.1119970  10.1367340  41.6915150  79.6989530
   9.3609440  41.2115590  79.9888100  10.7880270  41.0120800  79.5245690
   4.1533170  42.0034960  80.5765290   3.3218050  41.7483670  80.9761800
   4.7614150  42.0745730  81.3123210  14.1574770  46.0975340  78.4788660
  13.6956300  45.3262580  78.8075830  14.9700320  46.1241410  78.9841110
   4.1334430  46.0375050  80.7723310   4.4362470  45.1472790  80.5933530
   4.8778020  46.5945270  80.5445560   2.5625120  36.9636850  74.3607680
   1.6741820  37.3052820  74.2587560   2.8466310  36.7637170  73.4688510
  10.3838080  48.3833350  78.0992650   9.7649520  48.8390850  77.5287090
  11.2389860  48.5384810  77.6982350   9.5776330  44.3672340  79.7059690
   9.5084610  43.4262280  79.5448820  10.3396190  44.4573750  80.2782260
  10.6081500  37.1742720  79.9328620  10.9846320  36.3014600  79.8202290
  10.5101010  37.5101420  79.0419060   4.7386510  35.5468350  75.3946060
   4.8453260  36.4472080  75.7014820   3.8278870  35.4986320  75.1040710
  14.3905620  34.6693160  76.8656960  15.2115240  34.1789730  76.9082440
  14.4239700  35.2590820  77.6188800   2.3869670  37.4687360  80.6398650
   3.0679780  37.7325730  81.2586050   2.0717720  36.6288230  80.9736660
   6.5794240  38.5154720  79.7271240   7.0872460  39.0135690  80.3676260
   7.1107480  37.7389920  79.5510600  11.2501430  43.2672590  75.4924560
  10.6318700  43.7322040  74.9287280  11.7624680  43.9600070  75.9094070
  14.6267100  36.6093540  79.6384500  13.9222670  36.8978430  80.2187610
  14.9879260  37.4193650  79.2784060   4.5445670  34.8663240  82.0005110
   4.8862480  35.7105290  81.7058980   3.6061480  35.0146980  82.1170450
  16.2429880  46.2268670  81.9011980  15.5593400  46.8967780  81.8928650
  16.7824170  46.4249320  81.1356840  17.6954020  36.0548330  80.0293710
  16.7478930  36.0887310  80.1609140  18.0204010  36.8687280  80.4143070
   8.2273560  32.3545510  78.3249700   8.5348540  31.7992400  77.6085200
   7.2974260  32.4889970  78.1422690  13.7788620  48.0712800  80.6157160
  13.7915780  47.6675090  79.7479420  13.2263840  48.8460090  80.5118590
  15.0734040  44.7929020  75.7047330  14.9630370  43.8503350  75.8296750
  15.0702290  45.1544660  76.5910090  10.6154320  40.4194340  75.0609820
   9.6883600  40.3531720  75.2898290  10.7679140  41.3574470  74.9465060
  10.6023400  36.6911340  72.0576980   9.6627070  36.8525300  72.1429440
  10.9206660  37.4097020  71.5112970  17.1236160  41.3729860  82.0356010
  16.2954790  41.4422950  81.5606140  17.7186640  41.9584170  81.5671840
  14.6451610  41.9814640  75.5645070  14.0264030  41.6434190  74.9171370
  14.6276060  41.3374400  76.2724260   6.2210960  40.9459080  77.8429550
   5.8167960  40.2336330  77.3475450   6.3074080  40.6012320  78.7317590
   6.6892660  44.6326640  80.0068760   6.3920950  44.0272110  79.3276540
   7.6392480  44.6703950  79.8958120  12.8216310  41.2201450  72.5717820
  13.2609590  40.3823880  72.4255640  13.5344730  41.8530850  72.6581960
  10.9311690  46.1597520  76.5399060  11.3707600  46.9021850  76.1254450
  10.8698580  46.4024090  77.4638020  16.4033450  32.4744260  70.8858860
  16.0906110  32.5671090  71.7857930  17.1645920  33.0525290  70.8356290
   2.9215590  39.8404060  75.3436200   2.8013190  40.5666150  74.7317470
   2.6116480  39.0706970  74.8664110   1.8048590  44.7119390  77.5611020
   1.3976670  44.8533980  76.7064620   2.6961600  44.4279550  77.3582230
  13.5981870  49.1466640  73.8962070  13.4383010  48.8569580  74.7943900
  13.4328580  48.3706770  73.3607300   6.0770250  48.9265170  75.6733690
   5.9012730  48.0100710  75.4601490   5.2225990  49.2852460  75.9131490
  13.3008000  46.6554200  72.4560070  12.6073160  46.6531490  71.7962350
  14.0430860  46.2313520  72.0254240  12.8657930  48.2816910  76.5308560
  13.3214880  47.5006290  76.8447180  13.2050450  48.9923730  77.0749740
   5.3879250  33.1839130  78.7259870   4.9447400  33.9648670  78.3944390
   5.9464240  33.5069020  79.4330810   8.5038070  32.8049830  73.6065700
   7.8792250  32.8009700  74.3319010   8.4168190  31.9380790  73.2101670
   7.4255150  33.7286460  80.5849470   7.7227480  34.6349290  80.5041490
   7.9740710  33.2405240  79.9709040   5.1793470  38.3072700  76.4541120
   4.9534390  38.0909870  77.3587740   4.3986000  38.7401160  76.1087090
  12.4091230  38.3136070  75.0531770  11.8100120  39.0371870  74.8695390
  12.9570840  38.2512850  74.2708220  11.0156100  36.9499610  77.0835050
  11.4085670  37.2671810  76.2703740  11.3772950  36.0711490  77.1979570
  11.6011240  39.5405360  81.1785830  10.8692360  40.0492170  81.5275930
  11.2035580  38.7235340  80.8774610   8.0388630  36.2159560  79.5838320
   8.0424690  35.7749510  78.7342860   8.9339750  36.5376890  79.6910140
   3.8891010  36.0986050  78.5432530   3.5491060  36.5761280  79.2999580
   3.1268330  35.6451170  78.1833630   8.1008780  37.2171640  72.5745080
   8.2221600  37.1758120  73.5230900   7.7157290  38.0795790  72.4191810
  12.0637150  34.9939040  80.5908770  12.0809890  35.4447690  81.4350620
  11.8152730  34.0944680  80.8042210   7.1130280  39.5272780  71.9728380
   6.5447180  39.0791030  71.3464290   7.8219280  39.8865560  71.4393530
   8.3396600  40.2761340  81.3303730   8.7066730  39.8019910  82.0765070
   8.1501660  41.1502910  81.6712070   4.6577760  43.5230970  74.2454790
   3.8840020  42.9828590  74.0853510   5.3872390  43.0037580  73.9072550
  15.4165740  42.5196330  80.0381180  16.1364860  43.0151620  79.6477290
  15.2147560  41.8414220  79.3935050  10.8775680  33.9134290  74.1810570
  10.0640290  33.4147460  74.1055880  10.6837630  34.7532540  73.7646920
  13.5924070  38.2853940  72.4772730  14.4803690  38.5971170  72.3024070
  13.5629160  37.4126190  72.0853310   4.7015160  43.1911350  77.8833600
   5.2193830  42.3879610  77.8290490   4.2499180  43.1290490  78.7250430
   9.5884660  44.4577630  73.1560900   9.9300360  45.2019860  72.6604220
   8.7597370  44.7708750  73.5185730  15.8638340  39.5965780  71.9452590
  15.7802060  40.0280000  71.0949030  16.5832530  40.0564130  72.3779410
  16.8925590  46.4508040  74.6734720  16.2501750  45.7963660  74.9478440
  16.5056250  46.8563130  73.8975390  12.4712070  43.7793470  78.5206410
  12.8235890  43.1821600  77.8607780  11.5874400  43.4537700  78.6914660
   8.5575350  44.5391160  75.9276820   9.2446480  45.0860370  76.3084410
   7.7707770  45.0831890  75.9626430   7.8602560  41.5437190  75.5402180
   8.3165340  42.3542440  75.7662370   7.5090770  41.2260330  76.3720670
   3.7614340  31.8874840  76.0124700   3.6328970  31.8792740  76.9609620
   2.9376360  32.2257930  75.6615710  11.4367250  45.0575880  81.4871930
  12.0789480  44.3569040  81.6004100  11.9616600  45.8374320  81.3068820
  15.2822970  45.3424500  71.2111070  15.0560550  44.6254940  71.8035710
  14.8919170  45.0936940  70.3732820  14.8639220  43.2596440  72.8725230
  14.5760920  43.7209130  73.6603110  15.6591390  42.7994210  73.1409450
   7.0807620  46.7522560  72.8029200   7.0717720  47.4852250  72.1873710
   6.1605980  46.5054140  72.8956160   2.6814260  41.9737450  73.5475960
   2.0742210  42.7136350  73.5571260   3.1563610  42.0636810  72.7214160
  15.6209080  35.0945210  74.0320410  14.9922240  35.1990880  73.3178640
  15.1261000  35.3141990  74.8214290  10.0667220  46.8150800  71.4654390
  10.1679200  46.6114790  70.5356370   9.1668960  46.5609080  71.6702170
   7.5893110  37.3731160  75.4478290   6.8809260  37.8417500  75.8891900
   7.8737590  36.7153170  76.0823480  11.6208540  34.0981820  76.8874080
  11.4976320  34.1167950  75.9383590  12.5693100  34.1460760  77.0072480
   8.7085330  49.3337120  76.1602060   8.9626830  49.2958510  75.2381430
   7.7597810  49.2070450  76.1530310   5.7928130  35.6816240  72.8229000
   6.6418660  36.1186390  72.7569190   5.4259400  35.9936500  73.6501060
  14.7137910  40.2529000  77.7360570  13.7728050  40.2679230  77.9108260
  15.0281980  39.4664960  78.1820870   4.6919550  41.9348600  71.2964530
   5.4582820  41.8229960  71.8589960   4.7694240  41.2386570  70.6441300
   3.3866310  39.3673670  71.9797420   3.4669900  38.4201180  72.0914820
   4.2786060  39.6980550  72.0858080  16.7163490  47.4237850  79.4114830
  16.8410910  48.2469020  79.8838640  17.5829050  47.2128580  79.0638980
   4.1881020  49.5169060  79.0831960   4.9243500  48.9684520  79.3540530
   4.5721940  50.3825070  78.9437950   7.2983330  48.6899370  70.9057530
   8.0911940  48.9788200  70.4539320   6.7787680  48.2591540  70.2270010
  16.3513500  47.9169500  72.3294270  16.0655010  47.5034640  71.5148450
  16.1533050  48.8457210  72.2094790   7.8160730  43.9102780  70.7699880
   7.7111370  43.2955130  71.4961260   7.6484950  43.3868670  69.9862890
  11.0563460  42.9722810  71.3741870  10.5073560  43.4192110  72.0184610
  11.6782720  42.4672060  71.8979540   6.7238580  41.9313730  73.2707170
   7.1455000  41.7653600  74.1138560   6.8489420  41.1213960  72.7762310
   9.2366220  40.9551340  70.5184270   9.7571880  40.2400360  70.1525420
   9.8834620  41.5937210  70.8184780   5.6197480  38.0046960  70.2165330
   5.4186540  37.1414320  70.5778670   5.4489530  37.9180320  69.2786930
  13.0985790  32.8155190  72.7452210  13.3788080  31.9723090  73.1011630
  12.3251520  33.0478300  73.2590960   4.4180280  35.1047580  70.2043210
   4.7206180  35.1115010  69.2962360   5.1574870  34.7545440  70.7010870
   7.6365210  34.0482200  71.1899410   7.2887210  33.3706190  70.6101860
   7.8377980  33.5871710  72.0042800   9.8014250  49.0362950  72.8086010
  10.6965040  49.3747920  72.8304770   9.8331880  48.3142360  72.1810290
   3.4410410  44.4090000  71.0373010   3.8785280  44.9519670  71.6930590
   3.9258140  43.5836950  71.0469350   5.2518130  45.5288040  76.1495240
   4.9513670  45.4053010  77.0499150   5.1455620  44.6696630  75.7410970
  18.0210050  45.3084440  70.8521920  17.1903010  45.3761090  71.3229150
  18.1981880  46.1988560  70.5488780  17.4766510  42.0531920  73.3556120
  18.2385420  42.6228570  73.4615810  17.4920880  41.4859120  74.1264430
  18.4826480  42.9082020  78.1998050  18.8535310  42.1249340  77.7934020
  19.1228410  43.5971120  78.0215350  17.5285680  42.3466290  70.5128640
  17.8034520  43.2545170  70.3847860  17.3396420  42.2828820  71.4490630
  13.9261290  35.3711140  71.8082270  14.3446170  35.1842120  70.9678930
  13.6197350  34.5190190  72.1185200  17.4251020  40.2835280  75.5058070
  17.0494620  39.5163210  75.0739360  16.6954140  40.6657980  75.9933000
  16.7001980  38.5092770  78.8065310  17.2239460  38.0155420  78.1755480
  17.2861400  38.6443130  79.5512880   2.7336140  36.8434320  71.4383490
   3.4427840  36.4217540  70.9530770   2.0176080  36.9109550  70.8066840
   2.3810300  32.8973650  70.4786140   3.1038430  33.4382590  70.7967360
   2.6534820  32.6237070  69.6027680  16.1901950  37.7666120  74.7457720
  16.6861070  37.5336990  75.5306600  15.9918020  36.9277960  74.3295360
   2.0702490  32.1479840  80.3808760   2.7178680  31.5977220  79.9403920
   2.4904330  32.4022990  81.2024570  17.6189110  36.4027070  77.2795400
  17.5088390  36.2483110  78.2177670  18.3796700  35.8748010  77.0370810
  18.5079380  34.2334990  70.5201540  19.4328690  34.1016170  70.3119830
  18.4855170  34.3127810  71.4737990  18.5817870  35.0045650  73.1458250
  17.7869370  34.9390770  73.6751160  18.7861150  35.9396290  73.1343600
  15.5236290  49.0437200  77.1396640  16.1195360  48.7221770  76.4631060
  15.7814440  48.5709020  77.9309910  16.0748500  49.6932500  80.9694370
  15.6151470  50.4448310  80.5952390  15.4460960  48.9738970  80.9109170
   6.5044220  48.0020740  80.1442500   7.0209240  47.3908100  79.6190760
   7.1541600  48.5049520  80.6353510   9.2439720  48.8929230  80.9711480
   9.5317530  48.6383530  80.0944490   9.7562940  48.3406590  81.5617050
  10.4616730  32.6319430  81.5507990   9.6788520  33.1064930  81.8304750
  10.1679660  31.7274260  81.4421170  15.0137800  33.3342530  79.5957080
  15.4545890  33.2787630  78.7478680  14.7445390  34.2500540  79.6667260
  16.8776370  32.9657770  77.6065900  16.8164770  32.0218990  77.4596920
  17.6568400  33.0737860  78.1519360   1.8057140  32.9366910  74.0721710
   2.5636500  33.0495790  73.4985740   1.3434310  33.7736110  74.0265140
   8.3470950  35.0506180  77.0624020   7.5345460  34.6763070  76.7219900
   8.8512590  34.2951260  77.3645210  12.8495930  31.7148630  78.3007090
  13.4525300  32.2868840  78.7755610  12.1088920  32.2788070  78.0780990
  15.9930530  32.1170190  73.5747370  16.1881160  33.0153640  73.8414800
  15.2060400  31.8857270  74.0680320   2.7891820  47.7983360  74.0139990
   2.2639440  48.1791390  73.3101950   2.7136400  48.4234130  74.7349700
   4.1782290  33.4630960  72.6123680   4.7075050  32.6760760  72.4831630
   4.8110610  34.1422150  72.8459210   6.3720130  33.2006100  75.6669070
   5.7422870  32.4993410  75.8339200   5.8325270  33.9610230  75.4502230
  17.5457140  49.3570900  75.3353930  17.7209330  48.6708640  74.6914850
  16.8478710  49.8817950  74.9430600   5.3884790  49.7465740  72.8889240
   6.1203610  49.4625020  72.3413130   5.6478460  49.5079020  73.7788620
   4.5499580  45.8630470  72.8935570   3.9208460  46.3315570  73.4421400
   4.6647410  45.0179690  73.3281760  12.0049300  39.9136130  59.0436770
  11.9243350  38.9990740  58.7728480  11.5913720  40.4103200  58.3376480
  10.1367340  41.6915150  60.9246040   9.3609440  41.2115590  61.2144610
  10.7880270  41.0120800  60.7502200   4.1533170  42.0034960  61.8021800
   3.3218050  41.7483670  62.2018310   4.7614150  42.0745730  62.5379720
  14.1574770  46.0975340  59.7045170  13.6956300  45.3262580  60.0332340
  14.9700320  46.1241410  60.2097620   4.1334430  46.0375050  61.9979820
   4.4362470  45.1472790  61.8190040   4.8778020  46.5945270  61.7702070
   2.5625120  36.9636850  55.5864190   1.6741820  37.3052820  55.4844070
   2.8466310  36.7637170  54.6945020  10.3838080  48.3833350  59.3249160
   9.7649520  48.8390850  58.7543600  11.2389860  48.5384810  58.9238860
   9.5776330  44.3672340  60.9316200   9.5084610  43.4262280  60.7705330
  10.3396190  44.4573750  61.5038770   1.7683000  34.9726860  63.2572820
   1.5885840  34.0752610  63.5375580   1.3663080  35.5198730  63.9319770
  10.6081500  37.1742720  61.1585130  10.9846320  36.3014600  61.0458800
  10.5101010  37.5101420  60.2675570   4.7386510  35.5468350  56.6202570
   4.8453260  36.4472080  56.9271330   3.8278870  35.4986320  56.3297220
  14.3905620  34.6693160  58.0913470  15.2115240  34.1789730  58.1338950
  14.4239700  35.2590820  58.8445310   2.3869670  37.4687360  61.8655160
   3.0679780  37.7325730  62.4842560   2.0717720  36.6288230  62.1993170
   6.5794240  38.5154720  60.9527750   7.0872460  39.0135690  61.5932770
   7.1107480  37.7389920  60.7767110  18.6805170  36.6859910  64.6557100
  17.9757340  37.0741620  64.1372210  18.9463090  37.3810200  65.2578030
   4.8630340  33.1553280  65.2191170   4.8648780  33.6725670  64.4137070
   4.0334650  32.6783460  65.1961100  11.2501430  43.2672590  56.7181070
  10.6318700  43.7322040  56.1543790  11.7624680  43.9600070  57.1350580
   6.1133190  42.7948460  63.3964670   5.7802570  43.4217380  64.0385740
   6.2899870  43.3210340  62.6166340  14.6267100  36.6093540  60.8641010
  13.9222670  36.8978430  61.4444120  14.9879260  37.4193650  60.5040570
   4.5445670  34.8663240  63.2261620   4.8862480  35.7105290  62.9315490
   3.6061480  35.0146980  63.3426960   5.3252290  44.7629260  65.2113850
   5.9426290  45.4380340  64.9298300   4.4645410  45.1717240  65.1201350
  16.2429880  46.2268670  63.1268490  15.5593400  46.8967780  63.1185160
  16.7824170  46.4249320  62.3613350  17.6954020  36.0548330  61.2550220
  16.7478930  36.0887310  61.3865650  18.0204010  36.8687280  61.6399580
   8.2273560  32.3545510  59.5506210   8.5348540  31.7992400  58.8341710
   7.2974260  32.4889970  59.3679200  13.7788620  48.0712800  61.8413670
  13.7915780  47.6675090  60.9735930  13.2263840  48.8460090  61.7375100
  15.0734040  44.7929020  56.9303840  14.9630370  43.8503350  57.0553260
  15.0702290  45.1544660  57.8166600  13.1774060  42.9742640  63.1696280
  13.5942850  42.7602750  62.3349740  13.9013880  43.2315430  63.7404900
  10.6154320  40.4194340  56.2866330   9.6883600  40.3531720  56.5154800
  10.7679140  41.3574470  56.1721570  10.6023400  36.6911340  53.2833490
   9.6627070  36.8525300  53.3685950  10.9206660  37.4097020  52.7369480
  17.1236160  41.3729860  63.2612520  16.2954790  41.4422950  62.7862650
  17.7186640  41.9584170  62.7928350  14.6451610  41.9814640  56.7901580
  14.0264030  41.6434190  56.1427880  14.6276060  41.3374400  57.4980770
  14.0878170  38.1599180  64.2067390  13.6749350  38.9852890  64.4607380
  13.3554120  37.5744220  64.0143750   6.2210960  40.9459080  59.0686060
   5.8167960  40.2336330  58.5731960   6.3074080  40.6012320  59.9574100
   6.6892660  44.6326640  61.2325270   6.3920950  44.0272110  60.5533050
   7.6392480  44.6703950  61.1214630   4.9339580  37.7202290  62.8485100
   5.4854170  37.8297630  62.0738350   5.4483090  38.0939890  63.5640330
  14.7778270  48.2058510  64.8948370  14.3008830  49.0130700  64.7020980
  14.0940060  47.5536840  65.0474580   5.7811090  44.3708330  67.8833070
   4.8839620  44.5948300  68.1306470   5.8063960  44.4943270  66.9344470
  12.8216310  41.2201450  53.7974330  13.2609590  40.3823880  53.6512150
  13.5344730  41.8530850  53.8838470   4.6082310  41.2421650  66.4590440
   4.4690080  42.1144450  66.8277840   3.7263670  40.8994460  66.3138380
  10.9311690  46.1597520  57.7655570  11.3707600  46.9021850  57.3510960
  10.8698580  46.4024090  58.6894530   6.4062660  47.1843350  68.6675590
   6.3778090  47.5886300  67.8004020   6.2427630  46.2553710  68.5047190
  16.4033450  32.4744260  52.1115370  16.0906110  32.5671090  53.0114440
  17.1645920  33.0525290  52.0612800   2.9215590  39.8404060  56.5692710
   2.8013190  40.5666150  55.9573980   2.6116480  39.0706970  56.0920620
  18.3577480  47.9670450  69.9639760  18.8337200  48.4453340  70.6428840
  18.9784640  47.8987940  69.2385260   1.8048590  44.7119390  58.7867530
   1.3976670  44.8533980  57.9321130   2.6961600  44.4279550  58.5838740
  17.7610730  45.1583300  67.1239770  17.8873790  44.9195180  66.2056950
  17.8032110  44.3267840  67.5961850  11.6227470  48.8611300  65.6934580
  12.1372140  48.7719310  66.4957010  10.7796550  49.2071000  65.9862490
  13.5981870  49.1466640  55.1218580  13.4383010  48.8569580  56.0200410
  13.4328580  48.3706770  54.5863810   6.0770250  48.9265170  56.8990200
   5.9012730  48.0100710  56.6858000   5.2225990  49.2852460  57.1388000
  13.3008000  46.6554200  53.6816580  12.6073160  46.6531490  53.0218860
  14.0430860  46.2313520  53.2510750  12.8657930  48.2816910  57.7565070
  13.3214880  47.5006290  58.0703690  13.2050450  48.9923730  58.3006250
  17.6134740  37.2115760  68.0889510  16.9979010  37.7195430  67.5604970
  17.2931160  36.3114090  68.0315450   5.3879250  33.1839130  59.9516380
   4.9447400  33.9648670  59.6200900   5.9464240  33.5069020  60.6587320
   9.6749060  36.0507650  65.5551700   9.2128430  36.2590670  66.3671640
   9.2727170  35.2367000  65.2522370  14.6753570  37.2716600  66.6848360
  13.8247160  36.9722350  67.0057430  14.5155360  37.5158610  65.7732180
  11.7703280  38.7718350  68.7847150  12.0956690  37.9382100  68.4449380
  12.5583610  39.2946870  68.9325480   8.5038070  32.8049830  54.8322210
   7.8792250  32.8009700  55.5575520   8.4168190  31.9380790  54.4358180
   7.4255150  33.7286460  61.8105980   7.7227480  34.6349290  61.7298000
   7.9740710  33.2405240  61.1965550   5.1793470  38.3072700  57.6797630
   4.9534390  38.0909870  58.5844250   4.3986000  38.7401160  57.3343600
  12.4091230  38.3136070  56.2788280  11.8100120  39.0371870  56.0951900
  12.9570840  38.2512850  55.4964730   7.6192680  39.2058280  68.3457900
   7.5236280  38.2653010  68.1958300   8.4624660  39.4273350  67.9505970
  11.0156100  36.9499610  58.3091560  11.4085670  37.2671810  57.4960250
  11.3772950  36.0711490  58.4236080   2.7503220  35.6171950  66.4991680
   2.3566610  36.4647160  66.7064460   2.0621620  34.9798320  66.6900320
   9.3248270  35.7006920  69.5688420   8.6346590  35.5079120  70.2034510
  10.0680570  35.9841560  70.1012720  11.6011240  39.5405360  62.4042340
  10.8692360  40.0492170  62.7532440  11.2035580  38.7235340  62.1031120
   8.0388630  36.2159560  60.8094830   8.0424690  35.7749510  59.9599370
   8.9339750  36.5376890  60.9166650   3.8891010  36.0986050  59.7689040
   3.5491060  36.5761280  60.5256090   3.1268330  35.6451170  59.4090140
   8.1008780  37.2171640  53.8001590   8.2221600  37.1758120  54.7487410
   7.7157290  38.0795790  53.6448320  12.0637150  34.9939040  61.8165280
  12.0809890  35.4447690  62.6607130  11.8152730  34.0944680  62.0298720
   7.1130280  39.5272780  53.1984890   6.5447180  39.0791030  52.5720800
   7.8219280  39.8865560  52.6650040  15.4907900  32.4071220  67.6551660
  15.8153670  31.6760880  68.1809640  15.5264410  32.0884860  66.7532650
   2.1899460  43.4284800  67.0751620   1.8054250  42.7878470  67.6734580
   2.5011650  44.1320920  67.6446350   8.3396600  40.2761340  62.5560240
   8.7066730  39.8019910  63.3021580   8.1501660  41.1502910  62.8968580
   6.1295970  39.3169980  64.8744450   5.8253040  40.1961960  65.0994810
   7.0842430  39.3769770  64.9101890   4.6577760  43.5230970  55.4711300
   3.8840020  42.9828590  55.3110020   5.3872390  43.0037580  55.1329060
  15.4165740  42.5196330  61.2637690  16.1364860  43.0151620  60.8733800
  15.2147560  41.8414220  60.6191560  10.8775680  33.9134290  55.4067080
  10.0640290  33.4147460  55.3312390  10.6837630  34.7532540  54.9903430
  10.7984540  42.5905390  67.1506690  10.7321850  41.6701060  66.8964280
  10.1689680  42.6880830  67.8651330  13.5924070  38.2853940  53.7029240
  14.4803690  38.5971170  53.5280580  13.5629160  37.4126190  53.3109820
   4.7015160  43.1911350  59.1090110   5.2193830  42.3879610  59.0547000
   4.2499180  43.1290490  59.9506940   9.5884660  44.4577630  54.3817410
   9.9300360  45.2019860  53.8860730   8.7597370  44.7708750  54.7442240
   2.1859700  40.1572720  66.0215810   1.8274640  40.8226570  66.6089150
   1.8914260  39.3256270  66.3928430   5.3872820  40.6156960  68.9055360
   5.0872960  40.7614140  68.0083180   6.1584060  40.0562250  68.8128750
  10.7301270  45.4125960  66.9010490  10.7445810  44.4806920  66.6829400
  10.0226370  45.4985720  67.5400260  15.8638340  39.5965780  53.1709100
  15.7802060  40.0280000  52.3205540  16.5832530  40.0564130  53.6035920
  16.9412480  42.0533300  66.2479070  16.2160670  42.6462080  66.0508460
  17.4687940  42.0456840  65.4492440  16.8925590  46.4508040  55.8991230
  16.2501750  45.7963660  56.1734950  16.5056250  46.8563130  55.1231900
  12.4712070  43.7793470  59.7462920  12.8235890  43.1821600  59.0864290
  11.5874400  43.4537700  59.9171170   8.5575350  44.5391160  57.1533330
   9.2446480  45.0860370  57.5340920   7.7707770  45.0831890  57.1882940
   7.8602560  41.5437190  56.7658690   8.3165340  42.3542440  56.9918880
   7.5090770  41.2260330  57.5977180  10.1635170  47.0543530  63.9950990
  10.8077390  47.2602910  64.6724410  10.5264610  46.2931930  63.5421840
   3.7614340  31.8874840  57.2381210   3.6328970  31.8792740  58.1866130
   2.9376360  32.2257930  56.8872220  11.4367250  45.0575880  62.7128440
  12.0789480  44.3569040  62.8260610  11.9616600  45.8374320  62.5325330
  15.2822970  45.3424500  52.4367580  15.0560550  44.6254940  53.0292220
  14.8919170  45.0936940  51.5989330  13.2104870  45.8570780  65.9164500
  13.5461110  46.4437470  66.5942420  12.2905210  45.7263490  66.1462290
  14.8639220  43.2596440  54.0981740  14.5760920  43.7209130  54.8859620
  15.6591390  42.7994210  54.3665960   9.0393450  45.9062110  69.0852560
   8.7190320  45.1871350  69.6298250   8.3651810  46.5817180  69.1588620
   7.0807620  46.7522560  54.0285710   7.0717720  47.4852250  53.4130220
   6.1605980  46.5054140  54.1212670   2.6814260  41.9737450  54.7732470
   2.0742210  42.7136350  54.7827770   3.1563610  42.0636810  53.9470670
  12.2547050  36.1388270  64.4489360  12.6227870  35.3183480  64.7768930
  11.3945250  36.1990160  64.8645010  15.6209080  35.0945210  55.2576920
  14.9922240  35.1990880  54.5435150  15.1261000  35.3141990  56.0470800
  10.0667220  46.8150800  52.6910900  10.1679200  46.6114790  51.7612880
   9.1668960  46.5609080  52.8958680   7.5893110  37.3731160  56.6734800
   6.8809260  37.8417500  57.1148410   7.8737590  36.7153170  57.3079990
   9.2149040  38.7927860  64.6727330   9.7134290  39.2673680  65.3379180
   9.3571990  37.8691380  64.8797360  11.6208540  34.0981820  58.1130590
  11.4976320  34.1167950  57.1640100  12.5693100  34.1460760  58.2328990
   8.7085330  49.3337120  57.3858570   8.9626830  49.2958510  56.4637940
   7.7597810  49.2070450  57.3786820   5.7928130  35.6816240  54.0485510
   6.6418660  36.1186390  53.9825700   5.4259400  35.9936500  54.8757570
  16.4215900  35.0095820  65.5155720  15.9189500  35.7501220  65.8549530
  17.2372560  35.3979820  65.1992510  14.7137910  40.2529000  58.9617080
  13.7728050  40.2679230  59.1364770  15.0281980  39.4664960  59.4077380
   4.6919550  41.9348600  52.5221040   5.4582820  41.8229960  53.0846470
   4.7694240  41.2386570  51.8697810   3.3866310  39.3673670  53.2053930
   3.4669900  38.4201180  53.3171330   4.2786060  39.6980550  53.3114590
  16.7163490  47.4237850  60.6371340  16.8410910  48.2469020  61.1095150
  17.5829050  47.2128580  60.2895490   4.1881020  49.5169060  60.3088470
   4.9243500  48.9684520  60.5797040   4.5721940  50.3825070  60.1694460
   3.1939300  48.7015130  69.4974050   3.9952030  49.0227180  69.9109450
   2.6791120  48.3410710  70.2193960   7.2983330  48.6899370  52.1314040
   8.0911940  48.9788200  51.6795830   6.7787680  48.2591540  51.4526520
  12.0303930  44.8095000  69.4449460  11.4242090  44.8326600  68.7045210
  11.7258040  44.0778040  69.9816710  13.4604300  48.5375290  68.0558870
  14.4126050  48.4533310  68.0059110  13.3132520  49.2017000  68.7292660
  16.3513500  47.9169500  53.5550780  16.0655010  47.5034640  52.7404960
  16.1533050  48.8457210  53.4351300   7.8160730  43.9102780  51.9956390
   7.7111370  43.2955130  52.7217770   7.6484950  43.3868670  51.2119400
   7.9675050  42.5959580  67.9745620   7.2020720  43.1644580  67.8900290
   8.1491010  42.3035790  67.0813850  11.0563460  42.9722810  52.5998380
  10.5073560  43.4192110  53.2441120  11.6782720  42.4672060  53.1236050
  15.1098400  44.3264910  68.5320640  15.8507870  44.6640670  68.0288100
  14.3471080  44.4956970  67.9790410   2.9460190  39.3318180  69.3360170
   2.9865530  39.0332050  70.2445400   3.8005690  39.7325790  69.1767690
   6.7238580  41.9313730  54.4963680   7.1455000  41.7653600  55.3395070
   6.8489420  41.1213960  54.0018820   4.8866000  37.9110280  67.3034660
   4.3562460  37.4201230  66.6758000   5.5554070  38.3394480  66.7692590
   9.2366220  40.9551340  51.7440780   9.7571880  40.2400360  51.3781930
   9.8834620  41.5937210  52.0441290  13.7844060  42.3779740  67.0675850
  14.1985080  42.5324820  67.9166270  12.8495060  42.5034960  67.2301630
  14.2566230  39.7175900  69.0715000  14.8387000  38.9628220  68.9835480
  14.4328000  40.2483340  68.2946480   5.3738300  34.8772650  67.3831950
   5.2795170  34.2593400  66.6582820   4.7935690  35.6038940  67.1561860
   8.1399740  33.4345890  64.4159340   7.6917040  33.4570150  63.5704890
   7.5064940  33.0364910  65.0129640   8.5459290  42.3300220  65.0371780
   8.9647400  43.1732950  64.8648020   7.6267920  42.4672260  64.8078560
  10.8823190  40.0616400  66.4209620  11.0019400  39.4657540  67.1604460
  11.7417190  40.0986090  66.0010920  13.2211090  40.6153590  64.9972130
  12.6946310  41.1396210  64.3937270  13.5642430  41.2480980  65.6281860
   5.6197480  38.0046960  51.4421840   5.4186540  37.1414320  51.8035180
   5.4489530  37.9180320  50.5043440   6.3966710  48.6353230  66.1529510
   5.8587800  49.3599290  65.8338210   6.6500670  48.1583570  65.3626850
   7.6491960  36.6037750  67.6785440   8.2391650  36.2953600  68.3663260
   6.8312200  36.1317500  67.8345340  12.4685390  36.2203560  67.9118460
  11.7800910  35.5585100  67.8468450  13.1891410  35.7741830  68.3566920
  13.0985790  32.8155190  53.9708720  13.3788080  31.9723090  54.3268140
  12.3251520  33.0478300  54.4847470   4.4180280  35.1047580  51.4299720
   4.7206180  35.1115010  50.5218870   5.1574870  34.7545440  51.9267380
   9.2528920  49.8704440  66.4116160   9.1787620  50.7739580  66.7188530
   8.3507760  49.5516340  66.3838230   7.6365210  34.0482200  52.4155920
   7.2887210  33.3706190  51.8358370   7.8377980  33.5871710  53.2299310
   9.8014250  49.0362950  54.0342520  10.6965040  49.3747920  54.0561280
   9.8331880  48.3142360  53.4066800   3.4410410  44.4090000  52.2629520
   3.8785280  44.9519670  52.9187100   3.9258140  43.5836950  52.2725860
   5.2518130  45.5288040  57.3751750   4.9513670  45.4053010  58.2755660
   5.1455620  44.6696630  56.9667480  16.7808600  47.5666620  66.7408720
  16.1810590  47.6259180  65.9972640  16.9102500  46.6271600  66.8705570
  18.0210050  45.3084440  52.0778430  17.1903010  45.3761090  52.5485660
  18.1981880  46.1988560  51.7745290  17.4766510  42.0531920  54.5812630
  18.2385420  42.6228570  54.6872320  17.4920880  41.4859120  55.3520940
  18.4826480  42.9082020  59.4254560  18.8535310  42.1249340  59.0190530
  19.1228410  43.5971120  59.2471860  15.4660240  44.2918600  64.8384880
  14.6520080  44.7215760  65.1010670  15.8734440  44.9037010  64.2253930
  17.5285680  42.3466290  51.7385150  17.8034520  43.2545170  51.6104370
  17.3396420  42.2828820  52.6747140  13.9261290  35.3711140  53.0338780
  14.3446170  35.1842120  52.1935440  13.6197350  34.5190190  53.3441710
  17.4251020  40.2835280  56.7314580  17.0494620  39.5163210  56.2995870
  16.6954140  40.6657980  57.2189510   2.0146780  40.9622420  63.3523630
   2.3819820  40.8749820  64.2319650   1.4457600  40.1988970  63.2530490
  16.8150640  39.4306800  66.3654100  16.5836730  39.2019550  65.4652050
  17.0755190  40.3506350  66.3198990  15.2538710  34.6563230  69.1433800
  16.1308890  34.6646630  69.5267800  15.2659550  33.9194070  68.5326150
  16.7001980  38.5092770  60.0321820  17.2239460  38.0155420  59.4011990
  17.2861400  38.6443130  60.7769390  16.8791700  38.5932640  63.5541370
  15.9294410  38.5596180  63.6686360  17.0604710  39.5032750  63.3191140
   2.7336140  36.8434320  52.6640000   3.4427840  36.4217540  52.1787280
   2.0176080  36.9109550  52.0323350   2.3810300  32.8973650  51.7042650
   3.1038430  33.4382590  52.0223870   2.6534820  32.6237070  50.8284190
  16.1901950  37.7666120  55.9714230  16.6861070  37.5336990  56.7563110
  15.9918020  36.9277960  55.5551870   2.0702490  32.1479840  61.6065270
   2.7178680  31.5977220  61.1660430   2.4904330  32.4022990  62.4281080
  17.6189110  36.4027070  58.5051910  17.5088390  36.2483110  59.4434180
  18.3796700  35.8748010  58.2627320  15.9654830  32.3421200  64.9634910
  16.6027050  32.9555340  65.3294100  16.1129720  32.3781860  64.0184140
  18.5079380  34.2334990  51.7458050  19.4328690  34.1016170  51.5376340
  18.4855170  34.3127810  52.6994500  18.5817870  35.0045650  54.3714760
  17.7869370  34.9390770  54.9007670  18.7861150  35.9396290  54.3600110
  15.5236290  49.0437200  58.3653150  16.1195360  48.7221770  57.6887570
  15.7814440  48.5709020  59.1566420   1.8234490  32.3035510  64.3490590
   1.4749310  32.7599330  65.1148770   1.4922190  31.4092640  64.4313020
   3.4298860  45.4755110  68.5143780   3.3868490  45.1048020  69.3958240
   3.5609870  46.4132680  68.6545600   7.1304890  47.0314700  64.1153500
   6.8896250  47.2989260  63.2284020   8.0707530  47.2020430  64.1704360
   9.3359310  33.4947390  67.8710010   9.2748200  34.0869220  68.6205420
  10.2759690  33.3873350  67.7260270  11.9733870  33.1517450  67.5102300
  12.5874280  33.4696740  66.8483380  12.5183430  32.6666040  68.1298160
  18.3909050  49.0509080  64.9164140  17.8967330  49.4477950  64.1991270
  17.7822340  48.4258290  65.3101420   2.4955130  31.8311710  67.6241360
   3.0438120  31.6499760  66.8607470   2.5610440  31.0405820  68.1597670
   3.2686890  48.4217360  65.6341560   2.6747210  48.2902060  66.3731600
   3.2610730  47.5855500  65.1683660  12.7141910  31.7149590  63.8371590
  11.8401750  32.0484700  63.6344520  12.6052660  31.2422770  64.6623460
  13.6213890  33.9220460  65.2213310  13.2927250  33.1072220  64.8415040
  14.5696190  33.8790270  65.0979000  16.0748500  49.6932500  62.1950880
  15.6151470  50.4448310  61.8208900  15.4460960  48.9738970  62.1365680
   2.8999120  45.7875740  64.5849600   2.1733180  45.1681030  64.5175550
   2.9608270  46.1816350  63.7147680   6.5044220  48.0020740  61.3699010
   7.0209240  47.3908100  60.8447270   7.1541600  48.5049520  61.8610020
   9.2439720  48.8929230  62.1967990   9.5317530  48.6383530  61.3201000
   9.7562940  48.3406590  62.7873560  10.4616730  32.6319430  62.7764500
   9.6788520  33.1064930  63.0561260  10.1679660  31.7274260  62.6677680
  15.0137800  33.3342530  60.8213590  15.4545890  33.2787630  59.9735190
  14.7445390  34.2500540  60.8923770  16.8776370  32.9657770  58.8322410
  16.8164770  32.0218990  58.6853430  17.6568400  33.0737860  59.3775870
   1.8057140  32.9366910  55.2978220   2.5636500  33.0495790  54.7242250
   1.3434310  33.7736110  55.2521650   8.3470950  35.0506180  58.2880530
   7.5345460  34.6763070  57.9476410   8.8512590  34.2951260  58.5901720
  12.8495930  31.7148630  59.5263600  13.4525300  32.2868840  60.0012120
  12.1088920  32.2788070  59.3037500  15.9930530  32.1170190  54.8003880
  16.1881160  33.0153640  55.0671310  15.2060400  31.8857270  55.2936830
   2.7891820  47.7983360  55.2396500   2.2639440  48.1791390  54.5358460
   2.7136400  48.4234130  55.9606210   4.1782290  33.4630960  53.8380190
   4.7075050  32.6760760  53.7088140   4.8110610  34.1422150  54.0715720
   6.3720130  33.2006100  56.8925580   5.7422870  32.4993410  57.0595710
   5.8325270  33.9610230  56.6758740   9.3112080  49.8145330  69.5636190
  10.2379390  49.5789600  69.6072150   9.2962510  50.6417330  69.0822220
  17.5457140  49.3570900  56.5610440  17.7209330  48.6708640  55.9171360
  16.8478710  49.8817950  56.1687110   6.4975690  32.4790080  69.3278070
   6.2159960  32.9823680  68.5638890   6.8795390  31.6811830  68.9620200
   5.3884790  49.7465740  54.1145750   6.1203610  49.4625020  53.5669640
   5.6478460  49.5079020  55.0045130   4.5499580  45.8630470  54.1192080
   3.9208460  46.3315570  54.6677910   4.6647410  45.0179690  54.5538270
  13.0991150  31.8943660  69.9058540  12.9856600  32.2138270  70.8010060
  13.9160890  32.2956170  69.6095820  15.8789640  49.0415190  69.3877230
  16.6714960  48.5464420  69.1803190  16.1722790  49.7205330  69.9952840
  12.0049300  39.9136130  40.2693280  11.9243350  38.9990740  39.9984990
  11.5913720  40.4103200  39.5632990  10.1367340  41.6915150  42.1502550
   9.3609440  41.2115590  42.4401120  10.7880270  41.0120800  41.9758710
   4.1533170  42.0034960  43.0278310   3.3218050  41.7483670  43.4274820
   4.7614150  42.0745730  43.7636230  14.1574770  46.0975340  40.9301680
  13.6956300  45.3262580  41.2588850  14.9700320  46.1241410  41.4354130
   4.1334430  46.0375050  43.2236330   4.4362470  45.1472790  43.0446550
   4.8778020  46.5945270  42.9958580   2.5625120  36.9636850  36.8120700
   1.6741820  37.3052820  36.7100580   2.8466310  36.7637170  35.9201530
  10.3838080  48.3833350  40.5505670   9.7649520  48.8390850  39.9800110
  11.2389860  48.5384810  40.1495370   9.5776330  44.3672340  42.1572710
   9.5084610  43.4262280  41.9961840  10.3396190  44.4573750  42.7295280
   1.7683000  34.9726860  44.4829330   1.5885840  34.0752610  44.7632090
   1.3663080  35.5198730  45.1576280  10.6081500  37.1742720  42.3841640
  10.9846320  36.3014600  42.2715310  10.5101010  37.5101420  41.4932080
   4.7386510  35.5468350  37.8459080   4.8453260  36.4472080  38.1527840
   3.8278870  35.4986320  37.5553730  14.3905620  34.6693160  39.3169980
  15.2115240  34.1789730  39.3595460  14.4239700  35.2590820  40.0701820
   2.3869670  37.4687360  43.0911670   3.0679780  37.7325730  43.7099070
   2.0717720  36.6288230  43.4249680   6.5794240  38.5154720  42.1784260
   7.0872460  39.0135690  42.8189280   7.1107480  37.7389920  42.0023620
  18.6805170  36.6859910  45.8813610  17.9757340  37.0741620  45.3628720
  18.9463090  37.3810200  46.4834540   4.8630340  33.1553280  46.4447680
   4.8648780  33.6725670  45.6393580   4.0334650  32.6783460  46.4217610
  11.2501430  43.2672590  37.9437580  10.6318700  43.7322040  37.3800300
  11.7624680  43.9600070  38.3607090   6.1133190  42.7948460  44.6221180
   5.7802570  43.4217380  45.2642250   6.2899870  43.3210340  43.8422850
  14.6267100  36.6093540  42.0897520  13.9222670  36.8978430  42.6700630
  14.9879260  37.4193650  41.7297080   4.5445670  34.8663240  44.4518130
   4.8862480  35.7105290  44.1572000   3.6061480  35.0146980  44.5683470
   5.3252290  44.7629260  46.4370360   5.9426290  45.4380340  46.1554810
   4.4645410  45.1717240  46.3457860  16.2429880  46.2268670  44.3525000
  15.5593400  46.8967780  44.3441670  16.7824170  46.4249320  43.5869860
  17.6954020  36.0548330  42.4806730  16.7478930  36.0887310  42.6122160
  18.0204010  36.8687280  42.8656090   8.2273560  32.3545510  40.7762720
   8.5348540  31.7992400  40.0598220   7.2974260  32.4889970  40.5935710
  13.7788620  48.0712800  43.0670180  13.7915780  47.6675090  42.1992440
  13.2263840  48.8460090  42.9631610  15.0734040  44.7929020  38.1560350
  14.9630370  43.8503350  38.2809770  15.0702290  45.1544660  39.0423110
  13.1774060  42.9742640  44.3952790  13.5942850  42.7602750  43.5606250
  13.9013880  43.2315430  44.9661410  10.6154320  40.4194340  37.5122840
   9.6883600  40.3531720  37.7411310  10.7679140  41.3574470  37.3978080
  10.6023400  36.6911340  34.5090000   9.6627070  36.8525300  34.5942460
  10.9206660  37.4097020  33.9625990  17.1236160  41.3729860  44.4869030
  16.2954790  41.4422950  44.0119160  17.7186640  41.9584170  44.0184860
  14.6451610  41.9814640  38.0158090  14.0264030  41.6434190  37.3684390
  14.6276060  41.3374400  38.7237280  14.0878170  38.1599180  45.4323900
  13.6749350  38.9852890  45.6863890  13.3554120  37.5744220  45.2400260
   6.2210960  40.9459080  40.2942570   5.8167960  40.2336330  39.7988470
   6.3074080  40.6012320  41.1830610   6.6892660  44.6326640  42.4581780
   6.3920950  44.0272110  41.7789560   7.6392480  44.6703950  42.3471140
   4.9339580  37.7202290  44.0741610   5.4854170  37.8297630  43.2994860
   5.4483090  38.0939890  44.7896840  14.7778270  48.2058510  46.1204880
  14.3008830  49.0130700  45.9277490  14.0940060  47.5536840  46.2731090
   5.7811090  44.3708330  49.1089580   4.8839620  44.5948300  49.3562980
   5.8063960  44.4943270  48.1600980  12.8216310  41.2201450  35.0230840
  13.2609590  40.3823880  34.8768660  13.5344730  41.8530850  35.1094980
   4.6082310  41.2421650  47.6846950   4.4690080  42.1144450  48.0534350
   3.7263670  40.8994460  47.5394890  10.9311690  46.1597520  38.9912080
  11.3707600  46.9021850  38.5767470  10.8698580  46.4024090  39.9151040
   6.4062660  47.1843350  49.8932100   6.3778090  47.5886300  49.0260530
   6.2427630  46.2553710  49.7303700  16.4033450  32.4744260  33.3371880
  16.0906110  32.5671090  34.2370950  17.1645920  33.0525290  33.2869310
   2.9215590  39.8404060  37.7949220   2.8013190  40.5666150  37.1830490
   2.6116480  39.0706970  37.3177130  18.3577480  47.9670450  51.1896270
  18.8337200  48.4453340  51.8685350  18.9784640  47.8987940  50.4641770
   1.8048590  44.7119390  40.0124040   1.3976670  44.8533980  39.1577640
   2.6961600  44.4279550  39.8095250  17.7610730  45.1583300  48.3496280
  17.8873790  44.9195180  47.4313460  17.8032110  44.3267840  48.8218360
  11.6227470  48.8611300  46.9191090  12.1372140  48.7719310  47.7213520
  10.7796550  49.2071000  47.2119000  13.5981870  49.1466640  36.3475090
  13.4383010  48.8569580  37.2456920  13.4328580  48.3706770  35.8120320
   6.0770250  48.9265170  38.1246710   5.9012730  48.0100710  37.9114510
   5.2225990  49.2852460  38.3644510  13.3008000  46.6554200  34.9073090
  12.6073160  46.6531490  34.2475370  14.0430860  46.2313520  34.4767260
  12.8657930  48.2816910  38.9821580  13.3214880  47.5006290  39.2960200
  13.2050450  48.9923730  39.5262760  17.6134740  37.2115760  49.3146020
  16.9979010  37.7195430  48.7861480  17.2931160  36.3114090  49.2571960
   5.3879250  33.1839130  41.1772890   4.9447400  33.9648670  40.8457410
   5.9464240  33.5069020  41.8843830   9.6749060  36.0507650  46.7808210
   9.2128430  36.2590670  47.5928150   9.2727170  35.2367000  46.4778880
  14.6753570  37.2716600  47.9104870  13.8247160  36.9722350  48.2313940
  14.5155360  37.5158610  46.9988690  11.7703280  38.7718350  50.0103660
  12.0956690  37.9382100  49.6705890  12.5583610  39.2946870  50.1581990
   8.5038070  32.8049830  36.0578720   7.8792250  32.8009700  36.7832030
   8.4168190  31.9380790  35.6614690   7.4255150  33.7286460  43.0362490
   7.7227480  34.6349290  42.9554510   7.9740710  33.2405240  42.4222060
   5.1793470  38.3072700  38.9054140   4.9534390  38.0909870  39.8100760
   4.3986000  38.7401160  38.5600110  12.4091230  38.3136070  37.5044790
  11.8100120  39.0371870  37.3208410  12.9570840  38.2512850  36.7221240
   7.6192680  39.2058280  49.5714410   7.5236280  38.2653010  49.4214810
   8.4624660  39.4273350  49.1762480  11.0156100  36.9499610  39.5348070
  11.4085670  37.2671810  38.7216760  11.3772950  36.0711490  39.6492590
   2.7503220  35.6171950  47.7248190   2.3566610  36.4647160  47.9320970
   2.0621620  34.9798320  47.9156830   9.3248270  35.7006920  50.7944930
   8.6346590  35.5079120  51.4291020  10.0680570  35.9841560  51.3269230
  11.6011240  39.5405360  43.6298850  10.8692360  40.0492170  43.9788950
  11.2035580  38.7235340  43.3287630   8.0388630  36.2159560  42.0351340
   8.0424690  35.7749510  41.1855880   8.9339750  36.5376890  42.1423160
   3.8891010  36.0986050  40.9945550   3.5491060  36.5761280  41.7512600
   3.1268330  35.6451170  40.6346650   8.1008780  37.2171640  35.0258100
   8.2221600  37.1758120  35.9743920   7.7157290  38.0795790  34.8704830
  12.0637150  34.9939040  43.0421790  12.0809890  35.4447690  43.8863640
  11.8152730  34.0944680  43.2555230   7.1130280  39.5272780  34.4241400
   6.5447180  39.0791030  33.7977310   7.8219280  39.8865560  33.8906550
  15.4907900  32.4071220  48.8808170  15.8153670  31.6760880  49.4066150
  15.5264410  32.0884860  47.9789160   2.1899460  43.4284800  48.3008130
   1.8054250  42.7878470  48.8991090   2.5011650  44.1320920  48.8702860
   8.3396600  40.2761340  43.7816750   8.7066730  39.8019910  44.5278090
   8.1501660  41.1502910  44.1225090   6.1295970  39.3169980  46.1000960
   5.8253040  40.1961960  46.3251320   7.0842430  39.3769770  46.1358400
   4.6577760  43.5230970  36.6967810   3.8840020  42.9828590  36.5366530
   5.3872390  43.0037580  36.3585570  15.4165740  42.5196330  42.4894200
  16.1364860  43.0151620  42.0990310  15.2147560  41.8414220  41.8448070
  10.8775680  33.9134290  36.6323590  10.0640290  33.4147460  36.5568900
  10.6837630  34.7532540  36.2159940  10.7984540  42.5905390  48.3763200
  10.7321850  41.6701060  48.1220790  10.1689680  42.6880830  49.0907840
  13.5924070  38.2853940  34.9285750  14.4803690  38.5971170  34.7537090
  13.5629160  37.4126190  34.5366330   4.7015160  43.1911350  40.3346620
   5.2193830  42.3879610  40.2803510   4.2499180  43.1290490  41.1763450
   9.5884660  44.4577630  35.6073920   9.9300360  45.2019860  35.1117240
   8.7597370  44.7708750  35.9698750   2.1859700  40.1572720  47.2472320
   1.8274640  40.8226570  47.8345660   1.8914260  39.3256270  47.6184940
   5.3872820  40.6156960  50.1311870   5.0872960  40.7614140  49.2339690
   6.1584060  40.0562250  50.0385260  10.7301270  45.4125960  48.1267000
  10.7445810  44.4806920  47.9085910  10.0226370  45.4985720  48.7656770
  15.8638340  39.5965780  34.3965610  15.7802060  40.0280000  33.5462050
  16.5832530  40.0564130  34.8292430  16.9412480  42.0533300  47.4735580
  16.2160670  42.6462080  47.2764970  17.4687940  42.0456840  46.6748950
  16.8925590  46.4508040  37.1247740  16.2501750  45.7963660  37.3991460
  16.5056250  46.8563130  36.3488410  12.4712070  43.7793470  40.9719430
  12.8235890  43.1821600  40.3120800  11.5874400  43.4537700  41.1427680
   8.5575350  44.5391160  38.3789840   9.2446480  45.0860370  38.7597430
   7.7707770  45.0831890  38.4139450   7.8602560  41.5437190  37.9915200
   8.3165340  42.3542440  38.2175390   7.5090770  41.2260330  38.8233690
  10.1635170  47.0543530  45.2207500  10.8077390  47.2602910  45.8980920
  10.5264610  46.2931930  44.7678350   3.7614340  31.8874840  38.4637720
   3.6328970  31.8792740  39.4122640   2.9376360  32.2257930  38.1128730
  11.4367250  45.0575880  43.9384950  12.0789480  44.3569040  44.0517120
  11.9616600  45.8374320  43.7581840  15.2822970  45.3424500  33.6624090
  15.0560550  44.6254940  34.2548730  14.8919170  45.0936940  32.8245840
  13.2104870  45.8570780  47.1421010  13.5461110  46.4437470  47.8198930
  12.2905210  45.7263490  47.3718800  14.8639220  43.2596440  35.3238250
  14.5760920  43.7209130  36.1116130  15.6591390  42.7994210  35.5922470
   9.0393450  45.9062110  50.3109070   8.7190320  45.1871350  50.8554760
   8.3651810  46.5817180  50.3845130   7.0807620  46.7522560  35.2542220
   7.0717720  47.4852250  34.6386730   6.1605980  46.5054140  35.3469180
   2.6814260  41.9737450  35.9988980   2.0742210  42.7136350  36.0084280
   3.1563610  42.0636810  35.1727180  12.2547050  36.1388270  45.6745870
  12.6227870  35.3183480  46.0025440  11.3945250  36.1990160  46.0901520
  15.6209080  35.0945210  36.4833430  14.9922240  35.1990880  35.7691660
  15.1261000  35.3141990  37.2727310  10.0667220  46.8150800  33.9167410
  10.1679200  46.6114790  32.9869390   9.1668960  46.5609080  34.1215190
   7.5893110  37.3731160  37.8991310   6.8809260  37.8417500  38.3404920
   7.8737590  36.7153170  38.5336500   9.2149040  38.7927860  45.8983840
   9.7134290  39.2673680  46.5635690   9.3571990  37.8691380  46.1053870
  11.6208540  34.0981820  39.3387100  11.4976320  34.1167950  38.3896610
  12.5693100  34.1460760  39.4585500   8.7085330  49.3337120  38.6115080
   8.9626830  49.2958510  37.6894450   7.7597810  49.2070450  38.6043330
   5.7928130  35.6816240  35.2742020   6.6418660  36.1186390  35.2082210
   5.4259400  35.9936500  36.1014080  16.4215900  35.0095820  46.7412230
  15.9189500  35.7501220  47.0806040  17.2372560  35.3979820  46.4249020
  14.7137910  40.2529000  40.1873590  13.7728050  40.2679230  40.3621280
  15.0281980  39.4664960  40.6333890   4.6919550  41.9348600  33.7477550
   5.4582820  41.8229960  34.3102980   4.7694240  41.2386570  33.0954320
   3.3866310  39.3673670  34.4310440   3.4669900  38.4201180  34.5427840
   4.2786060  39.6980550  34.5371100  16.7163490  47.4237850  41.8627850
  16.8410910  48.2469020  42.3351660  17.5829050  47.2128580  41.5152000
   4.1881020  49.5169060  41.5344980   4.9243500  48.9684520  41.8053550
   4.5721940  50.3825070  41.3950970   3.1939300  48.7015130  50.7230560
   3.9952030  49.0227180  51.1365960   2.6791120  48.3410710  51.4450470
   7.2983330  48.6899370  33.3570550   8.0911940  48.9788200  32.9052340
   6.7787680  48.2591540  32.6783030  12.0303930  44.8095000  50.6705970
  11.4242090  44.8326600  49.9301720  11.7258040  44.0778040  51.2073220
  13.4604300  48.5375290  49.2815380  14.4126050  48.4533310  49.2315620
  13.3132520  49.2017000  49.9549170  16.3513500  47.9169500  34.7807290
  16.0655010  47.5034640  33.9661470  16.1533050  48.8457210  34.6607810
   7.8160730  43.9102780  33.2212900   7.7111370  43.2955130  33.9474280
   7.6484950  43.3868670  32.4375910   7.9675050  42.5959580  49.2002130
   7.2020720  43.1644580  49.1156800   8.1491010  42.3035790  48.3070360
  11.0563460  42.9722810  33.8254890  10.5073560  43.4192110  34.4697630
  11.6782720  42.4672060  34.3492560  15.1098400  44.3264910  49.7577150
  15.8507870  44.6640670  49.2544610  14.3471080  44.4956970  49.2046920
   2.9460190  39.3318180  50.5616680   2.9865530  39.0332050  51.4701910
   3.8005690  39.7325790  50.4024200   6.7238580  41.9313730  35.7220190
   7.1455000  41.7653600  36.5651580   6.8489420  41.1213960  35.2275330
   4.8866000  37.9110280  48.5291170   4.3562460  37.4201230  47.9014510
   5.5554070  38.3394480  47.9949100   9.2366220  40.9551340  32.9697290
   9.7571880  40.2400360  32.6038440   9.8834620  41.5937210  33.2697800
  13.7844060  42.3779740  48.2932360  14.1985080  42.5324820  49.1422780
  12.8495060  42.5034960  48.4558140  14.2566230  39.7175900  50.2971510
  14.8387000  38.9628220  50.2091990  14.4328000  40.2483340  49.5202990
   5.3738300  34.8772650  48.6088460   5.2795170  34.2593400  47.8839330
   4.7935690  35.6038940  48.3818370   8.1399740  33.4345890  45.6415850
   7.6917040  33.4570150  44.7961400   7.5064940  33.0364910  46.2386150
   8.5459290  42.3300220  46.2628290   8.9647400  43.1732950  46.0904530
   7.6267920  42.4672260  46.0335070  10.8823190  40.0616400  47.6466130
  11.0019400  39.4657540  48.3860970  11.7417190  40.0986090  47.2267430
  13.2211090  40.6153590  46.2228640  12.6946310  41.1396210  45.6193780
  13.5642430  41.2480980  46.8538370   5.6197480  38.0046960  32.6678350
   5.4186540  37.1414320  33.0291690   5.4489530  37.9180320  31.7299950
   6.3966710  48.6353230  47.3786020   5.8587800  49.3599290  47.0594720
   6.6500670  48.1583570  46.5883360   7.6491960  36.6037750  48.9041950
   8.2391650  36.2953600  49.5919770   6.8312200  36.1317500  49.0601850
  12.4685390  36.2203560  49.1374970  11.7800910  35.5585100  49.0724960
  13.1891410  35.7741830  49.5823430  13.0985790  32.8155190  35.1965230
  13.3788080  31.9723090  35.5524650  12.3251520  33.0478300  35.7103980
   4.4180280  35.1047580  32.6556230   4.7206180  35.1115010  31.7475380
   5.1574870  34.7545440  33.1523890   9.2528920  49.8704440  47.6372670
   9.1787620  50.7739580  47.9445040   8.3507760  49.5516340  47.6094740
   7.6365210  34.0482200  33.6412430   7.2887210  33.3706190  33.0614880
   7.8377980  33.5871710  34.4555820   9.8014250  49.0362950  35.2599030
  10.6965040  49.3747920  35.2817790   9.8331880  48.3142360  34.6323310
   3.4410410  44.4090000  33.4886030   3.8785280  44.9519670  34.1443610
   3.9258140  43.5836950  33.4982370   5.2518130  45.5288040  38.6008260
   4.9513670  45.4053010  39.5012170   5.1455620  44.6696630  38.1923990
  16.7808600  47.5666620  47.9665230  16.1810590  47.6259180  47.2229150
  16.9102500  46.6271600  48.0962080  18.0210050  45.3084440  33.3034940
  17.1903010  45.3761090  33.7742170  18.1981880  46.1988560  33.0001800
  17.4766510  42.0531920  35.8069140  18.2385420  42.6228570  35.9128830
  17.4920880  41.4859120  36.5777450  18.4826480  42.9082020  40.6511070
  18.8535310  42.1249340  40.2447040  19.1228410  43.5971120  40.4728370
  15.4660240  44.2918600  46.0641390  14.6520080  44.7215760  46.3267180
  15.8734440  44.9037010  45.4510440  17.5285680  42.3466290  32.9641660
  17.8034520  43.2545170  32.8360880  17.3396420  42.2828820  33.9003650
  13.9261290  35.3711140  34.2595290  14.3446170  35.1842120  33.4191950
  13.6197350  34.5190190  34.5698220  17.4251020  40.2835280  37.9571090
  17.0494620  39.5163210  37.5252380  16.6954140  40.6657980  38.4446020
   2.0146780  40.9622420  44.5780140   2.3819820  40.8749820  45.4576160
   1.4457600  40.1988970  44.4787000  16.8150640  39.4306800  47.5910610
  16.5836730  39.2019550  46.6908560  17.0755190  40.3506350  47.5455500
  15.2538710  34.6563230  50.3690310  16.1308890  34.6646630  50.7524310
  15.2659550  33.9194070  49.7582660  16.7001980  38.5092770  41.2578330
  17.2239460  38.0155420  40.6268500  17.2861400  38.6443130  42.0025900
  16.8791700  38.5932640  44.7797880  15.9294410  38.5596180  44.8942870
  17.0604710  39.5032750  44.5447650   2.7336140  36.8434320  33.8896510
   3.4427840  36.4217540  33.4043790   2.0176080  36.9109550  33.2579860
   2.3810300  32.8973650  32.9299160   3.1038430  33.4382590  33.2480380
   2.6534820  32.6237070  32.0540700  16.1901950  37.7666120  37.1970740
  16.6861070  37.5336990  37.9819620  15.9918020  36.9277960  36.7808380
   2.0702490  32.1479840  42.8321780   2.7178680  31.5977220  42.3916940
   2.4904330  32.4022990  43.6537590  17.6189110  36.4027070  39.7308420
  17.5088390  36.2483110  40.6690690  18.3796700  35.8748010  39.4883830
  15.9654830  32.3421200  46.1891420  16.6027050  32.9555340  46.5550610
  16.1129720  32.3781860  45.2440650  18.5079380  34.2334990  32.9714560
  19.4328690  34.1016170  32.7632850  18.4855170  34.3127810  33.9251010
  18.5817870  35.0045650  35.5971270  17.7869370  34.9390770  36.1264180
  18.7861150  35.9396290  35.5856620  15.5236290  49.0437200  39.5909660
  16.1195360  48.7221770  38.9144080  15.7814440  48.5709020  40.3822930
   1.8234490  32.3035510  45.5747100   1.4749310  32.7599330  46.3405280
   1.4922190  31.4092640  45.6569530   3.4298860  45.4755110  49.7400290
   3.3868490  45.1048020  50.6214750   3.5609870  46.4132680  49.8802110
   7.1304890  47.0314700  45.3410010   6.8896250  47.2989260  44.4540530
   8.0707530  47.2020430  45.3960870   9.3359310  33.4947390  49.0966520
   9.2748200  34.0869220  49.8461930  10.2759690  33.3873350  48.9516780
  11.9733870  33.1517450  48.7358810  12.5874280  33.4696740  48.0739890
  12.5183430  32.6666040  49.3554670  18.3909050  49.0509080  46.1420650
  17.8967330  49.4477950  45.4247780  17.7822340  48.4258290  46.5357930
   2.4955130  31.8311710  48.8497870   3.0438120  31.6499760  48.0863980
   2.5610440  31.0405820  49.3854180   3.2686890  48.4217360  46.8598070
   2.6747210  48.2902060  47.5988110   3.2610730  47.5855500  46.3940170
  12.7141910  31.7149590  45.0628100  11.8401750  32.0484700  44.8601030
  12.6052660  31.2422770  45.8879970  13.6213890  33.9220460  46.4469820
  13.2927250  33.1072220  46.0671550  14.5696190  33.8790270  46.3235510
  16.0748500  49.6932500  43.4207390  15.6151470  50.4448310  43.0465410
  15.4460960  48.9738970  43.3622190   2.8999120  45.7875740  45.8106110
   2.1733180  45.1681030  45.7432060   2.9608270  46.1816350  44.9404190
   6.5044220  48.0020740  42.5955520   7.0209240  47.3908100  42.0703780
   7.1541600  48.5049520  43.0866530   9.2439720  48.8929230  43.4224500
   9.5317530  48.6383530  42.5457510   9.7562940  48.3406590  44.0130070
  10.4616730  32.6319430  44.0021010   9.6788520  33.1064930  44.2817770
  10.1679660  31.7274260  43.8934190  15.0137800  33.3342530  42.0470100
  15.4545890  33.2787630  41.1991700  14.7445390  34.2500540  42.1180280
  16.8776370  32.9657770  40.0578920  16.8164770  32.0218990  39.9109940
  17.6568400  33.0737860  40.6032380   1.8057140  32.9366910  36.5234730
   2.5636500  33.0495790  35.9498760   1.3434310  33.7736110  36.4778160
   8.3470950  35.0506180  39.5137040   7.5345460  34.6763070  39.1732920
   8.8512590  34.2951260  39.8158230  12.8495930  31.7148630  40.7520110
  13.4525300  32.2868840  41.2268630  12.1088920  32.2788070  40.5294010
  15.9930530  32.1170190  36.0260390  16.1881160  33.0153640  36.2927820
  15.2060400  31.8857270  36.5193340   2.7891820  47.7983360  36.4653010
   2.2639440  48.1791390  35.7614970   2.7136400  48.4234130  37.1862720
   4.1782290  33.4630960  35.0636700   4.7075050  32.6760760  34.9344650
   4.8110610  34.1422150  35.2972230   6.3720130  33.2006100  38.1182090
   5.7422870  32.4993410  38.2852220   5.8325270  33.9610230  37.9015250
   9.3112080  49.8145330  50.7892700  10.2379390  49.5789600  50.8328660
   9.2962510  50.6417330  50.3078730  17.5457140  49.3570900  37.7866950
  17.7209330  48.6708640  37.1427870  16.8478710  49.8817950  37.3943620
   6.4975690  32.4790080  50.5534580   6.2159960  32.9823680  49.7895400
   6.8795390  31.6811830  50.1876710   5.3884790  49.7465740  35.3402260
   6.1203610  49.4625020  34.7926150   5.6478460  49.5079020  36.2301640
   4.5499580  45.8630470  35.3448590   3.9208460  46.3315570  35.8934420
   4.6647410  45.0179690  35.7794780  13.0991150  31.8943660  51.1315050
  12.9856600  32.2138270  52.0266570  13.9160890  32.2956170  50.8352330
  15.8789640  49.0415190  50.6133740  16.6714960  48.5464420  50.4059700
  16.1722790  49.7205330  51.2209350  12.0049300  39.9136130  21.4949790
  11.9243350  38.9990740  21.2241500  11.5913720  40.4103200  20.7889500
  10.1367340  41.6915150  23.3759060   9.3609440  41.2115590  23.6657630
  10.7880270  41.0120800  23.2015220   4.1533170  42.0034960  24.2534820
   3.3218050  41.7483670  24.6531330   4.7614150  42.0745730  24.9892740
  14.1574770  46.0975340  22.1558190  13.6956300  45.3262580  22.4845360
  14.9700320  46.1241410  22.6610640   4.1334430  46.0375050  24.4492840
   4.4362470  45.1472790  24.2703060   4.8778020  46.5945270  24.2215090
   2.5625120  36.9636850  18.0377210   1.6741820  37.3052820  17.9357090
   2.8466310  36.7637170  17.1458040  10.3838080  48.3833350  21.7762180
   9.7649520  48.8390850  21.2056620  11.2389860  48.5384810  21.3751880
   9.5776330  44.3672340  23.3829220   9.5084610  43.4262280  23.2218350
  10.3396190  44.4573750  23.9551790   1.7683000  34.9726860  25.7085840
   1.5885840  34.0752610  25.9888600   1.3663080  35.5198730  26.3832790
  10.6081500  37.1742720  23.6098150  10.9846320  36.3014600  23.4971820
  10.5101010  37.5101420  22.7188590   4.7386510  35.5468350  19.0715590
   4.8453260  36.4472080  19.3784350   3.8278870  35.4986320  18.7810240
  14.3905620  34.6693160  20.5426490  15.2115240  34.1789730  20.5851970
  14.4239700  35.2590820  21.2958330   2.3869670  37.4687360  24.3168180
   3.0679780  37.7325730  24.9355580   2.0717720  36.6288230  24.6506190
   6.5794240  38.5154720  23.4040770   7.0872460  39.0135690  24.0445790
   7.1107480  37.7389920  23.2280130  18.6805170  36.6859910  27.1070120
  17.9757340  37.0741620  26.5885230  18.9463090  37.3810200  27.7091050
   4.8630340  33.1553280  27.6704190   4.8648780  33.6725670  26.8650090
   4.0334650  32.6783460  27.6474120  11.2501430  43.2672590  19.1694090
  10.6318700  43.7322040  18.6056810  11.7624680  43.9600070  19.5863600
   6.1133190  42.7948460  25.8477690   5.7802570  43.4217380  26.4898760
   6.2899870  43.3210340  25.0679360  14.6267100  36.6093540  23.3154030
  13.9222670  36.8978430  23.8957140  14.9879260  37.4193650  22.9553590
   4.5445670  34.8663240  25.6774640   4.8862480  35.7105290  25.3828510
   3.6061480  35.0146980  25.7939980   5.3252290  44.7629260  27.6626870
   5.9426290  45.4380340  27.3811320   4.4645410  45.1717240  27.5714370
  16.2429880  46.2268670  25.5781510  15.5593400  46.8967780  25.5698180
  16.7824170  46.4249320  24.8126370  17.6954020  36.0548330  23.7063240
  16.7478930  36.0887310  23.8378670  18.0204010  36.8687280  24.0912600
   8.2273560  32.3545510  22.0019230   8.5348540  31.7992400  21.2854730
   7.2974260  32.4889970  21.8192220  13.7788620  48.0712800  24.2926690
  13.7915780  47.6675090  23.4248950  13.2263840  48.8460090  24.1888120
  15.0734040  44.7929020  19.3816860  14.9630370  43.8503350  19.5066280
  15.0702290  45.1544660  20.2679620  13.1774060  42.9742640  25.6209300
  13.5942850  42.7602750  24.7862760  13.9013880  43.2315430  26.1917920
  10.6154320  40.4194340  18.7379350   9.6883600  40.3531720  18.9667820
  10.7679140  41.3574470  18.6234590  10.6023400  36.6911340  15.7346510
   9.6627070  36.8525300  15.8198970  10.9206660  37.4097020  15.1882500
  17.1236160  41.3729860  25.7125540  16.2954790  41.4422950  25.2375670
  17.7186640  41.9584170  25.2441370  14.6451610  41.9814640  19.2414600
  14.0264030  41.6434190  18.5940900  14.6276060  41.3374400  19.9493790
  14.0878170  38.1599180  26.6580410  13.6749350  38.9852890  26.9120400
  13.3554120  37.5744220  26.4656770   6.2210960  40.9459080  21.5199080
   5.8167960  40.2336330  21.0244980   6.3074080  40.6012320  22.4087120
   6.6892660  44.6326640  23.6838290   6.3920950  44.0272110  23.0046070
   7.6392480  44.6703950  23.5727650   4.9339580  37.7202290  25.2998120
   5.4854170  37.8297630  24.5251370   5.4483090  38.0939890  26.0153350
  14.7778270  48.2058510  27.3461390  14.3008830  49.0130700  27.1534000
  14.0940060  47.5536840  27.4987600   5.7811090  44.3708330  30.3346090
   4.8839620  44.5948300  30.5819490   5.8063960  44.4943270  29.3857490
  12.8216310  41.2201450  16.2487350  13.2609590  40.3823880  16.1025170
  13.5344730  41.8530850  16.3351490   4.6082310  41.2421650  28.9103460
   4.4690080  42.1144450  29.2790860   3.7263670  40.8994460  28.7651400
  10.9311690  46.1597520  20.2168590  11.3707600  46.9021850  19.8023980
  10.8698580  46.4024090  21.1407550   6.4062660  47.1843350  31.1188610
   6.3778090  47.5886300  30.2517040   6.2427630  46.2553710  30.9560210
  16.4033450  32.4744260  14.5628390  16.0906110  32.5671090  15.4627460
  17.1645920  33.0525290  14.5125820   2.9215590  39.8404060  19.0205730
   2.8013190  40.5666150  18.4087000   2.6116480  39.0706970  18.5433640
  18.3577480  47.9670450  32.4152780  18.8337200  48.4453340  33.0941860
  18.9784640  47.8987940  31.6898280   1.8048590  44.7119390  21.2380550
   1.3976670  44.8533980  20.3834150   2.6961600  44.4279550  21.0351760
  17.7610730  45.1583300  29.5752790  17.8873790  44.9195180  28.6569970
  17.8032110  44.3267840  30.0474870  11.6227470  48.8611300  28.1447600
  12.1372140  48.7719310  28.9470030  10.7796550  49.2071000  28.4375510
  13.5981870  49.1466640  17.5731600  13.4383010  48.8569580  18.4713430
  13.4328580  48.3706770  17.0376830   6.0770250  48.9265170  19.3503220
   5.9012730  48.0100710  19.1371020   5.2225990  49.2852460  19.5901020
  13.3008000  46.6554200  16.1329600  12.6073160  46.6531490  15.4731880
  14.0430860  46.2313520  15.7023770  12.8657930  48.2816910  20.2078090
  13.3214880  47.5006290  20.5216710  13.2050450  48.9923730  20.7519270
  17.6134740  37.2115760  30.5402530  16.9979010  37.7195430  30.0117990
  17.2931160  36.3114090  30.4828470   5.3879250  33.1839130  22.4029400
   4.9447400  33.9648670  22.0713920   5.9464240  33.5069020  23.1100340
   9.6749060  36.0507650  28.0064720   9.2128430  36.2590670  28.8184660
   9.2727170  35.2367000  27.7035390  14.6753570  37.2716600  29.1361380
  13.8247160  36.9722350  29.4570450  14.5155360  37.5158610  28.2245200
  11.7703280  38.7718350  31.2360170  12.0956690  37.9382100  30.8962400
  12.5583610  39.2946870  31.3838500   8.5038070  32.8049830  17.2835230
   7.8792250  32.8009700  18.0088540   8.4168190  31.9380790  16.8871200
   7.4255150  33.7286460  24.2619000   7.7227480  34.6349290  24.1811020
   7.9740710  33.2405240  23.6478570   5.1793470  38.3072700  20.1310650
   4.9534390  38.0909870  21.0357270   4.3986000  38.7401160  19.7856620
  12.4091230  38.3136070  18.7301300  11.8100120  39.0371870  18.5464920
  12.9570840  38.2512850  17.9477750   7.6192680  39.2058280  30.7970920
   7.5236280  38.2653010  30.6471320   8.4624660  39.4273350  30.4018990
  11.0156100  36.9499610  20.7604580  11.4085670  37.2671810  19.9473270
  11.3772950  36.0711490  20.8749100   2.7503220  35.6171950  28.9504700
   2.3566610  36.4647160  29.1577480   2.0621620  34.9798320  29.1413340
   9.3248270  35.7006920  32.0201440   8.6346590  35.5079120  32.6547530
  10.0680570  35.9841560  32.5525740  11.6011240  39.5405360  24.8555360
  10.8692360  40.0492170  25.2045460  11.2035580  38.7235340  24.5544140
   8.0388630  36.2159560  23.2607850   8.0424690  35.7749510  22.4112390
   8.9339750  36.5376890  23.3679670   3.8891010  36.0986050  22.2202060
   3.5491060  36.5761280  22.9769110   3.1268330  35.6451170  21.8603160
   8.1008780  37.2171640  16.2514610   8.2221600  37.1758120  17.2000430
   7.7157290  38.0795790  16.0961340  12.0637150  34.9939040  24.2678300
  12.0809890  35.4447690  25.1120150  11.8152730  34.0944680  24.4811740
   7.1130280  39.5272780  15.6497910   6.5447180  39.0791030  15.0233820
   7.8219280  39.8865560  15.1163060  15.4907900  32.4071220  30.1064680
  15.8153670  31.6760880  30.6322660  15.5264410  32.0884860  29.2045670
   2.1899460  43.4284800  29.5264640   1.8054250  42.7878470  30.1247600
   2.5011650  44.1320920  30.0959370   8.3396600  40.2761340  25.0073260
   8.7066730  39.8019910  25.7534600   8.1501660  41.1502910  25.3481600
   6.1295970  39.3169980  27.3257470   5.8253040  40.1961960  27.5507830
   7.0842430  39.3769770  27.3614910   4.6577760  43.5230970  17.9224320
   3.8840020  42.9828590  17.7623040   5.3872390  43.0037580  17.5842080
  15.4165740  42.5196330  23.7150710  16.1364860  43.0151620  23.3246820
  15.2147560  41.8414220  23.0704580  10.8775680  33.9134290  17.8580100
  10.0640290  33.4147460  17.7825410  10.6837630  34.7532540  17.4416450
  10.7984540  42.5905390  29.6019710  10.7321850  41.6701060  29.3477300
  10.1689680  42.6880830  30.3164350  13.5924070  38.2853940  16.1542260
  14.4803690  38.5971170  15.9793600  13.5629160  37.4126190  15.7622840
   4.7015160  43.1911350  21.5603130   5.2193830  42.3879610  21.5060020
   4.2499180  43.1290490  22.4019960   9.5884660  44.4577630  16.8330430
   9.9300360  45.2019860  16.3373750   8.7597370  44.7708750  17.1955260
   2.1859700  40.1572720  28.4728830   1.8274640  40.8226570  29.0602170
   1.8914260  39.3256270  28.8441450   5.3872820  40.6156960  31.3568380
   5.0872960  40.7614140  30.4596200   6.1584060  40.0562250  31.2641770
  10.7301270  45.4125960  29.3523510  10.7445810  44.4806920  29.1342420
  10.0226370  45.4985720  29.9913280  15.8638340  39.5965780  15.6222120
  15.7802060  40.0280000  14.7718560  16.5832530  40.0564130  16.0548940
  16.9412480  42.0533300  28.6992090  16.2160670  42.6462080  28.5021480
  17.4687940  42.0456840  27.9005460  16.8925590  46.4508040  18.3504250
  16.2501750  45.7963660  18.6247970  16.5056250  46.8563130  17.5744920
  12.4712070  43.7793470  22.1975940  12.8235890  43.1821600  21.5377310
  11.5874400  43.4537700  22.3684190   8.5575350  44.5391160  19.6046350
   9.2446480  45.0860370  19.9853940   7.7707770  45.0831890  19.6395960
   7.8602560  41.5437190  19.2171710   8.3165340  42.3542440  19.4431900
   7.5090770  41.2260330  20.0490200  10.1635170  47.0543530  26.4464010
  10.8077390  47.2602910  27.1237430  10.5264610  46.2931930  25.9934860
   3.7614340  31.8874840  19.6894230   3.6328970  31.8792740  20.6379150
   2.9376360  32.2257930  19.3385240  11.4367250  45.0575880  25.1641460
  12.0789480  44.3569040  25.2773630  11.9616600  45.8374320  24.9838350
  15.2822970  45.3424500  14.8880600  15.0560550  44.6254940  15.4805240
  14.8919170  45.0936940  14.0502350  13.2104870  45.8570780  28.3677520
  13.5461110  46.4437470  29.0455440  12.2905210  45.7263490  28.5975310
  14.8639220  43.2596440  16.5494760  14.5760920  43.7209130  17.3372640
  15.6591390  42.7994210  16.8178980   9.0393450  45.9062110  31.5365580
   8.7190320  45.1871350  32.0811270   8.3651810  46.5817180  31.6101640
   7.0807620  46.7522560  16.4798730   7.0717720  47.4852250  15.8643240
   6.1605980  46.5054140  16.5725690   2.6814260  41.9737450  17.2245490
   2.0742210  42.7136350  17.2340790   3.1563610  42.0636810  16.3983690
  12.2547050  36.1388270  26.9002380  12.6227870  35.3183480  27.2281950
  11.3945250  36.1990160  27.3158030  15.6209080  35.0945210  17.7089940
  14.9922240  35.1990880  16.9948170  15.1261000  35.3141990  18.4983820
  10.0667220  46.8150800  15.1423920  10.1679200  46.6114790  14.2125900
   9.1668960  46.5609080  15.3471700   7.5893110  37.3731160  19.1247820
   6.8809260  37.8417500  19.5661430   7.8737590  36.7153170  19.7593010
   9.2149040  38.7927860  27.1240350   9.7134290  39.2673680  27.7892200
   9.3571990  37.8691380  27.3310380  11.6208540  34.0981820  20.5643610
  11.4976320  34.1167950  19.6153120  12.5693100  34.1460760  20.6842010
   8.7085330  49.3337120  19.8371590   8.9626830  49.2958510  18.9150960
   7.7597810  49.2070450  19.8299840   5.7928130  35.6816240  16.4998530
   6.6418660  36.1186390  16.4338720   5.4259400  35.9936500  17.3270590
  16.4215900  35.0095820  27.9668740  15.9189500  35.7501220  28.3062550
  17.2372560  35.3979820  27.6505530  14.7137910  40.2529000  21.4130100
  13.7728050  40.2679230  21.5877790  15.0281980  39.4664960  21.8590400
   4.6919550  41.9348600  14.9734060   5.4582820  41.8229960  15.5359490
   4.7694240  41.2386570  14.3210830   3.3866310  39.3673670  15.6566950
   3.4669900  38.4201180  15.7684350   4.2786060  39.6980550  15.7627610
  16.7163490  47.4237850  23.0884360  16.8410910  48.2469020  23.5608170
  17.5829050  47.2128580  22.7408510   4.1881020  49.5169060  22.7601490
   4.9243500  48.9684520  23.0310060   4.5721940  50.3825070  22.6207480
   3.1939300  48.7015130  31.9487070   3.9952030  49.0227180  32.3622470
   2.6791120  48.3410710  32.6706980   7.2983330  48.6899370  14.5827060
   8.0911940  48.9788200  14.1308850   6.7787680  48.2591540  13.9039540
  12.0303930  44.8095000  31.8962480  11.4242090  44.8326600  31.1558230
  11.7258040  44.0778040  32.4329730  13.4604300  48.5375290  30.5071890
  14.4126050  48.4533310  30.4572130  13.3132520  49.2017000  31.1805680
  16.3513500  47.9169500  16.0063800  16.0655010  47.5034640  15.1917980
  16.1533050  48.8457210  15.8864320   7.8160730  43.9102780  14.4469410
   7.7111370  43.2955130  15.1730790   7.6484950  43.3868670  13.6632420
   7.9675050  42.5959580  30.4258640   7.2020720  43.1644580  30.3413310
   8.1491010  42.3035790  29.5326870  11.0563460  42.9722810  15.0511400
  10.5073560  43.4192110  15.6954140  11.6782720  42.4672060  15.5749070
  15.1098400  44.3264910  30.9833660  15.8507870  44.6640670  30.4801120
  14.3471080  44.4956970  30.4303430   2.9460190  39.3318180  31.7873190
   2.9865530  39.0332050  32.6958420   3.8005690  39.7325790  31.6280710
   6.7238580  41.9313730  16.9476700   7.1455000  41.7653600  17.7908090
   6.8489420  41.1213960  16.4531840   4.8866000  37.9110280  29.7547680
   4.3562460  37.4201230  29.1271020   5.5554070  38.3394480  29.2205610
   9.2366220  40.9551340  14.1953800   9.7571880  40.2400360  13.8294950
   9.8834620  41.5937210  14.4954310  13.7844060  42.3779740  29.5188870
  14.1985080  42.5324820  30.3679290  12.8495060  42.5034960  29.6814650
  14.2566230  39.7175900  31.5228020  14.8387000  38.9628220  31.4348500
  14.4328000  40.2483340  30.7459500   5.3738300  34.8772650  29.8344970
   5.2795170  34.2593400  29.1095840   4.7935690  35.6038940  29.6074880
   8.1399740  33.4345890  26.8672360   7.6917040  33.4570150  26.0217910
   7.5064940  33.0364910  27.4642660   8.5459290  42.3300220  27.4884800
   8.9647400  43.1732950  27.3161040   7.6267920  42.4672260  27.2591580
  10.8823190  40.0616400  28.8722640  11.0019400  39.4657540  29.6117480
  11.7417190  40.0986090  28.4523940  13.2211090  40.6153590  27.4485150
  12.6946310  41.1396210  26.8450290  13.5642430  41.2480980  28.0794880
   5.6197480  38.0046960  13.8934860   5.4186540  37.1414320  14.2548200
   5.4489530  37.9180320  12.9556460   6.3966710  48.6353230  28.6042530
   5.8587800  49.3599290  28.2851230   6.6500670  48.1583570  27.8139870
   7.6491960  36.6037750  30.1298460   8.2391650  36.2953600  30.8176280
   6.8312200  36.1317500  30.2858360  12.4685390  36.2203560  30.3631480
  11.7800910  35.5585100  30.2981470  13.1891410  35.7741830  30.8079940
  13.0985790  32.8155190  16.4221740  13.3788080  31.9723090  16.7781160
  12.3251520  33.0478300  16.9360490   4.4180280  35.1047580  13.8812740
   4.7206180  35.1115010  12.9731890   5.1574870  34.7545440  14.3780400
   9.2528920  49.8704440  28.8629180   9.1787620  50.7739580  29.1701550
   8.3507760  49.5516340  28.8351250   7.6365210  34.0482200  14.8668940
   7.2887210  33.3706190  14.2871390   7.8377980  33.5871710  15.6812330
   9.8014250  49.0362950  16.4855540  10.6965040  49.3747920  16.5074300
   9.8331880  48.3142360  15.8579820   3.4410410  44.4090000  14.7142540
   3.8785280  44.9519670  15.3700120   3.9258140  43.5836950  14.7238880
   5.2518130  45.5288040  19.8264770   4.9513670  45.4053010  20.7268680
   5.1455620  44.6696630  19.4180500  16.7808600  47.5666620  29.1921740
  16.1810590  47.6259180  28.4485660  16.9102500  46.6271600  29.3218590
  18.0210050  45.3084440  14.5291450  17.1903010  45.3761090  14.9998680
  18.1981880  46.1988560  14.2258310  17.4766510  42.0531920  17.0325650
  18.2385420  42.6228570  17.1385340  17.4920880  41.4859120  17.8033960
  18.4826480  42.9082020  21.8767580  18.8535310  42.1249340  21.4703550
  19.1228410  43.5971120  21.6984880  15.4660240  44.2918600  27.2897900
  14.6520080  44.7215760  27.5523690  15.8734440  44.9037010  26.6766950
  17.5285680  42.3466290  14.1898170  17.8034520  43.2545170  14.0617390
  17.3396420  42.2828820  15.1260160  13.9261290  35.3711140  15.4851800
  14.3446170  35.1842120  14.6448460  13.6197350  34.5190190  15.7954730
  17.4251020  40.2835280  19.1827600  17.0494620  39.5163210  18.7508890
  16.6954140  40.6657980  19.6702530   2.0146780  40.9622420  25.8036650
   2.3819820  40.8749820  26.6832670   1.4457600  40.1988970  25.7043510
  16.8150640  39.4306800  28.8167120  16.5836730  39.2019550  27.9165070
  17.0755190  40.3506350  28.7712010  15.2538710  34.6563230  31.5946820
  16.1308890  34.6646630  31.9780820  15.2659550  33.9194070  30.9839170
  16.7001980  38.5092770  22.4834840  17.2239460  38.0155420  21.8525010
  17.2861400  38.6443130  23.2282410  16.8791700  38.5932640  26.0054390
  15.9294410  38.5596180  26.1199380  17.0604710  39.5032750  25.7704160
   2.7336140  36.8434320  15.1153020   3.4427840  36.4217540  14.6300300
   2.0176080  36.9109550  14.4836370   2.3810300  32.8973650  14.1555670
   3.1038430  33.4382590  14.4736890   2.6534820  32.6237070  13.2797210
  16.1901950  37.7666120  18.4227250  16.6861070  37.5336990  19.2076130
  15.9918020  36.9277960  18.0064890   2.0702490  32.1479840  24.0578290
   2.7178680  31.5977220  23.6173450   2.4904330  32.4022990  24.8794100
  17.6189110  36.4027070  20.9564930  17.5088390  36.2483110  21.8947200
  18.3796700  35.8748010  20.7140340  15.9654830  32.3421200  27.4147930
  16.6027050  32.9555340  27.7807120  16.1129720  32.3781860  26.4697160
  18.5079380  34.2334990  14.1971070  19.4328690  34.1016170  13.9889360
  18.4855170  34.3127810  15.1507520  18.5817870  35.0045650  16.8227780
  17.7869370  34.9390770  17.3520690  18.7861150  35.9396290  16.8113130
  15.5236290  49.0437200  20.8166170  16.1195360  48.7221770  20.1400590
  15.7814440  48.5709020  21.6079440   1.8234490  32.3035510  26.8003610
   1.4749310  32.7599330  27.5661790   1.4922190  31.4092640  26.8826040
   3.4298860  45.4755110  30.9656800   3.3868490  45.1048020  31.8471260
   3.5609870  46.4132680  31.1058620   7.1304890  47.0314700  26.5666520
   6.8896250  47.2989260  25.6797040   8.0707530  47.2020430  26.6217380
   9.3359310  33.4947390  30.3223030   9.2748200  34.0869220  31.0718440
  10.2759690  33.3873350  30.1773290  11.9733870  33.1517450  29.9615320
  12.5874280  33.4696740  29.2996400  12.5183430  32.6666040  30.5811180
  18.3909050  49.0509080  27.3677160  17.8967330  49.4477950  26.6504290
  17.7822340  48.4258290  27.7614440   2.4955130  31.8311710  30.0754380
   3.0438120  31.6499760  29.3120490   2.5610440  31.0405820  30.6110690
   3.2686890  48.4217360  28.0854580   2.6747210  48.2902060  28.8244620
   3.2610730  47.5855500  27.6196680  12.7141910  31.7149590  26.2884610
  11.8401750  32.0484700  26.0857540  12.6052660  31.2422770  27.1136480
  13.6213890  33.9220460  27.6726330  13.2927250  33.1072220  27.2928060
  14.5696190  33.8790270  27.5492020  16.0748500  49.6932500  24.6463900
  15.6151470  50.4448310  24.2721920  15.4460960  48.9738970  24.5878700
   2.8999120  45.7875740  27.0362620   2.1733180  45.1681030  26.9688570
   2.9608270  46.1816350  26.1660700   6.5044220  48.0020740  23.8212030
   7.0209240  47.3908100  23.2960290   7.1541600  48.5049520  24.3123040
   9.2439720  48.8929230  24.6481010   9.5317530  48.6383530  23.7714020
   9.7562940  48.3406590  25.2386580  10.4616730  32.6319430  25.2277520
   9.6788520  33.1064930  25.5074280  10.1679660  31.7274260  25.1190700
  15.0137800  33.3342530  23.2726610  15.4545890  33.2787630  22.4248210
  14.7445390  34.2500540  23.3436790  16.8776370  32.9657770  21.2835430
  16.8164770  32.0218990  21.1366450  17.6568400  33.0737860  21.8288890
   1.8057140  32.9366910  17.7491240   2.5636500  33.0495790  17.1755270
   1.3434310  33.7736110  17.7034670   8.3470950  35.0506180  20.7393550
   7.5345460  34.6763070  20.3989430   8.8512590  34.2951260  21.0414740
  12.8495930  31.7148630  21.9776620  13.4525300  32.2868840  22.4525140
  12.1088920  32.2788070  21.7550520  15.9930530  32.1170190  17.2516900
  16.1881160  33.0153640  17.5184330  15.2060400  31.8857270  17.7449850
   2.7891820  47.7983360  17.6909520   2.2639440  48.1791390  16.9871480
   2.7136400  48.4234130  18.4119230   4.1782290  33.4630960  16.2893210
   4.7075050  32.6760760  16.1601160   4.8110610  34.1422150  16.5228740
   6.3720130  33.2006100  19.3438600   5.7422870  32.4993410  19.5108730
   5.8325270  33.9610230  19.1271760   9.3112080  49.8145330  32.0149210
  10.2379390  49.5789600  32.0585170   9.2962510  50.6417330  31.5335240
  17.5457140  49.3570900  19.0123460  17.7209330  48.6708640  18.3684380
  16.8478710  49.8817950  18.6200130   6.4975690  32.4790080  31.7791090
   6.2159960  32.9823680  31.0151910   6.8795390  31.6811830  31.4133220
   5.3884790  49.7465740  16.5658770   6.1203610  49.4625020  16.0182660
   5.6478460  49.5079020  17.4558150   4.5499580  45.8630470  16.5705100
   3.9208460  46.3315570  17.1190930   4.6647410  45.0179690  17.0051290
  13.0991150  31.8943660  32.3571560  12.9856600  32.2138270  33.2523080
  13.9160890  32.2956170  32.0608840  15.8789640  49.0415190  31.8390250
  16.6714960  48.5464420  31.6316210  16.1722790  49.7205330  32.4465860
  12.0049300  39.9136130   2.7206300  11.9243350  38.9990740   2.4498010
  11.5913720  40.4103200   2.0146010  10.1367340  41.6915150   4.6015570
   9.3609440  41.2115590   4.8914140  10.7880270  41.0120800   4.4271730
   4.1533170  42.0034960   5.4791330   3.3218050  41.7483670   5.8787840
   4.7614150  42.0745730   6.2149250  14.1574770  46.0975340   3.3814700
  13.6956300  45.3262580   3.7101870  14.9700320  46.1241410   3.8867150
   4.1334430  46.0375050   5.6749350   4.4362470  45.1472790   5.4959570
   4.8778020  46.5945270   5.4471600  10.3838080  48.3833350   3.0018690
   9.7649520  48.8390850   2.4313130  11.2389860  48.5384810   2.6008390
   9.5776330  44.3672340   4.6085730   9.5084610  43.4262280   4.4474860
  10.3396190  44.4573750   5.1808300   1.7683000  34.9726860   6.9342350
   1.5885840  34.0752610   7.2145110   1.3663080  35.5198730   7.6089300
  10.6081500  37.1742720   4.8354660  10.9846320  36.3014600   4.7228330
  10.5101010  37.5101420   3.9445100  14.3905620  34.6693160   1.7683000
  15.2115240  34.1789730   1.8108480  14.4239700  35.2590820   2.5214840
   2.3869670  37.4687360   5.5424690   3.0679780  37.7325730   6.1612090
   2.0717720  36.6288230   5.8762700   6.5794240  38.5154720   4.6297280
   7.0872460  39.0135690   5.2702300   7.1107480  37.7389920   4.4536640
  18.6805170  36.6859910   8.3326630  17.9757340  37.0741620   7.8141740
  18.9463090  37.3810200   8.9347560   4.8630340  33.1553280   8.8960700
   4.8648780  33.6725670   8.0906600   4.0334650  32.6783460   8.8730630
   6.1133190  42.7948460   7.0734200   5.7802570  43.4217380   7.7155270
   6.2899870  43.3210340   6.2935870  14.6267100  36.6093540   4.5410540
  13.9222670  36.8978430   5.1213650  14.9879260  37.4193650   4.1810100
   4.5445670  34.8663240   6.9031150   4.8862480  35.7105290   6.6085020
   3.6061480  35.0146980   7.0196490   5.3252290  44.7629260   8.8883380
   5.9426290  45.4380340   8.6067830   4.4645410  45.1717240   8.7970880
  16.2429880  46.2268670   6.8038020  15.5593400  46.8967780   6.7954690
  16.7824170  46.4249320   6.0382880  17.6954020  36.0548330   4.9319750
  16.7478930  36.0887310   5.0635180  18.0204010  36.8687280   5.3169110
   8.2273560  32.3545510   3.2275740   8.5348540  31.7992400   2.5111240
   7.2974260  32.4889970   3.0448730  13.7788620  48.0712800   5.5183200
  13.7915780  47.6675090   4.6505460  13.2263840  48.8460090   5.4144630
  13.1774060  42.9742640   6.8465810  13.5942850  42.7602750   6.0119270
  13.9013880  43.2315430   7.4174430  17.1236160  41.3729860   6.9382050
  16.2954790  41.4422950   6.4632180  17.7186640  41.9584170   6.4697880
  14.0878170  38.1599180   7.8836920  13.6749350  38.9852890   8.1376910
  13.3554120  37.5744220   7.6913280   6.2210960  40.9459080   2.7455590
   5.8167960  40.2336330   2.2501490   6.3074080  40.6012320   3.6343630
   6.6892660  44.6326640   4.9094800   6.3920950  44.0272110   4.2302580
   7.6392480  44.6703950   4.7984160   4.9339580  37.7202290   6.5254630
   5.4854170  37.8297630   5.7507880   5.4483090  38.0939890   7.2409860
  14.7778270  48.2058510   8.5717900  14.3008830  49.0130700   8.3790510
  14.0940060  47.5536840   8.7244110   5.7811090  44.3708330  11.5602600
   4.8839620  44.5948300  11.8076000   5.8063960  44.4943270  10.6114000
   4.6082310  41.2421650  10.1359970   4.4690080  42.1144450  10.5047370
   3.7263670  40.8994460   9.9907910   6.4062660  47.1843350  12.3445120
   6.3778090  47.5886300  11.4773550   6.2427630  46.2553710  12.1816720
  18.3577480  47.9670450  13.6409290  18.8337200  48.4453340  14.3198370
  18.9784640  47.8987940  12.9154790   1.8048590  44.7119390   2.4637060
   1.3976670  44.8533980   1.6090660   2.6961600  44.4279550   2.2608270
  17.7610730  45.1583300  10.8009300  17.8873790  44.9195180   9.8826480
  17.8032110  44.3267840  11.2731380  11.6227470  48.8611300   9.3704110
  12.1372140  48.7719310  10.1726540  10.7796550  49.2071000   9.6632020
  17.6134740  37.2115760  11.7659040  16.9979010  37.7195430  11.2374500
  17.2931160  36.3114090  11.7084980   5.3879250  33.1839130   3.6285910
   4.9447400  33.9648670   3.2970430   5.9464240  33.5069020   4.3356850
   9.6749060  36.0507650   9.2321230   9.2128430  36.2590670  10.0441170
   9.2727170  35.2367000   8.9291900  14.6753570  37.2716600  10.3617890
  13.8247160  36.9722350  10.6826960  14.5155360  37.5158610   9.4501710
  11.7703280  38.7718350  12.4616680  12.0956690  37.9382100  12.1218910
  12.5583610  39.2946870  12.6095010   7.4255150  33.7286460   5.4875510
   7.7227480  34.6349290   5.4067530   7.9740710  33.2405240   4.8735080
   7.6192680  39.2058280  12.0227430   7.5236280  38.2653010  11.8727830
   8.4624660  39.4273350  11.6275500   2.7503220  35.6171950  10.1761210
   2.3566610  36.4647160  10.3833990   2.0621620  34.9798320  10.3669850
   9.3248270  35.7006920  13.2457950   8.6346590  35.5079120  13.8804040
  10.0680570  35.9841560  13.7782250  11.6011240  39.5405360   6.0811870
  10.8692360  40.0492170   6.4301970  11.2035580  38.7235340   5.7800650
   8.0388630  36.2159560   4.4864360   8.0424690  35.7749510   3.6368900
   8.9339750  36.5376890   4.5936180   3.8891010  36.0986050   3.4458570
   3.5491060  36.5761280   4.2025620   3.1268330  35.6451170   3.0859670
  12.0637150  34.9939040   5.4934810  12.0809890  35.4447690   6.3376660
  11.8152730  34.0944680   5.7068250  15.4907900  32.4071220  11.3321190
  15.8153670  31.6760880  11.8579170  15.5264410  32.0884860  10.4302180
   2.1899460  43.4284800  10.7521150   1.8054250  42.7878470  11.3504110
   2.5011650  44.1320920  11.3215880   8.3396600  40.2761340   6.2329770
   8.7066730  39.8019910   6.9791110   8.1501660  41.1502910   6.5738110
   6.1295970  39.3169980   8.5513980   5.8253040  40.1961960   8.7764340
   7.0842430  39.3769770   8.5871420  15.4165740  42.5196330   4.9407220
  16.1364860  43.0151620   4.5503330  15.2147560  41.8414220   4.2961090
  10.7984540  42.5905390  10.8276220  10.7321850  41.6701060  10.5733810
  10.1689680  42.6880830  11.5420860   4.7015160  43.1911350   2.7859640
   5.2193830  42.3879610   2.7316530   4.2499180  43.1290490   3.6276470
   2.1859700  40.1572720   9.6985340   1.8274640  40.8226570  10.2858680
   1.8914260  39.3256270  10.0697960   5.3872820  40.6156960  12.5824890
   5.0872960  40.7614140  11.6852710   6.1584060  40.0562250  12.4898280
  10.7301270  45.4125960  10.5780020  10.7445810  44.4806920  10.3598930
  10.0226370  45.4985720  11.2169790  16.9412480  42.0533300   9.9248600
  16.2160670  42.6462080   9.7277990  17.4687940  42.0456840   9.1261970
  12.4712070  43.7793470   3.4232450  12.8235890  43.1821600   2.7633820
  11.5874400  43.4537700   3.5940700  10.1635170  47.0543530   7.6720520
  10.8077390  47.2602910   8.3493940  10.5264610  46.2931930   7.2191370
  11.4367250  45.0575880   6.3897970  12.0789480  44.3569040   6.5030140
  11.9616600  45.8374320   6.2094860  13.2104870  45.8570780   9.5934030
  13.5461110  46.4437470  10.2711950  12.2905210  45.7263490   9.8231820
   9.0393450  45.9062110  12.7622090   8.7190320  45.1871350  13.3067780
   8.3651810  46.5817180  12.8358150  12.2547050  36.1388270   8.1258890
  12.6227870  35.3183480   8.4538460  11.3945250  36.1990160   8.5414540
   9.2149040  38.7927860   8.3496860   9.7134290  39.2673680   9.0148710
   9.3571990  37.8691380   8.5566890  16.4215900  35.0095820   9.1925250
  15.9189500  35.7501220   9.5319060  17.2372560  35.3979820   8.8762040
  14.7137910  40.2529000   2.6386610  13.7728050  40.2679230   2.8134300
  15.0281980  39.4664960   3.0846910  16.7163490  47.4237850   4.3140870
  16.8410910  48.2469020   4.7864680  17.5829050  47.2128580   3.9665020
   4.1881020  49.5169060   3.9858000   4.9243500  48.9684520   4.2566570
   4.5721940  50.3825070   3.8463990   3.1939300  48.7015130  13.1743580
   3.9952030  49.0227180  13.5878980   2.6791120  48.3410710  13.8963490
  12.0303930  44.8095000  13.1218990  11.4242090  44.8326600  12.3814740
  11.7258040  44.0778040  13.6586240  13.4604300  48.5375290  11.7328400
  14.4126050  48.4533310  11.6828640  13.3132520  49.2017000  12.4062190
   7.9675050  42.5959580  11.6515150   7.2020720  43.1644580  11.5669820
   8.1491010  42.3035790  10.7583380  15.1098400  44.3264910  12.2090170
  15.8507870  44.6640670  11.7057630  14.3471080  44.4956970  11.6559940
   2.9460190  39.3318180  13.0129700   2.9865530  39.0332050  13.9214930
   3.8005690  39.7325790  12.8537220   4.8866000  37.9110280  10.9804190
   4.3562460  37.4201230  10.3527530   5.5554070  38.3394480  10.4462120
  13.7844060  42.3779740  10.7445380  14.1985080  42.5324820  11.5935800
  12.8495060  42.5034960  10.9071160  14.2566230  39.7175900  12.7484530
  14.8387000  38.9628220  12.6605010  14.4328000  40.2483340  11.9716010
   5.3738300  34.8772650  11.0601480   5.2795170  34.2593400  10.3352350
   4.7935690  35.6038940  10.8331390   8.1399740  33.4345890   8.0928870
   7.6917040  33.4570150   7.2474420   7.5064940  33.0364910   8.6899170
   8.5459290  42.3300220   8.7141310   8.9647400  43.1732950   8.5417550
   7.6267920  42.4672260   8.4848090  10.8823190  40.0616400  10.0979150
  11.0019400  39.4657540  10.8373990  11.7417190  40.0986090   9.6780450
  13.2211090  40.6153590   8.6741660  12.6946310  41.1396210   8.0706800
  13.5642430  41.2480980   9.3051390   6.3966710  48.6353230   9.8299040
   5.8587800  49.3599290   9.5107740   6.6500670  48.1583570   9.0396380
   7.6491960  36.6037750  11.3554970   8.2391650  36.2953600  12.0432790
   6.8312200  36.1317500  11.5114870  12.4685390  36.2203560  11.5887990
  11.7800910  35.5585100  11.5237980  13.1891410  35.7741830  12.0336450
   9.2528920  49.8704440  10.0885690   9.1787620  50.7739580  10.3958060
   8.3507760  49.5516340  10.0607760  16.7808600  47.5666620  10.4178250
  16.1810590  47.6259180   9.6742170  16.9102500  46.6271600  10.5475100
  18.4826480  42.9082020   3.1024090  18.8535310  42.1249340   2.6960060
  19.1228410  43.5971120   2.9241390  15.4660240  44.2918600   8.5154410
  14.6520080  44.7215760   8.7780200  15.8734440  44.9037010   7.9023460
   2.0146780  40.9622420   7.0293160   2.3819820  40.8749820   7.9089180
   1.4457600  40.1988970   6.9300020  16.8150640  39.4306800  10.0423630
  16.5836730  39.2019550   9.1421580  17.0755190  40.3506350   9.9968520
  15.2538710  34.6563230  12.8203330  16.1308890  34.6646630  13.2037330
  15.2659550  33.9194070  12.2095680  16.7001980  38.5092770   3.7091350
  17.2239460  38.0155420   3.0781520  17.2861400  38.6443130   4.4538920
  16.8791700  38.5932640   7.2310900  15.9294410  38.5596180   7.3455890
  17.0604710  39.5032750   6.9960670   2.0702490  32.1479840   5.2834800
   2.7178680  31.5977220   4.8429960   2.4904330  32.4022990   6.1050610
  17.6189110  36.4027070   2.1821440  17.5088390  36.2483110   3.1203710
  18.3796700  35.8748010   1.9396850  15.9654830  32.3421200   8.6404440
  16.6027050  32.9555340   9.0063630  16.1129720  32.3781860   7.6953670
   1.8234490  32.3035510   8.0260120   1.4749310  32.7599330   8.7918300
   1.4922190  31.4092640   8.1082550   3.4298860  45.4755110  12.1913310
   3.3868490  45.1048020  13.0727770   3.5609870  46.4132680  12.3315130
   7.1304890  47.0314700   7.7923030   6.8896250  47.2989260   6.9053550
   8.0707530  47.2020430   7.8473890   9.3359310  33.4947390  11.5479540
   9.2748200  34.0869220  12.2974950  10.2759690  33.3873350  11.4029800
  11.9733870  33.1517450  11.1871830  12.5874280  33.4696740  10.5252910
  12.5183430  32.6666040  11.8067690  18.3909050  49.0509080   8.5933670
  17.8967330  49.4477950   7.8760800  17.7822340  48.4258290   8.9870950
   2.4955130  31.8311710  11.3010890   3.0438120  31.6499760  10.5377000
   2.5610440  31.0405820  11.8367200   3.2686890  48.4217360   9.3111090
   2.6747210  48.2902060  10.0501130   3.2610730  47.5855500   8.8453190
  12.7141910  31.7149590   7.5141120  11.8401750  32.0484700   7.3114050
  12.6052660  31.2422770   8.3392990  13.6213890  33.9220460   8.8982840
  13.2927250  33.1072220   8.5184570  14.5696190  33.8790270   8.7748530
  16.0748500  49.6932500   5.8720410  15.6151470  50.4448310   5.4978430
  15.4460960  48.9738970   5.8135210   2.8999120  45.7875740   8.2619130
   2.1733180  45.1681030   8.1945080   2.9608270  46.1816350   7.3917210
   6.5044220  48.0020740   5.0468540   7.0209240  47.3908100   4.5216800
   7.1541600  48.5049520   5.5379550   9.2439720  48.8929230   5.8737520
   9.5317530  48.6383530   4.9970530   9.7562940  48.3406590   6.4643090
  10.4616730  32.6319430   6.4534030   9.6788520  33.1064930   6.7330790
  10.1679660  31.7274260   6.3447210  15.0137800  33.3342530   4.4983120
  15.4545890  33.2787630   3.6504720  14.7445390  34.2500540   4.5693300
  16.8776370  32.9657770   2.5091940  16.8164770  32.0218990   2.3622960
  17.6568400  33.0737860   3.0545400   8.3470950  35.0506180   1.9650060
   7.5345460  34.6763070   1.6245940   8.8512590  34.2951260   2.2671250
  12.8495930  31.7148630   3.2033130  13.4525300  32.2868840   3.6781650
  12.1088920  32.2788070   2.9807030   9.3112080  49.8145330  13.2405720
  10.2379390  49.5789600  13.2841680   9.2962510  50.6417330  12.7591750
   6.4975690  32.4790080  13.0047600   6.2159960  32.9823680  12.2408420
   6.8795390  31.6811830  12.6389730  13.0991150  31.8943660  13.5828070
  12.9856600  32.2138270  14.4779590  13.9160890  32.2956170  13.2865350
  15.8789640  49.0415190  13.0646760  16.6714960  48.5464420  12.8572720
  16.1722790  49.7205330  13.6722370  12.0049300  21.1392640  77.8180260
  11.9243350  20.2247250  77.5471970  11.5913720  21.6359710  77.1119970
  10.1367340  22.9171660  79.6989530   9.3609440  22.4372100  79.9888100
  10.7880270  22.2377310  79.5245690   4.1533170  23.2291470  80.5765290
   3.3218050  22.9740180  80.9761800   4.7614150  23.3002240  81.3123210
  14.1574770  27.3231850  78.4788660  13.6956300  26.5519090  78.8075830
  14.9700320  27.3497920  78.9841110   4.1334430  27.2631560  80.7723310
   4.4362470  26.3729300  80.5933530   4.8778020  27.8201780  80.5445560
   2.5625120  18.1893360  74.3607680   1.6741820  18.5309330  74.2587560
   2.8466310  17.9893680  73.4688510  10.3838080  29.6089860  78.0992650
   9.7649520  30.0647360  77.5287090  11.2389860  29.7641320  77.6982350
   9.5776330  25.5928850  79.7059690   9.5084610  24.6518790  79.5448820
  10.3396190  25.6830260  80.2782260  10.6081500  18.3999230  79.9328620
  10.9846320  17.5271110  79.8202290  10.5101010  18.7357930  79.0419060
   4.7386510  16.7724860  75.3946060   4.8453260  17.6728590  75.7014820
   3.8278870  16.7242830  75.1040710  14.3905620  15.8949670  76.8656960
  15.2115240  15.4046240  76.9082440  14.4239700  16.4847330  77.6188800
   2.3869670  18.6943870  80.6398650   3.0679780  18.9582240  81.2586050
   2.0717720  17.8544740  80.9736660   6.5794240  19.7411230  79.7271240
   7.0872460  20.2392200  80.3676260   7.1107480  18.9646430  79.5510600
  11.2501430  24.4929100  75.4924560  10.6318700  24.9578550  74.9287280
  11.7624680  25.1856580  75.9094070  14.6267100  17.8350050  79.6384500
  13.9222670  18.1234940  80.2187610  14.9879260  18.6450160  79.2784060
   4.5445670  16.0919750  82.0005110   4.8862480  16.9361800  81.7058980
   3.6061480  16.2403490  82.1170450  16.2429880  27.4525180  81.9011980
  15.5593400  28.1224290  81.8928650  16.7824170  27.6505830  81.1356840
  17.6954020  17.2804840  80.0293710  16.7478930  17.3143820  80.1609140
  18.0204010  18.0943790  80.4143070   8.2273560  13.5802020  78.3249700
   8.5348540  13.0248910  77.6085200   7.2974260  13.7146480  78.1422690
  13.7788620  29.2969310  80.6157160  13.7915780  28.8931600  79.7479420
  13.2263840  30.0716600  80.5118590  15.0734040  26.0185530  75.7047330
  14.9630370  25.0759860  75.8296750  15.0702290  26.3801170  76.5910090
  10.6154320  21.6450850  75.0609820   9.6883600  21.5788230  75.2898290
  10.7679140  22.5830980  74.9465060  10.6023400  17.9167850  72.0576980
   9.6627070  18.0781810  72.1429440  10.9206660  18.6353530  71.5112970
  17.1236160  22.5986370  82.0356010  16.2954790  22.6679460  81.5606140
  17.7186640  23.1840680  81.5671840  14.6451610  23.2071150  75.5645070
  14.0264030  22.8690700  74.9171370  14.6276060  22.5630910  76.2724260
   6.2210960  22.1715590  77.8429550   5.8167960  21.4592840  77.3475450
   6.3074080  21.8268830  78.7317590   6.6892660  25.8583150  80.0068760
   6.3920950  25.2528620  79.3276540   7.6392480  25.8960460  79.8958120
  12.8216310  22.4457960  72.5717820  13.2609590  21.6080390  72.4255640
  13.5344730  23.0787360  72.6581960  10.9311690  27.3854030  76.5399060
  11.3707600  28.1278360  76.1254450  10.8698580  27.6280600  77.4638020
  16.4033450  13.7000770  70.8858860  16.0906110  13.7927600  71.7857930
  17.1645920  14.2781800  70.8356290   2.9215590  21.0660570  75.3436200
   2.8013190  21.7922660  74.7317470   2.6116480  20.2963480  74.8664110
   1.8048590  25.9375900  77.5611020   1.3976670  26.0790490  76.7064620
   2.6961600  25.6536060  77.3582230  13.5981870  30.3723150  73.8962070
  13.4383010  30.0826090  74.7943900  13.4328580  29.5963280  73.3607300
   6.0770250  30.1521680  75.6733690   5.9012730  29.2357220  75.4601490
   5.2225990  30.5108970  75.9131490  13.3008000  27.8810710  72.4560070
  12.6073160  27.8788000  71.7962350  14.0430860  27.4570030  72.0254240
  12.8657930  29.5073420  76.5308560  13.3214880  28.7262800  76.8447180
  13.2050450  30.2180240  77.0749740   5.3879250  14.4095640  78.7259870
   4.9447400  15.1905180  78.3944390   5.9464240  14.7325530  79.4330810
   8.5038070  14.0306340  73.6065700   7.8792250  14.0266210  74.3319010
   8.4168190  13.1637300  73.2101670   7.4255150  14.9542970  80.5849470
   7.7227480  15.8605800  80.5041490   7.9740710  14.4661750  79.9709040
   5.1793470  19.5329210  76.4541120   4.9534390  19.3166380  77.3587740
   4.3986000  19.9657670  76.1087090  12.4091230  19.5392580  75.0531770
  11.8100120  20.2628380  74.8695390  12.9570840  19.4769360  74.2708220
  11.0156100  18.1756120  77.0835050  11.4085670  18.4928320  76.2703740
  11.3772950  17.2968000  77.1979570  11.6011240  20.7661870  81.1785830
  10.8692360  21.2748680  81.5275930  11.2035580  19.9491850  80.8774610
   8.0388630  17.4416070  79.5838320   8.0424690  17.0006020  78.7342860
   8.9339750  17.7633400  79.6910140   3.8891010  17.3242560  78.5432530
   3.5491060  17.8017790  79.2999580   3.1268330  16.8707680  78.1833630
   8.1008780  18.4428150  72.5745080   8.2221600  18.4014630  73.5230900
   7.7157290  19.3052300  72.4191810  12.0637150  16.2195550  80.5908770
  12.0809890  16.6704200  81.4350620  11.8152730  15.3201190  80.8042210
   7.1130280  20.7529290  71.9728380   6.5447180  20.3047540  71.3464290
   7.8219280  21.1122070  71.4393530   8.3396600  21.5017850  81.3303730
   8.7066730  21.0276420  82.0765070   8.1501660  22.3759420  81.6712070
   4.6577760  24.7487480  74.2454790   3.8840020  24.2085100  74.0853510
   5.3872390  24.2294090  73.9072550  15.4165740  23.7452840  80.0381180
  16.1364860  24.2408130  79.6477290  15.2147560  23.0670730  79.3935050
  10.8775680  15.1390800  74.1810570  10.0640290  14.6403970  74.1055880
  10.6837630  15.9789050  73.7646920  13.5924070  19.5110450  72.4772730
  14.4803690  19.8227680  72.3024070  13.5629160  18.6382700  72.0853310
   4.7015160  24.4167860  77.8833600   5.2193830  23.6136120  77.8290490
   4.2499180  24.3547000  78.7250430   9.5884660  25.6834140  73.1560900
   9.9300360  26.4276370  72.6604220   8.7597370  25.9965260  73.5185730
  15.8638340  20.8222290  71.9452590  15.7802060  21.2536510  71.0949030
  16.5832530  21.2820640  72.3779410  16.8925590  27.6764550  74.6734720
  16.2501750  27.0220170  74.9478440  16.5056250  28.0819640  73.8975390
  12.4712070  25.0049980  78.5206410  12.8235890  24.4078110  77.8607780
  11.5874400  24.6794210  78.6914660   8.5575350  25.7647670  75.9276820
   9.2446480  26.3116880  76.3084410   7.7707770  26.3088400  75.9626430
   7.8602560  22.7693700  75.5402180   8.3165340  23.5798950  75.7662370
   7.5090770  22.4516840  76.3720670   3.7614340  13.1131350  76.0124700
   3.6328970  13.1049250  76.9609620   2.9376360  13.4514440  75.6615710
  11.4367250  26.2832390  81.4871930  12.0789480  25.5825550  81.6004100
  11.9616600  27.0630830  81.3068820  15.2822970  26.5681010  71.2111070
  15.0560550  25.8511450  71.8035710  14.8919170  26.3193450  70.3732820
  14.8639220  24.4852950  72.8725230  14.5760920  24.9465640  73.6603110
  15.6591390  24.0250720  73.1409450   7.0807620  27.9779070  72.8029200
   7.0717720  28.7108760  72.1873710   6.1605980  27.7310650  72.8956160
   2.6814260  23.1993960  73.5475960   2.0742210  23.9392860  73.5571260
   3.1563610  23.2893320  72.7214160  15.6209080  16.3201720  74.0320410
  14.9922240  16.4247390  73.3178640  15.1261000  16.5398500  74.8214290
  10.0667220  28.0407310  71.4654390  10.1679200  27.8371300  70.5356370
   9.1668960  27.7865590  71.6702170   7.5893110  18.5987670  75.4478290
   6.8809260  19.0674010  75.8891900   7.8737590  17.9409680  76.0823480
  11.6208540  15.3238330  76.8874080  11.4976320  15.3424460  75.9383590
  12.5693100  15.3717270  77.0072480   8.7085330  30.5593630  76.1602060
   8.9626830  30.5215020  75.2381430   7.7597810  30.4326960  76.1530310
   5.7928130  16.9072750  72.8229000   6.6418660  17.3442900  72.7569190
   5.4259400  17.2193010  73.6501060  14.7137910  21.4785510  77.7360570
  13.7728050  21.4935740  77.9108260  15.0281980  20.6921470  78.1820870
   4.6919550  23.1605110  71.2964530   5.4582820  23.0486470  71.8589960
   4.7694240  22.4643080  70.6441300   3.3866310  20.5930180  71.9797420
   3.4669900  19.6457690  72.0914820   4.2786060  20.9237060  72.0858080
  16.7163490  28.6494360  79.4114830  16.8410910  29.4725530  79.8838640
  17.5829050  28.4385090  79.0638980   4.1881020  30.7425570  79.0831960
   4.9243500  30.1941030  79.3540530   4.5721940  31.6081580  78.9437950
   7.2983330  29.9155880  70.9057530   8.0911940  30.2044710  70.4539320
   6.7787680  29.4848050  70.2270010  16.3513500  29.1426010  72.3294270
  16.0655010  28.7291150  71.5148450  16.1533050  30.0713720  72.2094790
   7.8160730  25.1359290  70.7699880   7.7111370  24.5211640  71.4961260
   7.6484950  24.6125180  69.9862890  11.0563460  24.1979320  71.3741870
  10.5073560  24.6448620  72.0184610  11.6782720  23.6928570  71.8979540
   6.7238580  23.1570240  73.2707170   7.1455000  22.9910110  74.1138560
   6.8489420  22.3470470  72.7762310   9.2366220  22.1807850  70.5184270
   9.7571880  21.4656870  70.1525420   9.8834620  22.8193720  70.8184780
   5.6197480  19.2303470  70.2165330   5.4186540  18.3670830  70.5778670
   5.4489530  19.1436830  69.2786930  13.0985790  14.0411700  72.7452210
  13.3788080  13.1979600  73.1011630  12.3251520  14.2734810  73.2590960
   4.4180280  16.3304090  70.2043210   4.7206180  16.3371520  69.2962360
   5.1574870  15.9801950  70.7010870   7.6365210  15.2738710  71.1899410
   7.2887210  14.5962700  70.6101860   7.8377980  14.8128220  72.0042800
   9.8014250  30.2619460  72.8086010  10.6965040  30.6004430  72.8304770
   9.8331880  29.5398870  72.1810290   3.4410410  25.6346510  71.0373010
   3.8785280  26.1776180  71.6930590   3.9258140  24.8093460  71.0469350
   5.2518130  26.7544550  76.1495240   4.9513670  26.6309520  77.0499150
   5.1455620  25.8953140  75.7410970  18.0210050  26.5340950  70.8521920
  17.1903010  26.6017600  71.3229150  18.1981880  27.4245070  70.5488780
  17.4766510  23.2788430  73.3556120  18.2385420  23.8485080  73.4615810
  17.4920880  22.7115630  74.1264430  18.4826480  24.1338530  78.1998050
  18.8535310  23.3505850  77.7934020  19.1228410  24.8227630  78.0215350
  17.5285680  23.5722800  70.5128640  17.8034520  24.4801680  70.3847860
  17.3396420  23.5085330  71.4490630  13.9261290  16.5967650  71.8082270
  14.3446170  16.4098630  70.9678930  13.6197350  15.7446700  72.1185200
  17.4251020  21.5091790  75.5058070  17.0494620  20.7419720  75.0739360
  16.6954140  21.8914490  75.9933000  16.7001980  19.7349280  78.8065310
  17.2239460  19.2411930  78.1755480  17.2861400  19.8699640  79.5512880
   2.7336140  18.0690830  71.4383490   3.4427840  17.6474050  70.9530770
   2.0176080  18.1366060  70.8066840   2.3810300  14.1230160  70.4786140
   3.1038430  14.6639100  70.7967360   2.6534820  13.8493580  69.6027680
  16.1901950  18.9922630  74.7457720  16.6861070  18.7593500  75.5306600
  15.9918020  18.1534470  74.3295360   2.0702490  13.3736350  80.3808760
   2.7178680  12.8233730  79.9403920   2.4904330  13.6279500  81.2024570
  17.6189110  17.6283580  77.2795400  17.5088390  17.4739620  78.2177670
  18.3796700  17.1004520  77.0370810  18.5079380  15.4591500  70.5201540
  19.4328690  15.3272680  70.3119830  18.4855170  15.5384320  71.4737990
  18.5817870  16.2302160  73.1458250  17.7869370  16.1647280  73.6751160
  18.7861150  17.1652800  73.1343600  15.5236290  30.2693710  77.1396640
  16.1195360  29.9478280  76.4631060  15.7814440  29.7965530  77.9309910
  16.0748500  30.9189010  80.9694370  15.6151470  31.6704820  80.5952390
  15.4460960  30.1995480  80.9109170   6.5044220  29.2277250  80.1442500
   7.0209240  28.6164610  79.6190760   7.1541600  29.7306030  80.6353510
   9.2439720  30.1185740  80.9711480   9.5317530  29.8640040  80.0944490
   9.7562940  29.5663100  81.5617050  10.4616730  13.8575940  81.5507990
   9.6788520  14.3321440  81.8304750  10.1679660  12.9530770  81.4421170
  15.0137800  14.5599040  79.5957080  15.4545890  14.5044140  78.7478680
  14.7445390  15.4757050  79.6667260  16.8776370  14.1914280  77.6065900
  16.8164770  13.2475500  77.4596920  17.6568400  14.2994370  78.1519360
   1.8057140  14.1623420  74.0721710   2.5636500  14.2752300  73.4985740
   1.3434310  14.9992620  74.0265140   8.3470950  16.2762690  77.0624020
   7.5345460  15.9019580  76.7219900   8.8512590  15.5207770  77.3645210
  12.8495930  12.9405140  78.3007090  13.4525300  13.5125350  78.7755610
  12.1088920  13.5044580  78.0780990  15.9930530  13.3426700  73.5747370
  16.1881160  14.2410150  73.8414800  15.2060400  13.1113780  74.0680320
   2.7891820  29.0239870  74.0139990   2.2639440  29.4047900  73.3101950
   2.7136400  29.6490640  74.7349700   4.1782290  14.6887470  72.6123680
   4.7075050  13.9017270  72.4831630   4.8110610  15.3678660  72.8459210
   6.3720130  14.4262610  75.6669070   5.7422870  13.7249920  75.8339200
   5.8325270  15.1866740  75.4502230  17.5457140  30.5827410  75.3353930
  17.7209330  29.8965150  74.6914850  16.8478710  31.1074460  74.9430600
   5.3884790  30.9722250  72.8889240   6.1203610  30.6881530  72.3413130
   5.6478460  30.7335530  73.7788620   4.5499580  27.0886980  72.8935570
   3.9208460  27.5572080  73.4421400   4.6647410  26.2436200  73.3281760
  12.0049300  21.1392640  59.0436770  11.9243350  20.2247250  58.7728480
  11.5913720  21.6359710  58.3376480  10.1367340  22.9171660  60.9246040
   9.3609440  22.4372100  61.2144610  10.7880270  22.2377310  60.7502200
   4.1533170  23.2291470  61.8021800   3.3218050  22.9740180  62.2018310
   4.7614150  23.3002240  62.5379720  14.1574770  27.3231850  59.7045170
  13.6956300  26.5519090  60.0332340  14.9700320  27.3497920  60.2097620
   4.1334430  27.2631560  61.9979820   4.4362470  26.3729300  61.8190040
   4.8778020  27.8201780  61.7702070   2.5625120  18.1893360  55.5864190
   1.6741820  18.5309330  55.4844070   2.8466310  17.9893680  54.6945020
  10.3838080  29.6089860  59.3249160   9.7649520  30.0647360  58.7543600
  11.2389860  29.7641320  58.9238860   9.5776330  25.5928850  60.9316200
   9.5084610  24.6518790  60.7705330  10.3396190  25.6830260  61.5038770
   1.7683000  16.1983370  63.2572820   1.5885840  15.3009120  63.5375580
   1.3663080  16.7455240  63.9319770  10.6081500  18.3999230  61.1585130
  10.9846320  17.5271110  61.0458800  10.5101010  18.7357930  60.2675570
   4.7386510  16.7724860  56.6202570   4.8453260  17.6728590  56.9271330
   3.8278870  16.7242830  56.3297220  14.3905620  15.8949670  58.0913470
  15.2115240  15.4046240  58.1338950  14.4239700  16.4847330  58.8445310
   2.3869670  18.6943870  61.8655160   3.0679780  18.9582240  62.4842560
   2.0717720  17.8544740  62.1993170   6.5794240  19.7411230  60.9527750
   7.0872460  20.2392200  61.5932770   7.1107480  18.9646430  60.7767110
  18.6805170  17.9116420  64.6557100  17.9757340  18.2998130  64.1372210
  18.9463090  18.6066710  65.2578030   4.8630340  14.3809790  65.2191170
   4.8648780  14.8982180  64.4137070   4.0334650  13.9039970  65.1961100
  11.2501430  24.4929100  56.7181070  10.6318700  24.9578550  56.1543790
  11.7624680  25.1856580  57.1350580   6.1133190  24.0204970  63.3964670
   5.7802570  24.6473890  64.0385740   6.2899870  24.5466850  62.6166340
  14.6267100  17.8350050  60.8641010  13.9222670  18.1234940  61.4444120
  14.9879260  18.6450160  60.5040570   4.5445670  16.0919750  63.2261620
   4.8862480  16.9361800  62.9315490   3.6061480  16.2403490  63.3426960
   5.3252290  25.9885770  65.2113850   5.9426290  26.6636850  64.9298300
   4.4645410  26.3973750  65.1201350  16.2429880  27.4525180  63.1268490
  15.5593400  28.1224290  63.1185160  16.7824170  27.6505830  62.3613350
  17.6954020  17.2804840  61.2550220  16.7478930  17.3143820  61.3865650
  18.0204010  18.0943790  61.6399580   8.2273560  13.5802020  59.5506210
   8.5348540  13.0248910  58.8341710   7.2974260  13.7146480  59.3679200
  13.7788620  29.2969310  61.8413670  13.7915780  28.8931600  60.9735930
  13.2263840  30.0716600  61.7375100  15.0734040  26.0185530  56.9303840
  14.9630370  25.0759860  57.0553260  15.0702290  26.3801170  57.8166600
  13.1774060  24.1999150  63.1696280  13.5942850  23.9859260  62.3349740
  13.9013880  24.4571940  63.7404900  10.6154320  21.6450850  56.2866330
   9.6883600  21.5788230  56.5154800  10.7679140  22.5830980  56.1721570
  10.6023400  17.9167850  53.2833490   9.6627070  18.0781810  53.3685950
  10.9206660  18.6353530  52.7369480  17.1236160  22.5986370  63.2612520
  16.2954790  22.6679460  62.7862650  17.7186640  23.1840680  62.7928350
  14.6451610  23.2071150  56.7901580  14.0264030  22.8690700  56.1427880
  14.6276060  22.5630910  57.4980770  14.0878170  19.3855690  64.2067390
  13.6749350  20.2109400  64.4607380  13.3554120  18.8000730  64.0143750
   6.2210960  22.1715590  59.0686060   5.8167960  21.4592840  58.5731960
   6.3074080  21.8268830  59.9574100   6.6892660  25.8583150  61.2325270
   6.3920950  25.2528620  60.5533050   7.6392480  25.8960460  61.1214630
   4.9339580  18.9458800  62.8485100   5.4854170  19.0554140  62.0738350
   5.4483090  19.3196400  63.5640330  14.7778270  29.4315020  64.8948370
  14.3008830  30.2387210  64.7020980  14.0940060  28.7793350  65.0474580
   5.7811090  25.5964840  67.8833070   4.8839620  25.8204810  68.1306470
   5.8063960  25.7199780  66.9344470  12.8216310  22.4457960  53.7974330
  13.2609590  21.6080390  53.6512150  13.5344730  23.0787360  53.8838470
   4.6082310  22.4678160  66.4590440   4.4690080  23.3400960  66.8277840
   3.7263670  22.1250970  66.3138380  10.9311690  27.3854030  57.7655570
  11.3707600  28.1278360  57.3510960  10.8698580  27.6280600  58.6894530
   6.4062660  28.4099860  68.6675590   6.3778090  28.8142810  67.8004020
   6.2427630  27.4810220  68.5047190  16.4033450  13.7000770  52.1115370
  16.0906110  13.7927600  53.0114440  17.1645920  14.2781800  52.0612800
   2.9215590  21.0660570  56.5692710   2.8013190  21.7922660  55.9573980
   2.6116480  20.2963480  56.0920620  18.3577480  29.1926960  69.9639760
  18.8337200  29.6709850  70.6428840  18.9784640  29.1244450  69.2385260
   1.8048590  25.9375900  58.7867530   1.3976670  26.0790490  57.9321130
   2.6961600  25.6536060  58.5838740  17.7610730  26.3839810  67.1239770
  17.8873790  26.1451690  66.2056950  17.8032110  25.5524350  67.5961850
  11.6227470  30.0867810  65.6934580  12.1372140  29.9975820  66.4957010
  10.7796550  30.4327510  65.9862490  13.5981870  30.3723150  55.1218580
  13.4383010  30.0826090  56.0200410  13.4328580  29.5963280  54.5863810
   6.0770250  30.1521680  56.8990200   5.9012730  29.2357220  56.6858000
   5.2225990  30.5108970  57.1388000  13.3008000  27.8810710  53.6816580
  12.6073160  27.8788000  53.0218860  14.0430860  27.4570030  53.2510750
  12.8657930  29.5073420  57.7565070  13.3214880  28.7262800  58.0703690
  13.2050450  30.2180240  58.3006250  17.6134740  18.4372270  68.0889510
  16.9979010  18.9451940  67.5604970  17.2931160  17.5370600  68.0315450
   5.3879250  14.4095640  59.9516380   4.9447400  15.1905180  59.6200900
   5.9464240  14.7325530  60.6587320   9.6749060  17.2764160  65.5551700
   9.2128430  17.4847180  66.3671640   9.2727170  16.4623510  65.2522370
  14.6753570  18.4973110  66.6848360  13.8247160  18.1978860  67.0057430
  14.5155360  18.7415120  65.7732180  11.7703280  19.9974860  68.7847150
  12.0956690  19.1638610  68.4449380  12.5583610  20.5203380  68.9325480
   8.5038070  14.0306340  54.8322210   7.8792250  14.0266210  55.5575520
   8.4168190  13.1637300  54.4358180   7.4255150  14.9542970  61.8105980
   7.7227480  15.8605800  61.7298000   7.9740710  14.4661750  61.1965550
   5.1793470  19.5329210  57.6797630   4.9534390  19.3166380  58.5844250
   4.3986000  19.9657670  57.3343600  12.4091230  19.5392580  56.2788280
  11.8100120  20.2628380  56.0951900  12.9570840  19.4769360  55.4964730
   7.6192680  20.4314790  68.3457900   7.5236280  19.4909520  68.1958300
   8.4624660  20.6529860  67.9505970  11.0156100  18.1756120  58.3091560
  11.4085670  18.4928320  57.4960250  11.3772950  17.2968000  58.4236080
   2.7503220  16.8428460  66.4991680   2.3566610  17.6903670  66.7064460
   2.0621620  16.2054830  66.6900320   9.3248270  16.9263430  69.5688420
   8.6346590  16.7335630  70.2034510  10.0680570  17.2098070  70.1012720
  11.6011240  20.7661870  62.4042340  10.8692360  21.2748680  62.7532440
  11.2035580  19.9491850  62.1031120   8.0388630  17.4416070  60.8094830
   8.0424690  17.0006020  59.9599370   8.9339750  17.7633400  60.9166650
   3.8891010  17.3242560  59.7689040   3.5491060  17.8017790  60.5256090
   3.1268330  16.8707680  59.4090140   8.1008780  18.4428150  53.8001590
   8.2221600  18.4014630  54.7487410   7.7157290  19.3052300  53.6448320
  12.0637150  16.2195550  61.8165280  12.0809890  16.6704200  62.6607130
  11.8152730  15.3201190  62.0298720   7.1130280  20.7529290  53.1984890
   6.5447180  20.3047540  52.5720800   7.8219280  21.1122070  52.6650040
  15.4907900  13.6327730  67.6551660  15.8153670  12.9017390  68.1809640
  15.5264410  13.3141370  66.7532650   2.1899460  24.6541310  67.0751620
   1.8054250  24.0134980  67.6734580   2.5011650  25.3577430  67.6446350
   8.3396600  21.5017850  62.5560240   8.7066730  21.0276420  63.3021580
   8.1501660  22.3759420  62.8968580   6.1295970  20.5426490  64.8744450
   5.8253040  21.4218470  65.0994810   7.0842430  20.6026280  64.9101890
   4.6577760  24.7487480  55.4711300   3.8840020  24.2085100  55.3110020
   5.3872390  24.2294090  55.1329060  15.4165740  23.7452840  61.2637690
  16.1364860  24.2408130  60.8733800  15.2147560  23.0670730  60.6191560
  10.8775680  15.1390800  55.4067080  10.0640290  14.6403970  55.3312390
  10.6837630  15.9789050  54.9903430  10.7984540  23.8161900  67.1506690
  10.7321850  22.8957570  66.8964280  10.1689680  23.9137340  67.8651330
  13.5924070  19.5110450  53.7029240  14.4803690  19.8227680  53.5280580
  13.5629160  18.6382700  53.3109820   4.7015160  24.4167860  59.1090110
   5.2193830  23.6136120  59.0547000   4.2499180  24.3547000  59.9506940
   9.5884660  25.6834140  54.3817410   9.9300360  26.4276370  53.8860730
   8.7597370  25.9965260  54.7442240   2.1859700  21.3829230  66.0215810
   1.8274640  22.0483080  66.6089150   1.8914260  20.5512780  66.3928430
   5.3872820  21.8413470  68.9055360   5.0872960  21.9870650  68.0083180
   6.1584060  21.2818760  68.8128750  10.7301270  26.6382470  66.9010490
  10.7445810  25.7063430  66.6829400  10.0226370  26.7242230  67.5400260
  15.8638340  20.8222290  53.1709100  15.7802060  21.2536510  52.3205540
  16.5832530  21.2820640  53.6035920  16.9412480  23.2789810  66.2479070
  16.2160670  23.8718590  66.0508460  17.4687940  23.2713350  65.4492440
  16.8925590  27.6764550  55.8991230  16.2501750  27.0220170  56.1734950
  16.5056250  28.0819640  55.1231900  12.4712070  25.0049980  59.7462920
  12.8235890  24.4078110  59.0864290  11.5874400  24.6794210  59.9171170
   8.5575350  25.7647670  57.1533330   9.2446480  26.3116880  57.5340920
   7.7707770  26.3088400  57.1882940   7.8602560  22.7693700  56.7658690
   8.3165340  23.5798950  56.9918880   7.5090770  22.4516840  57.5977180
  10.1635170  28.2800040  63.9950990  10.8077390  28.4859420  64.6724410
  10.5264610  27.5188440  63.5421840   3.7614340  13.1131350  57.2381210
   3.6328970  13.1049250  58.1866130   2.9376360  13.4514440  56.8872220
  11.4367250  26.2832390  62.7128440  12.0789480  25.5825550  62.8260610
  11.9616600  27.0630830  62.5325330  15.2822970  26.5681010  52.4367580
  15.0560550  25.8511450  53.0292220  14.8919170  26.3193450  51.5989330
  13.2104870  27.0827290  65.9164500  13.5461110  27.6693980  66.5942420
  12.2905210  26.9520000  66.1462290  14.8639220  24.4852950  54.0981740
  14.5760920  24.9465640  54.8859620  15.6591390  24.0250720  54.3665960
   9.0393450  27.1318620  69.0852560   8.7190320  26.4127860  69.6298250
   8.3651810  27.8073690  69.1588620   7.0807620  27.9779070  54.0285710
   7.0717720  28.7108760  53.4130220   6.1605980  27.7310650  54.1212670
   2.6814260  23.1993960  54.7732470   2.0742210  23.9392860  54.7827770
   3.1563610  23.2893320  53.9470670  12.2547050  17.3644780  64.4489360
  12.6227870  16.5439990  64.7768930  11.3945250  17.4246670  64.8645010
  15.6209080  16.3201720  55.2576920  14.9922240  16.4247390  54.5435150
  15.1261000  16.5398500  56.0470800  10.0667220  28.0407310  52.6910900
  10.1679200  27.8371300  51.7612880   9.1668960  27.7865590  52.8958680
   7.5893110  18.5987670  56.6734800   6.8809260  19.0674010  57.1148410
   7.8737590  17.9409680  57.3079990   9.2149040  20.0184370  64.6727330
   9.7134290  20.4930190  65.3379180   9.3571990  19.0947890  64.8797360
  11.6208540  15.3238330  58.1130590  11.4976320  15.3424460  57.1640100
  12.5693100  15.3717270  58.2328990   8.7085330  30.5593630  57.3858570
   8.9626830  30.5215020  56.4637940   7.7597810  30.4326960  57.3786820
   5.7928130  16.9072750  54.0485510   6.6418660  17.3442900  53.9825700
   5.4259400  17.2193010  54.8757570  16.4215900  16.2352330  65.5155720
  15.9189500  16.9757730  65.8549530  17.2372560  16.6236330  65.1992510
  14.7137910  21.4785510  58.9617080  13.7728050  21.4935740  59.1364770
  15.0281980  20.6921470  59.4077380   4.6919550  23.1605110  52.5221040
   5.4582820  23.0486470  53.0846470   4.7694240  22.4643080  51.8697810
   3.3866310  20.5930180  53.2053930   3.4669900  19.6457690  53.3171330
   4.2786060  20.9237060  53.3114590  16.7163490  28.6494360  60.6371340
  16.8410910  29.4725530  61.1095150  17.5829050  28.4385090  60.2895490
   4.1881020  30.7425570  60.3088470   4.9243500  30.1941030  60.5797040
   4.5721940  31.6081580  60.1694460   3.1939300  29.9271640  69.4974050
   3.9952030  30.2483690  69.9109450   2.6791120  29.5667220  70.2193960
   7.2983330  29.9155880  52.1314040   8.0911940  30.2044710  51.6795830
   6.7787680  29.4848050  51.4526520  12.0303930  26.0351510  69.4449460
  11.4242090  26.0583110  68.7045210  11.7258040  25.3034550  69.9816710
  13.4604300  29.7631800  68.0558870  14.4126050  29.6789820  68.0059110
  13.3132520  30.4273510  68.7292660  16.3513500  29.1426010  53.5550780
  16.0655010  28.7291150  52.7404960  16.1533050  30.0713720  53.4351300
   7.8160730  25.1359290  51.9956390   7.7111370  24.5211640  52.7217770
   7.6484950  24.6125180  51.2119400   7.9675050  23.8216090  67.9745620
   7.2020720  24.3901090  67.8900290   8.1491010  23.5292300  67.0813850
  11.0563460  24.1979320  52.5998380  10.5073560  24.6448620  53.2441120
  11.6782720  23.6928570  53.1236050  15.1098400  25.5521420  68.5320640
  15.8507870  25.8897180  68.0288100  14.3471080  25.7213480  67.9790410
   2.9460190  20.5574690  69.3360170   2.9865530  20.2588560  70.2445400
   3.8005690  20.9582300  69.1767690   6.7238580  23.1570240  54.4963680
   7.1455000  22.9910110  55.3395070   6.8489420  22.3470470  54.0018820
   4.8866000  19.1366790  67.3034660   4.3562460  18.6457740  66.6758000
   5.5554070  19.5650990  66.7692590   9.2366220  22.1807850  51.7440780
   9.7571880  21.4656870  51.3781930   9.8834620  22.8193720  52.0441290
  13.7844060  23.6036250  67.0675850  14.1985080  23.7581330  67.9166270
  12.8495060  23.7291470  67.2301630  14.2566230  20.9432410  69.0715000
  14.8387000  20.1884730  68.9835480  14.4328000  21.4739850  68.2946480
   5.3738300  16.1029160  67.3831950   5.2795170  15.4849910  66.6582820
   4.7935690  16.8295450  67.1561860   8.1399740  14.6602400  64.4159340
   7.6917040  14.6826660  63.5704890   7.5064940  14.2621420  65.0129640
   8.5459290  23.5556730  65.0371780   8.9647400  24.3989460  64.8648020
   7.6267920  23.6928770  64.8078560  10.8823190  21.2872910  66.4209620
  11.0019400  20.6914050  67.1604460  11.7417190  21.3242600  66.0010920
  13.2211090  21.8410100  64.9972130  12.6946310  22.3652720  64.3937270
  13.5642430  22.4737490  65.6281860   5.6197480  19.2303470  51.4421840
   5.4186540  18.3670830  51.8035180   5.4489530  19.1436830  50.5043440
   6.3966710  29.8609740  66.1529510   5.8587800  30.5855800  65.8338210
   6.6500670  29.3840080  65.3626850   7.6491960  17.8294260  67.6785440
   8.2391650  17.5210110  68.3663260   6.8312200  17.3574010  67.8345340
  12.4685390  17.4460070  67.9118460  11.7800910  16.7841610  67.8468450
  13.1891410  16.9998340  68.3566920  13.0985790  14.0411700  53.9708720
  13.3788080  13.1979600  54.3268140  12.3251520  14.2734810  54.4847470
   4.4180280  16.3304090  51.4299720   4.7206180  16.3371520  50.5218870
   5.1574870  15.9801950  51.9267380   9.2528920  31.0960950  66.4116160
   9.1787620  31.9996090  66.7188530   8.3507760  30.7772850  66.3838230
   7.6365210  15.2738710  52.4155920   7.2887210  14.5962700  51.8358370
   7.8377980  14.8128220  53.2299310   9.8014250  30.2619460  54.0342520
  10.6965040  30.6004430  54.0561280   9.8331880  29.5398870  53.4066800
   3.4410410  25.6346510  52.2629520   3.8785280  26.1776180  52.9187100
   3.9258140  24.8093460  52.2725860   5.2518130  26.7544550  57.3751750
   4.9513670  26.6309520  58.2755660   5.1455620  25.8953140  56.9667480
  16.7808600  28.7923130  66.7408720  16.1810590  28.8515690  65.9972640
  16.9102500  27.8528110  66.8705570  18.0210050  26.5340950  52.0778430
  17.1903010  26.6017600  52.5485660  18.1981880  27.4245070  51.7745290
  17.4766510  23.2788430  54.5812630  18.2385420  23.8485080  54.6872320
  17.4920880  22.7115630  55.3520940  18.4826480  24.1338530  59.4254560
  18.8535310  23.3505850  59.0190530  19.1228410  24.8227630  59.2471860
  15.4660240  25.5175110  64.8384880  14.6520080  25.9472270  65.1010670
  15.8734440  26.1293520  64.2253930  17.5285680  23.5722800  51.7385150
  17.8034520  24.4801680  51.6104370  17.3396420  23.5085330  52.6747140
  13.9261290  16.5967650  53.0338780  14.3446170  16.4098630  52.1935440
  13.6197350  15.7446700  53.3441710  17.4251020  21.5091790  56.7314580
  17.0494620  20.7419720  56.2995870  16.6954140  21.8914490  57.2189510
   2.0146780  22.1878930  63.3523630   2.3819820  22.1006330  64.2319650
   1.4457600  21.4245480  63.2530490  16.8150640  20.6563310  66.3654100
  16.5836730  20.4276060  65.4652050  17.0755190  21.5762860  66.3198990
  15.2538710  15.8819740  69.1433800  16.1308890  15.8903140  69.5267800
  15.2659550  15.1450580  68.5326150  16.7001980  19.7349280  60.0321820
  17.2239460  19.2411930  59.4011990  17.2861400  19.8699640  60.7769390
  16.8791700  19.8189150  63.5541370  15.9294410  19.7852690  63.6686360
  17.0604710  20.7289260  63.3191140   2.7336140  18.0690830  52.6640000
   3.4427840  17.6474050  52.1787280   2.0176080  18.1366060  52.0323350
   2.3810300  14.1230160  51.7042650   3.1038430  14.6639100  52.0223870
   2.6534820  13.8493580  50.8284190  16.1901950  18.9922630  55.9714230
  16.6861070  18.7593500  56.7563110  15.9918020  18.1534470  55.5551870
   2.0702490  13.3736350  61.6065270   2.7178680  12.8233730  61.1660430
   2.4904330  13.6279500  62.4281080  17.6189110  17.6283580  58.5051910
  17.5088390  17.4739620  59.4434180  18.3796700  17.1004520  58.2627320
  15.9654830  13.5677710  64.9634910  16.6027050  14.1811850  65.3294100
  16.1129720  13.6038370  64.0184140  18.5079380  15.4591500  51.7458050
  19.4328690  15.3272680  51.5376340  18.4855170  15.5384320  52.6994500
  18.5817870  16.2302160  54.3714760  17.7869370  16.1647280  54.9007670
  18.7861150  17.1652800  54.3600110  15.5236290  30.2693710  58.3653150
  16.1195360  29.9478280  57.6887570  15.7814440  29.7965530  59.1566420
   1.8234490  13.5292020  64.3490590   1.4749310  13.9855840  65.1148770
   1.4922190  12.6349150  64.4313020   3.4298860  26.7011620  68.5143780
   3.3868490  26.3304530  69.3958240   3.5609870  27.6389190  68.6545600
   7.1304890  28.2571210  64.1153500   6.8896250  28.5245770  63.2284020
   8.0707530  28.4276940  64.1704360   9.3359310  14.7203900  67.8710010
   9.2748200  15.3125730  68.6205420  10.2759690  14.6129860  67.7260270
  11.9733870  14.3773960  67.5102300  12.5874280  14.6953250  66.8483380
  12.5183430  13.8922550  68.1298160  18.3909050  30.2765590  64.9164140
  17.8967330  30.6734460  64.1991270  17.7822340  29.6514800  65.3101420
   2.4955130  13.0568220  67.6241360   3.0438120  12.8756270  66.8607470
   2.5610440  12.2662330  68.1597670   3.2686890  29.6473870  65.6341560
   2.6747210  29.5158570  66.3731600   3.2610730  28.8112010  65.1683660
  12.7141910  12.9406100  63.8371590  11.8401750  13.2741210  63.6344520
  12.6052660  12.4679280  64.6623460  13.6213890  15.1476970  65.2213310
  13.2927250  14.3328730  64.8415040  14.5696190  15.1046780  65.0979000
  16.0748500  30.9189010  62.1950880  15.6151470  31.6704820  61.8208900
  15.4460960  30.1995480  62.1365680   2.8999120  27.0132250  64.5849600
   2.1733180  26.3937540  64.5175550   2.9608270  27.4072860  63.7147680
   6.5044220  29.2277250  61.3699010   7.0209240  28.6164610  60.8447270
   7.1541600  29.7306030  61.8610020   9.2439720  30.1185740  62.1967990
   9.5317530  29.8640040  61.3201000   9.7562940  29.5663100  62.7873560
  10.4616730  13.8575940  62.7764500   9.6788520  14.3321440  63.0561260
  10.1679660  12.9530770  62.6677680  15.0137800  14.5599040  60.8213590
  15.4545890  14.5044140  59.9735190  14.7445390  15.4757050  60.8923770
  16.8776370  14.1914280  58.8322410  16.8164770  13.2475500  58.6853430
  17.6568400  14.2994370  59.3775870   1.8057140  14.1623420  55.2978220
   2.5636500  14.2752300  54.7242250   1.3434310  14.9992620  55.2521650
   8.3470950  16.2762690  58.2880530   7.5345460  15.9019580  57.9476410
   8.8512590  15.5207770  58.5901720  12.8495930  12.9405140  59.5263600
  13.4525300  13.5125350  60.0012120  12.1088920  13.5044580  59.3037500
  15.9930530  13.3426700  54.8003880  16.1881160  14.2410150  55.0671310
  15.2060400  13.1113780  55.2936830   2.7891820  29.0239870  55.2396500
   2.2639440  29.4047900  54.5358460   2.7136400  29.6490640  55.9606210
   4.1782290  14.6887470  53.8380190   4.7075050  13.9017270  53.7088140
   4.8110610  15.3678660  54.0715720   6.3720130  14.4262610  56.8925580
   5.7422870  13.7249920  57.0595710   5.8325270  15.1866740  56.6758740
   9.3112080  31.0401840  69.5636190  10.2379390  30.8046110  69.6072150
   9.2962510  31.8673840  69.0822220  17.5457140  30.5827410  56.5610440
  17.7209330  29.8965150  55.9171360  16.8478710  31.1074460  56.1687110
   6.4975690  13.7046590  69.3278070   6.2159960  14.2080190  68.5638890
   6.8795390  12.9068340  68.9620200   5.3884790  30.9722250  54.1145750
   6.1203610  30.6881530  53.5669640   5.6478460  30.7335530  55.0045130
   4.5499580  27.0886980  54.1192080   3.9208460  27.5572080  54.6677910
   4.6647410  26.2436200  54.5538270  13.0991150  13.1200170  69.9058540
  12.9856600  13.4394780  70.8010060  13.9160890  13.5212680  69.6095820
  15.8789640  30.2671700  69.3877230  16.6714960  29.7720930  69.1803190
  16.1722790  30.9461840  69.9952840  12.0049300  21.1392640  40.2693280
  11.9243350  20.2247250  39.9984990  11.5913720  21.6359710  39.5632990
  10.1367340  22.9171660  42.1502550   9.3609440  22.4372100  42.4401120
  10.7880270  22.2377310  41.9758710   4.1533170  23.2291470  43.0278310
   3.3218050  22.9740180  43.4274820   4.7614150  23.3002240  43.7636230
  14.1574770  27.3231850  40.9301680  13.6956300  26.5519090  41.2588850
  14.9700320  27.3497920  41.4354130   4.1334430  27.2631560  43.2236330
   4.4362470  26.3729300  43.0446550   4.8778020  27.8201780  42.9958580
   2.5625120  18.1893360  36.8120700   1.6741820  18.5309330  36.7100580
   2.8466310  17.9893680  35.9201530  10.3838080  29.6089860  40.5505670
   9.7649520  30.0647360  39.9800110  11.2389860  29.7641320  40.1495370
   9.5776330  25.5928850  42.1572710   9.5084610  24.6518790  41.9961840
  10.3396190  25.6830260  42.7295280   1.7683000  16.1983370  44.4829330
   1.5885840  15.3009120  44.7632090   1.3663080  16.7455240  45.1576280
  10.6081500  18.3999230  42.3841640  10.9846320  17.5271110  42.2715310
  10.5101010  18.7357930  41.4932080   4.7386510  16.7724860  37.8459080
   4.8453260  17.6728590  38.1527840   3.8278870  16.7242830  37.5553730
  14.3905620  15.8949670  39.3169980  15.2115240  15.4046240  39.3595460
  14.4239700  16.4847330  40.0701820   2.3869670  18.6943870  43.0911670
   3.0679780  18.9582240  43.7099070   2.0717720  17.8544740  43.4249680
   6.5794240  19.7411230  42.1784260   7.0872460  20.2392200  42.8189280
   7.1107480  18.9646430  42.0023620  18.6805170  17.9116420  45.8813610
  17.9757340  18.2998130  45.3628720  18.9463090  18.6066710  46.4834540
   4.8630340  14.3809790  46.4447680   4.8648780  14.8982180  45.6393580
   4.0334650  13.9039970  46.4217610  11.2501430  24.4929100  37.9437580
  10.6318700  24.9578550  37.3800300  11.7624680  25.1856580  38.3607090
   6.1133190  24.0204970  44.6221180   5.7802570  24.6473890  45.2642250
   6.2899870  24.5466850  43.8422850  14.6267100  17.8350050  42.0897520
  13.9222670  18.1234940  42.6700630  14.9879260  18.6450160  41.7297080
   4.5445670  16.0919750  44.4518130   4.8862480  16.9361800  44.1572000
   3.6061480  16.2403490  44.5683470   5.3252290  25.9885770  46.4370360
   5.9426290  26.6636850  46.1554810   4.4645410  26.3973750  46.3457860
  16.2429880  27.4525180  44.3525000  15.5593400  28.1224290  44.3441670
  16.7824170  27.6505830  43.5869860  17.6954020  17.2804840  42.4806730
  16.7478930  17.3143820  42.6122160  18.0204010  18.0943790  42.8656090
   8.2273560  13.5802020  40.7762720   8.5348540  13.0248910  40.0598220
   7.2974260  13.7146480  40.5935710  13.7788620  29.2969310  43.0670180
  13.7915780  28.8931600  42.1992440  13.2263840  30.0716600  42.9631610
  15.0734040  26.0185530  38.1560350  14.9630370  25.0759860  38.2809770
  15.0702290  26.3801170  39.0423110  13.1774060  24.1999150  44.3952790
  13.5942850  23.9859260  43.5606250  13.9013880  24.4571940  44.9661410
  10.6154320  21.6450850  37.5122840   9.6883600  21.5788230  37.7411310
  10.7679140  22.5830980  37.3978080  10.6023400  17.9167850  34.5090000
   9.6627070  18.0781810  34.5942460  10.9206660  18.6353530  33.9625990
  17.1236160  22.5986370  44.4869030  16.2954790  22.6679460  44.0119160
  17.7186640  23.1840680  44.0184860  14.6451610  23.2071150  38.0158090
  14.0264030  22.8690700  37.3684390  14.6276060  22.5630910  38.7237280
  14.0878170  19.3855690  45.4323900  13.6749350  20.2109400  45.6863890
  13.3554120  18.8000730  45.2400260   6.2210960  22.1715590  40.2942570
   5.8167960  21.4592840  39.7988470   6.3074080  21.8268830  41.1830610
   6.6892660  25.8583150  42.4581780   6.3920950  25.2528620  41.7789560
   7.6392480  25.8960460  42.3471140   4.9339580  18.9458800  44.0741610
   5.4854170  19.0554140  43.2994860   5.4483090  19.3196400  44.7896840
  14.7778270  29.4315020  46.1204880  14.3008830  30.2387210  45.9277490
  14.0940060  28.7793350  46.2731090   5.7811090  25.5964840  49.1089580
   4.8839620  25.8204810  49.3562980   5.8063960  25.7199780  48.1600980
  12.8216310  22.4457960  35.0230840  13.2609590  21.6080390  34.8768660
  13.5344730  23.0787360  35.1094980   4.6082310  22.4678160  47.6846950
   4.4690080  23.3400960  48.0534350   3.7263670  22.1250970  47.5394890
  10.9311690  27.3854030  38.9912080  11.3707600  28.1278360  38.5767470
  10.8698580  27.6280600  39.9151040   6.4062660  28.4099860  49.8932100
   6.3778090  28.8142810  49.0260530   6.2427630  27.4810220  49.7303700
  16.4033450  13.7000770  33.3371880  16.0906110  13.7927600  34.2370950
  17.1645920  14.2781800  33.2869310   2.9215590  21.0660570  37.7949220
   2.8013190  21.7922660  37.1830490   2.6116480  20.2963480  37.3177130
  18.3577480  29.1926960  51.1896270  18.8337200  29.6709850  51.8685350
  18.9784640  29.1244450  50.4641770   1.8048590  25.9375900  40.0124040
   1.3976670  26.0790490  39.1577640   2.6961600  25.6536060  39.8095250
  17.7610730  26.3839810  48.3496280  17.8873790  26.1451690  47.4313460
  17.8032110  25.5524350  48.8218360  11.6227470  30.0867810  46.9191090
  12.1372140  29.9975820  47.7213520  10.7796550  30.4327510  47.2119000
  13.5981870  30.3723150  36.3475090  13.4383010  30.0826090  37.2456920
  13.4328580  29.5963280  35.8120320   6.0770250  30.1521680  38.1246710
   5.9012730  29.2357220  37.9114510   5.2225990  30.5108970  38.3644510
  13.3008000  27.8810710  34.9073090  12.6073160  27.8788000  34.2475370
  14.0430860  27.4570030  34.4767260  12.8657930  29.5073420  38.9821580
  13.3214880  28.7262800  39.2960200  13.2050450  30.2180240  39.5262760
  17.6134740  18.4372270  49.3146020  16.9979010  18.9451940  48.7861480
  17.2931160  17.5370600  49.2571960   5.3879250  14.4095640  41.1772890
   4.9447400  15.1905180  40.8457410   5.9464240  14.7325530  41.8843830
   9.6749060  17.2764160  46.7808210   9.2128430  17.4847180  47.5928150
   9.2727170  16.4623510  46.4778880  14.6753570  18.4973110  47.9104870
  13.8247160  18.1978860  48.2313940  14.5155360  18.7415120  46.9988690
  11.7703280  19.9974860  50.0103660  12.0956690  19.1638610  49.6705890
  12.5583610  20.5203380  50.1581990   8.5038070  14.0306340  36.0578720
   7.8792250  14.0266210  36.7832030   8.4168190  13.1637300  35.6614690
   7.4255150  14.9542970  43.0362490   7.7227480  15.8605800  42.9554510
   7.9740710  14.4661750  42.4222060   5.1793470  19.5329210  38.9054140
   4.9534390  19.3166380  39.8100760   4.3986000  19.9657670  38.5600110
  12.4091230  19.5392580  37.5044790  11.8100120  20.2628380  37.3208410
  12.9570840  19.4769360  36.7221240   7.6192680  20.4314790  49.5714410
   7.5236280  19.4909520  49.4214810   8.4624660  20.6529860  49.1762480
  11.0156100  18.1756120  39.5348070  11.4085670  18.4928320  38.7216760
  11.3772950  17.2968000  39.6492590   2.7503220  16.8428460  47.7248190
   2.3566610  17.6903670  47.9320970   2.0621620  16.2054830  47.9156830
   9.3248270  16.9263430  50.7944930   8.6346590  16.7335630  51.4291020
  10.0680570  17.2098070  51.3269230  11.6011240  20.7661870  43.6298850
  10.8692360  21.2748680  43.9788950  11.2035580  19.9491850  43.3287630
   8.0388630  17.4416070  42.0351340   8.0424690  17.0006020  41.1855880
   8.9339750  17.7633400  42.1423160   3.8891010  17.3242560  40.9945550
   3.5491060  17.8017790  41.7512600   3.1268330  16.8707680  40.6346650
   8.1008780  18.4428150  35.0258100   8.2221600  18.4014630  35.9743920
   7.7157290  19.3052300  34.8704830  12.0637150  16.2195550  43.0421790
  12.0809890  16.6704200  43.8863640  11.8152730  15.3201190  43.2555230
   7.1130280  20.7529290  34.4241400   6.5447180  20.3047540  33.7977310
   7.8219280  21.1122070  33.8906550  15.4907900  13.6327730  48.8808170
  15.8153670  12.9017390  49.4066150  15.5264410  13.3141370  47.9789160
   2.1899460  24.6541310  48.3008130   1.8054250  24.0134980  48.8991090
   2.5011650  25.3577430  48.8702860   8.3396600  21.5017850  43.7816750
   8.7066730  21.0276420  44.5278090   8.1501660  22.3759420  44.1225090
   6.1295970  20.5426490  46.1000960   5.8253040  21.4218470  46.3251320
   7.0842430  20.6026280  46.1358400   4.6577760  24.7487480  36.6967810
   3.8840020  24.2085100  36.5366530   5.3872390  24.2294090  36.3585570
  15.4165740  23.7452840  42.4894200  16.1364860  24.2408130  42.0990310
  15.2147560  23.0670730  41.8448070  10.8775680  15.1390800  36.6323590
  10.0640290  14.6403970  36.5568900  10.6837630  15.9789050  36.2159940
  10.7984540  23.8161900  48.3763200  10.7321850  22.8957570  48.1220790
  10.1689680  23.9137340  49.0907840  13.5924070  19.5110450  34.9285750
  14.4803690  19.8227680  34.7537090  13.5629160  18.6382700  34.5366330
   4.7015160  24.4167860  40.3346620   5.2193830  23.6136120  40.2803510
   4.2499180  24.3547000  41.1763450   9.5884660  25.6834140  35.6073920
   9.9300360  26.4276370  35.1117240   8.7597370  25.9965260  35.9698750
   2.1859700  21.3829230  47.2472320   1.8274640  22.0483080  47.8345660
   1.8914260  20.5512780  47.6184940   5.3872820  21.8413470  50.1311870
   5.0872960  21.9870650  49.2339690   6.1584060  21.2818760  50.0385260
  10.7301270  26.6382470  48.1267000  10.7445810  25.7063430  47.9085910
  10.0226370  26.7242230  48.7656770  15.8638340  20.8222290  34.3965610
  15.7802060  21.2536510  33.5462050  16.5832530  21.2820640  34.8292430
  16.9412480  23.2789810  47.4735580  16.2160670  23.8718590  47.2764970
  17.4687940  23.2713350  46.6748950  16.8925590  27.6764550  37.1247740
  16.2501750  27.0220170  37.3991460  16.5056250  28.0819640  36.3488410
  12.4712070  25.0049980  40.9719430  12.8235890  24.4078110  40.3120800
  11.5874400  24.6794210  41.1427680   8.5575350  25.7647670  38.3789840
   9.2446480  26.3116880  38.7597430   7.7707770  26.3088400  38.4139450
   7.8602560  22.7693700  37.9915200   8.3165340  23.5798950  38.2175390
   7.5090770  22.4516840  38.8233690  10.1635170  28.2800040  45.2207500
  10.8077390  28.4859420  45.8980920  10.5264610  27.5188440  44.7678350
   3.7614340  13.1131350  38.4637720   3.6328970  13.1049250  39.4122640
   2.9376360  13.4514440  38.1128730  11.4367250  26.2832390  43.9384950
  12.0789480  25.5825550  44.0517120  11.9616600  27.0630830  43.7581840
  15.2822970  26.5681010  33.6624090  15.0560550  25.8511450  34.2548730
  14.8919170  26.3193450  32.8245840  13.2104870  27.0827290  47.1421010
  13.5461110  27.6693980  47.8198930  12.2905210  26.9520000  47.3718800
  14.8639220  24.4852950  35.3238250  14.5760920  24.9465640  36.1116130
  15.6591390  24.0250720  35.5922470   9.0393450  27.1318620  50.3109070
   8.7190320  26.4127860  50.8554760   8.3651810  27.8073690  50.3845130
   7.0807620  27.9779070  35.2542220   7.0717720  28.7108760  34.6386730
   6.1605980  27.7310650  35.3469180   2.6814260  23.1993960  35.9988980
   2.0742210  23.9392860  36.0084280   3.1563610  23.2893320  35.1727180
  12.2547050  17.3644780  45.6745870  12.6227870  16.5439990  46.0025440
  11.3945250  17.4246670  46.0901520  15.6209080  16.3201720  36.4833430
  14.9922240  16.4247390  35.7691660  15.1261000  16.5398500  37.2727310
  10.0667220  28.0407310  33.9167410  10.1679200  27.8371300  32.9869390
   9.1668960  27.7865590  34.1215190   7.5893110  18.5987670  37.8991310
   6.8809260  19.0674010  38.3404920   7.8737590  17.9409680  38.5336500
   9.2149040  20.0184370  45.8983840   9.7134290  20.4930190  46.5635690
   9.3571990  19.0947890  46.1053870  11.6208540  15.3238330  39.3387100
  11.4976320  15.3424460  38.3896610  12.5693100  15.3717270  39.4585500
   8.7085330  30.5593630  38.6115080   8.9626830  30.5215020  37.6894450
   7.7597810  30.4326960  38.6043330   5.7928130  16.9072750  35.2742020
   6.6418660  17.3442900  35.2082210   5.4259400  17.2193010  36.1014080
  16.4215900  16.2352330  46.7412230  15.9189500  16.9757730  47.0806040
  17.2372560  16.6236330  46.4249020  14.7137910  21.4785510  40.1873590
  13.7728050  21.4935740  40.3621280  15.0281980  20.6921470  40.6333890
   4.6919550  23.1605110  33.7477550   5.4582820  23.0486470  34.3102980
   4.7694240  22.4643080  33.0954320   3.3866310  20.5930180  34.4310440
   3.4669900  19.6457690  34.5427840   4.2786060  20.9237060  34.5371100
  16.7163490  28.6494360  41.8627850  16.8410910  29.4725530  42.3351660
  17.5829050  28.4385090  41.5152000   4.1881020  30.7425570  41.5344980
   4.9243500  30.1941030  41.8053550   4.5721940  31.6081580  41.3950970
   3.1939300  29.9271640  50.7230560   3.9952030  30.2483690  51.1365960
   2.6791120  29.5667220  51.4450470   7.2983330  29.9155880  33.3570550
   8.0911940  30.2044710  32.9052340   6.7787680  29.4848050  32.6783030
  12.0303930  26.0351510  50.6705970  11.4242090  26.0583110  49.9301720
  11.7258040  25.3034550  51.2073220  13.4604300  29.7631800  49.2815380
  14.4126050  29.6789820  49.2315620  13.3132520  30.4273510  49.9549170
  16.3513500  29.1426010  34.7807290  16.0655010  28.7291150  33.9661470
  16.1533050  30.0713720  34.6607810   7.8160730  25.1359290  33.2212900
   7.7111370  24.5211640  33.9474280   7.6484950  24.6125180  32.4375910
   7.9675050  23.8216090  49.2002130   7.2020720  24.3901090  49.1156800
   8.1491010  23.5292300  48.3070360  11.0563460  24.1979320  33.8254890
  10.5073560  24.6448620  34.4697630  11.6782720  23.6928570  34.3492560
  15.1098400  25.5521420  49.7577150  15.8507870  25.8897180  49.2544610
  14.3471080  25.7213480  49.2046920   2.9460190  20.5574690  50.5616680
   2.9865530  20.2588560  51.4701910   3.8005690  20.9582300  50.4024200
   6.7238580  23.1570240  35.7220190   7.1455000  22.9910110  36.5651580
   6.8489420  22.3470470  35.2275330   4.8866000  19.1366790  48.5291170
   4.3562460  18.6457740  47.9014510   5.5554070  19.5650990  47.9949100
   9.2366220  22.1807850  32.9697290   9.7571880  21.4656870  32.6038440
   9.8834620  22.8193720  33.2697800  13.7844060  23.6036250  48.2932360
  14.1985080  23.7581330  49.1422780  12.8495060  23.7291470  48.4558140
  14.2566230  20.9432410  50.2971510  14.8387000  20.1884730  50.2091990
  14.4328000  21.4739850  49.5202990   5.3738300  16.1029160  48.6088460
   5.2795170  15.4849910  47.8839330   4.7935690  16.8295450  48.3818370
   8.1399740  14.6602400  45.6415850   7.6917040  14.6826660  44.7961400
   7.5064940  14.2621420  46.2386150   8.5459290  23.5556730  46.2628290
   8.9647400  24.3989460  46.0904530   7.6267920  23.6928770  46.0335070
  10.8823190  21.2872910  47.6466130  11.0019400  20.6914050  48.3860970
  11.7417190  21.3242600  47.2267430  13.2211090  21.8410100  46.2228640
  12.6946310  22.3652720  45.6193780  13.5642430  22.4737490  46.8538370
   5.6197480  19.2303470  32.6678350   5.4186540  18.3670830  33.0291690
   5.4489530  19.1436830  31.7299950   6.3966710  29.8609740  47.3786020
   5.8587800  30.5855800  47.0594720   6.6500670  29.3840080  46.5883360
   7.6491960  17.8294260  48.9041950   8.2391650  17.5210110  49.5919770
   6.8312200  17.3574010  49.0601850  12.4685390  17.4460070  49.1374970
  11.7800910  16.7841610  49.0724960  13.1891410  16.9998340  49.5823430
  13.0985790  14.0411700  35.1965230  13.3788080  13.1979600  35.5524650
  12.3251520  14.2734810  35.7103980   4.4180280  16.3304090  32.6556230
   4.7206180  16.3371520  31.7475380   5.1574870  15.9801950  33.1523890
   9.2528920  31.0960950  47.6372670   9.1787620  31.9996090  47.9445040
   8.3507760  30.7772850  47.6094740   7.6365210  15.2738710  33.6412430
   7.2887210  14.5962700  33.0614880   7.8377980  14.8128220  34.4555820
   9.8014250  30.2619460  35.2599030  10.6965040  30.6004430  35.2817790
   9.8331880  29.5398870  34.6323310   3.4410410  25.6346510  33.4886030
   3.8785280  26.1776180  34.1443610   3.9258140  24.8093460  33.4982370
   5.2518130  26.7544550  38.6008260   4.9513670  26.6309520  39.5012170
   5.1455620  25.8953140  38.1923990  16.7808600  28.7923130  47.9665230
  16.1810590  28.8515690  47.2229150  16.9102500  27.8528110  48.0962080
  18.0210050  26.5340950  33.3034940  17.1903010  26.6017600  33.7742170
  18.1981880  27.4245070  33.0001800  17.4766510  23.2788430  35.8069140
  18.2385420  23.8485080  35.9128830  17.4920880  22.7115630  36.5777450
  18.4826480  24.1338530  40.6511070  18.8535310  23.3505850  40.2447040
  19.1228410  24.8227630  40.4728370  15.4660240  25.5175110  46.0641390
  14.6520080  25.9472270  46.3267180  15.8734440  26.1293520  45.4510440
  17.5285680  23.5722800  32.9641660  17.8034520  24.4801680  32.8360880
  17.3396420  23.5085330  33.9003650  13.9261290  16.5967650  34.2595290
  14.3446170  16.4098630  33.4191950  13.6197350  15.7446700  34.5698220
  17.4251020  21.5091790  37.9571090  17.0494620  20.7419720  37.5252380
  16.6954140  21.8914490  38.4446020   2.0146780  22.1878930  44.5780140
   2.3819820  22.1006330  45.4576160   1.4457600  21.4245480  44.4787000
  16.8150640  20.6563310  47.5910610  16.5836730  20.4276060  46.6908560
  17.0755190  21.5762860  47.5455500  15.2538710  15.8819740  50.3690310
  16.1308890  15.8903140  50.7524310  15.2659550  15.1450580  49.7582660
  16.7001980  19.7349280  41.2578330  17.2239460  19.2411930  40.6268500
  17.2861400  19.8699640  42.0025900  16.8791700  19.8189150  44.7797880
  15.9294410  19.7852690  44.8942870  17.0604710  20.7289260  44.5447650
   2.7336140  18.0690830  33.8896510   3.4427840  17.6474050  33.4043790
   2.0176080  18.1366060  33.2579860   2.3810300  14.1230160  32.9299160
   3.1038430  14.6639100  33.2480380   2.6534820  13.8493580  32.0540700
  16.1901950  18.9922630  37.1970740  16.6861070  18.7593500  37.9819620
  15.9918020  18.1534470  36.7808380   2.0702490  13.3736350  42.8321780
   2.7178680  12.8233730  42.3916940   2.4904330  13.6279500  43.6537590
  17.6189110  17.6283580  39.7308420  17.5088390  17.4739620  40.6690690
  18.3796700  17.1004520  39.4883830  15.9654830  13.5677710  46.1891420
  16.6027050  14.1811850  46.5550610  16.1129720  13.6038370  45.2440650
  18.5079380  15.4591500  32.9714560  19.4328690  15.3272680  32.7632850
  18.4855170  15.5384320  33.9251010  18.5817870  16.2302160  35.5971270
  17.7869370  16.1647280  36.1264180  18.7861150  17.1652800  35.5856620
  15.5236290  30.2693710  39.5909660  16.1195360  29.9478280  38.9144080
  15.7814440  29.7965530  40.3822930   1.8234490  13.5292020  45.5747100
   1.4749310  13.9855840  46.3405280   1.4922190  12.6349150  45.6569530
   3.4298860  26.7011620  49.7400290   3.3868490  26.3304530  50.6214750
   3.5609870  27.6389190  49.8802110   7.1304890  28.2571210  45.3410010
   6.8896250  28.5245770  44.4540530   8.0707530  28.4276940  45.3960870
   9.3359310  14.7203900  49.0966520   9.2748200  15.3125730  49.8461930
  10.2759690  14.6129860  48.9516780  11.9733870  14.3773960  48.7358810
  12.5874280  14.6953250  48.0739890  12.5183430  13.8922550  49.3554670
  18.3909050  30.2765590  46.1420650  17.8967330  30.6734460  45.4247780
  17.7822340  29.6514800  46.5357930   2.4955130  13.0568220  48.8497870
   3.0438120  12.8756270  48.0863980   2.5610440  12.2662330  49.3854180
   3.2686890  29.6473870  46.8598070   2.6747210  29.5158570  47.5988110
   3.2610730  28.8112010  46.3940170  12.7141910  12.9406100  45.0628100
  11.8401750  13.2741210  44.8601030  12.6052660  12.4679280  45.8879970
  13.6213890  15.1476970  46.4469820  13.2927250  14.3328730  46.0671550
  14.5696190  15.1046780  46.3235510  16.0748500  30.9189010  43.4207390
  15.6151470  31.6704820  43.0465410  15.4460960  30.1995480  43.3622190
   2.8999120  27.0132250  45.8106110   2.1733180  26.3937540  45.7432060
   2.9608270  27.4072860  44.9404190   6.5044220  29.2277250  42.5955520
   7.0209240  28.6164610  42.0703780   7.1541600  29.7306030  43.0866530
   9.2439720  30.1185740  43.4224500   9.5317530  29.8640040  42.5457510
   9.7562940  29.5663100  44.0130070  10.4616730  13.8575940  44.0021010
   9.6788520  14.3321440  44.2817770  10.1679660  12.9530770  43.8934190
  15.0137800  14.5599040  42.0470100  15.4545890  14.5044140  41.1991700
  14.7445390  15.4757050  42.1180280  16.8776370  14.1914280  40.0578920
  16.8164770  13.2475500  39.9109940  17.6568400  14.2994370  40.6032380
   1.8057140  14.1623420  36.5234730   2.5636500  14.2752300  35.9498760
   1.3434310  14.9992620  36.4778160   8.3470950  16.2762690  39.5137040
   7.5345460  15.9019580  39.1732920   8.8512590  15.5207770  39.8158230
  12.8495930  12.9405140  40.7520110  13.4525300  13.5125350  41.2268630
  12.1088920  13.5044580  40.5294010  15.9930530  13.3426700  36.0260390
  16.1881160  14.2410150  36.2927820  15.2060400  13.1113780  36.5193340
   2.7891820  29.0239870  36.4653010   2.2639440  29.4047900  35.7614970
   2.7136400  29.6490640  37.1862720   4.1782290  14.6887470  35.0636700
   4.7075050  13.9017270  34.9344650   4.8110610  15.3678660  35.2972230
   6.3720130  14.4262610  38.1182090   5.7422870  13.7249920  38.2852220
   5.8325270  15.1866740  37.9015250   9.3112080  31.0401840  50.7892700
  10.2379390  30.8046110  50.8328660   9.2962510  31.8673840  50.3078730
  17.5457140  30.5827410  37.7866950  17.7209330  29.8965150  37.1427870
  16.8478710  31.1074460  37.3943620   6.4975690  13.7046590  50.5534580
   6.2159960  14.2080190  49.7895400   6.8795390  12.9068340  50.1876710
   5.3884790  30.9722250  35.3402260   6.1203610  30.6881530  34.7926150
   5.6478460  30.7335530  36.2301640   4.5499580  27.0886980  35.3448590
   3.9208460  27.5572080  35.8934420   4.6647410  26.2436200  35.7794780
  13.0991150  13.1200170  51.1315050  12.9856600  13.4394780  52.0266570
  13.9160890  13.5212680  50.8352330  15.8789640  30.2671700  50.6133740
  16.6714960  29.7720930  50.4059700  16.1722790  30.9461840  51.2209350
  12.0049300  21.1392640  21.4949790  11.9243350  20.2247250  21.2241500
  11.5913720  21.6359710  20.7889500  10.1367340  22.9171660  23.3759060
   9.3609440  22.4372100  23.6657630  10.7880270  22.2377310  23.2015220
   4.1533170  23.2291470  24.2534820   3.3218050  22.9740180  24.6531330
   4.7614150  23.3002240  24.9892740  14.1574770  27.3231850  22.1558190
  13.6956300  26.5519090  22.4845360  14.9700320  27.3497920  22.6610640
   4.1334430  27.2631560  24.4492840   4.4362470  26.3729300  24.2703060
   4.8778020  27.8201780  24.2215090   2.5625120  18.1893360  18.0377210
   1.6741820  18.5309330  17.9357090   2.8466310  17.9893680  17.1458040
  10.3838080  29.6089860  21.7762180   9.7649520  30.0647360  21.2056620
  11.2389860  29.7641320  21.3751880   9.5776330  25.5928850  23.3829220
   9.5084610  24.6518790  23.2218350  10.3396190  25.6830260  23.9551790
   1.7683000  16.1983370  25.7085840   1.5885840  15.3009120  25.9888600
   1.3663080  16.7455240  26.3832790  10.6081500  18.3999230  23.6098150
  10.9846320  17.5271110  23.4971820  10.5101010  18.7357930  22.7188590
   4.7386510  16.7724860  19.0715590   4.8453260  17.6728590  19.3784350
   3.8278870  16.7242830  18.7810240  14.3905620  15.8949670  20.5426490
  15.2115240  15.4046240  20.5851970  14.4239700  16.4847330  21.2958330
   2.3869670  18.6943870  24.3168180   3.0679780  18.9582240  24.9355580
   2.0717720  17.8544740  24.6506190   6.5794240  19.7411230  23.4040770
   7.0872460  20.2392200  24.0445790   7.1107480  18.9646430  23.2280130
  18.6805170  17.9116420  27.1070120  17.9757340  18.2998130  26.5885230
  18.9463090  18.6066710  27.7091050   4.8630340  14.3809790  27.6704190
   4.8648780  14.8982180  26.8650090   4.0334650  13.9039970  27.6474120
  11.2501430  24.4929100  19.1694090  10.6318700  24.9578550  18.6056810
  11.7624680  25.1856580  19.5863600   6.1133190  24.0204970  25.8477690
   5.7802570  24.6473890  26.4898760   6.2899870  24.5466850  25.0679360
  14.6267100  17.8350050  23.3154030  13.9222670  18.1234940  23.8957140
  14.9879260  18.6450160  22.9553590   4.5445670  16.0919750  25.6774640
   4.8862480  16.9361800  25.3828510   3.6061480  16.2403490  25.7939980
   5.3252290  25.9885770  27.6626870   5.9426290  26.6636850  27.3811320
   4.4645410  26.3973750  27.5714370  16.2429880  27.4525180  25.5781510
  15.5593400  28.1224290  25.5698180  16.7824170  27.6505830  24.8126370
  17.6954020  17.2804840  23.7063240  16.7478930  17.3143820  23.8378670
  18.0204010  18.0943790  24.0912600   8.2273560  13.5802020  22.0019230
   8.5348540  13.0248910  21.2854730   7.2974260  13.7146480  21.8192220
  13.7788620  29.2969310  24.2926690  13.7915780  28.8931600  23.4248950
  13.2263840  30.0716600  24.1888120  15.0734040  26.0185530  19.3816860
  14.9630370  25.0759860  19.5066280  15.0702290  26.3801170  20.2679620
  13.1774060  24.1999150  25.6209300  13.5942850  23.9859260  24.7862760
  13.9013880  24.4571940  26.1917920  10.6154320  21.6450850  18.7379350
   9.6883600  21.5788230  18.9667820  10.7679140  22.5830980  18.6234590
  10.6023400  17.9167850  15.7346510   9.6627070  18.0781810  15.8198970
  10.9206660  18.6353530  15.1882500  17.1236160  22.5986370  25.7125540
  16.2954790  22.6679460  25.2375670  17.7186640  23.1840680  25.2441370
  14.6451610  23.2071150  19.2414600  14.0264030  22.8690700  18.5940900
  14.6276060  22.5630910  19.9493790  14.0878170  19.3855690  26.6580410
  13.6749350  20.2109400  26.9120400  13.3554120  18.8000730  26.4656770
   6.2210960  22.1715590  21.5199080   5.8167960  21.4592840  21.0244980
   6.3074080  21.8268830  22.4087120   6.6892660  25.8583150  23.6838290
   6.3920950  25.2528620  23.0046070   7.6392480  25.8960460  23.5727650
   4.9339580  18.9458800  25.2998120   5.4854170  19.0554140  24.5251370
   5.4483090  19.3196400  26.0153350  14.7778270  29.4315020  27.3461390
  14.3008830  30.2387210  27.1534000  14.0940060  28.7793350  27.4987600
   5.7811090  25.5964840  30.3346090   4.8839620  25.8204810  30.5819490
   5.8063960  25.7199780  29.3857490  12.8216310  22.4457960  16.2487350
  13.2609590  21.6080390  16.1025170  13.5344730  23.0787360  16.3351490
   4.6082310  22.4678160  28.9103460   4.4690080  23.3400960  29.2790860
   3.7263670  22.1250970  28.7651400  10.9311690  27.3854030  20.2168590
  11.3707600  28.1278360  19.8023980  10.8698580  27.6280600  21.1407550
   6.4062660  28.4099860  31.1188610   6.3778090  28.8142810  30.2517040
   6.2427630  27.4810220  30.9560210  16.4033450  13.7000770  14.5628390
  16.0906110  13.7927600  15.4627460  17.1645920  14.2781800  14.5125820
   2.9215590  21.0660570  19.0205730   2.8013190  21.7922660  18.4087000
   2.6116480  20.2963480  18.5433640  18.3577480  29.1926960  32.4152780
  18.8337200  29.6709850  33.0941860  18.9784640  29.1244450  31.6898280
   1.8048590  25.9375900  21.2380550   1.3976670  26.0790490  20.3834150
   2.6961600  25.6536060  21.0351760  17.7610730  26.3839810  29.5752790
  17.8873790  26.1451690  28.6569970  17.8032110  25.5524350  30.0474870
  11.6227470  30.0867810  28.1447600  12.1372140  29.9975820  28.9470030
  10.7796550  30.4327510  28.4375510  13.5981870  30.3723150  17.5731600
  13.4383010  30.0826090  18.4713430  13.4328580  29.5963280  17.0376830
   6.0770250  30.1521680  19.3503220   5.9012730  29.2357220  19.1371020
   5.2225990  30.5108970  19.5901020  13.3008000  27.8810710  16.1329600
  12.6073160  27.8788000  15.4731880  14.0430860  27.4570030  15.7023770
  12.8657930  29.5073420  20.2078090  13.3214880  28.7262800  20.5216710
  13.2050450  30.2180240  20.7519270  17.6134740  18.4372270  30.5402530
  16.9979010  18.9451940  30.0117990  17.2931160  17.5370600  30.4828470
   5.3879250  14.4095640  22.4029400   4.9447400  15.1905180  22.0713920
   5.9464240  14.7325530  23.1100340   9.6749060  17.2764160  28.0064720
   9.2128430  17.4847180  28.8184660   9.2727170  16.4623510  27.7035390
  14.6753570  18.4973110  29.1361380  13.8247160  18.1978860  29.4570450
  14.5155360  18.7415120  28.2245200  11.7703280  19.9974860  31.2360170
  12.0956690  19.1638610  30.8962400  12.5583610  20.5203380  31.3838500
   8.5038070  14.0306340  17.2835230   7.8792250  14.0266210  18.0088540
   8.4168190  13.1637300  16.8871200   7.4255150  14.9542970  24.2619000
   7.7227480  15.8605800  24.1811020   7.9740710  14.4661750  23.6478570
   5.1793470  19.5329210  20.1310650   4.9534390  19.3166380  21.0357270
   4.3986000  19.9657670  19.7856620  12.4091230  19.5392580  18.7301300
  11.8100120  20.2628380  18.5464920  12.9570840  19.4769360  17.9477750
   7.6192680  20.4314790  30.7970920   7.5236280  19.4909520  30.6471320
   8.4624660  20.6529860  30.4018990  11.0156100  18.1756120  20.7604580
  11.4085670  18.4928320  19.9473270  11.3772950  17.2968000  20.8749100
   2.7503220  16.8428460  28.9504700   2.3566610  17.6903670  29.1577480
   2.0621620  16.2054830  29.1413340   9.3248270  16.9263430  32.0201440
   8.6346590  16.7335630  32.6547530  10.0680570  17.2098070  32.5525740
  11.6011240  20.7661870  24.8555360  10.8692360  21.2748680  25.2045460
  11.2035580  19.9491850  24.5544140   8.0388630  17.4416070  23.2607850
   8.0424690  17.0006020  22.4112390   8.9339750  17.7633400  23.3679670
   3.8891010  17.3242560  22.2202060   3.5491060  17.8017790  22.9769110
   3.1268330  16.8707680  21.8603160   8.1008780  18.4428150  16.2514610
   8.2221600  18.4014630  17.2000430   7.7157290  19.3052300  16.0961340
  12.0637150  16.2195550  24.2678300  12.0809890  16.6704200  25.1120150
  11.8152730  15.3201190  24.4811740   7.1130280  20.7529290  15.6497910
   6.5447180  20.3047540  15.0233820   7.8219280  21.1122070  15.1163060
  15.4907900  13.6327730  30.1064680  15.8153670  12.9017390  30.6322660
  15.5264410  13.3141370  29.2045670   2.1899460  24.6541310  29.5264640
   1.8054250  24.0134980  30.1247600   2.5011650  25.3577430  30.0959370
   8.3396600  21.5017850  25.0073260   8.7066730  21.0276420  25.7534600
   8.1501660  22.3759420  25.3481600   6.1295970  20.5426490  27.3257470
   5.8253040  21.4218470  27.5507830   7.0842430  20.6026280  27.3614910
   4.6577760  24.7487480  17.9224320   3.8840020  24.2085100  17.7623040
   5.3872390  24.2294090  17.5842080  15.4165740  23.7452840  23.7150710
  16.1364860  24.2408130  23.3246820  15.2147560  23.0670730  23.0704580
  10.8775680  15.1390800  17.8580100  10.0640290  14.6403970  17.7825410
  10.6837630  15.9789050  17.4416450  10.7984540  23.8161900  29.6019710
  10.7321850  22.8957570  29.3477300  10.1689680  23.9137340  30.3164350
  13.5924070  19.5110450  16.1542260  14.4803690  19.8227680  15.9793600
  13.5629160  18.6382700  15.7622840   4.7015160  24.4167860  21.5603130
   5.2193830  23.6136120  21.5060020   4.2499180  24.3547000  22.4019960
   9.5884660  25.6834140  16.8330430   9.9300360  26.4276370  16.3373750
   8.7597370  25.9965260  17.1955260   2.1859700  21.3829230  28.4728830
   1.8274640  22.0483080  29.0602170   1.8914260  20.5512780  28.8441450
   5.3872820  21.8413470  31.3568380   5.0872960  21.9870650  30.4596200
   6.1584060  21.2818760  31.2641770  10.7301270  26.6382470  29.3523510
  10.7445810  25.7063430  29.1342420  10.0226370  26.7242230  29.9913280
  15.8638340  20.8222290  15.6222120  15.7802060  21.2536510  14.7718560
  16.5832530  21.2820640  16.0548940  16.9412480  23.2789810  28.6992090
  16.2160670  23.8718590  28.5021480  17.4687940  23.2713350  27.9005460
  16.8925590  27.6764550  18.3504250  16.2501750  27.0220170  18.6247970
  16.5056250  28.0819640  17.5744920  12.4712070  25.0049980  22.1975940
  12.8235890  24.4078110  21.5377310  11.5874400  24.6794210  22.3684190
   8.5575350  25.7647670  19.6046350   9.2446480  26.3116880  19.9853940
   7.7707770  26.3088400  19.6395960   7.8602560  22.7693700  19.2171710
   8.3165340  23.5798950  19.4431900   7.5090770  22.4516840  20.0490200
  10.1635170  28.2800040  26.4464010  10.8077390  28.4859420  27.1237430
  10.5264610  27.5188440  25.9934860   3.7614340  13.1131350  19.6894230
   3.6328970  13.1049250  20.6379150   2.9376360  13.4514440  19.3385240
  11.4367250  26.2832390  25.1641460  12.0789480  25.5825550  25.2773630
  11.9616600  27.0630830  24.9838350  15.2822970  26.5681010  14.8880600
  15.0560550  25.8511450  15.4805240  14.8919170  26.3193450  14.0502350
  13.2104870  27.0827290  28.3677520  13.5461110  27.6693980  29.0455440
  12.2905210  26.9520000  28.5975310  14.8639220  24.4852950  16.5494760
  14.5760920  24.9465640  17.3372640  15.6591390  24.0250720  16.8178980
   9.0393450  27.1318620  31.5365580   8.7190320  26.4127860  32.0811270
   8.3651810  27.8073690  31.6101640   7.0807620  27.9779070  16.4798730
   7.0717720  28.7108760  15.8643240   6.1605980  27.7310650  16.5725690
   2.6814260  23.1993960  17.2245490   2.0742210  23.9392860  17.2340790
   3.1563610  23.2893320  16.3983690  12.2547050  17.3644780  26.9002380
  12.6227870  16.5439990  27.2281950  11.3945250  17.4246670  27.3158030
  15.6209080  16.3201720  17.7089940  14.9922240  16.4247390  16.9948170
  15.1261000  16.5398500  18.4983820  10.0667220  28.0407310  15.1423920
  10.1679200  27.8371300  14.2125900   9.1668960  27.7865590  15.3471700
   7.5893110  18.5987670  19.1247820   6.8809260  19.0674010  19.5661430
   7.8737590  17.9409680  19.7593010   9.2149040  20.0184370  27.1240350
   9.7134290  20.4930190  27.7892200   9.3571990  19.0947890  27.3310380
  11.6208540  15.3238330  20.5643610  11.4976320  15.3424460  19.6153120
  12.5693100  15.3717270  20.6842010   8.7085330  30.5593630  19.8371590
   8.9626830  30.5215020  18.9150960   7.7597810  30.4326960  19.8299840
   5.7928130  16.9072750  16.4998530   6.6418660  17.3442900  16.4338720
   5.4259400  17.2193010  17.3270590  16.4215900  16.2352330  27.9668740
  15.9189500  16.9757730  28.3062550  17.2372560  16.6236330  27.6505530
  14.7137910  21.4785510  21.4130100  13.7728050  21.4935740  21.5877790
  15.0281980  20.6921470  21.8590400   4.6919550  23.1605110  14.9734060
   5.4582820  23.0486470  15.5359490   4.7694240  22.4643080  14.3210830
   3.3866310  20.5930180  15.6566950   3.4669900  19.6457690  15.7684350
   4.2786060  20.9237060  15.7627610  16.7163490  28.6494360  23.0884360
  16.8410910  29.4725530  23.5608170  17.5829050  28.4385090  22.7408510
   4.1881020  30.7425570  22.7601490   4.9243500  30.1941030  23.0310060
   4.5721940  31.6081580  22.6207480   3.1939300  29.9271640  31.9487070
   3.9952030  30.2483690  32.3622470   2.6791120  29.5667220  32.6706980
   7.2983330  29.9155880  14.5827060   8.0911940  30.2044710  14.1308850
   6.7787680  29.4848050  13.9039540  12.0303930  26.0351510  31.8962480
  11.4242090  26.0583110  31.1558230  11.7258040  25.3034550  32.4329730
  13.4604300  29.7631800  30.5071890  14.4126050  29.6789820  30.4572130
  13.3132520  30.4273510  31.1805680  16.3513500  29.1426010  16.0063800
  16.0655010  28.7291150  15.1917980  16.1533050  30.0713720  15.8864320
   7.8160730  25.1359290  14.4469410   7.7111370  24.5211640  15.1730790
   7.6484950  24.6125180  13.6632420   7.9675050  23.8216090  30.4258640
   7.2020720  24.3901090  30.3413310   8.1491010  23.5292300  29.5326870
  11.0563460  24.1979320  15.0511400  10.5073560  24.6448620  15.6954140
  11.6782720  23.6928570  15.5749070  15.1098400  25.5521420  30.9833660
  15.8507870  25.8897180  30.4801120  14.3471080  25.7213480  30.4303430
   2.9460190  20.5574690  31.7873190   2.9865530  20.2588560  32.6958420
   3.8005690  20.9582300  31.6280710   6.7238580  23.1570240  16.9476700
   7.1455000  22.9910110  17.7908090   6.8489420  22.3470470  16.4531840
   4.8866000  19.1366790  29.7547680   4.3562460  18.6457740  29.1271020
   5.5554070  19.5650990  29.2205610   9.2366220  22.1807850  14.1953800
   9.7571880  21.4656870  13.8294950   9.8834620  22.8193720  14.4954310
  13.7844060  23.6036250  29.5188870  14.1985080  23.7581330  30.3679290
  12.8495060  23.7291470  29.6814650  14.2566230  20.9432410  31.5228020
  14.8387000  20.1884730  31.4348500  14.4328000  21.4739850  30.7459500
   5.3738300  16.1029160  29.8344970   5.2795170  15.4849910  29.1095840
   4.7935690  16.8295450  29.6074880   8.1399740  14.6602400  26.8672360
   7.6917040  14.6826660  26.0217910   7.5064940  14.2621420  27.4642660
   8.5459290  23.5556730  27.4884800   8.9647400  24.3989460  27.3161040
   7.6267920  23.6928770  27.2591580  10.8823190  21.2872910  28.8722640
  11.0019400  20.6914050  29.6117480  11.7417190  21.3242600  28.4523940
  13.2211090  21.8410100  27.4485150  12.6946310  22.3652720  26.8450290
  13.5642430  22.4737490  28.0794880   5.6197480  19.2303470  13.8934860
   5.4186540  18.3670830  14.2548200   5.4489530  19.1436830  12.9556460
   6.3966710  29.8609740  28.6042530   5.8587800  30.5855800  28.2851230
   6.6500670  29.3840080  27.8139870   7.6491960  17.8294260  30.1298460
   8.2391650  17.5210110  30.8176280   6.8312200  17.3574010  30.2858360
  12.4685390  17.4460070  30.3631480  11.7800910  16.7841610  30.2981470
  13.1891410  16.9998340  30.8079940  13.0985790  14.0411700  16.4221740
  13.3788080  13.1979600  16.7781160  12.3251520  14.2734810  16.9360490
   4.4180280  16.3304090  13.8812740   4.7206180  16.3371520  12.9731890
   5.1574870  15.9801950  14.3780400   9.2528920  31.0960950  28.8629180
   9.1787620  31.9996090  29.1701550   8.3507760  30.7772850  28.8351250
   7.6365210  15.2738710  14.8668940   7.2887210  14.5962700  14.2871390
   7.8377980  14.8128220  15.6812330   9.8014250  30.2619460  16.4855540
  10.6965040  30.6004430  16.5074300   9.8331880  29.5398870  15.8579820
   3.4410410  25.6346510  14.7142540   3.8785280  26.1776180  15.3700120
   3.9258140  24.8093460  14.7238880   5.2518130  26.7544550  19.8264770
   4.9513670  26.6309520  20.7268680   5.1455620  25.8953140  19.4180500
  16.7808600  28.7923130  29.1921740  16.1810590  28.8515690  28.4485660
  16.9102500  27.8528110  29.3218590  18.0210050  26.5340950  14.5291450
  17.1903010  26.6017600  14.9998680  18.1981880  27.4245070  14.2258310
  17.4766510  23.2788430  17.0325650  18.2385420  23.8485080  17.1385340
  17.4920880  22.7115630  17.8033960  18.4826480  24.1338530  21.8767580
  18.8535310  23.3505850  21.4703550  19.1228410  24.8227630  21.6984880
  15.4660240  25.5175110  27.2897900  14.6520080  25.9472270  27.5523690
  15.8734440  26.1293520  26.6766950  17.5285680  23.5722800  14.1898170
  17.8034520  24.4801680  14.0617390  17.3396420  23.5085330  15.1260160
  13.9261290  16.5967650  15.4851800  14.3446170  16.4098630  14.6448460
  13.6197350  15.7446700  15.7954730  17.4251020  21.5091790  19.1827600
  17.0494620  20.7419720  18.7508890  16.6954140  21.8914490  19.6702530
   2.0146780  22.1878930  25.8036650   2.3819820  22.1006330  26.6832670
   1.4457600  21.4245480  25.7043510  16.8150640  20.6563310  28.8167120
  16.5836730  20.4276060  27.9165070  17.0755190  21.5762860  28.7712010
  15.2538710  15.8819740  31.5946820  16.1308890  15.8903140  31.9780820
  15.2659550  15.1450580  30.9839170  16.7001980  19.7349280  22.4834840
  17.2239460  19.2411930  21.8525010  17.2861400  19.8699640  23.2282410
  16.8791700  19.8189150  26.0054390  15.9294410  19.7852690  26.1199380
  17.0604710  20.7289260  25.7704160   2.7336140  18.0690830  15.1153020
   3.4427840  17.6474050  14.6300300   2.0176080  18.1366060  14.4836370
   2.3810300  14.1230160  14.1555670   3.1038430  14.6639100  14.4736890
   2.6534820  13.8493580  13.2797210  16.1901950  18.9922630  18.4227250
  16.6861070  18.7593500  19.2076130  15.9918020  18.1534470  18.0064890
   2.0702490  13.3736350  24.0578290   2.7178680  12.8233730  23.6173450
   2.4904330  13.6279500  24.8794100  17.6189110  17.6283580  20.9564930
  17.5088390  17.4739620  21.8947200  18.3796700  17.1004520  20.7140340
  15.9654830  13.5677710  27.4147930  16.6027050  14.1811850  27.7807120
  16.1129720  13.6038370  26.4697160  18.5079380  15.4591500  14.1971070
  19.4328690  15.3272680  13.9889360  18.4855170  15.5384320  15.1507520
  18.5817870  16.2302160  16.8227780  17.7869370  16.1647280  17.3520690
  18.7861150  17.1652800  16.8113130  15.5236290  30.2693710  20.8166170
  16.1195360  29.9478280  20.1400590  15.7814440  29.7965530  21.6079440
   1.8234490  13.5292020  26.8003610   1.4749310  13.9855840  27.5661790
   1.4922190  12.6349150  26.8826040   3.4298860  26.7011620  30.9656800
   3.3868490  26.3304530  31.8471260   3.5609870  27.6389190  31.1058620
   7.1304890  28.2571210  26.5666520   6.8896250  28.5245770  25.6797040
   8.0707530  28.4276940  26.6217380   9.3359310  14.7203900  30.3223030
   9.2748200  15.3125730  31.0718440  10.2759690  14.6129860  30.1773290
  11.9733870  14.3773960  29.9615320  12.5874280  14.6953250  29.2996400
  12.5183430  13.8922550  30.5811180  18.3909050  30.2765590  27.3677160
  17.8967330  30.6734460  26.6504290  17.7822340  29.6514800  27.7614440
   2.4955130  13.0568220  30.0754380   3.0438120  12.8756270  29.3120490
   2.5610440  12.2662330  30.6110690   3.2686890  29.6473870  28.0854580
   2.6747210  29.5158570  28.8244620   3.2610730  28.8112010  27.6196680
  12.7141910  12.9406100  26.2884610  11.8401750  13.2741210  26.0857540
  12.6052660  12.4679280  27.1136480  13.6213890  15.1476970  27.6726330
  13.2927250  14.3328730  27.2928060  14.5696190  15.1046780  27.5492020
  16.0748500  30.9189010  24.6463900  15.6151470  31.6704820  24.2721920
  15.4460960  30.1995480  24.5878700   2.8999120  27.0132250  27.0362620
   2.1733180  26.3937540  26.9688570   2.9608270  27.4072860  26.1660700
   6.5044220  29.2277250  23.8212030   7.0209240  28.6164610  23.2960290
   7.1541600  29.7306030  24.3123040   9.2439720  30.1185740  24.6481010
   9.5317530  29.8640040  23.7714020   9.7562940  29.5663100  25.2386580
  10.4616730  13.8575940  25.2277520   9.6788520  14.3321440  25.5074280
  10.1679660  12.9530770  25.1190700  15.0137800  14.5599040  23.2726610
  15.4545890  14.5044140  22.4248210  14.7445390  15.4757050  23.3436790
  16.8776370  14.1914280  21.2835430  16.8164770  13.2475500  21.1366450
  17.6568400  14.2994370  21.8288890   1.8057140  14.1623420  17.7491240
   2.5636500  14.2752300  17.1755270   1.3434310  14.9992620  17.7034670
   8.3470950  16.2762690  20.7393550   7.5345460  15.9019580  20.3989430
   8.8512590  15.5207770  21.0414740  12.8495930  12.9405140  21.9776620
  13.4525300  13.5125350  22.4525140  12.1088920  13.5044580  21.7550520
  15.9930530  13.3426700  17.2516900  16.1881160  14.2410150  17.5184330
  15.2060400  13.1113780  17.7449850   2.7891820  29.0239870  17.6909520
   2.2639440  29.4047900  16.9871480   2.7136400  29.6490640  18.4119230
   4.1782290  14.6887470  16.2893210   4.7075050  13.9017270  16.1601160
   4.8110610  15.3678660  16.5228740   6.3720130  14.4262610  19.3438600
   5.7422870  13.7249920  19.5108730   5.8325270  15.1866740  19.1271760
   9.3112080  31.0401840  32.0149210  10.2379390  30.8046110  32.0585170
   9.2962510  31.8673840  31.5335240  17.5457140  30.5827410  19.0123460
  17.7209330  29.8965150  18.3684380  16.8478710  31.1074460  18.6200130
   6.4975690  13.7046590  31.7791090   6.2159960  14.2080190  31.0151910
   6.8795390  12.9068340  31.4133220   5.3884790  30.9722250  16.5658770
   6.1203610  30.6881530  16.0182660   5.6478460  30.7335530  17.4558150
   4.5499580  27.0886980  16.5705100   3.9208460  27.5572080  17.1190930
   4.6647410  26.2436200  17.0051290  13.0991150  13.1200170  32.3571560
  12.9856600  13.4394780  33.2523080  13.9160890  13.5212680  32.0608840
  15.8789640  30.2671700  31.8390250  16.6714960  29.7720930  31.6316210
  16.1722790  30.9461840  32.4465860  12.0049300  21.1392640   2.7206300
  11.9243350  20.2247250   2.4498010  11.5913720  21.6359710   2.0146010
  10.1367340  22.9171660   4.6015570   9.3609440  22.4372100   4.8914140
  10.7880270  22.2377310   4.4271730   4.1533170  23.2291470   5.4791330
   3.3218050  22.9740180   5.8787840   4.7614150  23.3002240   6.2149250
  14.1574770  27.3231850   3.3814700  13.6956300  26.5519090   3.7101870
  14.9700320  27.3497920   3.8867150   4.1334430  27.2631560   5.6749350
   4.4362470  26.3729300   5.4959570   4.8778020  27.8201780   5.4471600
  10.3838080  29.6089860   3.0018690   9.7649520  30.0647360   2.4313130
  11.2389860  29.7641320   2.6008390   9.5776330  25.5928850   4.6085730
   9.5084610  24.6518790   4.4474860  10.3396190  25.6830260   5.1808300
   1.7683000  16.1983370   6.9342350   1.5885840  15.3009120   7.2145110
   1.3663080  16.7455240   7.6089300  10.6081500  18.3999230   4.8354660
  10.9846320  17.5271110   4.7228330  10.5101010  18.7357930   3.9445100
  14.3905620  15.8949670   1.7683000  15.2115240  15.4046240   1.8108480
  14.4239700  16.4847330   2.5214840   2.3869670  18.6943870   5.5424690
   3.0679780  18.9582240   6.1612090   2.0717720  17.8544740   5.8762700
   6.5794240  19.7411230   4.6297280   7.0872460  20.2392200   5.2702300
   7.1107480  18.9646430   4.4536640  18.6805170  17.9116420   8.3326630
  17.9757340  18.2998130   7.8141740  18.9463090  18.6066710   8.9347560
   4.8630340  14.3809790   8.8960700   4.8648780  14.8982180   8.0906600
   4.0334650  13.9039970   8.8730630   6.1133190  24.0204970   7.0734200
   5.7802570  24.6473890   7.7155270   6.2899870  24.5466850   6.2935870
  14.6267100  17.8350050   4.5410540  13.9222670  18.1234940   5.1213650
  14.9879260  18.6450160   4.1810100   4.5445670  16.0919750   6.9031150
   4.8862480  16.9361800   6.6085020   3.6061480  16.2403490   7.0196490
   5.3252290  25.9885770   8.8883380   5.9426290  26.6636850   8.6067830
   4.4645410  26.3973750   8.7970880  16.2429880  27.4525180   6.8038020
  15.5593400  28.1224290   6.7954690  16.7824170  27.6505830   6.0382880
  17.6954020  17.2804840   4.9319750  16.7478930  17.3143820   5.0635180
  18.0204010  18.0943790   5.3169110   8.2273560  13.5802020   3.2275740
   8.5348540  13.0248910   2.5111240   7.2974260  13.7146480   3.0448730
  13.7788620  29.2969310   5.5183200  13.7915780  28.8931600   4.6505460
  13.2263840  30.0716600   5.4144630  13.1774060  24.1999150   6.8465810
  13.5942850  23.9859260   6.0119270  13.9013880  24.4571940   7.4174430
  17.1236160  22.5986370   6.9382050  16.2954790  22.6679460   6.4632180
  17.7186640  23.1840680   6.4697880  14.0878170  19.3855690   7.8836920
  13.6749350  20.2109400   8.1376910  13.3554120  18.8000730   7.6913280
   6.2210960  22.1715590   2.7455590   5.8167960  21.4592840   2.2501490
   6.3074080  21.8268830   3.6343630   6.6892660  25.8583150   4.9094800
   6.3920950  25.2528620   4.2302580   7.6392480  25.8960460   4.7984160
   4.9339580  18.9458800   6.5254630   5.4854170  19.0554140   5.7507880
   5.4483090  19.3196400   7.2409860  14.7778270  29.4315020   8.5717900
  14.3008830  30.2387210   8.3790510  14.0940060  28.7793350   8.7244110
   5.7811090  25.5964840  11.5602600   4.8839620  25.8204810  11.8076000
   5.8063960  25.7199780  10.6114000   4.6082310  22.4678160  10.1359970
   4.4690080  23.3400960  10.5047370   3.7263670  22.1250970   9.9907910
   6.4062660  28.4099860  12.3445120   6.3778090  28.8142810  11.4773550
   6.2427630  27.4810220  12.1816720  18.3577480  29.1926960  13.6409290
  18.8337200  29.6709850  14.3198370  18.9784640  29.1244450  12.9154790
   1.8048590  25.9375900   2.4637060   1.3976670  26.0790490   1.6090660
   2.6961600  25.6536060   2.2608270  17.7610730  26.3839810  10.8009300
  17.8873790  26.1451690   9.8826480  17.8032110  25.5524350  11.2731380
  11.6227470  30.0867810   9.3704110  12.1372140  29.9975820  10.1726540
  10.7796550  30.4327510   9.6632020  17.6134740  18.4372270  11.7659040
  16.9979010  18.9451940  11.2374500  17.2931160  17.5370600  11.7084980
   5.3879250  14.4095640   3.6285910   4.9447400  15.1905180   3.2970430
   5.9464240  14.7325530   4.3356850   9.6749060  17.2764160   9.2321230
   9.2128430  17.4847180  10.0441170   9.2727170  16.4623510   8.9291900
  14.6753570  18.4973110  10.3617890  13.8247160  18.1978860  10.6826960
  14.5155360  18.7415120   9.4501710  11.7703280  19.9974860  12.4616680
  12.0956690  19.1638610  12.1218910  12.5583610  20.5203380  12.6095010
   7.4255150  14.9542970   5.4875510   7.7227480  15.8605800   5.4067530
   7.9740710  14.4661750   4.8735080   7.6192680  20.4314790  12.0227430
   7.5236280  19.4909520  11.8727830   8.4624660  20.6529860  11.6275500
   2.7503220  16.8428460  10.1761210   2.3566610  17.6903670  10.3833990
   2.0621620  16.2054830  10.3669850   9.3248270  16.9263430  13.2457950
   8.6346590  16.7335630  13.8804040  10.0680570  17.2098070  13.7782250
  11.6011240  20.7661870   6.0811870  10.8692360  21.2748680   6.4301970
  11.2035580  19.9491850   5.7800650   8.0388630  17.4416070   4.4864360
   8.0424690  17.0006020   3.6368900   8.9339750  17.7633400   4.5936180
   3.8891010  17.3242560   3.4458570   3.5491060  17.8017790   4.2025620
   3.1268330  16.8707680   3.0859670  12.0637150  16.2195550   5.4934810
  12.0809890  16.6704200   6.3376660  11.8152730  15.3201190   5.7068250
  15.4907900  13.6327730  11.3321190  15.8153670  12.9017390  11.8579170
  15.5264410  13.3141370  10.4302180   2.1899460  24.6541310  10.7521150
   1.8054250  24.0134980  11.3504110   2.5011650  25.3577430  11.3215880
   8.3396600  21.5017850   6.2329770   8.7066730  21.0276420   6.9791110
   8.1501660  22.3759420   6.5738110   6.1295970  20.5426490   8.5513980
   5.8253040  21.4218470   8.7764340   7.0842430  20.6026280   8.5871420
  15.4165740  23.7452840   4.9407220  16.1364860  24.2408130   4.5503330
  15.2147560  23.0670730   4.2961090  10.7984540  23.8161900  10.8276220
  10.7321850  22.8957570  10.5733810  10.1689680  23.9137340  11.5420860
   4.7015160  24.4167860   2.7859640   5.2193830  23.6136120   2.7316530
   4.2499180  24.3547000   3.6276470   2.1859700  21.3829230   9.6985340
   1.8274640  22.0483080  10.2858680   1.8914260  20.5512780  10.0697960
   5.3872820  21.8413470  12.5824890   5.0872960  21.9870650  11.6852710
   6.1584060  21.2818760  12.4898280  10.7301270  26.6382470  10.5780020
  10.7445810  25.7063430  10.3598930  10.0226370  26.7242230  11.2169790
  16.9412480  23.2789810   9.9248600  16.2160670  23.8718590   9.7277990
  17.4687940  23.2713350   9.1261970  12.4712070  25.0049980   3.4232450
  12.8235890  24.4078110   2.7633820  11.5874400  24.6794210   3.5940700
  10.1635170  28.2800040   7.6720520  10.8077390  28.4859420   8.3493940
  10.5264610  27.5188440   7.2191370  11.4367250  26.2832390   6.3897970
  12.0789480  25.5825550   6.5030140  11.9616600  27.0630830   6.2094860
  13.2104870  27.0827290   9.5934030  13.5461110  27.6693980  10.2711950
  12.2905210  26.9520000   9.8231820   9.0393450  27.1318620  12.7622090
   8.7190320  26.4127860  13.3067780   8.3651810  27.8073690  12.8358150
  12.2547050  17.3644780   8.1258890  12.6227870  16.5439990   8.4538460
  11.3945250  17.4246670   8.5414540   9.2149040  20.0184370   8.3496860
   9.7134290  20.4930190   9.0148710   9.3571990  19.0947890   8.5566890
  16.4215900  16.2352330   9.1925250  15.9189500  16.9757730   9.5319060
  17.2372560  16.6236330   8.8762040  14.7137910  21.4785510   2.6386610
  13.7728050  21.4935740   2.8134300  15.0281980  20.6921470   3.0846910
  16.7163490  28.6494360   4.3140870  16.8410910  29.4725530   4.7864680
  17.5829050  28.4385090   3.9665020   4.1881020  30.7425570   3.9858000
   4.9243500  30.1941030   4.2566570   4.5721940  31.6081580   3.8463990
   3.1939300  29.9271640  13.1743580   3.9952030  30.2483690  13.5878980
   2.6791120  29.5667220  13.8963490  12.0303930  26.0351510  13.1218990
  11.4242090  26.0583110  12.3814740  11.7258040  25.3034550  13.6586240
  13.4604300  29.7631800  11.7328400  14.4126050  29.6789820  11.6828640
  13.3132520  30.4273510  12.4062190   7.9675050  23.8216090  11.6515150
   7.2020720  24.3901090  11.5669820   8.1491010  23.5292300  10.7583380
  15.1098400  25.5521420  12.2090170  15.8507870  25.8897180  11.7057630
  14.3471080  25.7213480  11.6559940   2.9460190  20.5574690  13.0129700
   2.9865530  20.2588560  13.9214930   3.8005690  20.9582300  12.8537220
   4.8866000  19.1366790  10.9804190   4.3562460  18.6457740  10.3527530
   5.5554070  19.5650990  10.4462120  13.7844060  23.6036250  10.7445380
  14.1985080  23.7581330  11.5935800  12.8495060  23.7291470  10.9071160
  14.2566230  20.9432410  12.7484530  14.8387000  20.1884730  12.6605010
  14.4328000  21.4739850  11.9716010   5.3738300  16.1029160  11.0601480
   5.2795170  15.4849910  10.3352350   4.7935690  16.8295450  10.8331390
   8.1399740  14.6602400   8.0928870   7.6917040  14.6826660   7.2474420
   7.5064940  14.2621420   8.6899170   8.5459290  23.5556730   8.7141310
   8.9647400  24.3989460   8.5417550   7.6267920  23.6928770   8.4848090
  10.8823190  21.2872910  10.0979150  11.0019400  20.6914050  10.8373990
  11.7417190  21.3242600   9.6780450  13.2211090  21.8410100   8.6741660
  12.6946310  22.3652720   8.0706800  13.5642430  22.4737490   9.3051390
   6.3966710  29.8609740   9.8299040   5.8587800  30.5855800   9.5107740
   6.6500670  29.3840080   9.0396380   7.6491960  17.8294260  11.3554970
   8.2391650  17.5210110  12.0432790   6.8312200  17.3574010  11.5114870
  12.4685390  17.4460070  11.5887990  11.7800910  16.7841610  11.5237980
  13.1891410  16.9998340  12.0336450   9.2528920  31.0960950  10.0885690
   9.1787620  31.9996090  10.3958060   8.3507760  30.7772850  10.0607760
  16.7808600  28.7923130  10.4178250  16.1810590  28.8515690   9.6742170
  16.9102500  27.8528110  10.5475100  18.4826480  24.1338530   3.1024090
  18.8535310  23.3505850   2.6960060  19.1228410  24.8227630   2.9241390
  15.4660240  25.5175110   8.5154410  14.6520080  25.9472270   8.7780200
  15.8734440  26.1293520   7.9023460   2.0146780  22.1878930   7.0293160
   2.3819820  22.1006330   7.9089180   1.4457600  21.4245480   6.9300020
  16.8150640  20.6563310  10.0423630  16.5836730  20.4276060   9.1421580
  17.0755190  21.5762860   9.9968520  15.2538710  15.8819740  12.8203330
  16.1308890  15.8903140  13.2037330  15.2659550  15.1450580  12.2095680
  16.7001980  19.7349280   3.7091350  17.2239460  19.2411930   3.0781520
  17.2861400  19.8699640   4.4538920  16.8791700  19.8189150   7.2310900
  15.9294410  19.7852690   7.3455890  17.0604710  20.7289260   6.9960670
   2.0702490  13.3736350   5.2834800   2.7178680  12.8233730   4.8429960
   2.4904330  13.6279500   6.1050610  17.6189110  17.6283580   2.1821440
  17.5088390  17.4739620   3.1203710  18.3796700  17.1004520   1.9396850
  15.9654830  13.5677710   8.6404440  16.6027050  14.1811850   9.0063630
  16.1129720  13.6038370   7.6953670   1.8234490  13.5292020   8.0260120
   1.4749310  13.9855840   8.7918300   1.4922190  12.6349150   8.1082550
   3.4298860  26.7011620  12.1913310   3.3868490  26.3304530  13.0727770
   3.5609870  27.6389190  12.3315130   7.1304890  28.2571210   7.7923030
   6.8896250  28.5245770   6.9053550   8.0707530  28.4276940   7.8473890
   9.3359310  14.7203900  11.5479540   9.2748200  15.3125730  12.2974950
  10.2759690  14.6129860  11.4029800  11.9733870  14.3773960  11.1871830
  12.5874280  14.6953250  10.5252910  12.5183430  13.8922550  11.8067690
  18.3909050  30.2765590   8.5933670  17.8967330  30.6734460   7.8760800
  17.7822340  29.6514800   8.9870950   2.4955130  13.0568220  11.3010890
   3.0438120  12.8756270  10.5377000   2.5610440  12.2662330  11.8367200
   3.2686890  29.6473870   9.3111090   2.6747210  29.5158570  10.0501130
   3.2610730  28.8112010   8.8453190  12.7141910  12.9406100   7.5141120
  11.8401750  13.2741210   7.3114050  12.6052660  12.4679280   8.3392990
  13.6213890  15.1476970   8.8982840  13.2927250  14.3328730   8.5184570
  14.5696190  15.1046780   8.7748530  16.0748500  30.9189010   5.8720410
  15.6151470  31.6704820   5.4978430  15.4460960  30.1995480   5.8135210
   2.8999120  27.0132250   8.2619130   2.1733180  26.3937540   8.1945080
   2.9608270  27.4072860   7.3917210   6.5044220  29.2277250   5.0468540
   7.0209240  28.6164610   4.5216800   7.1541600  29.7306030   5.5379550
   9.2439720  30.1185740   5.8737520   9.5317530  29.8640040   4.9970530
   9.7562940  29.5663100   6.4643090  10.4616730  13.8575940   6.4534030
   9.6788520  14.3321440   6.7330790  10.1679660  12.9530770   6.3447210
  15.0137800  14.5599040   4.4983120  15.4545890  14.5044140   3.6504720
  14.7445390  15.4757050   4.5693300  16.8776370  14.1914280   2.5091940
  16.8164770  13.2475500   2.3622960  17.6568400  14.2994370   3.0545400
   8.3470950  16.2762690   1.9650060   7.5345460  15.9019580   1.6245940
   8.8512590  15.5207770   2.2671250  12.8495930  12.9405140   3.2033130
  13.4525300  13.5125350   3.6781650  12.1088920  13.5044580   2.9807030
   9.3112080  31.0401840  13.2405720  10.2379390  30.8046110  13.2841680
   9.2962510  31.8673840  12.7591750   6.4975690  13.7046590  13.0047600
   6.2159960  14.2080190  12.2408420   6.8795390  12.9068340  12.6389730
  13.0991150  13.1200170  13.5828070  12.9856600  13.4394780  14.4779590
  13.9160890  13.5212680  13.2865350  15.8789640  30.2671700  13.0646760
  16.6714960  29.7720930  12.8572720  16.1722790  30.9461840  13.6722370
  10.1367340   4.1428170  79.6989530   9.3609440   3.6628610  79.9888100
  10.7880270   3.4633820  79.5245690   4.1533170   4.4547980  80.5765290
   3.3218050   4.1996690  80.9761800   4.7614150   4.5258750  81.3123210
  14.1574770   8.5488360  78.4788660  13.6956300   7.7775600  78.8075830
  14.9700320   8.5754430  78.9841110   4.1334430   8.4888070  80.7723310
   4.4362470   7.5985810  80.5933530   4.8778020   9.0458290  80.5445560
  10.3838080  10.8346370  78.0992650   9.7649520  11.2903870  77.5287090
  11.2389860  10.9897830  77.6982350   9.5776330   6.8185360  79.7059690
   9.5084610   5.8775300  79.5448820  10.3396190   6.9086770  80.2782260
  11.2501430   5.7185610  75.4924560  10.6318700   6.1835060  74.9287280
  11.7624680   6.4113090  75.9094070  16.2429880   8.6781690  81.9011980
  15.5593400   9.3480800  81.8928650  16.7824170   8.8762340  81.1356840
  13.7788620  10.5225820  80.6157160  13.7915780  10.1188110  79.7479420
  13.2263840  11.2973110  80.5118590  15.0734040   7.2442040  75.7047330
  14.9630370   6.3016370  75.8296750  15.0702290   7.6057680  76.5910090
  10.6154320   2.8707360  75.0609820   9.6883600   2.8044740  75.2898290
  10.7679140   3.8087490  74.9465060  17.1236160   3.8242880  82.0356010
  16.2954790   3.8935970  81.5606140  17.7186640   4.4097190  81.5671840
  14.6451610   4.4327660  75.5645070  14.0264030   4.0947210  74.9171370
  14.6276060   3.7887420  76.2724260   6.2210960   3.3972100  77.8429550
   5.8167960   2.6849350  77.3475450   6.3074080   3.0525340  78.7317590
   6.6892660   7.0839660  80.0068760   6.3920950   6.4785130  79.3276540
   7.6392480   7.1216970  79.8958120  12.8216310   3.6714470  72.5717820
  13.2609590   2.8336900  72.4255640  13.5344730   4.3043870  72.6581960
  10.9311690   8.6110540  76.5399060  11.3707600   9.3534870  76.1254450
  10.8698580   8.8537110  77.4638020   1.8048590   7.1632410  77.5611020
   1.3976670   7.3047000  76.7064620   2.6961600   6.8792570  77.3582230
  13.5981870  11.5979660  73.8962070  13.4383010  11.3082600  74.7943900
  13.4328580  10.8219790  73.3607300   6.0770250  11.3778190  75.6733690
   5.9012730  10.4613730  75.4601490   5.2225990  11.7365480  75.9131490
  13.3008000   9.1067220  72.4560070  12.6073160   9.1044510  71.7962350
  14.0430860   8.6826540  72.0254240  12.8657930  10.7329930  76.5308560
  13.3214880   9.9519310  76.8447180  13.2050450  11.4436750  77.0749740
   8.3396600   2.7274360  81.3303730   8.7066730   2.2532930  82.0765070
   8.1501660   3.6015930  81.6712070   4.6577760   5.9743990  74.2454790
   3.8840020   5.4341610  74.0853510   5.3872390   5.4550600  73.9072550
  15.4165740   4.9709350  80.0381180  16.1364860   5.4664640  79.6477290
  15.2147560   4.2927240  79.3935050   4.7015160   5.6424370  77.8833600
   5.2193830   4.8392630  77.8290490   4.2499180   5.5803510  78.7250430
   9.5884660   6.9090650  73.1560900   9.9300360   7.6532880  72.6604220
   8.7597370   7.2221770  73.5185730  15.8638340   2.0478800  71.9452590
  15.7802060   2.4793020  71.0949030  16.5832530   2.5077150  72.3779410
  16.8925590   8.9021060  74.6734720  16.2501750   8.2476680  74.9478440
  16.5056250   9.3076150  73.8975390  12.4712070   6.2306490  78.5206410
  12.8235890   5.6334620  77.8607780  11.5874400   5.9050720  78.6914660
   8.5575350   6.9904180  75.9276820   9.2446480   7.5373390  76.3084410
   7.7707770   7.5344910  75.9626430   7.8602560   3.9950210  75.5402180
   8.3165340   4.8055460  75.7662370   7.5090770   3.6773350  76.3720670
  11.4367250   7.5088900  81.4871930  12.0789480   6.8082060  81.6004100
  11.9616600   8.2887340  81.3068820  15.2822970   7.7937520  71.2111070
  15.0560550   7.0767960  71.8035710  14.8919170   7.5449960  70.3732820
  14.8639220   5.7109460  72.8725230  14.5760920   6.1722150  73.6603110
  15.6591390   5.2507230  73.1409450   7.0807620   9.2035580  72.8029200
   7.0717720   9.9365270  72.1873710   6.1605980   8.9567160  72.8956160
   2.6814260   4.4250470  73.5475960   2.0742210   5.1649370  73.5571260
   3.1563610   4.5149830  72.7214160  10.0667220   9.2663820  71.4654390
  10.1679200   9.0627810  70.5356370   9.1668960   9.0122100  71.6702170
   8.7085330  11.7850140  76.1602060   8.9626830  11.7471530  75.2381430
   7.7597810  11.6583470  76.1530310  14.7137910   2.7042020  77.7360570
  13.7728050   2.7192250  77.9108260  15.0281980   1.9177980  78.1820870
   4.6919550   4.3861620  71.2964530   5.4582820   4.2742980  71.8589960
   4.7694240   3.6899590  70.6441300  16.7163490   9.8750870  79.4114830
  16.8410910  10.6982040  79.8838640  17.5829050   9.6641600  79.0638980
   4.1881020  11.9682080  79.0831960   4.9243500  11.4197540  79.3540530
   4.5721940  12.8338090  78.9437950   7.2983330  11.1412390  70.9057530
   8.0911940  11.4301220  70.4539320   6.7787680  10.7104560  70.2270010
  16.3513500  10.3682520  72.3294270  16.0655010   9.9547660  71.5148450
  16.1533050  11.2970230  72.2094790   7.8160730   6.3615800  70.7699880
   7.7111370   5.7468150  71.4961260   7.6484950   5.8381690  69.9862890
  11.0563460   5.4235830  71.3741870  10.5073560   5.8705130  72.0184610
  11.6782720   4.9185080  71.8979540   6.7238580   4.3826750  73.2707170
   7.1455000   4.2166620  74.1138560   6.8489420   3.5726980  72.7762310
   9.2366220   3.4064360  70.5184270   9.7571880   2.6913380  70.1525420
   9.8834620   4.0450230  70.8184780   9.8014250  11.4875970  72.8086010
  10.6965040  11.8260940  72.8304770   9.8331880  10.7655380  72.1810290
   3.4410410   6.8603020  71.0373010   3.8785280   7.4032690  71.6930590
   3.9258140   6.0349970  71.0469350   5.2518130   7.9801060  76.1495240
   4.9513670   7.8566030  77.0499150   5.1455620   7.1209650  75.7410970
  18.0210050   7.7597460  70.8521920  17.1903010   7.8274110  71.3229150
  18.1981880   8.6501580  70.5488780  17.4766510   4.5044940  73.3556120
  18.2385420   5.0741590  73.4615810  17.4920880   3.9372140  74.1264430
  18.4826480   5.3595040  78.1998050  18.8535310   4.5762360  77.7934020
  19.1228410   6.0484140  78.0215350  17.5285680   4.7979310  70.5128640
  17.8034520   5.7058190  70.3847860  17.3396420   4.7341840  71.4490630
  17.4251020   2.7348300  75.5058070  17.0494620   1.9676230  75.0739360
  16.6954140   3.1171000  75.9933000  15.5236290  11.4950220  77.1396640
  16.1195360  11.1734790  76.4631060  15.7814440  11.0222040  77.9309910
  16.0748500  12.1445520  80.9694370  15.6151470  12.8961330  80.5952390
  15.4460960  11.4251990  80.9109170   6.5044220  10.4533760  80.1442500
   7.0209240   9.8421120  79.6190760   7.1541600  10.9562540  80.6353510
   9.2439720  11.3442250  80.9711480   9.5317530  11.0896550  80.0944490
   9.7562940  10.7919610  81.5617050   2.7891820  10.2496380  74.0139990
   2.2639440  10.6304410  73.3101950   2.7136400  10.8747150  74.7349700
  17.5457140  11.8083920  75.3353930  17.7209330  11.1221660  74.6914850
  16.8478710  12.3330970  74.9430600   5.3884790  12.1978760  72.8889240
   6.1203610  11.9138040  72.3413130   5.6478460  11.9592040  73.7788620
   4.5499580   8.3143490  72.8935570   3.9208460   8.7828590  73.4421400
   4.6647410   7.4692710  73.3281760  10.1367340   4.1428170  60.9246040
   9.3609440   3.6628610  61.2144610  10.7880270   3.4633820  60.7502200
   4.1533170   4.4547980  61.8021800   3.3218050   4.1996690  62.2018310
   4.7614150   4.5258750  62.5379720  14.1574770   8.5488360  59.7045170
  13.6956300   7.7775600  60.0332340  14.9700320   8.5754430  60.2097620
   4.1334430   8.4888070  61.9979820   4.4362470   7.5985810  61.8190040
   4.8778020   9.0458290  61.7702070  10.3838080  10.8346370  59.3249160
   9.7649520  11.2903870  58.7543600  11.2389860  10.9897830  58.9238860
   9.5776330   6.8185360  60.9316200   9.5084610   5.8775300  60.7705330
  10.3396190   6.9086770  61.5038770  11.2501430   5.7185610  56.7181070
  10.6318700   6.1835060  56.1543790  11.7624680   6.4113090  57.1350580
   6.1133190   5.2461480  63.3964670   5.7802570   5.8730400  64.0385740
   6.2899870   5.7723360  62.6166340   5.3252290   7.2142280  65.2113850
   5.9426290   7.8893360  64.9298300   4.4645410   7.6230260  65.1201350
  16.2429880   8.6781690  63.1268490  15.5593400   9.3480800  63.1185160
  16.7824170   8.8762340  62.3613350  13.7788620  10.5225820  61.8413670
  13.7915780  10.1188110  60.9735930  13.2263840  11.2973110  61.7375100
  15.0734040   7.2442040  56.9303840  14.9630370   6.3016370  57.0553260
  15.0702290   7.6057680  57.8166600  13.1774060   5.4255660  63.1696280
  13.5942850   5.2115770  62.3349740  13.9013880   5.6828450  63.7404900
  10.6154320   2.8707360  56.2866330   9.6883600   2.8044740  56.5154800
  10.7679140   3.8087490  56.1721570  17.1236160   3.8242880  63.2612520
  16.2954790   3.8935970  62.7862650  17.7186640   4.4097190  62.7928350
  14.6451610   4.4327660  56.7901580  14.0264030   4.0947210  56.1427880
  14.6276060   3.7887420  57.4980770   6.2210960   3.3972100  59.0686060
   5.8167960   2.6849350  58.5731960   6.3074080   3.0525340  59.9574100
   6.6892660   7.0839660  61.2325270   6.3920950   6.4785130  60.5533050
   7.6392480   7.1216970  61.1214630  14.7778270  10.6571530  64.8948370
  14.3008830  11.4643720  64.7020980  14.0940060  10.0049860  65.0474580
   5.7811090   6.8221350  67.8833070   4.8839620   7.0461320  68.1306470
   5.8063960   6.9456290  66.9344470  12.8216310   3.6714470  53.7974330
  13.2609590   2.8336900  53.6512150  13.5344730   4.3043870  53.8838470
   4.6082310   3.6934670  66.4590440   4.4690080   4.5657470  66.8277840
   3.7263670   3.3507480  66.3138380  10.9311690   8.6110540  57.7655570
  11.3707600   9.3534870  57.3510960  10.8698580   8.8537110  58.6894530
   6.4062660   9.6356370  68.6675590   6.3778090  10.0399320  67.8004020
   6.2427630   8.7066730  68.5047190  18.3577480  10.4183470  69.9639760
  18.8337200  10.8966360  70.6428840  18.9784640  10.3500960  69.2385260
   1.8048590   7.1632410  58.7867530   1.3976670   7.3047000  57.9321130
   2.6961600   6.8792570  58.5838740  17.7610730   7.6096320  67.1239770
  17.8873790   7.3708200  66.2056950  17.8032110   6.7780860  67.5961850
  11.6227470  11.3124320  65.6934580  12.1372140  11.2232330  66.4957010
  10.7796550  11.6584020  65.9862490  13.5981870  11.5979660  55.1218580
  13.4383010  11.3082600  56.0200410  13.4328580  10.8219790  54.5863810
   6.0770250  11.3778190  56.8990200   5.9012730  10.4613730  56.6858000
   5.2225990  11.7365480  57.1388000  13.3008000   9.1067220  53.6816580
  12.6073160   9.1044510  53.0218860  14.0430860   8.6826540  53.2510750
  12.8657930  10.7329930  57.7565070  13.3214880   9.9519310  58.0703690
  13.2050450  11.4436750  58.3006250   2.1899460   5.8797820  67.0751620
   1.8054250   5.2391490  67.6734580   2.5011650   6.5833940  67.6446350
   8.3396600   2.7274360  62.5560240   8.7066730   2.2532930  63.3021580
   8.1501660   3.6015930  62.8968580   6.1295970   1.7683000  64.8744450
   5.8253040   2.6474980  65.0994810   7.0842430   1.8282790  64.9101890
   4.6577760   5.9743990  55.4711300   3.8840020   5.4341610  55.3110020
   5.3872390   5.4550600  55.1329060  15.4165740   4.9709350  61.2637690
  16.1364860   5.4664640  60.8733800  15.2147560   4.2927240  60.6191560
  10.7984540   5.0418410  67.1506690  10.7321850   4.1214080  66.8964280
  10.1689680   5.1393850  67.8651330   4.7015160   5.6424370  59.1090110
   5.2193830   4.8392630  59.0547000   4.2499180   5.5803510  59.9506940
   9.5884660   6.9090650  54.3817410   9.9300360   7.6532880  53.8860730
   8.7597370   7.2221770  54.7442240   2.1859700   2.6085740  66.0215810
   1.8274640   3.2739590  66.6089150   1.8914260   1.7769290  66.3928430
   5.3872820   3.0669980  68.9055360   5.0872960   3.2127160  68.0083180
   6.1584060   2.5075270  68.8128750  10.7301270   7.8638980  66.9010490
  10.7445810   6.9319940  66.6829400  10.0226370   7.9498740  67.5400260
  15.8638340   2.0478800  53.1709100  15.7802060   2.4793020  52.3205540
  16.5832530   2.5077150  53.6035920  16.9412480   4.5046320  66.2479070
  16.2160670   5.0975100  66.0508460  17.4687940   4.4969860  65.4492440
  16.8925590   8.9021060  55.8991230  16.2501750   8.2476680  56.1734950
  16.5056250   9.3076150  55.1231900  12.4712070   6.2306490  59.7462920
  12.8235890   5.6334620  59.0864290  11.5874400   5.9050720  59.9171170
   8.5575350   6.9904180  57.1533330   9.2446480   7.5373390  57.5340920
   7.7707770   7.5344910  57.1882940   7.8602560   3.9950210  56.7658690
   8.3165340   4.8055460  56.9918880   7.5090770   3.6773350  57.5977180
  10.1635170   9.5056550  63.9950990  10.8077390   9.7115930  64.6724410
  10.5264610   8.7444950  63.5421840  11.4367250   7.5088900  62.7128440
  12.0789480   6.8082060  62.8260610  11.9616600   8.2887340  62.5325330
  15.2822970   7.7937520  52.4367580  15.0560550   7.0767960  53.0292220
  14.8919170   7.5449960  51.5989330  13.2104870   8.3083800  65.9164500
  13.5461110   8.8950490  66.5942420  12.2905210   8.1776510  66.1462290
  14.8639220   5.7109460  54.0981740  14.5760920   6.1722150  54.8859620
  15.6591390   5.2507230  54.3665960   9.0393450   8.3575130  69.0852560
   8.7190320   7.6384370  69.6298250   8.3651810   9.0330200  69.1588620
   7.0807620   9.2035580  54.0285710   7.0717720   9.9365270  53.4130220
   6.1605980   8.9567160  54.1212670   2.6814260   4.4250470  54.7732470
   2.0742210   5.1649370  54.7827770   3.1563610   4.5149830  53.9470670
  10.0667220   9.2663820  52.6910900  10.1679200   9.0627810  51.7612880
   9.1668960   9.0122100  52.8958680   8.7085330  11.7850140  57.3858570
   8.9626830  11.7471530  56.4637940   7.7597810  11.6583470  57.3786820
  14.7137910   2.7042020  58.9617080  13.7728050   2.7192250  59.1364770
  15.0281980   1.9177980  59.4077380   4.6919550   4.3861620  52.5221040
   5.4582820   4.2742980  53.0846470   4.7694240   3.6899590  51.8697810
  16.7163490   9.8750870  60.6371340  16.8410910  10.6982040  61.1095150
  17.5829050   9.6641600  60.2895490   4.1881020  11.9682080  60.3088470
   4.9243500  11.4197540  60.5797040   4.5721940  12.8338090  60.1694460
   3.1939300  11.1528150  69.4974050   3.9952030  11.4740200  69.9109450
   2.6791120  10.7923730  70.2193960   7.2983330  11.1412390  52.1314040
   8.0911940  11.4301220  51.6795830   6.7787680  10.7104560  51.4526520
  12.0303930   7.2608020  69.4449460  11.4242090   7.2839620  68.7045210
  11.7258040   6.5291060  69.9816710  13.4604300  10.9888310  68.0558870
  14.4126050  10.9046330  68.0059110  13.3132520  11.6530020  68.7292660
  16.3513500  10.3682520  53.5550780  16.0655010   9.9547660  52.7404960
  16.1533050  11.2970230  53.4351300   7.8160730   6.3615800  51.9956390
   7.7111370   5.7468150  52.7217770   7.6484950   5.8381690  51.2119400
   7.9675050   5.0472600  67.9745620   7.2020720   5.6157600  67.8900290
   8.1491010   4.7548810  67.0813850  11.0563460   5.4235830  52.5998380
  10.5073560   5.8705130  53.2441120  11.6782720   4.9185080  53.1236050
  15.1098400   6.7777930  68.5320640  15.8507870   7.1153690  68.0288100
  14.3471080   6.9469990  67.9790410   6.7238580   4.3826750  54.4963680
   7.1455000   4.2166620  55.3395070   6.8489420   3.5726980  54.0018820
   9.2366220   3.4064360  51.7440780   9.7571880   2.6913380  51.3781930
   9.8834620   4.0450230  52.0441290  13.7844060   4.8292760  67.0675850
  14.1985080   4.9837840  67.9166270  12.8495060   4.9547980  67.2301630
   8.5459290   4.7813240  65.0371780   8.9647400   5.6245970  64.8648020
   7.6267920   4.9185280  64.8078560  10.8823190   2.5129420  66.4209620
  11.0019400   1.9170560  67.1604460  11.7417190   2.5499110  66.0010920
  13.2211090   3.0666610  64.9972130  12.6946310   3.5909230  64.3937270
  13.5642430   3.6994000  65.6281860   6.3966710  11.0866250  66.1529510
   5.8587800  11.8112310  65.8338210   6.6500670  10.6096590  65.3626850
   9.2528920  12.3217460  66.4116160   9.1787620  13.2252600  66.7188530
   8.3507760  12.0029360  66.3838230   9.8014250  11.4875970  54.0342520
  10.6965040  11.8260940  54.0561280   9.8331880  10.7655380  53.4066800
   3.4410410   6.8603020  52.2629520   3.8785280   7.4032690  52.9187100
   3.9258140   6.0349970  52.2725860   5.2518130   7.9801060  57.3751750
   4.9513670   7.8566030  58.2755660   5.1455620   7.1209650  56.9667480
  16.7808600  10.0179640  66.7408720  16.1810590  10.0772200  65.9972640
  16.9102500   9.0784620  66.8705570  18.0210050   7.7597460  52.0778430
  17.1903010   7.8274110  52.5485660  18.1981880   8.6501580  51.7745290
  17.4766510   4.5044940  54.5812630  18.2385420   5.0741590  54.6872320
  17.4920880   3.9372140  55.3520940  18.4826480   5.3595040  59.4254560
  18.8535310   4.5762360  59.0190530  19.1228410   6.0484140  59.2471860
  15.4660240   6.7431620  64.8384880  14.6520080   7.1728780  65.1010670
  15.8734440   7.3550030  64.2253930  17.5285680   4.7979310  51.7385150
  17.8034520   5.7058190  51.6104370  17.3396420   4.7341840  52.6747140
  17.4251020   2.7348300  56.7314580  17.0494620   1.9676230  56.2995870
  16.6954140   3.1171000  57.2189510   2.0146780   3.4135440  63.3523630
   2.3819820   3.3262840  64.2319650   1.4457600   2.6501990  63.2530490
  15.5236290  11.4950220  58.3653150  16.1195360  11.1734790  57.6887570
  15.7814440  11.0222040  59.1566420   3.4298860   7.9268130  68.5143780
   3.3868490   7.5561040  69.3958240   3.5609870   8.8645700  68.6545600
   7.1304890   9.4827720  64.1153500   6.8896250   9.7502280  63.2284020
   8.0707530   9.6533450  64.1704360  18.3909050  11.5022100  64.9164140
  17.8967330  11.8990970  64.1991270  17.7822340  10.8771310  65.3101420
   3.2686890  10.8730380  65.6341560   2.6747210  10.7415080  66.3731600
   3.2610730  10.0368520  65.1683660  16.0748500  12.1445520  62.1950880
  15.6151470  12.8961330  61.8208900  15.4460960  11.4251990  62.1365680
   2.8999120   8.2388760  64.5849600   2.1733180   7.6194050  64.5175550
   2.9608270   8.6329370  63.7147680   6.5044220  10.4533760  61.3699010
   7.0209240   9.8421120  60.8447270   7.1541600  10.9562540  61.8610020
   9.2439720  11.3442250  62.1967990   9.5317530  11.0896550  61.3201000
   9.7562940  10.7919610  62.7873560   2.7891820  10.2496380  55.2396500
   2.2639440  10.6304410  54.5358460   2.7136400  10.8747150  55.9606210
   9.3112080  12.2658350  69.5636190  10.2379390  12.0302620  69.6072150
   9.2962510  13.0930350  69.0822220  17.5457140  11.8083920  56.5610440
  17.7209330  11.1221660  55.9171360  16.8478710  12.3330970  56.1687110
   5.3884790  12.1978760  54.1145750   6.1203610  11.9138040  53.5669640
   5.6478460  11.9592040  55.0045130   4.5499580   8.3143490  54.1192080
   3.9208460   8.7828590  54.6677910   4.6647410   7.4692710  54.5538270
  15.8789640  11.4928210  69.3877230  16.6714960  10.9977440  69.1803190
  16.1722790  12.1718350  69.9952840  10.1367340   4.1428170  42.1502550
   9.3609440   3.6628610  42.4401120  10.7880270   3.4633820  41.9758710
   4.1533170   4.4547980  43.0278310   3.3218050   4.1996690  43.4274820
   4.7614150   4.5258750  43.7636230  14.1574770   8.5488360  40.9301680
  13.6956300   7.7775600  41.2588850  14.9700320   8.5754430  41.4354130
   4.1334430   8.4888070  43.2236330   4.4362470   7.5985810  43.0446550
   4.8778020   9.0458290  42.9958580  10.3838080  10.8346370  40.5505670
   9.7649520  11.2903870  39.9800110  11.2389860  10.9897830  40.1495370
   9.5776330   6.8185360  42.1572710   9.5084610   5.8775300  41.9961840
  10.3396190   6.9086770  42.7295280  11.2501430   5.7185610  37.9437580
  10.6318700   6.1835060  37.3800300  11.7624680   6.4113090  38.3607090
   6.1133190   5.2461480  44.6221180   5.7802570   5.8730400  45.2642250
   6.2899870   5.7723360  43.8422850   5.3252290   7.2142280  46.4370360
   5.9426290   7.8893360  46.1554810   4.4645410   7.6230260  46.3457860
  16.2429880   8.6781690  44.3525000  15.5593400   9.3480800  44.3441670
  16.7824170   8.8762340  43.5869860  13.7788620  10.5225820  43.0670180
  13.7915780  10.1188110  42.1992440  13.2263840  11.2973110  42.9631610
  15.0734040   7.2442040  38.1560350  14.9630370   6.3016370  38.2809770
  15.0702290   7.6057680  39.0423110  13.1774060   5.4255660  44.3952790
  13.5942850   5.2115770  43.5606250  13.9013880   5.6828450  44.9661410
  10.6154320   2.8707360  37.5122840   9.6883600   2.8044740  37.7411310
  10.7679140   3.8087490  37.3978080  17.1236160   3.8242880  44.4869030
  16.2954790   3.8935970  44.0119160  17.7186640   4.4097190  44.0184860
  14.6451610   4.4327660  38.0158090  14.0264030   4.0947210  37.3684390
  14.6276060   3.7887420  38.7237280   6.2210960   3.3972100  40.2942570
   5.8167960   2.6849350  39.7988470   6.3074080   3.0525340  41.1830610
   6.6892660   7.0839660  42.4581780   6.3920950   6.4785130  41.7789560
   7.6392480   7.1216970  42.3471140  14.7778270  10.6571530  46.1204880
  14.3008830  11.4643720  45.9277490  14.0940060  10.0049860  46.2731090
   5.7811090   6.8221350  49.1089580   4.8839620   7.0461320  49.3562980
   5.8063960   6.9456290  48.1600980  12.8216310   3.6714470  35.0230840
  13.2609590   2.8336900  34.8768660  13.5344730   4.3043870  35.1094980
   4.6082310   3.6934670  47.6846950   4.4690080   4.5657470  48.0534350
   3.7263670   3.3507480  47.5394890  10.9311690   8.6110540  38.9912080
  11.3707600   9.3534870  38.5767470  10.8698580   8.8537110  39.9151040
   6.4062660   9.6356370  49.8932100   6.3778090  10.0399320  49.0260530
   6.2427630   8.7066730  49.7303700  18.3577480  10.4183470  51.1896270
  18.8337200  10.8966360  51.8685350  18.9784640  10.3500960  50.4641770
   1.8048590   7.1632410  40.0124040   1.3976670   7.3047000  39.1577640
   2.6961600   6.8792570  39.8095250  17.7610730   7.6096320  48.3496280
  17.8873790   7.3708200  47.4313460  17.8032110   6.7780860  48.8218360
  11.6227470  11.3124320  46.9191090  12.1372140  11.2232330  47.7213520
  10.7796550  11.6584020  47.2119000  13.5981870  11.5979660  36.3475090
  13.4383010  11.3082600  37.2456920  13.4328580  10.8219790  35.8120320
   6.0770250  11.3778190  38.1246710   5.9012730  10.4613730  37.9114510
   5.2225990  11.7365480  38.3644510  13.3008000   9.1067220  34.9073090
  12.6073160   9.1044510  34.2475370  14.0430860   8.6826540  34.4767260
  12.8657930  10.7329930  38.9821580  13.3214880   9.9519310  39.2960200
  13.2050450  11.4436750  39.5262760   2.1899460   5.8797820  48.3008130
   1.8054250   5.2391490  48.8991090   2.5011650   6.5833940  48.8702860
   8.3396600   2.7274360  43.7816750   8.7066730   2.2532930  44.5278090
   8.1501660   3.6015930  44.1225090   6.1295970   1.7683000  46.1000960
   5.8253040   2.6474980  46.3251320   7.0842430   1.8282790  46.1358400
   4.6577760   5.9743990  36.6967810   3.8840020   5.4341610  36.5366530
   5.3872390   5.4550600  36.3585570  15.4165740   4.9709350  42.4894200
  16.1364860   5.4664640  42.0990310  15.2147560   4.2927240  41.8448070
  10.7984540   5.0418410  48.3763200  10.7321850   4.1214080  48.1220790
  10.1689680   5.1393850  49.0907840   4.7015160   5.6424370  40.3346620
   5.2193830   4.8392630  40.2803510   4.2499180   5.5803510  41.1763450
   9.5884660   6.9090650  35.6073920   9.9300360   7.6532880  35.1117240
   8.7597370   7.2221770  35.9698750   2.1859700   2.6085740  47.2472320
   1.8274640   3.2739590  47.8345660   1.8914260   1.7769290  47.6184940
   5.3872820   3.0669980  50.1311870   5.0872960   3.2127160  49.2339690
   6.1584060   2.5075270  50.0385260  10.7301270   7.8638980  48.1267000
  10.7445810   6.9319940  47.9085910  10.0226370   7.9498740  48.7656770
  15.8638340   2.0478800  34.3965610  15.7802060   2.4793020  33.5462050
  16.5832530   2.5077150  34.8292430  16.9412480   4.5046320  47.4735580
  16.2160670   5.0975100  47.2764970  17.4687940   4.4969860  46.6748950
  16.8925590   8.9021060  37.1247740  16.2501750   8.2476680  37.3991460
  16.5056250   9.3076150  36.3488410  12.4712070   6.2306490  40.9719430
  12.8235890   5.6334620  40.3120800  11.5874400   5.9050720  41.1427680
   8.5575350   6.9904180  38.3789840   9.2446480   7.5373390  38.7597430
   7.7707770   7.5344910  38.4139450   7.8602560   3.9950210  37.9915200
   8.3165340   4.8055460  38.2175390   7.5090770   3.6773350  38.8233690
  10.1635170   9.5056550  45.2207500  10.8077390   9.7115930  45.8980920
  10.5264610   8.7444950  44.7678350  11.4367250   7.5088900  43.9384950
  12.0789480   6.8082060  44.0517120  11.9616600   8.2887340  43.7581840
  15.2822970   7.7937520  33.6624090  15.0560550   7.0767960  34.2548730
  14.8919170   7.5449960  32.8245840  13.2104870   8.3083800  47.1421010
  13.5461110   8.8950490  47.8198930  12.2905210   8.1776510  47.3718800
  14.8639220   5.7109460  35.3238250  14.5760920   6.1722150  36.1116130
  15.6591390   5.2507230  35.5922470   9.0393450   8.3575130  50.3109070
   8.7190320   7.6384370  50.8554760   8.3651810   9.0330200  50.3845130
   7.0807620   9.2035580  35.2542220   7.0717720   9.9365270  34.6386730
   6.1605980   8.9567160  35.3469180   2.6814260   4.4250470  35.9988980
   2.0742210   5.1649370  36.0084280   3.1563610   4.5149830  35.1727180
  10.0667220   9.2663820  33.9167410  10.1679200   9.0627810  32.9869390
   9.1668960   9.0122100  34.1215190   8.7085330  11.7850140  38.6115080
   8.9626830  11.7471530  37.6894450   7.7597810  11.6583470  38.6043330
  14.7137910   2.7042020  40.1873590  13.7728050   2.7192250  40.3621280
  15.0281980   1.9177980  40.6333890   4.6919550   4.3861620  33.7477550
   5.4582820   4.2742980  34.3102980   4.7694240   3.6899590  33.0954320
  16.7163490   9.8750870  41.8627850  16.8410910  10.6982040  42.3351660
  17.5829050   9.6641600  41.5152000   4.1881020  11.9682080  41.5344980
   4.9243500  11.4197540  41.8053550   4.5721940  12.8338090  41.3950970
   3.1939300  11.1528150  50.7230560   3.9952030  11.4740200  51.1365960
   2.6791120  10.7923730  51.4450470   7.2983330  11.1412390  33.3570550
   8.0911940  11.4301220  32.9052340   6.7787680  10.7104560  32.6783030
  12.0303930   7.2608020  50.6705970  11.4242090   7.2839620  49.9301720
  11.7258040   6.5291060  51.2073220  13.4604300  10.9888310  49.2815380
  14.4126050  10.9046330  49.2315620  13.3132520  11.6530020  49.9549170
  16.3513500  10.3682520  34.7807290  16.0655010   9.9547660  33.9661470
  16.1533050  11.2970230  34.6607810   7.8160730   6.3615800  33.2212900
   7.7111370   5.7468150  33.9474280   7.6484950   5.8381690  32.4375910
   7.9675050   5.0472600  49.2002130   7.2020720   5.6157600  49.1156800
   8.1491010   4.7548810  48.3070360  11.0563460   5.4235830  33.8254890
  10.5073560   5.8705130  34.4697630  11.6782720   4.9185080  34.3492560
  15.1098400   6.7777930  49.7577150  15.8507870   7.1153690  49.2544610
  14.3471080   6.9469990  49.2046920   6.7238580   4.3826750  35.7220190
   7.1455000   4.2166620  36.5651580   6.8489420   3.5726980  35.2275330
   9.2366220   3.4064360  32.9697290   9.7571880   2.6913380  32.6038440
   9.8834620   4.0450230  33.2697800  13.7844060   4.8292760  48.2932360
  14.1985080   4.9837840  49.1422780  12.8495060   4.9547980  48.4558140
   8.5459290   4.7813240  46.2628290   8.9647400   5.6245970  46.0904530
   7.6267920   4.9185280  46.0335070  10.8823190   2.5129420  47.6466130
  11.0019400   1.9170560  48.3860970  11.7417190   2.5499110  47.2267430
  13.2211090   3.0666610  46.2228640  12.6946310   3.5909230  45.6193780
  13.5642430   3.6994000  46.8538370   6.3966710  11.0866250  47.3786020
   5.8587800  11.8112310  47.0594720   6.6500670  10.6096590  46.5883360
   9.2528920  12.3217460  47.6372670   9.1787620  13.2252600  47.9445040
   8.3507760  12.0029360  47.6094740   9.8014250  11.4875970  35.2599030
  10.6965040  11.8260940  35.2817790   9.8331880  10.7655380  34.6323310
   3.4410410   6.8603020  33.4886030   3.8785280   7.4032690  34.1443610
   3.9258140   6.0349970  33.4982370   5.2518130   7.9801060  38.6008260
   4.9513670   7.8566030  39.5012170   5.1455620   7.1209650  38.1923990
  16.7808600  10.0179640  47.9665230  16.1810590  10.0772200  47.2229150
  16.9102500   9.0784620  48.0962080  18.0210050   7.7597460  33.3034940
  17.1903010   7.8274110  33.7742170  18.1981880   8.6501580  33.0001800
  17.4766510   4.5044940  35.8069140  18.2385420   5.0741590  35.9128830
  17.4920880   3.9372140  36.5777450  18.4826480   5.3595040  40.6511070
  18.8535310   4.5762360  40.2447040  19.1228410   6.0484140  40.4728370
  15.4660240   6.7431620  46.0641390  14.6520080   7.1728780  46.3267180
  15.8734440   7.3550030  45.4510440  17.5285680   4.7979310  32.9641660
  17.8034520   5.7058190  32.8360880  17.3396420   4.7341840  33.9003650
  17.4251020   2.7348300  37.9571090  17.0494620   1.9676230  37.5252380
  16.6954140   3.1171000  38.4446020   2.0146780   3.4135440  44.5780140
   2.3819820   3.3262840  45.4576160   1.4457600   2.6501990  44.4787000
  15.5236290  11.4950220  39.5909660  16.1195360  11.1734790  38.9144080
  15.7814440  11.0222040  40.3822930   3.4298860   7.9268130  49.7400290
   3.3868490   7.5561040  50.6214750   3.5609870   8.8645700  49.8802110
   7.1304890   9.4827720  45.3410010   6.8896250   9.7502280  44.4540530
   8.0707530   9.6533450  45.3960870  18.3909050  11.5022100  46.1420650
  17.8967330  11.8990970  45.4247780  17.7822340  10.8771310  46.5357930
   3.2686890  10.8730380  46.8598070   2.6747210  10.7415080  47.5988110
   3.2610730  10.0368520  46.3940170  16.0748500  12.1445520  43.4207390
  15.6151470  12.8961330  43.0465410  15.4460960  11.4251990  43.3622190
   2.8999120   8.2388760  45.8106110   2.1733180   7.6194050  45.7432060
   2.9608270   8.6329370  44.9404190   6.5044220  10.4533760  42.5955520
   7.0209240   9.8421120  42.0703780   7.1541600  10.9562540  43.0866530
   9.2439720  11.3442250  43.4224500   9.5317530  11.0896550  42.5457510
   9.7562940  10.7919610  44.0130070   2.7891820  10.2496380  36.4653010
   2.2639440  10.6304410  35.7614970   2.7136400  10.8747150  37.1862720
   9.3112080  12.2658350  50.7892700  10.2379390  12.0302620  50.8328660
   9.2962510  13.0930350  50.3078730  17.5457140  11.8083920  37.7866950
  17.7209330  11.1221660  37.1427870  16.8478710  12.3330970  37.3943620
   5.3884790  12.1978760  35.3402260   6.1203610  11.9138040  34.7926150
   5.6478460  11.9592040  36.2301640   4.5499580   8.3143490  35.3448590
   3.9208460   8.7828590  35.8934420   4.6647410   7.4692710  35.7794780
  15.8789640  11.4928210  50.6133740  16.6714960  10.9977440  50.4059700
  16.1722790  12.1718350  51.2209350  10.1367340   4.1428170  23.3759060
   9.3609440   3.6628610  23.6657630  10.7880270   3.4633820  23.2015220
   4.1533170   4.4547980  24.2534820   3.3218050   4.1996690  24.6531330
   4.7614150   4.5258750  24.9892740  14.1574770   8.5488360  22.1558190
  13.6956300   7.7775600  22.4845360  14.9700320   8.5754430  22.6610640
   4.1334430   8.4888070  24.4492840   4.4362470   7.5985810  24.2703060
   4.8778020   9.0458290  24.2215090  10.3838080  10.8346370  21.7762180
   9.7649520  11.2903870  21.2056620  11.2389860  10.9897830  21.3751880
   9.5776330   6.8185360  23.3829220   9.5084610   5.8775300  23.2218350
  10.3396190   6.9086770  23.9551790  11.2501430   5.7185610  19.1694090
  10.6318700   6.1835060  18.6056810  11.7624680   6.4113090  19.5863600
   6.1133190   5.2461480  25.8477690   5.7802570   5.8730400  26.4898760
   6.2899870   5.7723360  25.0679360   5.3252290   7.2142280  27.6626870
   5.9426290   7.8893360  27.3811320   4.4645410   7.6230260  27.5714370
  16.2429880   8.6781690  25.5781510  15.5593400   9.3480800  25.5698180
  16.7824170   8.8762340  24.8126370  13.7788620  10.5225820  24.2926690
  13.7915780  10.1188110  23.4248950  13.2263840  11.2973110  24.1888120
  15.0734040   7.2442040  19.3816860  14.9630370   6.3016370  19.5066280
  15.0702290   7.6057680  20.2679620  13.1774060   5.4255660  25.6209300
  13.5942850   5.2115770  24.7862760  13.9013880   5.6828450  26.1917920
  10.6154320   2.8707360  18.7379350   9.6883600   2.8044740  18.9667820
  10.7679140   3.8087490  18.6234590  17.1236160   3.8242880  25.7125540
  16.2954790   3.8935970  25.2375670  17.7186640   4.4097190  25.2441370
  14.6451610   4.4327660  19.2414600  14.0264030   4.0947210  18.5940900
  14.6276060   3.7887420  19.9493790   6.2210960   3.3972100  21.5199080
   5.8167960   2.6849350  21.0244980   6.3074080   3.0525340  22.4087120
   6.6892660   7.0839660  23.6838290   6.3920950   6.4785130  23.0046070
   7.6392480   7.1216970  23.5727650  14.7778270  10.6571530  27.3461390
  14.3008830  11.4643720  27.1534000  14.0940060  10.0049860  27.4987600
   5.7811090   6.8221350  30.3346090   4.8839620   7.0461320  30.5819490
   5.8063960   6.9456290  29.3857490  12.8216310   3.6714470  16.2487350
  13.2609590   2.8336900  16.1025170  13.5344730   4.3043870  16.3351490
   4.6082310   3.6934670  28.9103460   4.4690080   4.5657470  29.2790860
   3.7263670   3.3507480  28.7651400  10.9311690   8.6110540  20.2168590
  11.3707600   9.3534870  19.8023980  10.8698580   8.8537110  21.1407550
   6.4062660   9.6356370  31.1188610   6.3778090  10.0399320  30.2517040
   6.2427630   8.7066730  30.9560210  18.3577480  10.4183470  32.4152780
  18.8337200  10.8966360  33.0941860  18.9784640  10.3500960  31.6898280
   1.8048590   7.1632410  21.2380550   1.3976670   7.3047000  20.3834150
   2.6961600   6.8792570  21.0351760  17.7610730   7.6096320  29.5752790
  17.8873790   7.3708200  28.6569970  17.8032110   6.7780860  30.0474870
  11.6227470  11.3124320  28.1447600  12.1372140  11.2232330  28.9470030
  10.7796550  11.6584020  28.4375510  13.5981870  11.5979660  17.5731600
  13.4383010  11.3082600  18.4713430  13.4328580  10.8219790  17.0376830
   6.0770250  11.3778190  19.3503220   5.9012730  10.4613730  19.1371020
   5.2225990  11.7365480  19.5901020  13.3008000   9.1067220  16.1329600
  12.6073160   9.1044510  15.4731880  14.0430860   8.6826540  15.7023770
  12.8657930  10.7329930  20.2078090  13.3214880   9.9519310  20.5216710
  13.2050450  11.4436750  20.7519270   2.1899460   5.8797820  29.5264640
   1.8054250   5.2391490  30.1247600   2.5011650   6.5833940  30.0959370
   8.3396600   2.7274360  25.0073260   8.7066730   2.2532930  25.7534600
   8.1501660   3.6015930  25.3481600   6.1295970   1.7683000  27.3257470
   5.8253040   2.6474980  27.5507830   7.0842430   1.8282790  27.3614910
   4.6577760   5.9743990  17.9224320   3.8840020   5.4341610  17.7623040
   5.3872390   5.4550600  17.5842080  15.4165740   4.9709350  23.7150710
  16.1364860   5.4664640  23.3246820  15.2147560   4.2927240  23.0704580
  10.7984540   5.0418410  29.6019710  10.7321850   4.1214080  29.3477300
  10.1689680   5.1393850  30.3164350   4.7015160   5.6424370  21.5603130
   5.2193830   4.8392630  21.5060020   4.2499180   5.5803510  22.4019960
   9.5884660   6.9090650  16.8330430   9.9300360   7.6532880  16.3373750
   8.7597370   7.2221770  17.1955260   2.1859700   2.6085740  28.4728830
   1.8274640   3.2739590  29.0602170   1.8914260   1.7769290  28.8441450
   5.3872820   3.0669980  31.3568380   5.0872960   3.2127160  30.4596200
   6.1584060   2.5075270  31.2641770  10.7301270   7.8638980  29.3523510
  10.7445810   6.9319940  29.1342420  10.0226370   7.9498740  29.9913280
  15.8638340   2.0478800  15.6222120  15.7802060   2.4793020  14.7718560
  16.5832530   2.5077150  16.0548940  16.9412480   4.5046320  28.6992090
  16.2160670   5.0975100  28.5021480  17.4687940   4.4969860  27.9005460
  16.8925590   8.9021060  18.3504250  16.2501750   8.2476680  18.6247970
  16.5056250   9.3076150  17.5744920  12.4712070   6.2306490  22.1975940
  12.8235890   5.6334620  21.5377310  11.5874400   5.9050720  22.3684190
   8.5575350   6.9904180  19.6046350   9.2446480   7.5373390  19.9853940
   7.7707770   7.5344910  19.6395960   7.8602560   3.9950210  19.2171710
   8.3165340   4.8055460  19.4431900   7.5090770   3.6773350  20.0490200
  10.1635170   9.5056550  26.4464010  10.8077390   9.7115930  27.1237430
  10.5264610   8.7444950  25.9934860  11.4367250   7.5088900  25.1641460
  12.0789480   6.8082060  25.2773630  11.9616600   8.2887340  24.9838350
  15.2822970   7.7937520  14.8880600  15.0560550   7.0767960  15.4805240
  14.8919170   7.5449960  14.0502350  13.2104870   8.3083800  28.3677520
  13.5461110   8.8950490  29.0455440  12.2905210   8.1776510  28.5975310
  14.8639220   5.7109460  16.5494760  14.5760920   6.1722150  17.3372640
  15.6591390   5.2507230  16.8178980   9.0393450   8.3575130  31.5365580
   8.7190320   7.6384370  32.0811270   8.3651810   9.0330200  31.6101640
   7.0807620   9.2035580  16.4798730   7.0717720   9.9365270  15.8643240
   6.1605980   8.9567160  16.5725690   2.6814260   4.4250470  17.2245490
   2.0742210   5.1649370  17.2340790   3.1563610   4.5149830  16.3983690
  10.0667220   9.2663820  15.1423920  10.1679200   9.0627810  14.2125900
   9.1668960   9.0122100  15.3471700   8.7085330  11.7850140  19.8371590
   8.9626830  11.7471530  18.9150960   7.7597810  11.6583470  19.8299840
  14.7137910   2.7042020  21.4130100  13.7728050   2.7192250  21.5877790
  15.0281980   1.9177980  21.8590400   4.6919550   4.3861620  14.9734060
   5.4582820   4.2742980  15.5359490   4.7694240   3.6899590  14.3210830
  16.7163490   9.8750870  23.0884360  16.8410910  10.6982040  23.5608170
  17.5829050   9.6641600  22.7408510   4.1881020  11.9682080  22.7601490
   4.9243500  11.4197540  23.0310060   4.5721940  12.8338090  22.6207480
   3.1939300  11.1528150  31.9487070   3.9952030  11.4740200  32.3622470
   2.6791120  10.7923730  32.6706980   7.2983330  11.1412390  14.5827060
   8.0911940  11.4301220  14.1308850   6.7787680  10.7104560  13.9039540
  12.0303930   7.2608020  31.8962480  11.4242090   7.2839620  31.1558230
  11.7258040   6.5291060  32.4329730  13.4604300  10.9888310  30.5071890
  14.4126050  10.9046330  30.4572130  13.3132520  11.6530020  31.1805680
  16.3513500  10.3682520  16.0063800  16.0655010   9.9547660  15.1917980
  16.1533050  11.2970230  15.8864320   7.8160730   6.3615800  14.4469410
   7.7111370   5.7468150  15.1730790   7.6484950   5.8381690  13.6632420
   7.9675050   5.0472600  30.4258640   7.2020720   5.6157600  30.3413310
   8.1491010   4.7548810  29.5326870  11.0563460   5.4235830  15.0511400
  10.5073560   5.8705130  15.6954140  11.6782720   4.9185080  15.5749070
  15.1098400   6.7777930  30.9833660  15.8507870   7.1153690  30.4801120
  14.3471080   6.9469990  30.4303430   6.7238580   4.3826750  16.9476700
   7.1455000   4.2166620  17.7908090   6.8489420   3.5726980  16.4531840
   9.2366220   3.4064360  14.1953800   9.7571880   2.6913380  13.8294950
   9.8834620   4.0450230  14.4954310  13.7844060   4.8292760  29.5188870
  14.1985080   4.9837840  30.3679290  12.8495060   4.9547980  29.6814650
   8.5459290   4.7813240  27.4884800   8.9647400   5.6245970  27.3161040
   7.6267920   4.9185280  27.2591580  10.8823190   2.5129420  28.8722640
  11.0019400   1.9170560  29.6117480  11.7417190   2.5499110  28.4523940
  13.2211090   3.0666610  27.4485150  12.6946310   3.5909230  26.8450290
  13.5642430   3.6994000  28.0794880   6.3966710  11.0866250  28.6042530
   5.8587800  11.8112310  28.2851230   6.6500670  10.6096590  27.8139870
   9.2528920  12.3217460  28.8629180   9.1787620  13.2252600  29.1701550
   8.3507760  12.0029360  28.8351250   9.8014250  11.4875970  16.4855540
  10.6965040  11.8260940  16.5074300   9.8331880  10.7655380  15.8579820
   3.4410410   6.8603020  14.7142540   3.8785280   7.4032690  15.3700120
   3.9258140   6.0349970  14.7238880   5.2518130   7.9801060  19.8264770
   4.9513670   7.8566030  20.7268680   5.1455620   7.1209650  19.4180500
  16.7808600  10.0179640  29.1921740  16.1810590  10.0772200  28.4485660
  16.9102500   9.0784620  29.3218590  18.0210050   7.7597460  14.5291450
  17.1903010   7.8274110  14.9998680  18.1981880   8.6501580  14.2258310
  17.4766510   4.5044940  17.0325650  18.2385420   5.0741590  17.1385340
  17.4920880   3.9372140  17.8033960  18.4826480   5.3595040  21.8767580
  18.8535310   4.5762360  21.4703550  19.1228410   6.0484140  21.6984880
  15.4660240   6.7431620  27.2897900  14.6520080   7.1728780  27.5523690
  15.8734440   7.3550030  26.6766950  17.5285680   4.7979310  14.1898170
  17.8034520   5.7058190  14.0617390  17.3396420   4.7341840  15.1260160
  17.4251020   2.7348300  19.1827600  17.0494620   1.9676230  18.7508890
  16.6954140   3.1171000  19.6702530   2.0146780   3.4135440  25.8036650
   2.3819820   3.3262840  26.6832670   1.4457600   2.6501990  25.7043510
  15.5236290  11.4950220  20.8166170  16.1195360  11.1734790  20.1400590
  15.7814440  11.0222040  21.6079440   3.4298860   7.9268130  30.9656800
   3.3868490   7.5561040  31.8471260   3.5609870   8.8645700  31.1058620
   7.1304890   9.4827720  26.5666520   6.8896250   9.7502280  25.6797040
   8.0707530   9.6533450  26.6217380  18.3909050  11.5022100  27.3677160
  17.8967330  11.8990970  26.6504290  17.7822340  10.8771310  27.7614440
   3.2686890  10.8730380  28.0854580   2.6747210  10.7415080  28.8244620
   3.2610730  10.0368520  27.6196680  16.0748500  12.1445520  24.6463900
  15.6151470  12.8961330  24.2721920  15.4460960  11.4251990  24.5878700
   2.8999120   8.2388760  27.0362620   2.1733180   7.6194050  26.9688570
   2.9608270   8.6329370  26.1660700   6.5044220  10.4533760  23.8212030
   7.0209240   9.8421120  23.2960290   7.1541600  10.9562540  24.3123040
   9.2439720  11.3442250  24.6481010   9.5317530  11.0896550  23.7714020
   9.7562940  10.7919610  25.2386580   2.7891820  10.2496380  17.6909520
   2.2639440  10.6304410  16.9871480   2.7136400  10.8747150  18.4119230
   9.3112080  12.2658350  32.0149210  10.2379390  12.0302620  32.0585170
   9.2962510  13.0930350  31.5335240  17.5457140  11.8083920  19.0123460
  17.7209330  11.1221660  18.3684380  16.8478710  12.3330970  18.6200130
   5.3884790  12.1978760  16.5658770   6.1203610  11.9138040  16.0182660
   5.6478460  11.9592040  17.4558150   4.5499580   8.3143490  16.5705100
   3.9208460   8.7828590  17.1190930   4.6647410   7.4692710  17.0051290
  15.8789640  11.4928210  31.8390250  16.6714960  10.9977440  31.6316210
  16.1722790  12.1718350  32.4465860  10.1367340   4.1428170   4.6015570
   9.3609440   3.6628610   4.8914140  10.7880270   3.4633820   4.4271730
   4.1533170   4.4547980   5.4791330   3.3218050   4.1996690   5.8787840
   4.7614150   4.5258750   6.2149250  14.1574770   8.5488360   3.3814700
  13.6956300   7.7775600   3.7101870  14.9700320   8.5754430   3.8867150
   4.1334430   8.4888070   5.6749350   4.4362470   7.5985810   5.4959570
   4.8778020   9.0458290   5.4471600  10.3838080  10.8346370   3.0018690
   9.7649520  11.2903870   2.4313130  11.2389860  10.9897830   2.6008390
   9.5776330   6.8185360   4.6085730   9.5084610   5.8775300   4.4474860
  10.3396190   6.9086770   5.1808300   6.1133190   5.2461480   7.0734200
   5.7802570   5.8730400   7.7155270   6.2899870   5.7723360   6.2935870
   5.3252290   7.2142280   8.8883380   5.9426290   7.8893360   8.6067830
   4.4645410   7.6230260   8.7970880  16.2429880   8.6781690   6.8038020
  15.5593400   9.3480800   6.7954690  16.7824170   8.8762340   6.0382880
  13.7788620  10.5225820   5.5183200  13.7915780  10.1188110   4.6505460
  13.2263840  11.2973110   5.4144630  13.1774060   5.4255660   6.8465810
  13.5942850   5.2115770   6.0119270  13.9013880   5.6828450   7.4174430
  17.1236160   3.8242880   6.9382050  16.2954790   3.8935970   6.4632180
  17.7186640   4.4097190   6.4697880   6.2210960   3.3972100   2.7455590
   5.8167960   2.6849350   2.2501490   6.3074080   3.0525340   3.6343630
   6.6892660   7.0839660   4.9094800   6.3920950   6.4785130   4.2302580
   7.6392480   7.1216970   4.7984160  14.7778270  10.6571530   8.5717900
  14.3008830  11.4643720   8.3790510  14.0940060  10.0049860   8.7244110
   5.7811090   6.8221350  11.5602600   4.8839620   7.0461320  11.8076000
   5.8063960   6.9456290  10.6114000   4.6082310   3.6934670  10.1359970
   4.4690080   4.5657470  10.5047370   3.7263670   3.3507480   9.9907910
   6.4062660   9.6356370  12.3445120   6.3778090  10.0399320  11.4773550
   6.2427630   8.7066730  12.1816720  18.3577480  10.4183470  13.6409290
  18.8337200  10.8966360  14.3198370  18.9784640  10.3500960  12.9154790
   1.8048590   7.1632410   2.4637060   1.3976670   7.3047000   1.6090660
   2.6961600   6.8792570   2.2608270  17.7610730   7.6096320  10.8009300
  17.8873790   7.3708200   9.8826480  17.8032110   6.7780860  11.2731380
  11.6227470  11.3124320   9.3704110  12.1372140  11.2232330  10.1726540
  10.7796550  11.6584020   9.6632020   2.1899460   5.8797820  10.7521150
   1.8054250   5.2391490  11.3504110   2.5011650   6.5833940  11.3215880
   8.3396600   2.7274360   6.2329770   8.7066730   2.2532930   6.9791110
   8.1501660   3.6015930   6.5738110   6.1295970   1.7683000   8.5513980
   5.8253040   2.6474980   8.7764340   7.0842430   1.8282790   8.5871420
  15.4165740   4.9709350   4.9407220  16.1364860   5.4664640   4.5503330
  15.2147560   4.2927240   4.2961090  10.7984540   5.0418410  10.8276220
  10.7321850   4.1214080  10.5733810  10.1689680   5.1393850  11.5420860
   4.7015160   5.6424370   2.7859640   5.2193830   4.8392630   2.7316530
   4.2499180   5.5803510   3.6276470   2.1859700   2.6085740   9.6985340
   1.8274640   3.2739590  10.2858680   1.8914260   1.7769290  10.0697960
   5.3872820   3.0669980  12.5824890   5.0872960   3.2127160  11.6852710
   6.1584060   2.5075270  12.4898280  10.7301270   7.8638980  10.5780020
  10.7445810   6.9319940  10.3598930  10.0226370   7.9498740  11.2169790
  16.9412480   4.5046320   9.9248600  16.2160670   5.0975100   9.7277990
  17.4687940   4.4969860   9.1261970  12.4712070   6.2306490   3.4232450
  12.8235890   5.6334620   2.7633820  11.5874400   5.9050720   3.5940700
  10.1635170   9.5056550   7.6720520  10.8077390   9.7115930   8.3493940
  10.5264610   8.7444950   7.2191370  11.4367250   7.5088900   6.3897970
  12.0789480   6.8082060   6.5030140  11.9616600   8.2887340   6.2094860
  13.2104870   8.3083800   9.5934030  13.5461110   8.8950490  10.2711950
  12.2905210   8.1776510   9.8231820   9.0393450   8.3575130  12.7622090
   8.7190320   7.6384370  13.3067780   8.3651810   9.0330200  12.8358150
  14.7137910   2.7042020   2.6386610  13.7728050   2.7192250   2.8134300
  15.0281980   1.9177980   3.0846910  16.7163490   9.8750870   4.3140870
  16.8410910  10.6982040   4.7864680  17.5829050   9.6641600   3.9665020
   4.1881020  11.9682080   3.9858000   4.9243500  11.4197540   4.2566570
   4.5721940  12.8338090   3.8463990   3.1939300  11.1528150  13.1743580
   3.9952030  11.4740200  13.5878980   2.6791120  10.7923730  13.8963490
  12.0303930   7.2608020  13.1218990  11.4242090   7.2839620  12.3814740
  11.7258040   6.5291060  13.6586240  13.4604300  10.9888310  11.7328400
  14.4126050  10.9046330  11.6828640  13.3132520  11.6530020  12.4062190
   7.9675050   5.0472600  11.6515150   7.2020720   5.6157600  11.5669820
   8.1491010   4.7548810  10.7583380  15.1098400   6.7777930  12.2090170
  15.8507870   7.1153690  11.7057630  14.3471080   6.9469990  11.6559940
  13.7844060   4.8292760  10.7445380  14.1985080   4.9837840  11.5935800
  12.8495060   4.9547980  10.9071160   8.5459290   4.7813240   8.7141310
   8.9647400   5.6245970   8.5417550   7.6267920   4.9185280   8.4848090
  10.8823190   2.5129420  10.0979150  11.0019400   1.9170560  10.8373990
  11.7417190   2.5499110   9.6780450  13.2211090   3.0666610   8.6741660
  12.6946310   3.5909230   8.0706800  13.5642430   3.6994000   9.3051390
   6.3966710  11.0866250   9.8299040   5.8587800  11.8112310   9.5107740
   6.6500670  10.6096590   9.0396380   9.2528920  12.3217460  10.0885690
   9.1787620  13.2252600  10.3958060   8.3507760  12.0029360  10.0607760
  16.7808600  10.0179640  10.4178250  16.1810590  10.0772200   9.6742170
  16.9102500   9.0784620  10.5475100  18.4826480   5.3595040   3.1024090
  18.8535310   4.5762360   2.6960060  19.1228410   6.0484140   2.9241390
  15.4660240   6.7431620   8.5154410  14.6520080   7.1728780   8.7780200
  15.8734440   7.3550030   7.9023460   2.0146780   3.4135440   7.0293160
   2.3819820   3.3262840   7.9089180   1.4457600   2.6501990   6.9300020
   3.4298860   7.9268130  12.1913310   3.3868490   7.5561040  13.0727770
   3.5609870   8.8645700  12.3315130   7.1304890   9.4827720   7.7923030
   6.8896250   9.7502280   6.9053550   8.0707530   9.6533450   7.8473890
  18.3909050  11.5022100   8.5933670  17.8967330  11.8990970   7.8760800
  17.7822340  10.8771310   8.9870950   3.2686890  10.8730380   9.3111090
   2.6747210  10.7415080  10.0501130   3.2610730  10.0368520   8.8453190
  16.0748500  12.1445520   5.8720410  15.6151470  12.8961330   5.4978430
  15.4460960  11.4251990   5.8135210   2.8999120   8.2388760   8.2619130
   2.1733180   7.6194050   8.1945080   2.9608270   8.6329370   7.3917210
   6.5044220  10.4533760   5.0468540   7.0209240   9.8421120   4.5216800
   7.1541600  10.9562540   5.5379550   9.2439720  11.3442250   5.8737520
   9.5317530  11.0896550   4.9970530   9.7562940  10.7919610   6.4643090
   9.3112080  12.2658350  13.2405720  10.2379390  12.0302620  13.2841680
   9.2962510  13.0930350  12.7591750  15.8789640  11.4928210  13.0646760
  16.6714960  10.9977440  12.8572720  16.1722790  12.1718350  13.6722370
  93.7582550 100.0948430  83.8039010  90.0000000  90.0000000  90.0000000
