default_name
 61971
  26.6210676  41.3728956  48.6352146  26.8229708  40.9873767  47.6358597
  27.4827382  41.6751841  47.1069682  25.8860585  40.8894569  47.0874930
  27.4899708  39.6303767  47.6998597  27.7409708  39.0933767  48.7868597
  27.8019708  39.0233767  46.6048597  27.5824239  39.4153922  45.7003032
  28.4449708  37.7163767  46.6538597  28.9138337  37.5718219  47.6271894
  27.4169708  36.6053767  46.4368597  26.6289917  36.7491401  47.1761298
  27.0052389  36.7407390  45.4367327  27.9819708  35.2003767  46.5658597
  28.7828808  35.0748412  45.8372412  28.3837585  35.0768791  47.5715520
  26.9379708  34.1293767  46.3268597  25.7549708  34.4253767  46.1618597
  27.3719708  32.8753767  46.3048597  26.7188469  32.1208352  46.1493036
  28.3533806  32.6813681  46.4437725  29.5479708  37.6183767  45.6068597
  29.3799708  36.9613767  44.5808597  30.6779708  38.2683767  45.8728597
  30.7752850  38.7817343  46.7372053  31.7769708  38.3083767  44.9188597
  31.5442431  37.6602284  44.0739687  32.0149708  39.7273767  44.3958597
  32.9158246  39.7427314  43.7824057  31.1615082  40.0416431  43.7950782
  32.2499708  40.9813767  45.6748597  33.0309708  37.7643767  45.5848597
  33.1059708  37.6403767  46.8078597  34.0179708  37.4363767  44.7558597
  33.8642412  37.5105335  43.7603863  35.3039708  36.9403767  45.2198597
  35.3146189  36.9358444  46.3097979  35.5739708  35.5203767  44.7228597
  34.8917556  34.8269083  45.2145744  35.4205993  35.4769615  43.6445776
  37.2599708  34.9623767  45.0588597  36.4179708  37.8613767  44.7458597
  36.3999708  38.3393767  43.6078597  37.3639708  38.1253767  45.6478597
  37.1801073  37.8671653  46.6068281  38.5979708  38.8573767  45.3498597
  38.9960567  39.2972281  46.2642762  39.6649708  37.9333767  44.7448597
  39.6669278  37.0013834  45.3100896  39.3999708  37.6353767  43.2778597
  39.3983257  38.5669122  42.7118752  40.1802202  36.9785576  42.8932838
  38.4310908  37.1466935  43.1750937  40.9509708  38.5533767  44.8598597
  41.6191078  37.9768165  44.4820085  38.3519708  40.0663767  44.4508597
  39.1999708  40.4333767  43.6338597  37.1969708  40.7093767  44.6048597
  36.4297547  40.2883786  45.1090813  36.9909708  42.0163767  44.0018597
  37.8494172  42.6526592  44.2170653  36.8289708  41.9123767  42.4918597
  36.7035714  42.9155320  42.0843628  37.7291386  41.4611423  42.0745045
  35.7039708  41.1213767  42.1528597  35.6240571  41.0714991  41.1974928
  35.7709708  42.6853767  44.6158597  35.0509708  42.0963767  45.4248597
  35.5579708  43.9373767  44.2078597  36.1698955  44.3604346  43.5247276
  34.4849708  44.7453767  44.7668597  34.3614785  44.5627526  45.8343321
  34.7739708  46.2353767  44.5328597  34.8062146  46.4260352  43.4601481
  33.6909708  47.0943767  45.1678597  33.6584335  46.9045980  46.2407185
  33.9119522  48.1471848  44.9921807  32.7254004  46.8477377  44.7263371
  36.1529708  46.6063767  45.0868597  36.0829247  46.5781223  46.1742400
  36.8535076  45.8429411  44.7484610  36.6409708  47.9653767  44.6498597
  35.9411362  48.7294285  44.9883212  37.6231412  48.1557353  45.0825305
  36.7117169  47.9942480  43.5625413  33.1599708  44.3383767  44.1428597
  33.1069708  43.8923767  42.9898597  32.0789708  44.4863767  44.9048597
  32.1816218  44.6896452  45.8888536  30.7369708  44.3093767  44.3738597
  30.6868565  44.7525328  43.3792741  30.3499708  42.8293767  44.2708597
  29.3227035  42.7457445  43.9161389  31.0175123  42.3265887  43.5710794
  30.4369708  41.8833767  45.7958597  29.7389708  45.0503767  45.2488597
  30.0179708  45.3743767  46.4058597  28.5719708  45.3243767  44.6728597
  28.4634311  45.0543873  43.7056864  27.4799708  46.0483767  45.3158597
  26.6892953  46.2328363  44.5886003  26.8939708  45.2463767  46.4838597
  26.5615182  44.2776713  46.1107855  27.6726018  45.0991563  47.2322980
  25.7989708  45.9273767  47.0698597  25.4502111  45.4064757  47.7969282
  27.8949708  47.4313767  45.8008597  27.1799708  48.0413767  46.6038597
  29.0309708  47.9433767  45.3358597  29.6351724  47.3991458  44.7368167
  29.4619708  49.2763767  45.7208597  29.2687549  49.4382991  46.7813067
  30.9609708  49.4393767  45.4668597  31.4067603  48.6369218  46.0545986
  31.1184700  49.2429409  44.4063377  31.6169708  50.7713767  45.8418597
  31.1921156  51.5528965  45.2119186  31.3889708  51.1173767  47.2968597
  31.8139914  50.3364905  47.9274729  31.8695159  52.0689523  47.5241944
  30.3188979  51.1963317  47.4887206  33.1039708  50.7083767  45.5558597
  33.2625623  50.5143848  44.4950509  33.5666494  51.6581409  45.8241462
  33.5536784  49.9072296  46.1423965  28.6649708  50.3293767  44.9558597
  27.9639708  50.0323767  43.9848597  28.7499708  51.5713767  45.4278597
  29.2312770  51.7326443  46.3010358  28.1169708  52.7063767  44.7678597
  27.6100500  52.3763245  43.8611094  27.0809708  53.3473767  45.7038597
  26.2473767  52.6487859  45.7759083  27.5493407  53.4554821  46.6821454
  26.5719708  54.6923767  45.2378597  27.1929708  55.8663767  45.6398597
  28.0583875  55.8031343  46.2995215  26.7339708  57.0983767  45.2198597
  27.2332628  58.0123703  45.5414574  25.6369708  57.1683767  44.3908597
  25.1779708  58.3963767  43.9718597  25.6952770  59.1278285  44.3167830
  24.9999708  56.0183767  43.9788597  24.1320107  56.0735198  43.3218170
  25.4679708  54.7893767  44.4038597  24.9678550  53.8753367  44.0836798
  29.1189708  53.7543767  44.3078597  29.1109708  54.1403767  43.1348597
  29.9939708  54.2253767  45.1938597  30.0010289  53.8635261  46.1367879
  30.9209708  55.3043767  44.8588597  30.9925605  55.3988719  43.7753262
  30.4459708  56.6373767  45.4348597  29.4890040  56.8691359  44.9673113
  30.3013102  56.4938671  46.5056437  31.4109708  57.7833767  45.2048597
  32.2711507  57.6510580  45.8611242  31.7408644  57.7649491  44.1661428
  30.7869708  59.1343767  45.4908597  29.6129708  59.2253767  45.8498597
  31.5699708  60.1923767  45.3288597  31.2061222  61.1178620  45.5054739
  32.5265436  60.0677882  45.0296150  32.3099708  54.9583767  45.3758597
  32.4529708  54.4193767  46.4768597  33.3219708  55.2693767  44.5748597
  33.1137476  55.6087280  43.6466447  34.7159708  55.1163767  44.9558597
  34.8201224  55.2524253  46.0323087  35.2259708  53.7223767  44.5878597
  34.3876909  53.0803346  44.8583555  35.3630570  53.7038339  43.5066735
  36.4979708  53.2153767  45.2718597  36.3879709  53.3120452  46.3519782
  36.7329708  51.7583767  44.9158597  36.8435368  51.6609703  43.8358662
  37.6400111  51.4056153  45.4067140  35.8843272  51.1609673  45.2490360
  37.7079708  54.0513767  44.9018597  37.5437932  55.0845372  45.2080043
  38.5899667  53.6588075  45.4078970  37.8610655  54.0125080  43.8233653
  35.5469708  56.1823767  44.2548597  35.4509708  56.3643767  43.0408597
  36.3629708  56.8993767  45.0218597  36.4535894  56.7566667  46.0176114
  37.1269708  57.9733767  44.4068597  37.6005835  57.6093486  43.4951176
  36.2189708  59.1553767  44.0488597  36.8669878  59.9603538  43.7021826
  35.5782049  58.8274173  43.2303478  35.3609708  59.6553767  45.1918597
  34.6079545  58.9050935  45.4329872  36.0105381  59.8075578  46.0538355
  34.6919708  60.9783767  44.8788597  35.2029708  61.7153767  44.0088597
  33.6519708  61.2803767  45.4998597  33.2972935  62.1357797  45.2475328
  38.2429708  58.4503767  45.3198597  38.0099708  58.7533767  46.4898597
  33.3817068  60.6071692  46.1285313  34.7193854  62.5353904  43.8819906
  35.9896000  61.3361191  43.6109964  39.4479708  58.5333767  44.7658597
  39.6537069  58.0325309  43.9132605  40.5099708  59.3123767  45.3808597
  40.5260159  59.1280362  46.4550386  41.8669708  58.9273767  44.7998597
  41.8703707  57.8554237  44.6023644  42.0155457  59.4688920  43.8656292
  43.0119708  59.2503767  45.7328597  42.9059708  60.1403767  46.5738597
  44.1159708  58.5293767  45.5888597  44.9111064  58.7040785  46.1866376
  44.1563861  57.8089920  44.8820972  40.2159708  60.7873767  45.1388597
  39.2069708  61.1283767  44.5138597  41.0859708  61.6653767  45.6328597
  41.8998151  61.3633956  46.1491581  40.8599708  63.0953767  45.4748597
  40.6715837  63.3232880  44.4257334  39.6509708  63.5483767  46.2988597
  38.9418687  62.7209990  46.2720349  39.9886094  63.7037601  47.3235334
  38.9789708  64.8033767  45.7948597  39.6139708  66.0343767  45.8678597
  40.6165465  66.0844720  46.2926323  38.9979708  67.1843767  45.4138597
  39.5109854  68.1444476  45.4702661  37.7259708  67.1123767  44.8868597
  37.1069708  68.2533767  44.4358597  37.6495652  69.0390017  44.5357809
  37.0719708  65.9023767  44.8098597  36.0666326  65.8449496  44.3926095
  37.6969708  64.7583767  45.2648597  37.1831603  63.7985720  45.2112526
  42.1049708  63.8553767  45.9018597  42.7409708  63.4993767  46.8978597
  42.4409708  64.8983767  45.1498597  41.9310740  65.0742613  44.2959456
  43.5579708  65.7763767  45.4818597  43.3537905  66.2837042  46.4247427
  44.8599708  64.9833767  45.6248597  45.7087605  65.6653902  45.5747314
  44.8669863  64.4652771  46.5838298  45.1409708  63.7093767  44.3838597
  43.7199708  66.8583767  44.4218597  43.6679708  66.5763767  43.2238597
  43.9129708  68.0813767  44.7828597  43.9608046  68.3464079  45.7562916
  44.0679708  69.1193767  43.7778597  43.9925003  68.6778729  42.7841398
  43.2847304  69.8669977  43.9031511  45.0431158  69.5929940  43.8913447
  30.7588259  24.5628637  51.2038709  30.5709708  24.7823767  50.1528597
  29.8059510  25.5547468  50.0735660  30.2282817  23.8791112  49.6481077
  31.8269708  25.2733767  49.4658597  32.8929708  25.3843767  50.0868597
  31.7869708  25.5813767  48.2138597  30.9447079  25.4708142  47.6675369
  32.9899708  26.0553767  47.5408597  33.6980386  26.4384246  48.2757158
  33.6549708  24.9153767  46.7698597  33.5693026  23.9882502  47.3366018
  33.1824146  24.7900689  45.7956479  35.1139708  25.1273767  46.5138597
  35.6759708  26.3803767  46.3898597  35.1631100  27.2478435  46.4574983
  36.9729708  26.2603767  46.1718597  37.5990163  27.1434143  46.0437561
  37.2739708  24.9743767  46.1518597  38.1925403  24.5810898  46.0047027
  36.1299708  24.2453767  46.3648597  36.1736494  23.1564580  46.3860585
  32.6419708  27.2033767  46.6028597  31.8279708  27.0453767  45.6938597
  33.2559708  28.3633767  46.8358597  33.8888309  28.4516869  47.6180289
  32.9949708  29.5443767  46.0208597  32.2532208  29.3114392  45.2568922
  32.4589708  30.6823767  46.8918597  31.5481275  30.2693919  47.3253424
  33.1860478  30.8665493  47.6827703  32.1339708  31.9993767  46.1808597
  31.8534519  31.7868933  45.1492295  30.9879708  32.7093767  46.8808597
  31.2679396  32.9226204  47.9124814  30.7687179  33.6436056  46.3639020
  30.1037506  32.0721018  46.8692091  33.3499708  32.9083767  46.1148597
  34.1489223  32.4081279  45.5675691  33.0848904  33.8341824  45.6042548
  33.6895496  33.1357516  47.1253476  34.2549708  29.9813767  45.2848597
  34.2219708  30.2103767  44.0718597  35.3669708  30.1003767  46.0068597
  35.3448706  29.8948869  46.9954875  36.6159708  30.5693767  45.4278597
  36.5704937  30.4688668  44.3434572  36.8779708  32.0393767  45.7728597
  35.9787747  32.4772535  46.2062297  37.6955083  32.1044824  46.4908386
  37.3289708  33.0603767  44.3538597  37.7599708  29.6963767  45.9228597
  37.6639708  29.0383767  46.9618597  38.8519708  29.7093767  45.1668597
  38.9013299  30.3484801  44.3863408  39.9819708  28.8413767  45.4148597
  39.6065148  27.9072673  45.8326773  40.4715008  28.6416281  44.4616755
  40.9919708  29.4383767  46.3718597  40.6749708  30.2833767  47.2118597
  42.2329708  28.9843767  46.2328597  42.4399302  28.3357650  45.4868235
  43.3029708  29.3473767  47.1468597  42.8939481  29.8803312  48.0052065
  44.0189708  28.0923767  47.6468597  44.5061793  27.6085516  46.8003136
  44.7713720  28.3883596  48.3778772  43.1079708  27.1883767  48.2468597
  43.5821327  26.4111624  48.5513397  44.3009708  30.2893767  46.4778597
  44.2959708  30.4903767  45.2608597  45.1679708  30.8723767  47.3028597
  45.0405033  30.7402328  48.2960311  46.2429708  31.7533767  46.8538597
  46.7754697  32.1498908  47.7183368  47.2389708  30.9953767  45.9708597
  47.3230732  29.9601154  46.3014047  46.9084445  31.0189730  44.9324496
  48.6219708  31.5653767  45.9928597  49.7489708  30.7893767  45.8328597
  49.7412008  29.7897215  45.6888845  50.8229708  31.5563767  45.8978597
  51.8193481  31.1270177  45.7930642  50.4329708  32.8023767  46.0948597
  51.0366455  33.6070656  46.1851504  49.0609708  32.8353767  46.1588597
  48.5454663  33.7823259  46.3189963  45.7149708  32.9783767  46.1178597
  46.3989708  33.5283767  45.2488597  44.5039708  33.4153767  46.4458597
  43.9300582  32.9029884  47.1002158  43.9549708  34.6183767  45.8428597
  44.1014128  34.5911295  44.7630859  42.4589708  34.7223767  46.1298597
  42.4113330  35.0166379  47.1783063  42.0346965  35.5133233  45.5113980
  41.6619708  33.4333767  45.9258597  41.9666930  32.7046737  46.6770168
  40.1769708  33.7033767  46.0578597  39.8713939  34.4316931  45.3066761
  39.6239468  32.7758050  45.9099545  39.9657114  34.0971532  47.0520478
  41.9799708  32.8143767  44.5828597  43.0437007  32.5820084  44.5320370
  41.4021834  31.8985351  44.4583719  41.7235111  33.5158902  43.7890044
  44.6739708  35.8533767  46.3708597  45.0629708  35.9233767  47.5388597
  44.8489708  36.8363767  45.4918597  44.5126995  36.7182967  44.5468316
  45.5569708  38.0663767  45.8248597  45.5927976  38.2258997  46.9025276
  46.9989708  38.0583767  45.2798597  46.9697435  37.9093712  44.2004884
  47.6919708  39.3763767  45.5908597  47.7219951  39.5258693  46.6701425
  48.7089464  39.3540121  45.1992466  47.1422328  40.1949852  45.1263492
  47.7799708  36.8913767  45.8608597  47.2928282  35.9554165  45.5874137
  48.7957784  36.9006525  45.4657033  47.8122795  36.9798270  46.9467849
  44.7809708  39.2493767  45.2658597  44.2749708  39.2003767  44.1408597
  44.6859708  40.3093767  46.0608597  44.9997542  40.2239511  47.0170719
  44.1229708  41.5793767  45.6308597  44.1810100  41.6496279  44.5446758
  42.6589708  41.7153767  46.0518597  42.1269297  40.8510896  45.6543181
  42.6322833  41.6883135  47.1411968  41.9929708  42.9893767  45.5608597
  42.5677177  43.8473841  45.9095574  41.9951359  42.9699212  44.4710359
  40.5549708  43.1103767  46.0168597  40.1789708  42.4123767  46.9798597
  39.8009708  43.9013767  45.4128597  38.9067615  43.9100778  45.7614184
  44.9429708  42.7093767  46.2328597  45.5249708  42.5593767  47.3108597
  40.2411872  44.3673920  44.6983541  39.2528592  42.5432960  47.1979201
  40.8792970  41.8659652  47.3430330  44.9889708  43.8393767  45.5338597
  44.5174178  43.8879116  44.6420181  45.7349708  45.0043767  45.9838597
  45.6288278  45.1173149  47.0627841  47.2209708  44.8663767  45.6508597
  47.3440833  44.7615804  44.5729167  47.7542937  45.7535171  45.9923985
  47.6253227  43.9855206  46.1495493  45.1609708  46.2543767  45.3368597
  45.3729708  46.4933767  44.1448597  44.4489708  47.0503767  46.1258597
  44.3019863  46.7766326  47.0868795  43.8309708  48.2823767  45.6568597
  43.9117611  48.3444210  44.5716304  42.3509708  48.3233767  46.0398597
  41.8871113  47.6172845  45.3511163  42.2586938  47.9494443  47.0595457
  41.6509708  49.6773767  45.9288597  42.0215468  50.3321394  46.7175675
  41.9199708  50.3063767  44.5868597  41.5492312  49.6523621  43.7976095
  41.4127775  51.2693985  44.5281668  42.9928361  50.4531754  44.4623185
  40.1589708  49.5153767  46.1568597  39.9853822  49.1044195  47.1513850
  39.6708731  50.4865695  46.0753335  39.7477951  48.8386502  45.4078104
  44.5719708  49.4713767  46.2488597  44.6829708  49.5933767  47.4728597
  45.0749708  50.3433767  45.3788597  44.9312206  50.1801527  44.3925569
  45.8489708  51.5093767  45.7798597  46.0035624  51.4904523  46.8586750
  47.2139708  51.5263767  45.0908597  47.0413154  51.5033946  44.0148666
  47.6732388  52.4762933  45.3644130  48.1339708  50.3933767  45.4768597
  47.8539708  49.0903767  45.1008597  46.9508096  48.8910409  44.5240888
  48.6949708  48.0543767  45.4438597  48.4579873  47.0328934  45.1463491
  49.8379708  48.3133767  46.1628597  50.6799708  47.2813767  46.5048597
  50.3731786  46.4274009  46.1914853  50.1429708  49.6013767  46.5438597
  51.0474131  49.8086651  47.1158003  49.2949708  50.6323767  46.1968597
  49.5326990  51.6552888  46.4888120  45.0869708  52.7793767  45.4318597
  44.6979708  52.9803767  44.2768597  44.8809708  53.6293767  46.4318597
  45.0917487  53.3195975  47.3697876  44.3479708  54.9723767  46.2518597
  44.1293363  55.1371227  45.1967972  43.0619708  55.1703767  47.0538597
  43.3051809  54.6830587  47.9980362  42.9558215  56.2430143  47.2159739
  41.7479708  54.6043767  46.5118597  41.0688160  54.4217842  47.3446319
  41.1119708  55.5813767  45.5478597  41.7903911  55.7641214  44.7145236
  40.1780426  55.1646630  45.1707277  40.9085535  56.5203320  46.0627235
  41.9549708  53.2643767  45.8458597  42.3622698  52.5577284  46.5689469
  41.0008232  52.8922533  45.4727272  42.6513937  53.3748921  45.0146675
  45.4179708  55.9523767  46.7098597  45.4709708  56.3063767  47.8918597
  46.2649708  56.3903767  45.7798597  46.1026131  56.1905984  44.8032185
  47.4799708  57.1093767  46.1458597  47.5209177  57.3221386  47.2141082
  48.7339708  56.3053767  45.7558597  48.7602346  56.1918578  44.6721056
  49.9919708  57.0243767  46.2208597  49.9666442  57.1378620  47.3046404
  50.8692429  56.4428995  45.9373491  50.0423830  58.0081074  45.7541325
  48.6769708  54.9003767  46.3328597  47.7966086  54.3848580  45.9490563
  49.5734163  54.3517370  46.0439314  48.6199490  54.9555253  47.4199696
  47.5169708  58.4873767  45.5018597  47.9569708  58.6403767  44.3568597
  47.0609708  59.4983767  46.2348597  46.4753420  59.3311680  47.0405764
  47.3619708  60.8753767  45.8748597  47.3849128  60.9760614  44.7897627
  46.2989708  61.8193767  46.4298597  45.9541414  61.4512230  47.3961178
  46.7247912  62.8152977  46.5520006  44.8239708  61.9843767  45.4038597
  48.7349708  61.2473767  46.4148597  48.8679708  61.7473767  47.5348597
  49.7609708  61.0013767  45.6068597  49.5878517  60.7673708  44.6397142
  51.1309708  61.0563767  46.0638597  51.2237793  60.4081620  46.9352399
  51.7702506  60.6827310  45.2639788  51.5779708  62.4553767  46.4398597
  50.7859708  63.3473767  46.7448597  52.8979708  62.6363767  46.4088597
  53.4872971  61.8846411  46.0807021  53.5359708  63.8583767  46.8818597
  53.3776166  63.9727148  47.9542169  55.0399708  63.7973767  46.6138597
  55.1715805  63.6982813  45.5363820  55.4651476  64.7445832  46.9457099
  55.7459708  62.6523767  47.3168597  55.5082400  62.6876690  48.3800339
  55.3744286  61.7195258  46.8927785  57.2489708  62.6823767  47.1208597
  57.7709708  63.7233767  46.6728597  57.9079708  61.6633767  47.4148597
  58.8488484  61.7636170  47.2539860  52.9439708  65.1023767  46.2348597
  52.7429708  65.1453767  45.0168597  57.3628152  60.9481656  47.7506535
  58.7233913  63.6512059  46.5725633  57.1336301  64.4217114  46.5084128
  52.6579708  66.1173767  47.0468597  52.7673812  65.9829214  48.0418725
  52.1609708  67.4033767  46.5738597  52.3506337  67.4925272  45.5041965
  50.6589708  67.5443767  46.8168597  50.4958728  67.4214075  47.8875496
  50.3813819  68.5561880  46.5214238  49.8059708  66.5433767  46.0568597
  50.0871739  66.5780167  45.0043267  50.0054039  65.5477262  46.4531026
  48.3249708  66.8563767  46.1958597  47.7548985  66.1485239  45.5941447
  48.0380672  66.7562912  47.2426494  48.0079708  68.2083767  45.7518597
  48.7637257  68.7481532  45.3549023  46.8079708  68.7653767  45.8338597
  45.7749708  68.1143767  46.3428597  45.8935672  67.1696447  46.6797814
  44.8724570  68.5650803  46.3922033  46.6389708  70.0093767  45.3948597
  47.4218324  70.5149490  45.0054698  45.7285457  70.4428027  45.4528845
  52.9199708  68.5063767  47.2948597  53.4319708  68.2913767  48.3988597
  52.9979708  69.6683767  46.6768597  52.6161931  69.7731577  45.7476847
  53.6229708  70.8183767  47.2958597  53.0071893  71.7005862  47.1208772
  53.7129054  70.6455988  48.3683143  55.0069708  71.0583767  46.7158597
  55.2629708  70.7603767  45.5508597  55.8809708  71.5963767  47.5628597
  55.5960827  71.7311117  48.5224349  57.2149708  72.0313767  47.1708597
  57.3179280  71.9602685  46.0880658  57.4659708  73.4813767  47.5918597
  57.4124934  73.5865146  48.6754581  58.4545855  73.7836556  47.2463625
  56.4879708  74.4683767  47.0148597  55.1449708  74.4133767  47.3438597
  54.7977439  73.6379811  48.0267176  54.2489708  75.3233767  46.8198597
  53.1923788  75.2620174  47.0805302  54.6909708  76.3083767  45.9678597
  53.9867587  77.0305269  45.5547201  56.0259708  76.3813767  45.6368597
  56.3786677  77.1598040  44.9602830  56.9179708  75.4673767  46.1628597
  57.9757367  75.5288649  45.9070269  58.2369708  71.1083767  47.8158597
  58.2049708  70.8953767  49.0318597  59.1379708  70.5613767  47.0028597
  59.0929801  70.7709540  46.0158680  60.1659708  69.6403767  47.4668597
  60.2083064  69.6609136  48.5558432  59.8669708  68.2083767  47.0158597
  59.8715502  68.1444716  45.9277446  60.6142808  67.5269819  47.4224661
  58.5309708  67.7003767  47.4698597  57.3669708  68.1793767  46.8988597
  57.4334661  68.9304542  46.1117378  56.1389708  67.7223767  47.3098597
  55.2298469  68.1125652  46.8523146  56.0569708  66.7713767  48.2998597
  55.0832821  66.4084084  48.6289254  57.2069708  66.2773767  48.8758597
  57.1456168  65.5206510  49.6579736  58.4379708  66.7423767  48.4608597
  59.3490411  66.3536658  48.9157822  61.5139708  70.0923767  46.9318597
  61.6659708  70.3003767  45.7238597  62.4919708  70.2273767  47.8278597
  62.3042852  70.0095521  48.7960673  63.8109708  70.7383767  47.4778597
  63.8826839  70.8580686  46.3968277  64.0599708  72.0943767  48.1368597
  64.1747905  71.9245040  49.2074011  64.9970784  72.4707702  47.7266681
  62.9649708  73.1083767  47.9028597  61.7789708  73.0523767  48.6148597
  61.6455664  72.2575157  49.3486844  60.7789708  73.9753767  48.4108597
  59.8495976  73.9144785  48.9771271  60.9569708  74.9783767  47.4878597
  59.9609708  75.9033767  47.2818597  59.1899083  75.7535471  47.8337777
  62.1249708  75.0603767  46.7698597  62.2666406  75.8545643  46.0368548
  63.1229708  74.1293767  46.9808597  64.0538529  74.1910399  46.4171609
  64.9029708  69.7513767  47.8718597  65.9659708  70.1533767  48.3528597
  64.6549708  68.4613767  47.6758597  63.7563739  68.1719274  47.3169138
  65.6339708  67.4313767  47.9998597  65.8286100  67.4258674  49.0723262
  65.1379708  66.0353767  47.5828597  65.0148252  66.0131228  46.5000669
  66.1349708  64.9643767  48.0018597  66.2582961  64.9857119  49.0846502
  65.7658887  63.9848228  47.6979654  67.0957396  65.1545165  47.5234553
  63.8699708  65.7713767  48.1948597  63.5634121  64.9001795  47.9328719
  66.9679708  67.7113767  47.3158597  67.0109708  68.0483767  46.1328597
  68.0649708  67.5933767  47.9848597  68.0668113  67.3183780  48.9566990
  69.3399708  67.8583767  47.3418597  69.1715822  68.1415557  46.3028430
  69.8476896  68.6708742  47.8616385  69.9589045  66.9618685  47.3778332
  26.6703607  39.2187429  48.5644177  26.7869708  38.6943767  49.5128597
  26.7838992  37.6187127  49.3366898  25.9629264  38.9556444  50.1767792
  28.0889708  39.0703767  50.1868597  28.8679708  39.8773767  49.6638597
  28.3909708  38.5423767  51.3248597  28.2030652  39.0169978  52.1963674
  29.0629708  37.2493767  51.3728597  29.5360684  37.1148017  52.3455711
  28.0589708  36.1163767  51.1568597  27.2689827  36.2431905  51.8970870
  27.6432829  36.2431965  50.1572496  28.6539708  34.7233767  51.2848597
  29.4566766  34.6142674  50.5555728  29.0592563  34.6093657  52.2902687
  27.6329708  33.6303767  51.0478597  26.4429708  33.9013767  50.8848597
  28.0939708  32.3863767  51.0238597  27.4569972  31.6179166  50.8694731
  29.0797252  32.2136577  51.1600865  30.1649708  37.1763767  50.3238597
  30.0099708  36.5153767  49.2978597  31.2809708  37.8493767  50.5878597
  31.3687175  38.3639375  51.4525140  32.3779708  37.9133767  49.6318597
  32.1581695  37.2610036  48.7867586  32.5839708  39.3373767  49.1098597
  33.4830781  39.3728861  48.4946814  31.7227010  39.6335392  48.5110256
  32.7949708  40.5963767  50.3888597  33.6439708  37.3963767  50.2958597
  33.7249708  37.2743767  51.5188597  34.6369708  37.0903767  49.4658597
  34.4797509  37.1619387  48.4707415  35.9339708  36.6223767  49.9268597
  35.9468437  36.6171592  51.0167708  36.2339708  35.2083767  49.4278597
  35.5674873  34.4998965  49.9197487  36.0801650  35.1627261  48.3497318
  37.9319708  34.6873767  49.7608597  37.0269708  37.5673767  49.4518597
  36.9969708  38.0453767  48.3138597  37.9689708  37.8503767  50.3518597
  37.7931071  37.5866905  51.3108388  39.1869708  38.6093767  50.0518597
  39.5778873  39.0577627  50.9652235  40.2719708  37.7093767  49.4438597
  40.2952686  36.7774273  50.0086851  40.0109708  37.4063767  47.9778597
  39.9879933  38.3378755  47.4122789  40.8046474  36.7668685  47.5915881
  39.0527854  36.8967335  47.8766408  41.5449708  38.3563767  49.5578597
  42.2245473  37.7946830  49.1780226  38.9129708  39.8133767  49.1538597
  39.7509708  40.1993767  48.3348597  37.7439708  40.4313767  49.3098597
  36.9869577  39.9929357  49.8146369  37.5079708  41.7343767  48.7078597
  38.3523681  42.3896713  48.9215915  37.3459708  41.6263767  47.1978597
  37.1983927  42.6264587  46.7902373  38.2550217  41.1944846  46.7792960
  36.2379708  40.8113767  46.8608597  36.1577234  40.7594602  45.9056294
  36.2759708  42.3763767  49.3238597  35.5699708  41.7713767  50.1338597
  36.0349708  43.6233767  48.9168597  36.6354452  44.0592546  48.2316296
  34.9459708  44.4083767  49.4788597  34.8305249  44.2232901  50.5468084
  35.2029708  45.9033767  49.2438597  35.2283467  46.0949548  48.1711275
  34.1029708  46.7383767  49.8818597  34.0772825  46.5476717  50.9547401
  34.3004292  47.7958093  49.7059413  33.1419223  46.4707824  49.4426806
  36.5739708  46.3043767  49.7958597  36.5062044  46.2741882  50.8833325
  37.2906899  45.5567248  49.4561101  37.0309708  47.6733767  49.3588597
  36.3149402  48.4216602  49.6986713  38.0093474  47.8852283  49.7901336
  37.0994235  47.7041973  48.2714480  33.6289708  43.9723767  48.8558597
  33.5839708  43.5253767  47.7028597  32.5459708  44.0973767  49.6208597
  32.6454682  44.3032134  50.6046436  31.2079708  43.8913767  49.0918597
  31.1472435  44.3336848  48.0974880  30.8519708  42.4033767  48.9888597
  29.8257890  42.2982983  48.6367109  31.5281733  41.9152110  48.2870446
  30.9629708  41.4593767  50.5128597  30.1949708  44.6103767  49.9688597
  30.4689708  44.9403767  51.1248597  29.0209708  44.8593767  49.3938597
  28.9164311  44.5884120  48.4265185  27.9149708  45.5583767  50.0398597
  27.1190173  45.7255543  49.3141814  27.3489708  44.7443767  51.2088597
  27.0373148  43.7684501  50.8366540  28.1320389  44.6146207  51.9558990
  26.2399708  45.4013767  51.7968597  25.9041414  44.8731188  52.5247073
  28.3009708  46.9503767  50.5248597  27.5739708  47.5453767  51.3288597
  29.4249708  47.4873767  50.0578597  30.0392531  46.9568775  49.4567547
  29.8279708  48.8293767  50.4428597  29.6336210  48.9865894  51.5038081
  31.3219708  49.0243767  50.1858597  31.7862221  48.2313567  50.7721098
  31.4811043  48.8318666  49.1248619  31.9499708  50.3693767  50.5598597
  31.5073321  51.1414751  49.9305458  31.7179708  50.7113767  52.0158597
  32.1607630  49.9399156  52.6458451  32.1789137  51.6729614  52.2416632
  30.6469156  50.7679037  52.2101426  33.4379708  50.3393767  50.2718597
  33.5994435  50.1492695  49.2107823  33.8798676  51.2990631  50.5398715
  33.9060534  49.5481952  50.8575469  29.0069708  49.8643767  49.6788597
  28.3109708  49.5533767  48.7098597  29.0659708  51.1083767  50.1518597
  29.5448107  51.2799052  51.0244361  28.4079708  52.2293767  49.4928597
  27.9068320  51.8889663  48.5867251  27.3589708  52.8473767  50.4318597
  26.5407294  52.1307923  50.5031836  27.8247155  52.9648280  51.4103213
  26.8209708  54.1813767  49.9668597  27.4169708  55.3683767  50.3688597
  28.2842277  55.3235976  51.0276159  26.9309708  56.5903767  49.9498597
  27.4117688  57.5146226  50.2703354  25.8309708  56.6373767  49.1218597
  25.3449708  57.8543767  48.7048597  25.8465563  58.5967160  49.0497423
  25.2179708  55.4733767  48.7108597  24.3478396  55.5096928  48.0553802
  25.7129708  54.2553767  49.1348597  25.2319507  53.3307262  48.8158905
  29.3849708  53.2993767  49.0318597  29.3669708  53.6853767  47.8598597
  30.2519708  53.7883767  49.9168597  30.2685447  53.4261814  50.8595363
  31.1549708  54.8873767  49.5808597  31.2229997  54.9837257  48.4972601
  30.6519708  56.2093767  50.1578597  29.6896026  56.4205336  49.6916414
  30.5118615  56.0624866  51.2287905  31.5919708  57.3763767  49.9268597
  32.4558917  57.2629640  50.5817483  31.9205289  57.3651514  48.8876169
  30.9389708  58.7133767  50.2138597  29.7639708  58.7783767  50.5748597
  31.6989708  59.7883767  50.0508597  31.3154566  60.7057837  50.2280112
  32.6576191  59.6844816  49.7503591  32.5509708  54.5713767  50.0948597
  32.7089708  54.0343767  51.1958597  33.5559708  54.9043767  49.2918597
  33.3392666  55.2392939  48.3639755  34.9529708  54.7813767  49.6708597
  35.0556476  54.9192859  50.7472136  35.4919708  53.3993767  49.3018597
  34.6679023  52.7400488  49.5744348  35.6265320  53.3838701  48.2203086
  36.7769708  52.9183767  49.9828597  36.6670820  53.0120288  51.0632553
  37.0429708  51.4683767  49.6258597  37.1534420  51.3739994  48.5455876
  37.9585471  51.1353755  50.1146652  36.2083454  50.8522815  49.9604154
  37.9679708  53.7813767  49.6108597  37.7820771  54.8103068  49.9188302
  38.8595868  53.4074670  50.1141624  38.1191624  53.7472780  48.5319355
  35.7599708  55.8653767  48.9688597  35.6569708  56.0463767  47.7548597
  36.5619708  56.5993767  49.7348597  36.6582805  56.4579569  50.7302612
  37.3009708  57.6893767  49.1188597  37.7803978  57.3357211  48.2060746
  36.3669708  58.8523767  48.7628597  36.9972769  59.6711421  48.4158199
  35.7324064  58.5111875  47.9449245  35.4999708  59.3333767  49.9068597
  34.7634207  58.5672666  50.1490789  36.1478089  59.4988998  50.7676774
  34.8029708  60.6413767  49.5958597  35.2959708  61.3893767  48.7258597
  33.7569708  60.9203767  50.2188597  33.3835806  61.7681812  49.9678888
  38.4079708  58.1903767  50.0308597  38.1709708  58.4883767  51.2008597
  33.5021336  60.2408553  50.8471809  34.7946265  62.1989028  48.6005826
  36.0897499  61.0273823  48.3261199  39.6099708  58.2993767  49.4738597
  39.8250608  57.8042262  48.6202429  40.6559708  59.1013767  50.0878597
  40.6781008  58.9170953  51.1619406  42.0199708  58.7453767  49.5038597
  42.0465732  57.6737571  49.3063173  42.1550921  59.2900253  48.5694079
  43.1589708  59.0933767  50.4348597  43.0349708  59.9803767  51.2758597
  44.2779708  58.3963767  50.2888597  45.0702410  58.5882242  50.8851836
  44.3326299  57.6769944  49.5820342  40.3299708  60.5693767  49.8458597
  39.3129708  60.8883767  49.2228597  41.1809708  61.4653767  50.3388597
  42.0014979  61.1800738  50.8540653  40.9249708  62.8913767  50.1818597
  40.7296312  63.1163263  49.1333659  39.7079708  63.3173767  51.0088597
  39.0170749  62.4746862  50.9836635  40.0444114  63.4802166  52.0327693
  39.0069708  64.5583767  50.5058597  39.6159708  65.8023767  50.5778597
  40.6183441  65.8743048  50.9999656  38.9739708  66.9383767  50.1258597
  39.4663126  67.9092216  50.1820880  37.7029708  66.8393767  49.6008597
  37.0579708  67.9673767  49.1508597  37.5834078  68.7646701  49.2500506
  37.0749708  65.6153767  49.5248597  36.0703739  65.5357289  49.1094783
  37.7259708  64.4853767  49.9788597  37.2332525  63.5145045  49.9265532
  42.1539708  63.6773767  50.6068597  42.7979708  63.3353767  51.6018597
  42.4649708  64.7283767  49.8548597  41.9495091  64.8948253  49.0023965
  43.5639708  65.6293767  50.1858597  43.3502674  66.1312114  51.1295715
  44.8829708  64.8653767  50.3258597  45.7165002  65.5657705  50.2731668
  44.9037986  64.3481190  51.2850837  45.1889708  63.5973767  49.0838597
  43.6999708  66.7153767  49.1258597  43.6519708  66.4333767  47.9278597
  43.8679708  67.9423767  49.4868597  43.9129234  68.2082137  50.4602092
  43.9979708  68.9833767  48.4818597  43.9290841  68.5405223  47.4882625
  43.1993640  69.7141479  48.6095360  44.9631393  69.4776125  48.5926783
  31.6676039  24.1475360  55.9131920  31.4729708  24.3643767  54.8628597
  30.6918073  25.1206831  54.7861617  31.1481661  23.4547711  54.3576681
  32.7169708  24.8823767  54.1738597  33.7809708  25.0143767  54.7938597
  32.6689708  25.1893767  52.9218597  31.8284947  25.0612218  52.3766299
  33.8599708  25.6883767  52.2478597  34.5607751  26.0857113  52.9820925
  34.5479708  24.5633767  51.4748597  34.4837923  23.6347735  52.0420250
  34.0763848  24.4274076  50.5016079  36.0019708  24.8073767  51.2158597
  36.5359708  26.0723767  51.0918597  36.0047851  26.9285926  51.1613999
  37.8349708  25.9803767  50.8708597  38.4412370  26.8768286  50.7408055
  38.1639708  24.7013767  50.8508597  39.0908061  24.3282167  50.7031175
  37.0359708  23.9473767  51.0648597  37.1032423  22.8596420  51.0850808
  33.4849708  26.8293767  51.3108597  32.6739708  26.6543767  50.4028597
  34.0739708  28.0023767  51.5428597  34.7059197  28.1038675  52.3241660
  33.7869708  29.1773767  50.7288597  33.0491073  28.9291062  49.9659584
  33.2279708  30.3043767  51.6018597  32.3274323  29.8721253  52.0380803
  33.9532455  30.5042565  52.3906085  32.8729708  31.6133767  50.8918597
  32.5948744  31.3946216  49.8608847  31.7139708  32.2983767  51.5938597
  31.9915008  32.5178800  52.6248273  31.4735124  33.2275245  51.0771733
  30.8436729  31.6421833  51.5842595  34.0689708  32.5493767  50.8238597
  34.8778394  32.0669219  50.2751628  33.7826498  33.4691374  50.3137990
  34.4051645  32.7841286  51.8337925  35.0349708  29.6423767  49.9908597
  34.9959708  29.8703767  48.7778597  36.1459708  29.7843767  50.7108597
  36.1301561  29.5772949  51.6992758  37.3839708  30.2803767  50.1298597
  37.3392270  30.1791771  49.0454908  37.6139708  31.7553767  50.4748597
  36.7060485  32.1731553  50.9098739  38.4310672  31.8382972  51.1915030
  38.0399708  32.7863767  49.0548597  38.5469708  29.4333767  50.6228597
  38.4669708  28.7723767  51.6608597  39.6369708  29.4693767  49.8648597
  39.6708275  30.1091631  49.0840739  40.7869708  28.6253767  50.1108597
  40.4330429  27.6831133  50.5291585  41.2795644  28.4366108  49.1570157
  41.7839708  29.2443767  51.0658597  41.4509708  30.0823767  51.9068597
  43.0349708  28.8173767  50.9238597  43.2551897  28.1750387  50.1761934
  44.0979708  29.2023767  51.8368597  43.6783552  29.7255044  52.6961381
  44.8419708  27.9633767  52.3348597  45.3382353  27.4907550  51.4872457
  45.5889337  28.2753706  53.0647955  43.9519708  27.0393767  52.9358597
  44.4435221  26.2725629  53.2391312  45.0749708  30.1663767  51.1658597
  45.0639708  30.3673767  49.9498597  45.9309708  30.7683767  51.9898597
  45.8080323  30.6327560  52.9831333  46.9859708  31.6723767  51.5398597
  47.5116576  32.0796685  52.4034950  47.9959708  30.9353767  50.6548597
  48.1033307  29.9026502  50.9865961  47.6640444  30.9503357  49.6167358
  49.3669708  31.5363767  50.6748597  50.5099708  30.7843767  50.5118597
  50.5237048  29.7849526  50.3667300  51.5669708  31.5743767  50.5758597
  52.5724408  31.1669318  50.4704196  51.1499708  32.8113767  50.7728597
  51.7366752  33.6287260  50.8612785  49.7779708  32.8153767  50.8398597
  49.2429184  33.7512383  51.0010531  46.4299708  32.8853767  50.8048597
  47.1009708  33.4513767  49.9348597  45.2109708  33.2963767  51.1358597
  44.6507217  32.7732577  51.7935578  44.6339708  34.4873767  50.5328597
  44.7781510  34.4622274  49.4527306  43.1359708  34.5593767  50.8238597
  43.0821671  34.8530598  51.8721701  42.6937193  35.3402282  50.2051638
  42.3679708  33.2523767  50.6208597  42.6893263  32.5305245  51.3716998
  40.8779708  33.4903767  50.7548597  40.5557691  34.2118240  50.0039943
  40.3448064  32.5511070  50.6078603  40.6596757  33.8796979  51.7492825
  42.6959708  32.6413767  49.2758597  43.7645528  32.4333196  49.2216000
  42.1388004  31.7126984  49.1524946  42.4211552  33.3373812  48.4832985
  45.3269708  35.7373767  51.0608597  45.7169708  35.8153767  52.2288597
  45.4799708  36.7243767  50.1818597  45.1458484  36.5985671  49.2370668
  46.1609708  37.9693767  50.5138597  46.1943945  38.1313013  51.5912466
  47.6029708  37.9933767  49.9668597  47.5754948  37.8440006  48.8874936
  48.2669708  39.3243767  50.2768597  48.2952329  39.4742570  51.3561363
  49.2836566  39.3240645  49.8838580  47.6990468  40.1310179  49.8132930
  48.4089708  36.8423767  50.5448597  47.9415090  35.8967914  50.2701780
  49.4239545  36.8739051  50.1487364  48.4404912  36.9295326  51.6309127
  45.3589708  39.1353767  49.9568597  44.8519708  39.0763767  48.8328597
  45.2429708  40.1933767  50.7518597  45.5613738  40.1147809  51.7071301
  44.6509708  41.4503767  50.3238597  44.7053137  41.5221725  49.2375856
  43.1849708  41.5543767  50.7478597  42.6704095  40.6792590  50.3510033
  43.1603795  41.5267202  51.8372313  42.4919708  42.8143767  50.2578597
  43.0479853  43.6853241  50.6048456  42.4923908  42.7942247  49.1680464
  41.0519708  42.9033767  50.7168597  40.6929708  42.1983767  51.6808597
  40.2799708  43.6783767  50.1138597  39.3862452  43.6676758  50.4636014
  45.4479708  42.5973767  50.9248597  46.0349708  42.4593767  52.0028597
  40.7090756  44.1539809  49.3989131  39.7645199  42.3090513  51.9001835
  41.4057167  41.6679068  52.0435056  45.4689708  43.7283767  50.2268597
  44.9950206  43.7664943  49.3357830  46.1889708  44.9093767  50.6758597
  46.0824317  45.0200365  51.7549811  47.6779708  44.8033767  50.3398597
  47.8013017  44.7012229  49.2616880  48.1926727  45.7018253  50.6804069
  48.1021576  43.9314638  50.8377880  45.5879708  46.1463767  50.0298597
  45.7929708  46.3913767  48.8378597  44.8599708  46.9273767  50.8198597
  44.7198718  46.6487718  51.7805110  44.2149708  48.1453767  50.3538597
  44.2929593  48.2104416  49.2686023  42.7349708  48.1543767  50.7388597
  42.2854027  47.4388116  50.0504163  42.6524432  47.7779373  51.7584589
  42.0059708  49.4923767  50.6298597  42.3636984  50.1545193  51.4183385
  42.2589708  50.1283767  49.2868597  41.9010624  49.4669788  48.4978392
  41.7308920  51.0802023  49.2297493  43.3281674  50.2985040  49.1604646
  40.5179708  49.2993767  50.8598597  40.3543365  48.8844231  51.8544132
  40.0097354  50.2602843  50.7795192  40.1198550  48.6146404  50.1110346
  44.9309708  49.3503767  50.9438597  45.0409708  49.4743767  52.1678597
  45.4139708  50.2323767  50.0738597  45.2728422  50.0657559  49.0877463
  46.1629708  51.4153767  50.4738597  46.3202488  51.3996282  51.5523377
  47.5259708  51.4623767  49.7818597  47.3523666  51.4354500  48.7061107
  47.9649769  52.4220535  50.0546124  48.4709708  50.3493767  50.1668597
  48.2189708  49.0403767  49.7908597  47.3189352  48.8226406  49.2158584
  49.0819708  48.0223767  50.1308597  48.8669083  46.9960081  49.8335090
  50.2209708  48.3063767  50.8488597  51.0849708  47.2923767  51.1888597
  50.7958132  46.4322949  50.8754162  50.4989708  49.5993767  51.2288597
  51.4006499  49.8261951  51.7977434  49.6269708  50.6123767  50.8848597
  49.8422578  51.6398537  51.1781898  45.3729708  52.6683767  50.1278597
  44.9779708  52.8613767  48.9738597  45.1509708  53.5133767  51.1288597
  45.3701994  53.2082153  52.0663642  44.5879708  54.8453767  50.9498597
  44.3638208  55.0056018  49.8952584  43.2999708  55.0143767  51.7538597
  43.5557884  54.5306583  52.6965543  43.1713268  56.0842073  51.9182168
  41.9969708  54.4213767  51.2138597  41.3238278  54.2239368  52.0481239
  41.3379708  55.3843767  50.2518597  42.0103749  55.5819531  49.4170333
  40.4124111  54.9476605  49.8767344  41.1154772  56.3185871  50.7674641
  42.2319708  53.0853767  50.5468597  42.6553039  52.3875015  51.2692575
  41.2855416  52.6929211  50.1749032  42.9247618  53.2109765  49.7147754
  45.6379708  55.8473767  51.4058597  45.6849708  56.2023767  52.5888597
  46.4729708  56.3033767  50.4748597  46.3133096  56.1001193  49.4984919
  47.6729708  57.0483767  50.8388597  47.7114311  57.2630717  51.9068138
  48.9439708  56.2723767  50.4468597  48.9703260  56.1591180  49.3630806
  50.1869708  57.0183767  50.9088597  50.1615534  57.1316220  51.9926634
  51.0759683  56.4558768  50.6235919  50.2151316  58.0028227  50.4417679
  48.9179708  54.8663767  51.0228597  48.0486195  54.3321566  50.6395329
  49.8258167  54.3374725  50.7327293  48.8607969  54.9195729  52.1100589
  47.6789708  58.4283767  50.1948597  48.1139708  58.5913767  49.0498597
  47.2029708  59.4283767  50.9298597  46.6234322  59.2481272  51.7371667
  47.4729708  60.8113767  50.5698597  47.4917599  60.9125376  49.4847272
  46.3909708  61.7323767  51.1268597  46.0553412  61.3564799  52.0933759
  46.7957813  62.7370221  51.2489908  44.9119708  61.8663767  50.1028597
  48.8389708  61.2133767  51.1078597  48.9629708  61.7153767  52.2278597
  49.8679708  60.9893767  50.2978597  49.6984089  60.7513118  49.3310747
  51.2379708  61.0743767  50.7528597  51.3459440  60.4284034  51.6241573
  51.8835953  60.7141663  49.9519123  51.6559708  62.4823767  51.1278597
  50.8449708  63.3573767  51.4348597  52.9709708  62.6913767  51.0948597
  53.5758968  61.9533295  50.7640270  53.5829708  63.9263767  51.5678597
  53.4249049  64.0359651  52.6407552  55.0879708  63.8983767  51.2958597
  55.2192950  63.8014881  50.2181465  55.4933753  64.8547242  51.6262333
  55.8199708  62.7693767  51.9978597  55.5837656  62.7986904  53.0615555
  55.4674002  61.8292313  51.5736901  57.3209708  62.8313767  51.7988597
  57.8199708  63.8843767  51.3508597  58.0019708  61.8263767  52.0918597
  58.9402158  61.9463634  51.9291375  52.9629708  65.1583767  50.9218597
  52.7599708  65.1973767  49.7038597  57.4726471  61.0999341  52.4288708
  58.7734938  63.8326395  51.2484390  57.1675446  64.5691789  51.1886770
  52.6569708  66.1663767  51.7338597  52.7717072  66.0338566  52.7285322
  52.1319708  67.4413767  51.2628597  52.3177093  67.5352214  50.1929094
  50.6269708  67.5503767  51.5088597  50.4684759  67.4236126  52.5797983
  50.3272973  68.5561208  51.2142843  49.7939708  66.5313767  50.7498597
  50.0723230  66.5729113  49.6968185  50.0161480  65.5401284  51.1450382
  48.3069708  66.8113767  50.8918597  47.7509498  66.0920893  50.2905567
  48.0237300  66.7047518  51.9390011  47.9609708  68.1573767  50.4488597
  48.7043956  68.7137369  50.0515156  46.7489708  68.6883767  50.5328597
  45.7309708  68.0143767  51.0428597  45.8706884  67.0721973  51.3788314
  44.8188798  68.4451801  51.0938317  46.5529708  69.9283767  50.0948597
  47.3243786  70.4507365  49.7047696  45.6335792  70.3422495  50.1542500
  52.8679708  68.5603767  51.9838597  53.3859708  68.3563767  53.0858597
  52.9189708  69.7233767  51.3648597  52.5328155  69.8199156  50.4366013
  53.5209708  70.8873767  51.9828597  52.8858525  71.7559860  51.8089580
  53.6163807  70.7165320  53.0551509  54.8979708  71.1573767  51.4008597
  55.1589708  70.8653767  50.2358597  55.7609708  71.7143767  52.2468597
  55.4747162  71.8431639  53.2068448  57.0849708  72.1773767  51.8528597
  57.1876375  72.1093958  50.7698374  57.3059708  73.6323767  52.2748597
  57.2516869  73.7355700  53.3586049  58.2873294  73.9562715  51.9282657
  56.3059708  74.5983767  51.6998597  54.9649708  74.5143767  52.0308597
  54.6355415  73.7319547  52.7145204  54.0489708  75.4043767  51.5078597
  52.9944370  75.3187163  51.7700077  54.4669708  76.3993767  50.6558597
  53.7467315  77.1063833  50.2441594  55.7999708  76.5013767  50.3228597
  56.1340041  77.2876326  49.6458637  56.7129708  75.6073767  50.8468597
  57.7686277  75.6924406  50.5890758  58.1279708  71.2763767  52.4958597
  58.1029708  71.0623767  53.7118597  59.0389708  70.7493767  51.6808597
  58.9878490  70.9584919  50.6940686  60.0879708  69.8503767  52.1428597
  60.1319268  69.8714455  53.2317689  59.8189708  68.4123767  51.6918597
  59.8225567  68.3503655  50.6036313  60.5814436  67.7463265  52.0957312
  58.4949708  67.8753767  52.1478597  57.3199708  68.3303767  51.5798597
  57.3685113  69.0839099  50.7937736  56.1029708  67.8463767  51.9928597
  55.1849663  68.2173324  51.5370523  56.0429708  66.8933767  52.9818597
  55.0778402  66.5093755  53.3122623  57.2049708  66.4233767  53.5558597
  57.1615459  65.6648470  54.3374268  58.4249708  66.9153767  53.1388597
  59.3450926  66.5466408  53.5921914  61.4249708  70.3313767  51.6048597
  61.5709708  70.5433767  50.3978597  62.4009708  70.4873767  52.4998597
  62.2193410  70.2656047  53.4683261  63.7089708  71.0273767  52.1478597
  63.7762239  71.1491372  51.0667720  63.9299708  72.3873767  52.8068597
  64.0498556  72.2181845  53.8769536  64.8581092  72.7848488  52.3961591
  62.8119708  73.3783767  52.5758597  61.6289708  73.2963767  53.2888597
  61.5138992  72.4981900  54.0221782  60.6079708  74.1983767  53.0868597
  59.6811594  74.1177225  53.6548539  60.7629708  75.2043767  52.1648597
  59.7469708  76.1073767  51.9598597  58.9797862  75.9406383  52.5123322
  61.9279708  75.3123767  51.4448597  62.0518173  76.1099610  50.7123150
  62.9459708  74.4023767  51.6538597  63.8741828  74.4835536  51.0882336
  64.8219708  70.0643767  52.5388597  65.8769708  70.4883767  53.0188597
  64.6009708  68.7683767  52.3438597  63.7083103  68.4591623  51.9865880
  65.6029708  67.7603767  52.6658597  65.7988585  67.7586419  53.7381116
  65.1369708  66.3543767  52.2488597  65.0129891  66.3303042  51.1662012
  66.1569708  65.3043767  52.6658597  66.2811515  65.3275346  53.7485150
  65.8083300  64.3174500  52.3616813  67.1129095  65.5151559  52.1864289
  63.8759708  66.0623767  52.8628597  63.5880583  65.1848520  52.6008345
  66.9289708  68.0693767  51.9788597  66.9609708  68.4073767  50.7948597
  68.0299708  67.9753767  52.6448597  68.0402945  67.7002602  53.6166126
  69.2969708  68.2683767  51.9988597  69.1197908  68.5480329  50.9603510
  69.7880503  69.0916981  52.5175922  69.9355135  67.3856557  52.0330196
  25.6350035  42.3880091  39.2349354  25.8199708  41.9933767  38.2358597
  26.5080342  42.6521539  37.7060677  24.8795148  41.9347076  37.6879551
  26.4289708  40.6093767  38.3008597  26.6569708  40.0643767  39.3888597
  26.7149708  39.9893767  37.2068597  26.5133358  40.3901485  36.3019704
  27.3019708  38.6563767  37.2568597  27.7631187  38.4921422  38.2307533
  26.2279708  37.5903767  37.0388597  25.4463345  37.7673291  37.7776640
  25.8230418  37.7434560  36.0385101  26.7329708  36.1613767  37.1678597
  27.5281336  36.0009756  36.4397880  27.1284822  36.0212453  38.1738597
  25.6439708  35.1363767  36.9288597  24.4749708  35.4823767  36.7628597
  26.0239708  33.8653767  36.9068597  25.3392523  33.1393834  36.7513095
  26.9962127  33.6296792  37.0457617  28.3999708  38.5113767  36.2098597
  28.2049708  37.8613767  35.1838597  29.5569708  39.1123767  36.4768597
  29.6764789  39.6200824  37.3417598  30.6569708  39.1053767  35.5228597
  30.3966275  38.4684779  34.6774719  30.9559708  40.5133767  35.0008597
  31.8576881  40.4906825  34.3889038  30.1176402  40.8638711  34.3988168
  31.2439708  41.7563767  36.2808597  31.8859708  38.5083767  36.1898597
  31.9559708  38.3823767  37.4128597  32.8589708  38.1393767  35.3618597
  32.7086987  38.2204738  34.3663995  34.1229708  37.5893767  35.8258597
  34.1333292  37.5843627  36.9157986  34.3329708  36.1593767  35.3288597
  33.6210932  35.4954801  35.8193399  34.1795152  36.1227968  34.2503360
  35.9929708  35.5303767  35.6658597  35.2749708  38.4613767  35.3528597
  35.2779708  38.9403767  34.2148597  36.2309708  38.6843767  36.2558597
  36.0360069  38.4330058  37.2144530  37.4959708  39.3633767  35.9588597
  37.9123173  39.7852024  36.8736372  38.5219708  38.3953767  35.3538597
  38.4839648  37.4640016  35.9188342  38.2449708  38.1093767  33.8868597
  38.2832690  39.0402813  33.3211305  38.9965865  37.4199474  33.5023340
  37.2561433  37.6625285  33.7836734  39.8339708  38.9603767  35.4698597
  40.4771293  38.3561575  35.0918828  37.3019708  40.5823767  35.0588597
  38.1639708  40.9133767  34.2428597  36.1749708  41.2743767  35.2128597
  35.3907172  40.8858310  35.7169211  36.0239708  42.5893767  34.6098597
  36.9079500  43.1895533  34.8254238  35.8589708  42.4913767  33.0998597
  35.7771396  43.4988031  32.6918217  36.7395155  42.0018384  32.6838150
  34.7019708  41.7493767  32.7598597  34.6211861  41.7025498  31.8044117
  34.8339708  43.3083767  35.2228597  34.0889708  42.7503767  36.0318597
  34.6749708  44.5693767  34.8148597  35.3051606  44.9666642  34.1328606
  33.6359708  45.4223767  35.3738597  33.5043686  45.2453787  36.4413108
  33.9899708  46.8983767  35.1398597  34.0309237  47.0881315  34.0672850
  32.9439708  47.8023767  35.7748597  32.9027619  47.6135133  36.8475820
  33.2096176  48.8449419  35.5999588  31.9690476  47.5972771  35.3326402
  35.3819708  47.2093767  35.6948597  35.3103139  47.1833670  36.7821911
  36.0499804  46.4174202  35.3562338  35.9269708  48.5473767  35.2588597
  35.2596886  49.3399194  35.5975491  36.9160753  48.6960337  35.6920715
  35.9993529  48.5739732  34.1715910  32.2959708  45.0713767  34.7488597
  32.2249708  44.6283767  33.5958597  31.2209708  45.2653767  35.5108597
  31.3311837  45.4634049  36.4951042  29.8739708  45.1453767  34.9788597
  29.8438879  45.5906518  33.9844129  29.4239708  43.6833767  34.8748597
  28.3945043  43.6439946  34.5188443  30.0702014  43.1526266  34.1757242
  29.4699708  42.7343767  36.4008597  28.9069708  45.9293767  35.8528597
  29.1999708  46.2403767  37.0098597  27.7539708  46.2523767  35.2758597
  27.6349111  45.9895522  34.3079509  26.6929708  47.0213767  35.9198597
  25.9112434  47.2396225  35.1922813  26.0729708  46.2453767  37.0868597
  25.7001896  45.2915099  36.7136686  26.8440003  46.0655352  37.8360395
  25.0069708  46.9723767  37.6718597  24.6358358  46.4668587  38.3987092
  27.1669708  48.3853767  36.4038597  26.4769708  49.0253767  37.2078597
  28.3239708  48.8493767  35.9398597  28.9044503  48.2806368  35.3401283
  28.8109708  50.1623767  36.3258597  28.6249640  50.3316099  37.3864542
  30.3149708  50.2613767  36.0718597  30.7268516  49.4402129  36.6584970
  30.4633992  50.0595712  35.0110376  31.0269708  51.5643767  36.4478597
  30.6356003  52.3634858  35.8182927  30.8139708  51.9193767  37.9038597
  31.2055335  51.1208933  38.5340991  31.3345356  52.8495920  38.1314832
  29.7482462  52.0436372  38.0959297  32.5099708  51.4383767  36.1628597
  32.6609013  51.2382098  35.1020804  33.0123996  52.3675280  36.4318288
  32.9248347  50.6186325  36.7493802  28.0589708  51.2483767  35.5598597
  27.3469708  50.9823767  34.5898597  28.1969708  52.4863767  36.0318597
  28.6848702  52.6268714  36.9049660  27.6129708  53.6463767  35.3728597
  27.0930467  53.3381026  34.4658067  26.6049708  54.3303767  36.3078597
  25.7423941  53.6677491  36.3784666  27.0762573  54.4180071  37.2867927
  26.1539708  55.6963767  35.8418597  26.8239708  56.8433767  36.2448597
  27.6846446  56.7433880  36.9061783  26.4189708  58.0933767  35.8238597
  26.9581597  58.9849637  36.1439374  25.3259708  58.2103767  34.9938597
  24.9199708  59.4563767  34.5758597  25.4676008  60.1649461  34.9217361
  24.6409708  57.0883767  34.5828597  23.7759702  57.1806563  33.9260804
  25.0559708  55.8403767  35.0078597  24.5174380  54.9485560  34.6873313
  28.6589708  54.6513767  34.9128597  28.6679708  55.0373767  33.7408597
  29.5539708  55.0843767  35.7998597  29.5461056  54.7214786  36.7423789
  30.5249708  56.1223767  35.4658597  30.6008700  56.2138345  34.3823589
  30.1069708  57.4743767  36.0418597  29.1606165  57.7462945  35.5743411
  29.9563912  57.3369615  37.1126271  31.1199708  58.5793767  35.8118597
  31.9731269  58.4103396  36.4688619  31.4498003  58.5475664  34.7734462
  30.5539708  59.9543767  36.0978597  29.3849708  60.0953767  36.4558597
  31.3809708  60.9793767  35.9358597  31.0561390  61.9192222  36.1127104
  32.3314608  60.8149842  35.6364516  31.8979708  55.7183767  35.9838597
  32.0179708  55.1733767  37.0848597  32.9229708  55.9863767  35.1828597
  32.7302321  56.3346798  34.2546161  34.3089708  55.7733767  35.5648597
  34.4179679  55.9044725  36.6414435  34.7589708  54.3593767  35.1968597
  33.8941423  53.7526914  35.4653814  34.8965675  54.3366092  34.1158191
  36.0079708  53.7983767  35.8818597  35.9008505  53.8986414  36.9619398
  36.1819708  52.3333767  35.5248597  36.2896255  52.2323509  34.4449046
  37.0728175  51.9424121  36.0164281  35.3085967  51.7718415  35.8565166
  37.2529708  54.5823767  35.5118597  37.1327554  55.6216731  35.8176550
  38.1173361  54.1528334  36.0182848  37.4045977  54.5367120  34.4334243
  35.1849708  56.8033767  34.8648597  35.0969708  56.9893767  33.6498597
  36.0299708  57.4853767  35.6318597  36.1140059  57.3390698  36.6276668
  36.8399708  58.5253767  35.0168597  37.2975669  58.1415079  34.1050759
  35.9829708  59.7453767  34.6588597  36.6649204  60.5223777  34.3134418
  35.3297885  59.4454065  33.8394265  35.1459708  60.2803767  35.8008597
  34.3610089  59.5632052  36.0408611  35.8006478  60.4039415  36.6635467
  34.5349708  61.6313767  35.4878597  35.0769708  62.3453767  34.6188597
  33.5079708  61.9773767  36.1088597  33.1903997  62.8473692  35.8569851
  37.9749708  58.9543767  35.9318597  37.7539708  59.2673767  37.1018597
  33.2087661  61.3159072  36.7368832  34.6292247  63.1855302  34.4922165
  35.8465596  61.9326740  34.2209568  39.1819708  58.9853767  35.3778597
  39.3671933  58.4756343  34.5258300  40.2759708  59.7193767  35.9938597
  40.2834260  59.5351172  37.0681464  41.6159708  59.2763767  35.4138597
  41.5738094  58.2052248  35.2164888  41.7877542  59.8109581  34.4796149
  42.7729708  59.5503767  36.3468597  42.7039708  60.4443767  37.1878597
  43.8449708  58.7823767  36.2028597  44.6469201  58.9226884  36.8005969
  43.8542726  58.0608685  35.4961488  40.0449708  61.2053767  35.7518597
  39.0519708  61.5883767  35.1258597  40.9509708  62.0453767  36.2458597
  41.7510212  61.7085551  36.7621637  40.7869708  63.4833767  36.0878597
  40.6087746  63.7194953  35.0387680  39.5979708  63.9873767  36.9118597
  38.8539627  63.1912190  36.8857051  39.9426692  64.1283239  37.9362702
  38.9799708  65.2703767  36.4078597  39.6669708  66.4733767  36.4808597
  40.6708589  66.4811197  36.9054160  39.0999708  67.6483767  36.0268597
  39.6534072  68.5857310  36.0832231  37.8269708  67.6303767  35.4988597
  37.2569708  68.7973767  35.0478597  37.8322297  69.5592728  35.1488110
  37.1219708  66.4493767  35.4218597  36.1150642  66.4344103  35.0047078
  37.6979708  65.2803767  35.8768597  37.1444159  64.3429694  35.8225963
  42.0629708  64.1903767  36.5158597  42.6819708  63.8073767  37.5118597
  42.4429708  65.2183767  35.7638597  41.9419801  65.4160437  34.9094386
  43.5969708  66.0473767  36.0968597  43.4136131  66.5628875  37.0395833
  44.8639708  65.2003767  36.2408597  45.7408020  65.8459986  36.1914771
  44.8483384  64.6824178  37.1998040  45.0899708  63.9153767  34.9998597
  43.8049708  67.1223767  35.0378597  43.7409708  66.8453767  33.8398597
  44.0499708  68.3363767  35.3998597  44.1083221  68.5989040  36.3733965
  44.2499708  69.3663767  34.3958597  44.1564675  68.9287267  33.4019682
  43.4993634  70.1468257  34.5207137  45.2444110  69.7977755  34.5102440
  29.0522016  25.4177446  41.8068199  28.8739708  25.6453767  40.7558597
  28.1432474  26.4502892  40.6767555  28.4922879  24.7579409  40.2510084
  30.1499708  26.0813767  40.0688597  31.2189708  26.1453767  40.6908597
  30.1239708  26.3903767  38.8168597  29.2780780  26.3159777  38.2700237
  31.3459708  26.8113767  38.1448597  32.0689426  27.1638806  38.8804899
  31.9629708  25.6443767  37.3738597  31.8388362  24.7224794  37.9420103
  31.4858319  25.5372446  36.3997133  33.4299708  25.7953767  37.1178597
  34.0439708  27.0223767  36.9948597  33.5685967  27.9108942  37.0630934
  35.3339708  26.8473767  36.7768597  35.9962790  27.7034253  36.6479118
  35.5809708  25.5503767  36.7578597  36.4823180  25.1186197  36.6120555
  34.4069708  24.8703767  36.9698597  34.4045578  23.7805848  36.9910489
  31.0479708  27.9743767  37.2058597  30.2289708  27.8513767  36.2968597
  31.7099708  29.1073767  37.4398597  32.3445069  29.1689128  38.2232348
  31.5009708  30.2973767  36.6248597  30.7507989  30.0965365  35.8600038
  31.0129708  31.4573767  37.4958597  30.0854911  31.0833697  37.9294487
  31.7473301  31.6104535  38.2866719  30.7439708  32.7873767  36.7848597
  30.4548861  32.5867663  35.7532171  29.6299708  33.5453767  37.4838597
  29.9185383  33.7467702  38.5154935  29.4509720  34.4879670  36.9665747
  28.7193274  32.9464675  37.4721604  31.9979708  33.6443767  36.7198597
  32.7753283  33.1108726  36.1728789  31.7726911  34.5807453  36.2094047
  32.3462685  33.8568400  37.7306253  32.7779708  30.6813767  35.8898597
  32.7559708  30.9103767  34.6768597  33.8939708  30.7523767  36.6118597
  33.8626822  30.5469496  37.6002524  35.1619708  31.1673767  36.0338597
  35.1131198  31.0693387  34.9493776  35.4859708  32.6253767  36.3798597
  34.6056996  33.1009545  36.8123498  36.3046912  32.6554203  37.0988133
  35.9809708  33.6263767  34.9608597  36.2669708  30.2473767  36.5298597
  36.1429708  29.5933767  37.5678597  37.3589708  30.2133767  35.7738597
  37.4351709  30.8490641  34.9927103  38.4519708  29.2983767  36.0228597
  38.0370773  28.3808720  36.4401698  38.9331533  29.0783690  35.0698858
  39.4849708  29.8513767  36.9798597  39.2039708  30.7093767  37.8208597
  40.7059708  29.3453767  36.8418597  40.8858028  28.6890320  36.0955545
  41.7899708  29.6623767  37.7568597  41.4036375  30.2120866  38.6151515
  42.4509708  28.3773767  38.2568597  42.9173882  27.8733922  37.4103648
  43.2150117  28.6404984  38.9883708  41.5019708  27.5133767  38.8558597
  41.9421591  26.7164012  39.1602675  42.8269708  30.5603767  37.0878597
  42.8319708  30.7613767  35.8718597  43.7179708  31.1063767  37.9138597
  43.5847702  30.9787468  38.9068690  44.8299708  31.9413767  37.4658597
  45.3788541  32.3145429  38.3304829  45.7929708  31.1403767  36.5828597
  45.8334637  30.1028320  36.9144626  45.4648197  31.1767244  35.5440643
  47.1989708  31.6523767  36.6058597  48.2919708  30.8283767  36.4458597
  48.2412337  29.8300710  36.3012524  49.3979708  31.5483767  36.5118597
  50.3752848  31.0770595  36.4078581  49.0609708  32.8103767  36.7088597
  49.6986606  33.5883213  36.7997100  47.6919708  32.9023767  36.7718597
  47.2175787  33.8706757  36.9313916  44.3549708  33.1873767  36.7288597
  45.0629708  33.7083767  35.8608597  43.1639708  33.6753767  37.0568597
  42.5691460  33.1883676  37.7119207  42.6659708  34.9013767  36.4528597
  42.8110584  34.8676375  35.3730864  41.1759708  35.0683767  36.7398597
  41.1398156  35.3651492  37.7880573  40.7864461  35.8762467  36.1204110
  40.3249708  33.8143767  36.5358597  40.5975224  33.0739467  37.2879101
  38.8529708  34.1473767  36.6658597  38.5795488  34.8874568  35.9137821
  38.2611351  33.2440721  36.5179673  38.6575084  34.5505615  37.6595080
  40.6169708  33.1823767  35.1918597  41.6699275  32.9052238  35.1411867
  40.0009784  32.2918309  35.0670286  40.3905844  33.8943054  34.3981307
  43.4369708  36.1043767  36.9818597  43.8279708  36.1563767  38.1508597
  43.6549708  37.0783767  36.1038597  43.3159468  36.9734383  35.1582646
  44.4129708  38.2773767  36.4368597  44.4544392  38.4369443  37.5143186
  45.8549708  38.2083767  35.8928597  45.8205737  38.0602803  34.8135157
  46.6019708  39.4953767  36.2038597  46.6371846  39.6439263  37.2831159
  47.6174944  39.4301181  35.8132786  46.0875904  40.3361763  35.7384884
  46.5849708  37.0093767  36.4738597  46.0588304  36.0950520  36.1994719
  47.6006476  36.9757313  36.0796920  46.6199289  37.0958763  37.5598600
  43.6889708  39.4923767  35.8778597  43.1819708  39.4653767  34.7518597
  43.6389708  40.5553767  36.6728597  43.9485054  40.4565909  37.6291698
  43.1299708  41.8483767  36.2428597  43.1916668  41.9162306  35.1567250
  41.6729708  42.0463767  36.6628597  41.1045385  41.2060621  36.2642930
  41.6440328  42.0199111  37.7521540  41.0629708  43.3483767  36.1718597
  41.6728151  44.1816605  36.5208995  41.0650691  43.3287479  35.0820388
  39.6309708  43.5293767  36.6268597  39.2249708  42.8483767  37.5898597
  38.9119708  44.3523767  36.0218597  38.0184290  44.3990522  36.3691112
  43.9969708  42.9423767  36.8448597  44.5719708  42.7673767  37.9238597
  39.3727114  44.7994807  35.3082106  38.3049494  43.0182203  37.8068544
  39.9013436  42.2732501  37.9540935  44.0919708  44.0693767  36.1468597
  43.6227126  44.1387591  35.2551859  44.8869708  45.2013767  36.5978597
  44.7857558  45.3193174  37.6767224  46.3659708  45.0003767  36.2648597
  46.4844848  44.8898528  35.1869734  46.9363889  45.8643367  36.6058826
  46.7326932  44.1034743  36.7640391  44.3669708  46.4743767  35.9498597
  44.5899708  46.7053767  34.7578597  43.6889708  47.3003767  36.7388597
  43.5294890  47.0329097  37.6996543  43.1249708  48.5573767  36.2698597
  43.2092410  48.6162857  35.1847203  41.6469708  48.6613767  36.6518597
  41.1538496  47.9759898  35.9625298  41.5380057  48.2914196  37.6713490
  41.0059708  50.0433767  36.5408597  41.4039086  50.6812699  37.3300609
  41.3019708  50.6613767  35.1988597  40.9039016  50.0242383  34.4091165
  40.8362877  51.6451714  35.1406523  42.3801485  50.7624034  35.0746555
  39.5079708  49.9463767  36.7678597  39.3159963  49.5432321  37.7622035
  39.0626290  50.9378889  36.6861557  39.0682625  49.2882680  36.0184275
  43.9149708  49.7143767  36.8618597  44.0299708  49.8313767  38.0858597
  44.4549708  50.5633767  35.9928597  44.3052036  50.4058401  35.0065274
  45.2779708  51.6953767  36.3938597  45.4308342  51.6700945  37.4727910
  46.6429708  51.6543767  35.7058597  46.4721415  51.6394333  34.6294335
  47.1410429  52.5839771  35.9812998  47.5129708  50.4843767  36.0928597
  47.1789708  49.1943767  35.7158597  46.2688829  49.0344798  35.1376966
  47.9739708  48.1233767  36.0588597  47.6933354  47.1128616  35.7618667
  49.1269708  48.3333767  36.7798597  49.9239708  47.2653767  37.1218597
  49.5811863  46.4256412  36.8073080  49.4859708  49.6063767  37.1598597
  50.3985628  49.7749153  37.7315860  48.6829708  50.6723767  36.8128597
  48.9640840  51.6842056  37.1048832  44.5709708  52.9973767  36.0458597
  44.1909708  53.2143767  34.8908597  44.4009708  53.8543767  37.0458597
  44.5970098  53.5352861  37.9838625  43.9259708  55.2203767  36.8658597
  43.7154099  55.3954022  35.8108102  42.6489708  55.4713767  37.6668597
  42.8709395  54.9724666  38.6102143  42.5893480  56.5473395  37.8307169
  41.3109708  54.9633767  37.1238597  40.6245165  54.8104781  37.9566282
  40.7179708  55.9663767  36.1598597  41.4036978  56.1194589  35.3265272
  39.7669492  55.5902685  35.7827637  40.5552403  56.9133663  36.6744760
  41.4619708  53.6153767  36.4578597  41.8381462  52.8921522  37.1814188
  40.4933918  53.2839287  36.0835626  42.1634494  53.6963228  35.6275137
  45.0359708  56.1533767  37.3248597  45.1029708  56.5043767  38.5068597
  45.9009708  56.5543767  36.3948597  45.7312710  56.3613022  35.4181184
  47.1449708  57.2213767  36.7618597  47.1947643  57.4337456  37.8298107
  48.3649708  56.3643767  36.3728597  48.3868056  56.2491778  35.2891846
  49.6519708  57.0293767  36.8378597  49.6310709  57.1445022  37.9215618
  50.5038300  56.4109422  36.5550612  49.7443566  58.0097864  36.3705661
  48.2469708  54.9633767  36.9488597  47.3459213  54.4862218  36.5634572
  49.1195290  54.3769525  36.6610257  48.1906849  55.0204479  38.0359087
  47.2409708  58.5963767  36.1178597  47.6879708  58.7313767  34.9738597
  46.8289708  59.6253767  36.8508597  46.2366614  59.4825868  37.6563906
  47.1879708  60.9883767  36.4918597  47.2162306  61.0878732  35.4067786
  46.1659708  61.9773767  37.0458597  45.8055796  61.6250818  38.0123511
  46.6338207  62.9543518  37.1672521  44.6999708  62.2053767  36.0188597
  48.5759708  61.3023767  37.0328597  48.7289708  61.7953767  38.1528597
  49.5899708  61.0123767  36.2248597  49.4077165  60.7853466  35.2577299
  50.9609708  61.0093767  36.6828597  51.0255230  60.3580406  37.5544636
  51.5842797  60.6086232  35.8834962  51.4669708  62.3883767  37.0588597
  50.7139708  63.3133767  37.3638597  52.7929708  62.5123767  37.0288597
  53.3493919  61.7363172  36.6998818  53.4829708  63.7053767  37.5028597
  53.3294894  63.8250797  38.5753399  54.9829708  63.5813767  37.2348597
  55.1107916  63.4769487  36.1574295  55.4480153  64.5095131  37.5671194
  55.6389708  62.4073767  37.9378597  55.4022291  62.4513315  39.0009317
  55.2281894  61.4918455  37.5122303  57.1419708  62.3733767  37.7428597
  57.7079708  63.3913767  37.2958597  57.7569708  61.3273767  38.0378597
  58.7013592  61.3874814  37.8775570  52.9439708  64.9743767  36.8548597
  52.7469708  65.0263767  35.6368597  57.1817193  60.6361479  38.3736682
  58.6565248  63.2788360  37.1960960  57.1010004  64.1162721  37.1314495
  52.7019708  66.0003767  37.6668597  52.8046422  65.8604436  38.6618354
  52.2609708  67.3063767  37.1948597  52.4559792  67.3884780  36.1255935
  50.7649708  67.5113767  37.4358597  50.5960081  67.3960174  38.5064871
  50.5318203  68.5341887  37.1398925  49.8699708  66.5483767  36.6758597
  50.1530852  66.5712181  35.6235169  50.0269867  65.5451704  37.0721238
  48.4039708  66.9233767  36.8138597  47.8045812  66.2407630  36.2114731
  48.1119621  66.8356341  37.8603451  48.1459708  68.2873767  36.3698597
  48.9242720  68.7943003  35.9731544  46.9699708  68.8953767  36.4508597
  45.9099708  68.2883767  36.9598597  45.9886256  67.3396374  37.2972130
  45.0271752  68.7766305  37.0086439  46.8549708  70.1453767  36.0118597
  47.6592156  70.6169268  35.6233615  45.9639138  70.6174529  36.0689579
  53.0649708  68.3763767  37.9158597  53.5659708  68.1393767  39.0198597
  53.1929708  69.5333767  37.2978597  52.8167250  69.6537453  36.3683168
  53.8659708  70.6563767  37.9168597  53.2881586  71.5637625  37.7411232
  53.9477915  70.4803782  38.9894403  55.2589708  70.8373767  37.3378597
  55.5029708  70.5283767  36.1738597  56.1539708  71.3373767  38.1858597
  55.8741305  71.4845209  39.1450976  57.5059708  71.7153767  37.7948597
  57.6067451  71.6397771  36.7121647  57.8179708  73.1533767  38.2158597
  57.7688487  73.2610100  39.2994193  58.8186844  73.4129512  37.8704709
  56.8839708  74.1803767  37.6388597  55.5389708  74.1833767  37.9668597
  55.1580138  73.4240280  38.6497661  54.6839708  75.1303767  37.4418597
  53.6255462  75.1127628  37.7017208  55.1669708  76.0963767  36.5908597
  54.4946013  76.8482439  36.1776830  56.5039708  76.1123767  36.2608597
  56.8891222  76.8755170  35.5845642  57.3569708  75.1613767  36.7868597
  58.4164783  75.1786823  36.5314302  58.4879708  70.7493767  38.4398597
  58.4459708  70.5383767  39.6558597  59.3649708  70.1643767  37.6268597
  59.3301964  70.3758430  36.6398581  60.3519708  69.2003767  38.0918597
  60.3939371  69.2193713  39.1808855  59.9929708  67.7823767  37.6408597
  59.9958202  67.7192140  36.5526954  60.7098563  67.0690988  38.0475656
  58.6369708  67.3323767  38.0928597  57.4939708  67.8603767  37.5228597
  57.5924361  68.6089891  36.7367402  56.2479708  67.4553767  37.9328597
  55.3566036  67.8836665  37.4744569  56.1249708  66.5093767  38.9218597
  55.1362480  66.1885605  39.2498904  57.2519708  65.9663767  39.4988597
  57.1577513  65.2128635  40.2808064  58.5019708  66.3783767  39.0848597
  59.3952558  65.9512138  39.5405718  61.7189708  69.5943767  37.5568597
  61.8809708  69.7963767  36.3498597  62.7009708  69.6873767  38.4538597
  62.5036997  69.4769182  39.4217908  64.0409708  70.1423767  38.1048597
  64.1179667  70.2595009  37.0239098  64.3479708  71.4863767  38.7648597
  64.4539880  71.3112409  39.8354609  65.3007744  71.8228811  38.3561666
  63.2969708  72.5463767  38.5298597  62.1079708  72.5403767  39.2408597
  61.9391941  71.7509606  39.9732777  61.1489708  73.5063767  39.0368597
  60.2186757  73.4866092  39.6045412  61.3699708  74.5003767  38.1148597
  60.4139708  75.4663767  37.9068597  59.6362616  75.3491274  38.4573328
  62.5409708  74.5323767  37.3968597  62.7170438  75.3193820  36.6635648
  63.4979708  73.5593767  37.6088597  64.4311358  73.5809487  37.0459762
  65.0899708  69.1103767  38.4988597  66.1689708  69.4663767  38.9808597
  64.7869708  67.8313767  38.3038597  63.8765424  67.5801937  37.9459119
  65.7209708  66.7613767  38.6278597  65.9161255  66.7474037  39.7001556
  65.1669708  65.3873767  38.2108597  65.0427586  65.3711645  37.1280814
  66.1169708  64.2743767  38.6288597  66.2413230  64.2896633  39.7116350
  65.7060597  63.3117981  38.3244035  67.0849260  64.4233624  38.1503552
  63.8879708  65.1773767  38.8218597  63.5451520  64.3197872  38.5599132
  67.0659708  66.9843767  37.9448597  68.0219708  67.4423767  38.5698597
  67.2029708  66.6893767  36.6968597  66.4942929  66.9207658  36.0154390
  68.4009708  66.0063767  36.2398597  69.0636031  65.8280661  37.0867507
  68.1263300  65.0536164  35.7871780  68.9131054  66.6242702  35.5022787
  26.1510626  41.8557256  43.9595066  26.3439708  41.4663767  42.9598597
  27.0171026  42.1406619  42.4303964  25.4046664  41.3877600  42.4124789
  26.9829708  40.0963767  43.0228597  27.2239708  39.5543767  44.1098597
  27.2809708  39.4833767  41.9278597  27.0685072  39.8800611  41.0236473
  27.8969708  38.1623767  41.9758597  28.3638830  38.0075866  42.9485530
  26.8449708  37.0733767  41.7598597  26.0611563  37.2333435  42.5002277
  26.4347925  37.2175070  40.7603197  27.3809708  35.6563767  41.8878597
  28.1780173  35.5147136  41.1579630  27.7813812  35.5228985  42.8928259
  26.3139708  34.6083767  41.6488597  25.1369708  34.9293767  41.4858597
  26.7219708  33.3453767  41.6258597  26.0532521  32.6046220  41.4702986
  27.6992378  33.1309921  41.7640251  28.9959708  38.0423767  40.9278597
  28.8129708  37.3883767  39.9018597  30.1389708  38.6683767  41.1918597
  30.2475485  39.1798712  42.0559683  31.2379708  38.6853767  40.2368597
  30.9910443  38.0429174  39.3916541  31.5049708  40.0993767  39.7148597
  32.4052805  40.0964361  39.1004225  30.6576086  40.4319306  39.1152888
  31.7679708  41.3473767  40.9948597  32.4809708  38.1143767  40.9018597
  32.5549708  37.9893767  42.1248597  33.4599708  37.7673767  40.0718597
  33.3071584  37.8471368  39.0766783  34.7359708  37.2433767  40.5338597
  34.7474877  37.2373317  41.6237817  34.9759708  35.8183767  40.0348597
  34.2803788  35.1385677  40.5269072  34.8200888  35.7792885  38.9567720
  36.6499708  35.2253767  40.3688597  35.8679708  38.1413767  40.0588597
  35.8589708  38.6203767  38.9208597  36.8209708  38.3843767  40.9598597
  36.6332956  38.1285131  41.9187190  38.0699708  39.0903767  40.6608597
  38.4785936  39.5212512  41.5749023  39.1159708  38.1453767  40.0538597
  39.0994425  37.2133390  40.6187781  38.8429708  37.8533767  38.5868597
  38.8598005  38.7849505  38.0211861  39.6090285  37.1807563  38.2010664
  37.8640960  37.3847993  38.4851743  40.4149708  38.7383767  40.1678597
  41.0704536  38.1483958  39.7885642  37.8479708  40.3053767  39.7618597
  38.7019708  40.6553767  38.9448597  36.7069708  40.9723767  39.9188597
  35.9321430  40.5674628  40.4246126  36.5269708  42.2843767  39.3158597
  37.3985811  42.9027868  39.5302508  36.3609708  42.1843767  37.8058597
  36.2552627  43.1900647  37.3990223  37.2513822  41.7153646  37.3871769
  35.2199708  41.4163767  37.4678597  35.1379130  41.3686202  36.5125662
  35.3229708  42.9773767  39.9318597  34.5909708  42.4033767  40.7408597
  35.1359708  44.2343767  39.5238597  35.7549194  44.6452203  38.8396013
  34.0799708  45.0643767  40.0858597  33.9544171  44.8840122  41.1534758
  34.4009708  46.5483767  39.8518597  34.4358614  46.7391338  38.7792485
  33.3369708  47.4293767  40.4888597  33.3018053  47.2395052  41.5616191
  33.5797189  48.4774627  40.3136746  32.3659007  47.2033348  40.0483747
  35.7869708  46.8893767  40.4038597  35.7177850  46.8612362  41.4912981
  36.4707970  46.1117603  40.0635747  36.3029708  48.2383767  39.9678597
  35.6198597  49.0165943  40.3082074  37.2895109  48.4074290  40.3994372
  36.3728695  48.2671191  38.8804831  32.7459708  44.6853767  39.4628597
  32.6829708  44.2413767  38.3088597  31.6689708  44.8563767  40.2268597
  31.7766437  45.0567336  41.2109141  30.3229708  44.7073767  39.6968597
  30.2812429  45.1523792  38.7027114  29.9049708  43.2353767  39.5928597
  28.8757725  43.1735085  39.2392746  30.5610805  42.7194849  38.8918064
  29.9749708  42.2873767  41.1178597  29.3419708  45.4693767  40.5728597
  29.6289708  45.7863767  41.7298597  28.1799708  45.7673767  39.9978597
  28.0642423  45.5018372  39.0302880  27.1049708  46.5133767  40.6438597
  26.3172181  46.7154908  39.9181223  26.5039708  45.7233767  41.8118597
  26.1513184  44.7617227  41.4390903  27.2798646  45.5601476  42.5598203
  25.4229708  46.4273767  42.3988597  25.0639734  45.9138616  43.1261993
  27.5489708  47.8873767  41.1278597  26.8479708  48.5123767  41.9328597
  28.6949708  48.3763767  40.6628597  29.2866308  47.8194989  40.0629223
  29.1549708  49.6993767  41.0478597  28.9668195  49.8647711  42.1086815
  30.6559708  49.8303767  40.7918597  31.0851707  49.0182981  41.3787285
  30.8080413  49.6311255  39.7310706  31.3409708  51.1483767  41.1668597
  30.9321574  51.9391691  40.5378765  31.1219708  51.4983767  42.6228597
  31.5309638  50.7082138  43.2525152  31.6229500  52.4393500  42.8502138
  30.0540428  51.6000047  42.8159968  32.8249708  51.0543767  40.8788597
  32.9779360  50.8578491  39.8176915  33.3079068  51.9940071  41.1471296
  33.2585615  50.2435293  41.4642011  28.3789708  50.7683767  40.2838597
  27.6709708  50.4873767  39.3138597  28.4899708  52.0093767  40.7558597
  28.9746100  52.1594826  41.6291823  27.8809708  53.1573767  40.0978597
  27.3666327  52.8393030  39.1910055  26.8589708  53.8183767  41.0358597
  26.0109292  53.1372823  41.1068183  27.3291435  53.9155431  42.0144282
  26.3779708  55.1753767  40.5708597  27.0239708  56.3353767  40.9728597
  27.8883683  56.2536210  41.6318228  26.5909708  57.5763767  40.5538597
  27.1111120  58.4791540  40.8740911  25.4949708  57.6703767  39.7258597
  25.0609708  58.9073767  39.3088597  25.5933763  59.6277245  39.6541757
  24.8329708  56.5343767  39.3148597  23.9653856  56.6084478  38.6591846
  25.2749708  55.2953767  39.7388597  24.7546310  54.3924568  39.4193565
  28.9029708  54.1843767  39.6368597  28.9019708  54.5713767  38.4648597
  29.7899708  54.6353767  40.5228597  29.7922740  54.2716131  41.4650752
  30.7389708  55.6953767  40.1868597  30.8108117  55.7894051  39.1033022
  30.2919708  57.0373767  40.7648597  29.3392355  57.2892080  40.2990532
  30.1461261  56.8961026  41.8357803  31.2809708  58.1643767  40.5338597
  32.1392168  58.0146844  41.1889221  31.6090315  58.1396875  39.4946924
  30.6849708  59.5263767  40.8208597  29.5139708  59.6423767  41.1808597
  31.4899708  60.5693767  40.6588597  31.1450871  61.5019493  40.8362436
  32.4436407  60.4255793  40.3589643  32.1199708  55.3203767  40.7028597
  32.2539708  54.7773767  41.8028597  33.1379708  55.6113767  39.8998597
  32.9364085  55.9562680  38.9722164  34.5289708  55.4283767  40.2798597
  34.6366764  55.5615984  41.3563125  35.0089708  54.0243767  39.9108597
  34.1574524  53.4001988  40.1818165  35.1442395  54.0039917  38.8294778
  36.2709708  53.4893767  40.5928597  36.1641233  53.5869775  41.6732108
  36.4749708  52.0283767  40.2348597  36.5823689  51.9300262  39.1546321
  37.3749114  51.6560526  40.7243312  35.6143221  51.4484822  40.5681864
  37.4979708  54.3003767  40.2218597  37.3559794  55.3364130  40.5293767
  38.3722821  53.8888092  40.7261346  37.6486090  54.2595102  39.1430932
  35.3809708  56.4773767  39.5778597  35.2869708  56.6613767  38.3638597
  36.2129708  57.1763767  40.3448597  36.3028076  57.0309615  41.3402908
  36.9989708  58.2333767  39.7288597  37.4628765  57.8596990  38.8160313
  36.1149708  59.4353767  39.3728597  36.7794849  60.2267771  39.0261530
  35.4666413  59.1216361  38.5547303  35.2689708  59.9523767  40.5168597
  34.5003547  59.2180264  40.7578156  35.9218963  60.0902993  41.3786977
  34.6279708  61.2893767  40.2048597  35.1529708  62.0153767  39.3358597
  33.5949708  61.6123767  40.8278597  33.2576263  62.4751040  40.5767035
  38.1259708  58.6873767  40.6418597  37.8999708  58.9943767  41.8118597
  33.3118193  60.9443927  41.4564307  34.6865073  62.8453958  39.2099507
  35.9311828  61.6200551  38.9370816  39.3319708  58.7453767  40.0858597
  39.5262685  58.2412123  39.2325333  40.4099708  59.5013767  40.6998597
  40.4235104  59.3160787  41.7739083  41.7579708  59.0883767  40.1168597
  41.7392289  58.0166676  39.9189014  41.9168122  59.6271505  39.1827332
  42.9099708  59.3873767  41.0488597  42.8239708  60.2783767  41.8898597
  43.9989708  58.6423767  40.9028597  44.7985043  58.7997427  41.4995857
  44.0229644  57.9216227  40.1957255  40.1469708  60.9823767  40.4588597
  39.1449708  61.3443767  39.8348597  41.0349708  61.8413767  40.9518597
  41.8428898  61.5214254  41.4666385  40.8399708  63.2763767  40.7948597
  40.6545141  63.5092381  39.7462985  39.6419708  63.7543767  41.6218597
  38.9154062  62.9422026  41.5978514  39.9860189  63.9032634  42.6453653
  38.9949708  65.0233767  41.1188597  39.6559708  66.2403767  41.1908597
  40.6604621  66.2692591  41.6130710  39.0629708  67.4033767  40.7388597
  39.5956525  68.3527158  40.7946028  37.7899708  67.3573767  40.2128597
  37.1939708  68.5123767  39.7628597  37.7527724  69.2865035  39.8631997
  37.1099708  66.1623767  40.1368597  36.1025497  66.1262323  39.7222553
  37.7119708  65.0053767  40.5898597  37.1787408  64.0562686  40.5354573
  42.1009708  64.0103767  41.2208597  42.7299708  63.6393767  42.2158597
  42.4579708  65.0463767  40.4688597  41.9515110  65.2339571  39.6153895
  43.5929708  65.8993767  40.8008597  43.3996805  66.4095101  41.7445238
  44.8789708  65.0803767  40.9418597  45.7412365  65.7451276  40.8898661
  44.8773005  64.5626561  41.9010586  45.1309708  63.8013767  39.6998597
  43.7759708  66.9793767  39.7408597  43.5169708  68.1563767  39.9918597
  44.2069708  66.6563767  38.5688597  43.5871179  66.5960327  37.7737242
  45.6159708  66.3683767  38.3668597  46.1484023  66.4756551  39.3119039
  45.7298936  65.3483088  38.0000033  46.0286591  67.0646973  37.6368419
  29.9391824  24.9618174  46.5166629  29.7549708  25.1853767  45.4658597
  29.0065084  25.9738861  45.3874029  29.3925869  24.2896655  44.9614012
  31.0199708  25.6493767  44.7778597  32.0879708  25.7373767  45.3978597
  30.9849708  25.9593767  43.5258597  30.1398865  25.8673262  42.9804620
  32.1969708  26.4083767  42.8518597  32.9139040  26.7757242  43.5861361
  32.8369708  25.2543767  42.0788597  32.7331167  24.3297964  42.6467196
  32.3607935  25.1376743  41.1053425  34.2999708  25.4363767  41.8208597
  34.8869708  26.6773767  41.6978597  34.3925775  27.5553566  41.7673317
  36.1809708  26.5303767  41.4778597  36.8245138  27.4006596  41.3491781
  36.4559708  25.2383767  41.4568597  37.3659180  24.8259421  41.3085574
  35.2969708  24.5333767  41.6708597  35.3178422  23.4437791  41.6919007
  31.8719708  27.5643767  41.9148597  31.0539708  27.4233767  41.0058597
  32.5099708  28.7113767  42.1478597  33.1457878  28.7863799  42.9290194
  32.2729708  29.8963767  41.3338597  31.5254116  29.6789516  40.5709830
  31.7619708  31.0463767  42.2058597  30.8433658  30.6529774  42.6411771
  32.4944120  31.2149154  42.9953054  31.4639708  32.3693767  41.4958597
  31.1776171  32.1628121  40.4646306  30.3349708  33.1033767  42.1968597
  30.6207907  33.3107131  43.2280810  30.1350553  34.0420156  41.6800506
  29.4373174  32.4851447  42.1864656  32.6989708  33.2533767  41.4288597
  33.4868649  32.7368243  40.8806847  32.4526272  34.1845974  40.9187185
  33.0441575  33.4734248  42.4390695  33.5409708  30.3083767  40.5968597
  33.5119708  30.5383767  39.3828597  34.6559708  30.4033767  41.3168597
  34.6314141  30.1969466  42.3052336  35.9139708  30.8463767  40.7358597
  35.8647161  30.7478969  39.6514359  36.2069708  32.3103767  41.0818597
  35.3171406  32.7669270  41.5152917  37.0255255  32.3577127  41.8000710
  36.6779708  33.3223767  39.6628597  37.0399708  29.9493767  41.2298597
  36.9319708  29.2923767  42.2678597  38.1309708  29.9393767  40.4718597
  38.1919869  30.5766267  39.6906499  39.2439708  29.0483767  40.7188597
  38.8498010  28.1217992  41.1362126  39.7285785  28.8394436  39.7651293
  40.2659708  29.6233767  41.6748597  39.9679708  30.4743767  42.5158597
  41.4979708  29.1433767  41.5338597  41.6907381  28.4912904  40.7870508
  42.5759708  29.4833767  42.4468597  42.1789768  30.0245073  43.3057384
  43.2659708  28.2133767  42.9458597  43.7424922  27.7199719  42.0987598
  44.0248173  28.4932930  43.6765436  42.3369708  27.3283767  43.5458597
  42.7950793  26.5413255  43.8496470  43.5929708  30.4043767  41.7768597
  43.5909708  30.6063767  40.5608597  44.4729708  30.9693767  42.6008597
  44.3435468  30.8390352  43.5940162  45.5659708  31.8273767  42.1518597
  46.1081597  32.2112405  43.0160234  46.5439708  31.0483767  41.2668597
  46.6072399  30.0115923  41.5972752  46.2132090  31.0787756  40.2287014
  47.9389708  31.5903767  41.2878597  49.0499708  30.7903767  41.1258597
  49.0213657  29.7912718  40.9807016  50.1389708  31.5343767  41.1908597
  51.1258526  31.0836390  41.0859852  49.7759708  32.7883767  41.3878597
  50.3972138  33.5797217  41.4769107  48.4049708  32.8513767  41.4538597
  47.9105447  33.8093187  41.6150778  45.0629708  33.0633767  41.4168597
  45.7569708  33.6003767  40.5478597  43.8619708  33.5263767  41.7468597
  43.2789280  33.0262403  42.4026219  43.3369708  34.7403767  41.1448597
  43.4814693  34.7098978  40.0649104  41.8429708  34.8763767  41.4338597
  41.8004144  35.1729857  42.4818632  41.4354096  35.6749380  40.8139453
  41.0199708  33.6033767  41.2308597  41.3099951  32.8688120  41.9821262
  39.5409708  33.9043767  41.3638597  39.2500839  34.6385727  40.6125675
  38.9685990  32.9884804  41.2168042  39.3387340  34.3029234  42.3580233
  41.3229708  32.9793767  39.8858597  42.3818198  32.7262249  39.8324524
  40.7270426  32.0751878  39.7617090  41.0785994  33.6866366  39.0932910
  44.0819708  35.9593767  41.6718597  44.4739708  36.0203767  42.8408597
  44.2769708  36.9393767  40.7948597  43.9371964  36.8282405  39.8502426
  45.0109708  38.1543767  41.1268597  45.0515429  38.3131970  42.2044631
  46.4519708  38.1163767  40.5798597  46.4185155  37.9687193  39.5004259
  47.1719708  39.4193767  40.8908597  47.2062327  39.5675049  41.9702045
  48.1878454  39.3764557  40.4981041  46.6386001  40.2493780  40.4274859
  47.2089708  36.9333767  41.1588597  46.7019950  36.0079660  40.8855599
  48.2241918  36.9216720  40.7622631  47.2446527  37.0204652  42.2447894
  44.2589708  39.3533767  40.5698597  43.7509708  39.3163767  39.4448597
  44.1879708  40.4153767  41.3648597  44.5017019  40.3229870  42.3204413
  43.6499708  41.6963767  40.9368597  43.7086760  41.7661516  39.8506809
  42.1899708  41.8623767  41.3588597  41.6393774  41.0100133  40.9608361
  42.1630855  41.8350332  42.4481850  41.5509708  43.1513767  40.8688597
  42.1433340  43.9976773  41.2166844  41.5512945  43.1317715  39.7790364
  40.1159708  43.3013767  41.3268597  39.7269708  42.6113767  42.2908597
  39.3779708  44.1083767  40.7238597  38.4844170  44.1354446  41.0731563
  44.4949708  42.8083767  41.5378597  45.0739708  42.6453767  42.6158597
  39.8272010  44.5655845  40.0092744  38.8039489  42.7610812  42.5099306
  40.4165357  42.0510867  42.6534785  44.5639708  43.9373767  40.8398597
  44.0922749  43.9963485  39.9487230  45.3339708  45.0863767  41.2898597
  45.2314355  45.2007388  42.3689829  46.8169708  44.9183767  40.9548597
  46.9366387  44.8118094  39.8767025  47.3686159  45.7942743  41.2963143
  47.2039396  44.0291600  41.4525022  44.7859708  46.3483767  40.6438597
  45.0019708  46.5843767  39.4508597  44.0919708  47.1593767  41.4338597
  43.9402955  46.8880280  42.3948300  43.4999708  48.4033767  40.9668597
  43.5814778  48.4642871  39.8816198  42.0209708  48.4763767  41.3508597
  41.5409318  47.7806401  40.6626647  41.9226892  48.1039728  42.3705440
  41.3499708  49.8443767  41.2418597  41.7358503  50.4907948  42.0301118
  41.6299708  50.4683767  39.8988597  41.2439427  49.8227102  39.1100657
  41.1432780  51.4419962  39.8414480  42.7054855  50.5923615  39.7723834
  39.8549708  49.7133767  41.4708597  39.6735693  49.3050481  42.4650733
  39.3872448  50.6946609  41.3907662  39.4291572  49.0462285  40.7213965
  44.2659708  49.5773767  41.5578597  44.3809708  49.6963767  42.7818597
  44.7859708  50.4383767  40.6878597  44.6377460  50.2781798  39.7017229
  45.5849708  51.5873767  41.0878597  45.7401016  51.5648410  42.1665282
  46.9489708  51.5763767  40.3978597  46.7749757  51.5580604  39.3219928
  47.4283041  52.5161802  40.6719199  47.8449708  50.4243767  40.7818597
  47.5379708  49.1283767  40.4058597  46.6300477  48.9489452  39.8300302
  48.3569708  48.0743767  40.7468597  48.0980905  47.0580251  40.4500225
  49.5059708  48.3093767  41.4658597  50.3259708  47.2583767  41.8058597
  50.0005265  46.4117379  41.4913944  49.8389708  49.5893767  41.8458597
  50.7489957  49.7774206  42.4155917  49.0119708  50.6383767  41.5008597
  49.2712750  51.6558297  41.7935212  44.8499708  52.8733767  40.7418597
  44.4629708  53.0833767  39.5878597  44.6619708  53.7273767  41.7428597
  44.8668388  53.4127904  42.6804971  44.1569708  55.0813767  41.5638597
  43.9400416  55.2510806  40.5092311  42.8769708  55.3053767  42.3678597
  43.1111865  54.8113433  43.3108195  42.7940235  56.3797561  42.5319592
  41.5499708  54.7683767  41.8268597  40.8684205  54.5998028  42.6606300
  40.9329708  55.7593767  40.8638597  41.6137890  55.9281185  40.0295267
  39.9898687  55.3626183  40.4880379  40.7502162  56.7021978  41.3794076
  41.7289708  53.4243767  41.1598597  42.1220276  52.7090980  41.8823430
  40.7671416  53.0722009  40.7870889  42.4270497  53.5209527  40.3283202
  45.2479708  56.0383767  42.0208597  45.3099708  56.3913767  43.2038597
  46.1029708  56.4583767  41.0898597  45.9358920  56.2616295  40.1133995
  47.3329708  57.1523767  41.4548597  47.3794423  57.3634776  42.5232117
  48.5699708  56.3223767  41.0628597  48.5926730  56.2090988  39.9789999
  49.8429708  57.0143767  41.5268597  49.8212049  57.1276013  42.6107450
  50.7075597  56.4148492  41.2419856  49.9134743  57.9971651  41.0607504
  48.4839708  54.9183767  41.6398597  47.5925016  54.4216133  41.2569617
  49.3683205  54.3510056  41.3498336  48.4293432  54.9745114  42.7270421
  47.3979708  58.5293767  40.8118597  47.8399708  58.6743767  39.6668597
  46.9649708  59.5493767  41.5458597  46.3775317  59.3932964  42.3524907
  47.2929708  60.9193767  41.1868597  47.3167076  61.0192976  40.1017092
  46.2519708  61.8863767  41.7428597  45.9017159  61.5270466  42.7104870
  46.6992305  62.8731617  41.8625016  44.7789708  62.0823767  40.7188597
  48.6749708  61.2633767  41.7248597  48.8199708  61.7593767  42.8458597
  49.6939708  60.9953767  40.9158597  49.5150429  60.7648136  39.9489446
  51.0659708  61.0213767  41.3718597  51.1458099  60.3718077  42.2435162
  51.6965125  60.6338726  40.5716366  51.5429708  62.4113767  41.7468597
  50.7699708  63.3193767  42.0538597  52.8659708  62.5643767  41.7148597
  53.4390319  61.8006000  41.3857011  53.5299708  63.7723767  42.1878597
  53.3754093  63.8891449  43.2605084  55.0319708  63.6803767  41.9178597
  55.1600771  63.5795703  40.8401185  55.4771380  64.6182544  42.2499917
  55.7149708  62.5203767  42.6188597  55.4787713  62.5597202  43.6822330
  55.3232507  61.5961072  42.1941474  57.2179708  62.5183767  42.4218597
  57.7609708  63.5493767  41.9738597  57.8549708  61.4853767  42.7148597
  58.7976906  61.5654150  42.5534525  52.9629708  65.0293767  41.5418597
  52.7629708  65.0773767  40.3248597  57.2947406  60.7818885  43.0506058
  58.7116144  63.4578301  41.8725242  57.1378708  64.2607188  41.8105930
  52.6999708  66.0493767  42.3548597  52.8075554  65.9116685  43.3496267
  52.2299708  67.3453767  41.8838597  52.4209694  67.4315085  40.8141868
  50.7309708  67.5183767  42.1278597  50.5662484  67.3989579  43.1987028
  50.4751167  68.5359754  41.8326791  49.8559708  66.5363767  41.3688597
  50.1371654  66.5656010  40.3161601  50.0353325  65.5367514  41.7646887
  48.3819708  66.8793767  41.5088597  47.7968998  66.1847437  40.9061359
  48.0929879  66.7839327  42.5555109  48.0939708  68.2383767  41.0668597
  48.8605589  68.7627428  40.6700194  46.9049708  68.8203767  41.1498597
  45.8599708  68.1903767  41.6598597  45.9599817  67.2434608  41.9966803
  44.9667216  68.6590713  41.7101680  46.7619708  70.0673767  40.7118597
  47.5551137  70.5566797  40.3224923  45.8608435  70.5197400  40.7704751
  53.0119708  68.4323767  42.6038597  53.5209708  68.2063767  43.7068597
  53.1139708  69.5923767  41.9858597  52.7337916  69.7053582  41.0569903
  53.7639708  70.7293767  42.6048597  53.1672011  71.6246327  42.4302690
  53.8510376  70.5548157  43.6772622  55.1519708  70.9393767  42.0238597
  55.4009708  70.6373767  40.8588597  56.0369708  71.4593767  42.8698597
  55.7551758  71.6012016  43.8293265  57.3799708  71.8663767  42.4768597
  57.4805452  71.7933218  41.3939714  57.6619708  73.3103767  42.8978597
  57.6125478  73.4160776  43.9815958  58.6561934  73.5918003  42.5508407
  56.7039708  74.3183767  42.3228597  55.3609708  74.2913767  42.6538597
  54.9984398  73.5237407  43.3375308  54.4839708  75.2193767  42.1308597
  53.4265628  75.1788104  42.3922856  54.9449708  76.1963767  41.2788597
  54.2558804  76.9336040  40.8668519  56.2809708  76.2413767  40.9468597
  56.6487015  77.0131490  40.2706631  57.1549708  75.3083767  41.4708597
  58.2133554  75.3481017  41.2132870  58.3839708  70.9213767  43.1198597
  58.3479708  70.7093767  44.3358597  59.2719708  70.3563767  42.3048597
  59.2307345  70.5673396  41.3179992  60.2809708  69.4133767  42.7678597
  60.3248435  69.4327099  43.8568044  59.9509708  67.9883767  42.3168597
  59.9533029  67.9246793  41.2287253  60.6841658  67.2913524  42.7226701
  58.6049708  67.5083767  42.7718597  57.4509708  68.0123767  42.2028597
  57.5321239  68.7629834  41.4166640  56.2139708  67.5803767  42.6148597
  55.3128370  67.9895692  42.1581102  56.1129708  66.6313767  43.6038597
  55.1321890  66.2889044  43.9338290  57.2539708  66.1123767  44.1788597
  57.1779182  65.3570593  44.9610437  58.4939708  66.5513767  43.7618597
  59.3973926  66.1425940  44.2144363  61.6369708  69.8373767  42.2308597
  61.7929708  70.0433767  41.0238597  62.6189708  69.9513767  43.1258597
  62.4279732  69.7362304  44.0940184  63.9479708  70.4353767  42.7748597
  64.0205442  70.5545519  41.6938280  64.2269708  71.7853767  43.4348597
  64.3383999  71.6112160  44.5050703  65.1716030  72.1430659  43.0251910
  63.1529708  72.8223767  43.2028597  61.9659708  72.7903767  43.9158597
  61.8159255  71.9978684  44.6490148  60.9849708  73.7353767  43.7128597
  60.0552318  73.6938726  44.2802790  61.1829708  74.7343767  42.7908597
  60.2069708  75.6793767  42.5858597  59.4332069  75.5453713  43.1380659
  62.3519708  74.7923767  42.0718597  62.5097759  75.5843469  41.3397523
  63.3309708  73.8393767  42.2808597  64.2617524  73.8810698  41.7151677
  65.0199708  69.4253767  43.1668597  66.0909708  69.8043767  43.6468597
  64.7439708  68.1403767  42.9708597  63.8393801  67.8695009  42.6124725
  65.7019708  67.0903767  43.2938597  65.8980983  67.0801958  44.3660208
  65.1769708  65.7053767  42.8768597  65.0516564  65.6869881  41.7942432
  66.1509708  64.6133767  43.2928597  66.2764451  64.6308429  44.3754726
  65.7605205  63.6422921  42.9884875  67.1148284  64.7834471  42.8131149
  63.9039708  65.4673767  43.4898597  63.5792675  64.6028000  43.2278001
  67.0399708  67.3433767  42.6078597  67.0869708  67.6793767  41.4248597
  68.1349708  67.2033767  43.2748597  68.1327663  66.9285688  44.2467522
  69.4139708  67.4423767  42.6298597  69.2497219  67.7287234  41.5910486
  69.9388496  68.2445199  43.1486748  70.0146824  66.5335274  42.6650524
  24.6565897  43.5807779  29.9105068  24.8229708  43.1793767  28.9108597
  25.5409152  43.8061825  28.3819281  23.8807871  43.1652864  28.3629633
  25.3669708  41.7683767  28.9738597  25.5699708  41.2103767  30.0608597
  25.6229708  41.1363767  27.8788597  25.4384624  41.5467630  26.9746257
  26.1469708  39.7773767  27.9268597  26.6015817  39.5911315  28.8998658
  25.0239708  38.7623767  27.7098597  24.2522852  38.9752219  28.4496553
  24.6253733  38.9343532  26.7100376  25.4619708  37.3123767  27.8378597
  26.2483061  37.1155394  27.1091398  25.8511552  37.1532081  28.8434953
  24.3259708  36.3393767  27.5988597  23.1739708  36.7393767  27.4338597
  24.6459708  35.0513767  27.5758597  23.9278169  34.3584498  27.4202680
  25.6061432  34.7701782  27.7140543  27.2359708  39.5823767  26.8798597
  27.0099708  38.9423767  25.8538597  28.4199708  40.1283767  27.1458597
  28.5642631  40.6291040  28.0110482  29.5179708  40.0693767  26.1908597
  29.2274786  39.4461205  25.3451262  29.8819708  41.4623767  25.6698597
  30.7817585  41.3983424  25.0579930  29.0608702  41.8517503  25.0679609
  30.2279708  42.6893767  26.9488597  30.7189708  39.4163767  26.8568597
  30.7829708  39.2853767  28.0798597  31.6719708  39.0023767  26.0278597
  31.5253764  39.0916632  25.0325520  32.9089708  38.3923767  26.4908597
  32.9193587  38.3854706  27.5807879  33.0509708  36.9543767  25.9918597
  32.3101885  36.3238094  26.4835159  32.8932883  36.9261321  24.9136953
  34.6809708  36.2483767  26.3268597  34.0999708  39.2103767  26.0168597
  34.1249708  39.6893767  24.8788597  35.0659708  39.3883767  26.9188597
  34.8602302  39.1463898  27.8776154  36.3609708  40.0073767  26.6208597
  36.7976917  40.4093904  27.5350583  37.3409708  38.9923767  26.0138597
  37.2602344  38.0635120  26.5784767  37.0499708  38.7203767  24.5478597
  37.1309767  39.6487581  23.9824876  37.7684595  37.9969773  24.1624165
  36.0413830  38.3199570  24.4453150  38.6779708  39.4953767  26.1298597
  39.2920596  38.8622066  25.7509258  36.2239708  41.2343767  25.7218597
  37.0999708  41.5253767  24.9048597  35.1309708  41.9783767  25.8778597
  34.3298147  41.6276849  26.3830959  35.0419708  43.2993767  25.2748597
  35.9537118  43.8566796  25.4898969  34.8709708  43.2103767  23.7648597
  34.8357845  44.2207977  23.3575383  35.7271542  42.6805083  23.3473799
  33.6799708  42.5233767  23.4258597  33.5958791  42.4810115  22.4704888
  33.8869708  44.0733767  25.8898597  33.1169708  43.5503767  26.6988597
  33.7859708  45.3393767  25.4818597  34.4318878  45.7063003  24.7975662
  32.7889708  46.2403767  26.0428597  32.6516515  46.0690219  27.1105114
  33.2109708  47.6983767  25.8088597  33.2591602  47.8863583  24.7362735
  32.2089708  48.6503767  26.4458597  32.1605676  48.4632974  27.5185941
  32.5227895  49.6794455  26.2708283  31.2248750  48.4912043  26.0050435
  34.6169708  47.9443767  26.3628597  34.5446961  47.9217502  27.4502259
  35.2466718  47.1217679  26.0239042  35.2239708  49.2543767  25.9268597
  34.5950241  50.0775366  26.2658784  36.2192031  49.3561481  26.3595888
  35.2969977  49.2775551  24.8395558  31.4339708  45.9533767  25.4188597
  31.3409708  45.5143767  24.2648597  30.3699708  46.1973767  26.1818597
  30.4901687  46.3904400  27.1659219  29.0179708  46.1403767  25.6508597
  29.0078248  46.5868499  24.6565469  28.4999708  44.7003767  25.5468597
  27.4693578  44.7091656  25.1920936  29.1199143  44.1403650  24.8467476
  28.5029708  43.7503767  27.0718597  28.0899708  46.9673767  26.5258597
  28.3969708  47.2643767  27.6828597  26.9519708  47.3443767  25.9508597
  26.8192702  47.0854932  24.9836631  25.9289708  48.1623767  26.5948597
  25.1573068  48.4165682  25.8682094  25.2749708  47.4153767  27.7628597
  24.8580509  46.4797377  27.3902248  26.0375208  47.2001424  28.5113860
  24.2439708  48.1913767  28.3488597  23.8504724  47.7037363  29.0761600
  26.4659708  49.5023767  27.0798597  25.8079708  50.1743767  27.8838597
  27.6429708  49.9123767  26.6158597  28.1953500  49.3169151  26.0155248
  28.1919708  51.2003767  27.0018597  28.0147427  51.3774318  28.0626806
  29.6989708  51.2293767  26.7468597  30.0720018  50.3898898  27.3335528
  29.8372787  51.0205353  25.6860316  30.4709708  52.4963767  27.1218597
  30.1171691  53.3128463  26.4923340  30.2759708  52.8613767  28.5778597
  30.6299944  52.0455232  29.2080574  30.8398848  53.7661330  28.8048349
  29.2174115  53.0356857  28.7706527  31.9459708  52.3023767  26.8358597
  32.0867822  52.0957201  25.7749334  32.4908210  53.2073567  27.1046544
  32.3230785  51.4642716  27.4219216  27.4909708  52.3213767  26.2368597
  26.7659708  52.0883767  25.2668597  27.6869708  53.5503767  26.7098597
  28.1806231  53.6674565  27.5831861  27.1579708  54.7373767  26.0508597
  26.6236221  54.4546561  25.1438648  26.1829708  55.4673767  26.9878597
  25.2901739  54.8459358  27.0573156  26.6571955  55.5319044  27.9671692
  25.7969708  56.8533767  26.5228597  26.5189708  57.9663767  26.9258597
  27.3745013  57.8258602  27.5864822  26.1719708  59.2353767  26.5058597
  26.7519273  60.1008086  26.8264528  25.0859708  59.4033767  25.6768597
  24.7379708  60.6673767  25.2598597  25.3179688  61.3495389  25.6060630
  24.3489708  58.3153767  25.2648597  23.4892548  58.4485165  24.6081538
  24.7049708  57.0493767  25.6888597  24.1247649  56.1840618  25.3684047
  28.2489708  55.6923767  25.5908597  28.2749708  56.0783767  24.4188597
  29.1629708  56.0823767  26.4768597  29.1380140  55.7202316  27.4193709
  30.1819708  57.0743767  26.1428597  30.2616724  57.1627904  25.0593793
  29.8279708  58.4443767  26.7198597  28.8953337  58.7609015  26.2528485
  29.6714996  58.3137916  27.7906371  30.8919708  59.5003767  26.4898597
  31.7366510  59.2913122  27.1462957  31.2193821  59.4536902  25.4512432
  30.3909708  60.9003767  26.7768597  29.2299708  61.0963767  27.1358597
  31.2649708  61.8853767  26.6148597  30.9847048  62.8393530  26.7922905
  32.2065375  61.6766878  26.3148557  31.5349708  56.6063767  26.6588597
  31.6299708  56.0553767  27.7598597  32.5709708  56.8263767  25.8578597
  32.3939303  57.1836661  24.9299048  33.9459708  56.5493767  26.2388597
  34.0619954  56.6748439  27.3153798  34.3289708  55.1153767  25.8698597
  33.4368795  54.5504279  26.1402394  34.4634246  55.0855871  24.7885943
  35.5509708  54.4963767  26.5528597  35.4503582  54.6010823  27.6331442
  35.6549708  53.0243767  26.1948597  35.7560815  52.9188855  25.1146990
  36.5270729  52.5914746  26.6848948  34.7565168  52.5046270  26.5276376
  36.8309708  55.2213767  26.1828597  36.7598635  56.2648404  26.4898233
  37.6745530  54.7511963  26.6882315  36.9795865  55.1698057  25.1042714
  34.8679708  57.5373767  25.5378597  34.7879708  57.7283767  24.3238597
  35.7449708  58.1783767  26.3048597  35.8235279  58.0271417  27.3003777
  36.6019708  59.1793767  25.6898597  37.0399701  58.7751662  24.7772428
  35.8029708  60.4383767  25.3338597  36.5205795  61.1823119  24.9878867
  35.1356457  60.1696684  24.5149744  34.9929708  61.0123767  26.4768597
  34.1760138  60.3322074  26.7177991  35.6537197  61.1054795  27.3387425
  34.4449708  62.3893767  26.1648597  35.0189708  63.0783767  25.2958597
  33.4359708  62.7823767  26.7858597  33.1590246  63.6661859  26.5341432
  37.7559708  59.5543767  26.6038597  37.5509708  59.8763767  27.7738597
  33.1066141  62.1354608  27.4139543  34.6102027  63.9382605  25.1698383
  35.7686702  62.6310161  24.8974423  38.9639708  59.5293767  26.0488597
  39.1247087  59.0114016  25.1968242  40.0909708  60.2113767  26.6638597
  40.0907377  60.0269580  27.7381450  41.4079708  59.7063767  26.0828597
  41.3155844  58.6384795  25.8849722  41.6038573  60.2328492  25.1487530
  42.5769708  59.9253767  27.0148597  42.5509708  60.8203767  27.8568597
  43.6129708  59.1083767  26.8698597  44.4207835  59.2112101  27.4673240
  43.5887057  58.3876281  26.1627293  39.9299708  61.7063767  26.4228597
  38.9549708  62.1363767  25.7978597  40.8739708  62.5023767  26.9168597
  41.6575000  62.1283218  27.4328676  40.7769708  63.9473767  26.7598597
  40.6091866  64.1919700  25.7109928  39.6139708  64.5063767  27.5848597
  38.8338980  63.7455196  27.5587409  39.9653030  64.6307752  28.6091598
  39.0559708  65.8163767  27.0818597  39.7989708  66.9863767  27.1548597
  40.8027644  66.9469108  27.5778731  39.2869708  68.1863767  26.7028597
  39.8835539  69.0968409  26.7598275  38.0139708  68.2283767  26.1758597
  37.4989708  69.4213767  25.7258597  38.1094731  70.1553437  25.8267505
  37.2539708  67.0813767  26.0988597  36.2471185  67.1138157  25.6825704
  37.7749708  65.8863767  26.5528597  37.1777868  64.9761000  26.4993076
  42.0859708  64.5933767  27.1868597  42.6869708  64.1813767  28.1828597
  42.5129708  65.6023767  26.4358597  42.0207584  65.8235789  25.5821056
  43.7039708  66.3763767  26.7678597  43.5458985  66.8992610  27.7111011
  44.9299708  65.4713767  26.9098597  45.8358886  66.0754442  26.8597135
  44.8913610  64.9541917  27.8685718  45.0949708  64.1773767  25.6678597
  43.9609708  67.4413767  25.7088597  43.8839708  67.1683767  24.5108597
  44.2629708  68.6423767  26.0708597  44.3352203  68.9005159  27.0446376
  44.5089708  69.6633767  25.0678597  44.3934109  69.2319721  24.0735576
  43.7957698  70.4777754  25.1951376  45.5226349  70.0478065  25.1809913
  27.2752787  26.4693878  32.4671550  27.1089708  26.7043767  31.4158597
  26.4164701  27.5422764  31.3354529  26.6870844  25.8352856  30.9110909
  28.4049708  27.0803767  30.7298597  29.4749708  27.0953767  31.3518597
  28.3929708  27.3913767  29.4778597  27.5442683  27.3586373  28.9312963
  29.6339708  27.7553767  28.8058597  30.3733316  28.0717326  29.5416339
  30.1939708  26.5613767  28.0328597  30.0263373  25.6445272  28.5980014
  29.7120512  26.4802641  27.0585526  31.6659708  26.6433767  27.7768597
  32.3369708  27.8413767  27.6538597  31.9042570  28.7513928  27.7226292
  33.6179708  27.6053767  27.4348597  34.3195654  28.4296773  27.3068263
  33.8039708  26.2983767  27.4138597  34.6839210  25.8251112  27.2661868
  32.5989708  25.6733767  27.6268597  32.5456791  24.5848691  27.6471682
  29.3889708  28.9313767  27.8678597  28.5639708  28.8473767  26.9588597
  30.1039708  30.0323767  28.1018597  30.7414362  30.0636808  28.8846478
  29.9499708  31.2313767  27.2878597  29.1907322  31.0659033  26.5234811
  29.5169708  32.4133767  28.1598597  28.5727394  32.0828448  28.5926125
  30.2571534  32.5314768  28.9512395  29.3109708  33.7543767  27.4498597
  29.0125764  33.5685980  26.4180904  28.2339708  34.5623767  28.1498597
  28.5318851  34.7489617  29.1816213  28.0988926  35.5128574  27.6336803
  27.2964365  34.0065131  28.1377957  30.6029708  34.5513767  27.3838597
  31.3539891  33.9822305  26.8360062  30.4212570  35.4973944  26.8738285
  30.9618000  34.7470452  28.3943321  31.2429708  31.5553767  26.5518597
  31.2299708  31.7863767  25.3378597  32.3609708  31.5733767  27.2728597
  32.3208815  31.3692000  28.2611937  33.6469708  31.9293767  26.6938597
  33.5927103  31.8340011  25.6093974  34.0389708  33.3703767  27.0398597
  33.1825180  33.8861579  27.4740920  34.8594464  33.3619551  27.7573894
  34.5789708  34.3483767  25.6208597  34.7089708  30.9583767  27.1878597
  34.5549708  30.3103767  28.2258597  35.7969708  30.8733767  26.4318597
  35.9020065  31.5055257  25.6511840  36.8459708  29.9083767  26.6788597
  36.3892692  29.0108251  27.0959016  37.3155899  29.6669611  25.7253002
  37.9049708  30.4123767  27.6358597  37.6649708  31.2813767  28.4768597
  39.1009708  29.8493767  27.4958597  39.2491104  29.1856268  26.7491401
  40.1989708  30.1143767  28.4098597  39.8391934  30.6811422  29.2686008
  40.7999708  28.8003767  28.9088597  41.2415433  28.2752427  28.0618962
  41.5761556  29.0274547  29.6396625  39.8119708  27.9813767  29.5088597
  40.2147433  27.1646821  29.8128070  41.2769708  30.9643767  27.7408597
  41.2899708  31.1653767  26.5248597  42.1929708  31.4673767  28.5658597
  42.0545728  31.3454687  29.5588772  43.3419708  32.2493767  28.1178597
  43.9080919  32.5958926  28.9824595  44.2659708  31.4053767  27.2338597
  44.2575451  30.3671100  27.5655681  43.9392076  31.4571119  26.1952792
  45.6949708  31.8503767  27.2558597  46.7479708  30.9763767  27.0938597
  46.6510758  29.9816675  26.9480357  47.8859708  31.6443767  27.1598597
  48.8403540  31.1282124  27.0558116  47.6079708  32.9203767  27.3568597
  48.2815184  33.6676397  27.4464783  46.2449708  33.0763767  27.4218597
  45.8166962  34.0657549  27.5825237  42.9249708  33.5173767  27.3818597
  43.6559708  34.0043767  26.5138597  41.7579708  34.0603767  27.7108597
  41.1410977  33.6007605  28.3653213  41.3179708  35.3073767  27.1088597
  41.4607910  35.2675786  26.0289904  39.8369708  35.5443767  27.3968597
  39.8140884  35.8428769  28.4449405  39.4856740  36.3692341  26.7769397
  38.9289708  34.3313767  27.1928597  39.1672585  33.5787736  27.9444636
  37.4739708  34.7323767  27.3238597  37.2347975  35.4846707  26.5722290
  36.8407301  33.8576005  27.1759623  37.2980096  35.1437938  28.3177782
  39.1899708  33.6883767  25.8478597  40.2290123  33.3631791  25.7955288
  38.5335426  32.8272459  25.7227317  38.9955972  34.4109589  25.0552735
  42.1449708  36.4733767  27.6368597  42.5389708  36.5073767  28.8058597
  42.4069708  37.4373767  26.7598597  42.0613061  37.3498096  25.8149008
  43.2209708  38.5993767  27.0928597  43.2711155  38.7551576  28.1705039
  44.6579708  38.4633767  26.5468597  44.6154612  38.3186926  25.4673419
  45.4649708  39.7133767  26.8588597  45.5083175  39.8584753  27.9382894
  46.4758739  39.6010571  26.4669929  44.9901599  40.5781230  26.3953189
  45.3309708  37.2303767  27.1268597  44.7618671  36.3421773  26.8524058
  46.3436125  37.1488365  26.7318818  45.3708104  37.3145157  28.2128773
  42.5539708  39.8463767  26.5348597  42.0449708  39.8443767  25.4098597
  42.5549708  40.9103767  27.3298597  42.8605731  40.7960360  28.2857011
  42.1069708  42.2263767  26.9018597  42.1713052  42.2929253  25.8157973
  40.6609708  42.4913767  27.3228597  40.0539015  41.6785846  26.9241930
  40.6313769  42.4657451  28.4121564  40.1119708  43.8203767  26.8328597
  40.7601318  44.6249948  27.1801029  40.1121867  43.7990184  25.7430694
  38.6899708  44.0683767  27.2888597  38.2539708  43.4073767  28.2528597
  38.0099708  44.9243767  26.6858597  37.1199248  45.0123376  27.0340841
  43.0239708  43.2783767  27.5038597  43.5909708  43.0753767  28.5818597
  38.4904074  45.3503234  25.9722569  37.3430481  43.6197364  28.4707960
  38.9034316  42.8017789  28.6166854  43.1709708  44.3993767  26.8058597
  42.7053326  44.4905260  25.9142475  44.0179708  45.4933767  27.2568597
  43.9229987  45.6154270  28.3358329  45.4859708  45.2233767  26.9228597
  45.5985711  45.1079236  25.8448561  46.0964538  46.0594864  27.2639335
  45.8105228  44.3100351  27.4214299  43.5579708  46.7893767  26.6098597
  43.7899708  47.0103767  25.4178597  42.9199708  47.6463767  27.3988597
  42.7497777  47.3861126  28.3597948  42.4149708  48.9273767  26.9318597
  42.5005269  48.9825258  25.8466233  40.9439708  49.1013767  27.3158597
  40.4181996  48.4396591  26.6275329  40.8197645  48.7369569  28.3356003
  40.3679708  50.5113767  27.2058597  40.7959339  51.1298050  27.9948431
  40.6909708  51.1153767  25.8638597  40.2629110  50.4977086  25.0743347
  40.2714551  52.1197722  25.8064392  41.7725511  51.1662286  25.7385657
  38.8669708  50.4843767  27.4338597  38.6570155  50.0902663  28.4281912
  38.4683846  51.4956426  27.3527950  38.3965115  49.8478116  26.6844921
  43.2589708  50.0463767  27.5238597  43.3799708  50.1573767  28.7478597
  43.8369708  50.8693767  26.6548597  43.6787703  50.7199181  25.6685869
  44.7129708  51.9613767  27.0558597  44.8658626  51.9277681  28.1345597
  46.0739708  51.8573767  26.3658597  45.9015215  51.8507014  25.2896088
  46.6158152  52.7622915  26.6408759  46.8879708  50.6473767  26.7518597
  46.4939708  49.3743767  26.3748597  45.5769879  49.2575412  25.7972860
  47.2379708  48.2673767  26.7168597  46.9109865  47.2712237  26.4187618
  48.4009708  48.4233767  27.4358597  49.1459708  47.3193767  27.7768597
  48.7628069  46.4968689  27.4633856  48.8189708  49.6773767  27.8168597
  49.7389536  49.8024934  28.3878919  48.0659708  50.7803767  27.4718597
  48.3938537  51.7775862  27.7654002  44.0669708  53.2953767  26.7098597
  43.6969708  53.5303767  25.5548597  43.9379708  54.1593767  27.7098597
  44.1199202  53.8311844  28.6475609  43.5269708  55.5453767  27.5308597
  43.3239896  55.7299912  26.4759591  42.2639708  55.8563767  28.3328597
  42.4631847  55.3482417  29.2763701  42.2540678  56.9340259  28.4961821
  40.9039708  55.4103767  27.7908597  40.2116866  55.2883016  28.6238910
  40.3569708  56.4413767  26.8278597  41.0485367  56.5636694  25.9942651
  39.3893981  56.1099640  26.4509387  40.2383782  57.3942504  27.3436774
  40.9909708  54.0573767  27.1238597  41.3339202  53.3168719  27.8464507
  40.0074769  53.7717793  26.7506639  41.6943655  54.1060564  26.2926166
  44.6799708  56.4253767  27.9888597  44.7639708  56.7723767  29.1718597
  45.5619708  56.7863767  27.0588597  45.3820937  56.6023609  26.0821910
  46.8369708  57.3933767  27.4248597  46.8971025  57.6008865  28.4932337
  48.0139708  56.4813767  27.0338597  48.0297236  56.3667042  25.9500233
  49.3309708  57.0853767  27.4988597  49.3161485  57.1999323  28.5827224
  50.1530058  56.4284199  27.2146649  49.4684815  58.0610482  27.0327506
  47.8319708  55.0863767  27.6098597  46.9090474  54.6517537  27.2259101
  48.6758387  54.4601946  27.3202349  47.7803388  55.1455104  28.6970295
  46.9959708  58.7643767  26.7818597  47.4479708  58.8773767  25.6368597
  46.6329708  59.8103767  27.5158597  46.0354960  59.6951440  28.3219891
  47.0549708  61.1553767  27.1568597  47.0869193  61.2538321  26.0717860
  46.0809708  62.1903767  27.7118597  45.7050525  61.8547199  28.6783581
  46.5940505  63.1443375  27.8335482  44.6259708  62.4873767  26.6868597
  48.4559708  61.4033767  27.6968597  48.6329708  61.8883767  28.8168597
  49.4549708  61.0673767  26.8878597  49.2615612  60.8506007  25.9205437
  50.8249708  60.9993767  27.3448597  50.8592673  60.3453612  28.2161729
  51.4279287  60.5698384  26.5448360  51.3959708  62.3523767  27.7208597
  50.6859708  63.3123767  28.0278597  52.7259708  62.4153767  27.6898597
  53.2453864  61.6146182  27.3595681  53.4709708  63.5743767  28.1638597
  53.3239732  63.7006740  29.2364919  54.9629708  63.3803767  27.8948597
  55.0846513  63.2707295  26.8172371  55.4708244  64.2858209  28.2270578
  55.5649708  62.1763767  28.5968597  55.3319462  62.2304655  29.6602856
  55.1112932  61.2813941  28.1710876  57.0639708  62.0723767  28.3998597
  57.6769708  63.0633767  27.9528597  57.6289708  60.9983767  28.6938597
  58.5749718  61.0136979  28.5325328  52.9919708  64.8673767  27.5168597
  52.7959708  64.9293767  26.2998597  57.0219628  60.3350820  29.0301042
  58.6190544  62.9063914  27.8518302  57.1046084  63.8161946  27.7898148
  52.7989708  65.9033767  28.3298597  52.8971761  65.7587198  29.3246106
  52.4179708  67.2283767  27.8588597  52.6151448  67.3012658  26.7893230
  50.9339708  67.5033767  28.1018597  50.7604809  67.3952650  29.1725195
  50.7482310  68.5360748  27.8066727  49.9949708  66.5833767  27.3418597
  50.2782773  66.5934692  26.2893691  50.1052076  65.5737514  27.7375953
  48.5479708  67.0263767  27.4808597  47.9172807  66.3727860  26.8782419
  48.2528151  66.9512946  28.5274471  48.3529708  68.4023767  27.0378597
  49.1533147  68.8733712  26.6407286  47.2069708  69.0633767  27.1208597
  46.1209708  68.5063767  27.6298597  46.1555392  67.5546527  27.9662023
  45.2619712  69.0352561  27.6799199  47.1499708  70.3183767  26.6828597
  47.9749755  70.7522555  26.2939941  46.2819584  70.8314512  26.7412365
  53.2719708  68.2593767  28.5798597  53.7629708  67.9983767  29.6828597
  53.4539708  69.4093767  27.9618597  53.0840496  69.5478570  27.0323002
  54.1789708  70.4993767  28.5818597  53.6447174  71.4333078  28.4073742
  54.2536953  70.3190302  29.6542359  55.5789708  70.6143767  28.0008597
  55.8069708  70.2963767  26.8368597  56.4969708  71.0723767  28.8488597
  56.2248719  71.2324487  29.8082546  57.8649708  71.3873767  28.4568597
  57.9611018  71.3082901  27.3739916  58.2439708  72.8083767  28.8788597
  58.1996015  72.9164298  29.9625825  59.2557288  73.0218570  28.5340815
  57.3579708  73.8793767  28.3028597  56.0159708  73.9443767  28.6318597
  55.6009397  73.2031846  29.3148556  55.2049708  74.9303767  28.1078597
  54.1470120  74.9618740  28.3683054  55.7319708  75.8733767  27.2568597
  55.0949778  76.6559069  26.8445656  57.0679708  75.8273767  26.9258597
  57.4882595  76.5721937  26.2500600  57.8759708  74.8363767  27.4508597
  58.9347764  74.8034568  27.1940584  58.8009708  70.3753767  29.0998597
  58.7499708  70.1663767  30.3168597  59.6489708  69.7513767  28.2868597
  59.6231423  69.9655497  27.3001672  60.5909708  68.7413767  28.7498597
  60.6353399  68.7571214  29.8388421  60.1649708  67.3423767  28.2978597
  60.1633675  67.2799405  27.2096509  60.8484170  66.5961863  28.7030771
  58.7889708  66.9553767  28.7518597  57.6719708  67.5373767  28.1818597
  57.8037584  68.2806849  27.3955869  56.4089708  67.1903767  28.5938597
  55.5385977  67.6610593  28.1366843  56.2419708  66.2503767  29.5818597
  55.2398149  65.9749241  29.9103553  57.3439708  65.6553767  30.1578597
  57.2153653  64.9071382  30.9399722  58.6109708  66.0083767  29.7428597
  59.4837168  65.5393416  30.1971947  61.9739708  69.0713767  28.2138597
  62.1439708  69.2663767  27.0068597  62.9599708  69.1183767  29.1098597
  62.7532143  68.9174538  30.0778375  64.3189708  69.5103767  28.7608597
  64.4008177  69.6242268  27.6799164  64.6889708  70.8373767  29.4208597
  64.7875101  70.6561590  30.4911631  65.6561650  71.1293999  29.0117658
  63.6879708  71.9463767  29.1878597  62.5019708  71.9953767  29.8998597
  62.2979953  71.2153403  30.6333696  61.5879708  73.0043767  29.6958597
  60.6572507  73.0265347  30.2627557  61.8549708  73.9883767  28.7748597
  60.9449708  74.9983767  28.5688597  60.1629626  74.9168019  29.1196849
  63.0259708  73.9663767  28.0558597  63.2384740  74.7452306  27.3235145
  63.9359708  72.9493767  28.2658597  64.8680991  72.9269226  27.7012956
  65.3189708  68.4303767  29.1528597  66.4139708  68.7343767  29.6348597
  64.9559708  67.1663767  28.9568597  64.0348098  66.9579418  28.5989256
  65.8399708  66.0533767  29.2798597  66.0328101  66.0299943  30.3524106
  65.2219708  64.7073767  28.8618597  65.0975341  64.6972374  27.7790333
  66.1189708  63.5513767  29.2798597  66.2435043  63.5605849  30.3626830
  65.6638533  62.6090262  28.9749945  67.0929815  63.6553124  28.8017373
  63.9349708  64.5563767  29.4748597  63.5521017  63.7160895  29.2123165
  67.1929708  66.2143767  28.5958597  67.2659708  66.5473767  27.4128597
  68.2749708  65.9993767  29.2648597  68.2531805  65.7252539  30.2367039
  69.5679708  66.1503767  28.6208597  69.4245417  66.4474099  27.5819660
  70.1460937  66.9146611  29.1402284  70.1050494  65.2025450  28.6563788
  25.1526572  43.0240621  34.6328141  25.3259708  42.6263767  33.6328597
  26.0290468  43.2687466  33.1026303  24.3833255  42.5916354  33.0866803
  25.9009708  41.2273767  33.6948597  26.1179708  40.6743767  34.7808597
  26.1679708  40.6013767  32.5988597  25.9734084  41.0078571  31.6949689
  26.7219708  39.2533767  32.6458597  27.1815865  39.0764161  33.6182472
  25.6209708  38.2153767  32.4298597  24.8458384  38.4120058  33.1705391
  25.2178705  38.3794780  31.4305194  26.0889708  36.7743767  32.5568597
  26.8785482  36.5952162  31.8270858  26.4827828  36.6232870  33.5619398
  24.9749708  35.7773767  32.3188597  23.8139708  36.1523767  32.1558597
  25.3229708  34.4963767  32.2948597  24.6198839  33.7880579  32.1397638
  26.2891955  34.2360754  32.4318061  27.8129708  39.0823767  31.5958597
  27.5989708  38.4383767  30.5698597  28.9849708  39.6533767  31.8608597
  29.1179117  40.1581760  32.7255005  30.0829708  39.6203767  30.9048597
  29.8058673  38.9901931  30.0597671  30.4149708  41.0203767  30.3828597
  31.3127850  40.9754099  29.7664128  29.5828574  41.3926963  29.7853101
  30.7369708  42.2543767  31.6628597  31.2979708  38.9913767  31.5668597
  31.3669708  38.8623767  32.7898597  32.2589708  38.5993767  30.7358597
  32.1091258  38.6861420  29.7408131  33.5099708  38.0163767  31.1968597
  33.5223420  38.0090697  32.2867646  33.6819708  36.5823767  30.6968597
  32.9552042  35.9358937  31.1887634  33.5239192  36.5515069  29.6188213
  35.3269708  35.9113767  31.0298597  34.6819708  38.8603767  30.7218597
  34.6949708  39.3403767  29.5838597  35.6459708  39.0583767  31.6218597
  35.4471186  38.8120952  32.5809752  36.9259708  39.7053767  31.3218597
  37.3548499  40.1168582  32.2355581  37.9269708  38.7123767  30.7138597
  37.8675112  37.7817674  31.2782454  37.6389708  38.4343767  29.2468597
  37.6987089  39.3645090  28.6817182  38.3723188  37.7269270  28.8598008
  36.6391483  38.0121395  29.1460069  39.2519708  39.2433767  30.8268597
  39.8786793  38.6232662  30.4469916  36.7609708  40.9293767  30.4248597
  37.6299708  41.2393767  29.6068597  35.6519708  41.6493767  30.5818597
  34.8588985  41.2797289  31.0863358  35.5329708  42.9683767  29.9808597
  36.4324228  43.5454944  30.1953835  35.3619708  42.8773767  28.4708597
  35.3038156  43.8870306  28.0642686  36.2286099  42.3665968  28.0511685
  34.1849708  42.1643767  28.1338597  34.0997252  42.1207548  27.1786476
  34.3639708  43.7173767  30.5978597  33.6059708  43.1773767  31.4078597
  34.2349708  44.9813767  30.1908597  34.8714790  45.3628476  29.5057052
  33.2199708  45.8593767  30.7538597  33.0885238  45.6844888  31.8216776
  33.6089708  47.3263767  30.5198597  33.6510270  47.5154605  29.4472092
  32.5879708  48.2563767  31.1588597  32.5456816  48.0681904  32.2316589
  32.8791629  49.2919979  30.9833697  31.6066944  48.0760393  30.7199128
  35.0109708  47.6023767  31.0718597  34.9415563  47.5777713  32.1593692
  35.6581168  46.7941220  30.7312341  35.5879708  48.9263767  30.6348597
  34.9415668  49.7351992  30.9755471  36.5816160  49.0501533  31.0654960
  35.6581251  48.9515506  29.5474111  31.8689708  45.5433767  30.1318597
  31.7839708  45.1033767  28.9778597  30.8019708  45.7643767  30.8968597
  30.9196397  45.9595814  31.8808051  29.4499708  45.6783767  30.3678597
  29.4282674  46.1251450  29.3738646  28.9639708  44.2283767  30.2638597
  27.9327220  44.2146937  29.9111021  29.5947366  43.6826617  29.5621264
  28.9899708  43.2773767  31.7878597  28.5059708  46.4853767  31.2458597
  28.8089708  46.7883767  32.4018597  27.3589708  46.8383767  30.6718597
  27.2304466  46.5787960  29.7042861  26.3199708  47.6333767  31.3188597
  25.5418753  47.8720811  30.5938171  25.6839708  46.8713767  32.4868597
  25.2862936  45.9276500  32.1135876  26.4523203  46.6712725  33.2336510
  24.6379708  47.6243767  33.0758597  24.2562730  47.1274318  33.8031508
  26.8289708  48.9843767  31.8038597  26.1579708  49.6403767  32.6088597
  27.9959708  49.4193767  31.3368597  28.5599085  48.8364264  30.7349938
  28.5179708  50.7193767  31.7228597  28.3385343  50.8922837  32.7839935
  30.0229708  50.7803767  31.4658597  30.4148218  49.9489996  32.0518325
  30.1638365  50.5745725  30.4047746  30.7689708  52.0643767  31.8398597
  30.3969305  52.8734405  31.2112878  30.5679708  52.4243767  33.2968597
  30.9402206  51.6159333  33.9261037  31.1126335  53.3408888  33.5236829
  29.5061625  52.5758200  33.4910981  32.2469708  51.9013767  31.5518597
  32.3905837  51.6974951  30.4907720  32.7730738  52.8176590  31.8197098
  32.6424318  51.0715034  32.1375386  27.7919708  51.8243767  30.9598597
  27.0699708  51.5773767  29.9908597  27.9609708  53.0573767  31.4328597
  28.4524209  53.1839563  32.3061029  27.4059708  54.2333767  30.7758597
  26.8765484  53.9402690  29.8692732  26.4169708  54.9413767  31.7148597
  25.5378770  54.3009364  31.7864818  26.8925710  55.0154112  32.6928287
  25.9999708  56.3193767  31.2518597  26.6989708  57.4473767  31.6538597
  27.5586545  57.3252331  32.3127408  26.3239708  58.7083767  31.2348597
  26.8862015  59.5854822  31.5553038  25.2329708  58.8543767  30.4078597
  24.8569708  60.1093767  29.9918597  25.4226359  60.8040582  30.3368817
  24.5189708  57.7493767  29.9968597  23.6554900  57.8640401  29.3416088
  24.9029708  56.4913767  30.4198597  24.3411808  55.6137739  30.1000075
  28.4749708  55.2113767  30.3148597  28.4909708  55.5993767  29.1428597
  29.3819708  55.6213767  31.1998597  29.3666163  55.2587967  32.1424091
  30.3789708  56.6353767  30.8638597  30.4547197  56.7259728  29.7802760
  29.9959708  57.9963767  31.4418597  29.0564115  58.2930569  30.9756961
  29.8430817  57.8617099  32.5126490  31.0369708  59.0753767  31.2118597
  31.8867433  58.8845166  31.8672679  31.3641162  59.0360477  30.1728548
  30.5059708  60.4643767  31.4998597  29.3419708  60.6343767  31.8608597
  31.3589708  61.4683767  31.3368597  31.0586002  62.4161230  31.5147811
  32.3044140  61.2798952  31.0356733  31.7419708  56.1963767  31.3778597
  31.8509708  55.6463767  32.4778597  32.7719708  56.4383767  30.5748597
  32.5852592  56.7913691  29.6471558  34.1529708  56.1913767  30.9528597
  34.2682092  56.3192039  32.0291865  34.5669708  54.7663767  30.5828597
  33.6872394  54.1833185  30.8552842  34.6994259  54.7394360  29.5012730
  35.8029708  54.1723767  31.2628597  35.7020972  54.2748175  32.3433370
  35.9379708  52.7043767  30.9048597  36.0393595  52.6011613  29.8245052
  36.8201193  52.2903904  31.3932550  35.0515683  52.1653137  31.2392280
  37.0659708  54.9253767  30.8918597  36.9728502  55.9665373  31.2007490
  37.9204802  54.4727326  31.3948789  37.2136579  54.8788516  29.8129144
  35.0529708  57.1993767  30.2508597  34.9669708  57.3883767  29.0378597
  35.9169708  57.8583767  31.0178597  35.9998629  57.7089999  32.0133067
  36.7509708  58.8783767  30.4018597  37.1964499  58.4836533  29.4887108
  35.9249708  60.1203767  30.0468597  36.6258969  60.8801031  29.7010020
  35.2626005  59.8383590  29.2284272  35.1039708  60.6753767  31.1918597
  34.3020680  59.9777276  31.4333932  35.7639182  60.7817410  32.0528214
  34.5259708  62.0413767  30.8818597  35.0839708  62.7423767  30.0118597
  33.5099708  62.4123767  31.5048597  33.2139152  63.2903139  31.2543471
  37.8989708  59.2773767  31.3138597  37.6889708  59.5953767  32.4838597
  33.1954786  61.7581208  32.1329702  34.6572682  63.5936558  29.8868723
  35.8419846  62.3107086  29.6118661  39.1049708  59.2793767  30.7568597
  39.2748307  58.7679384  29.9026479  40.2179708  59.9843767  31.3708597
  40.2237564  59.7981552  32.4448184  41.5459708  59.5083767  30.7858597
  41.4779777  58.4388319  30.5869879  41.7285320  60.0401555  29.8520595
  42.7109708  59.7533767  31.7168597  42.6669708  60.6463767  32.5588597
  43.7639708  58.9583767  31.5698597  44.5704658  59.0781868  32.1659394
  43.7537379  58.2373984  30.8626212  40.0249708  61.4763767  31.1298597
  39.0399708  61.8853767  30.5068597  40.9529708  62.2923767  31.6228597
  41.7457390  61.9352907  32.1367736  40.8239708  63.7353767  31.4668597
  40.6483224  63.9770849  30.4186116  39.6509708  64.2673767  32.2948597
  38.8874812  63.4898779  32.2688091  40.0003610  64.3986093  33.3189712
  39.0639708  65.5663767  31.7928597  39.7809708  66.7513767  31.8658597
  40.7856629  66.7332689  32.2881927  39.2429708  67.9403767  31.4148597
  39.8198077  68.8634788  31.4718112  37.9679708  67.9553767  30.8898597
  37.4269708  69.1373767  30.4408597  38.0219541  69.8841063  30.5408071
  37.2329708  66.7923767  30.8128597  36.2252001  66.8024085  30.3976511
  37.7809708  65.6093767  31.2658597  37.2039746  64.6861140  31.2133095
  42.1189708  64.4083767  31.8918597  42.7309708  64.0093767  32.8868597
  42.5229708  65.4273767  31.1408597  42.0245128  65.6392323  30.2883597
  43.6979708  66.2263767  31.4718597  43.5299741  66.7446254  32.4159437
  44.9439708  65.3483767  31.6108597  45.8363014  65.9721868  31.5588372
  44.9188845  64.8302529  32.5695142  45.1349708  64.0593767  30.3678597
  43.9299708  67.2973767  30.4128597  43.8559708  67.0243767  29.2148597
  44.2069708  68.5043767  30.7758597  44.2757450  68.7633162  31.7496768
  44.4289708  69.5313767  29.7728597  44.3205633  69.0982984  28.7784796
  43.6987637  70.3302229  29.9022545  45.4344073  69.9373493  29.8841411
  27.0033995  28.6221709  35.9574528  27.2689708  27.9863767  35.1128597
  27.0275807  28.4988363  34.1816163  26.7083382  27.0533203  35.1693918
  28.7469708  27.6633767  35.1178597  29.4929708  28.1033767  36.0028597
  29.2379708  26.9183767  34.1858597  28.8082878  26.0418978  33.9265209
  30.4689708  27.3103767  33.5118597  31.2029275  27.6428120  34.2459533
  31.0529708  26.1283767  32.7378597  30.9065348  25.2087152  33.3043211
  30.5711167  26.0356163  31.7645601  32.5229708  26.2423767  32.4788597
  33.1669708  27.4543767  32.3558597  32.7147399  28.3547089  32.4264924
  34.4529708  27.2463767  32.1338597  35.1364407  28.0855919  32.0046865
  34.6669708  25.9433767  32.1118597  35.5564754  25.4889763  31.9621880
  33.4769708  25.2933767  32.3268597  33.4469248  24.2039793  32.3471512
  30.1969708  28.4803767  32.5748597  29.3729708  28.3793767  31.6678597
  30.8879708  29.5963767  32.8088597  31.5251739  29.6411252  33.5912081
  30.7069708  30.7923767  31.9958597  29.9499521  30.6113192  31.2328131
  30.2509708  31.9633767  32.8688597  29.3152581  31.6121882  33.3038398
  30.9904330  32.0971628  33.6584146  30.0139708  33.3003767  32.1598597
  29.7177850  33.1081555  31.1286343  28.9209708  34.0853767  32.8618597
  29.2166593  34.2783937  33.8930782  28.7646767  35.0326994  32.3458629
  27.9955203  33.5095864  32.8514977  31.2889708  34.1253767  32.0918597
  32.0509687  33.5728686  31.5421385  31.0859572  35.0676050  31.5828483
  31.6455025  34.3280485  33.1017647  31.9909708  31.1443767  31.2568597
  31.9719708  31.3763767  30.0438597  33.1109708  31.1863767  31.9768597
  33.0778243  30.9799878  32.9649914  34.3879708  31.5703767  31.3948597
  34.3333935  31.4751568  30.3103996  34.7489708  33.0193767  31.7418597
  33.8815686  33.5164276  32.1762019  35.5692782  33.0280950  32.4595781
  35.2649708  34.0093767  30.3218597  35.4709708  30.6223767  31.8878597
  35.3319708  29.9703767  32.9248597  36.5589708  30.5613767  31.1288597
  36.6491683  31.1956722  30.3480697  37.6289708  29.6183767  31.3738597
  37.1925198  28.7112233  31.7918100  38.1022549  29.3869729  30.4196303
  38.6779708  30.1453767  32.3288597  38.4209708  31.0083767  33.1708597
  39.8859708  29.6083767  32.1868597  40.0471638  28.9484390  31.4394653
  40.9799708  29.8963767  33.0998597  40.6093563  30.4545754  33.9596028
  41.6099708  28.5953767  33.5968597  42.0615126  28.0807096  32.7487283
  42.3822157  28.8387699  34.3265839  40.6409708  27.7543767  34.1978597
  41.0619987  26.9464331  34.5004526  42.0379708  30.7703767  32.4288597
  42.0439708  30.9723767  31.2128597  42.9439708  31.2923767  33.2528597
  42.8094661  31.1680789  34.2461159  44.0759708  32.0983767  32.8028597
  44.6360273  32.4561860  33.6668090  45.0159708  31.2753767  31.9168597
  45.0307600  30.2367931  32.2473511  44.6862953  31.3211719  30.8789209
  46.4349708  31.7513767  31.9368597  47.5059708  30.9003767  31.7728597
  47.4302181  29.9038287  31.6270744  48.6289708  31.5923767  31.8368597
  49.5936043  31.0962399  31.7299516  48.3249708  32.8623767  32.0358597
  48.9820951  33.6241172  32.1255201  46.9589708  32.9883767  32.1028597
  46.5093096  33.9680044  32.2648337  43.6299708  33.3573767  32.0688597
  44.3479708  33.8613767  31.1998597  42.4519708  33.8753767  32.3998597
  41.8464643  33.4025848  33.0555495  41.9839708  35.1133767  31.7988597
  42.1254525  35.0769828  30.7186942  40.4989708  35.3183767  32.0898597
  40.4716298  35.6157465  33.1381549  40.1284758  36.1356750  31.4711053
  39.6169708  34.0853767  31.8868597  39.8726376  33.3377033  32.6376724
  38.1539708  34.4553767  32.0208597  37.8974250  35.2027223  31.2700217
  37.5391494  33.5674177  31.8738079  37.9712531  34.8625746  33.0152965
  39.8889708  33.4483767  30.5418597  40.9346931  33.1457221  30.4874128
  39.2510647  32.5732479  30.4180593  39.6774057  34.1665589  29.7496769
  42.7869708  36.2963767  32.3268597  43.1819708  36.3373767  33.4948597
  43.0259708  37.2663767  31.4498597  42.6802953  37.1719661  30.5055639
  43.8159708  38.4453767  31.7818597  43.8644577  38.6022019  32.8594283
  45.2539708  38.3403767  31.2338597  45.2130277  38.1949669  30.1543789
  46.0339708  39.6073767  31.5448597  46.0757417  39.7532190  32.6242513
  47.0464982  39.5171015  31.1514909  45.5398076  40.4616755  31.0821740
  45.9539708  37.1223767  31.8118597  45.4036363  36.2222830  31.5378791
  46.9674765  37.0628133  31.4151761  45.9937889  37.2068259  32.8978540
  43.1209708  39.6783767  31.2258597  42.6099708  39.6653767  30.1008597
  43.0999708  40.7413767  32.0218597  43.4091512  40.6334194  32.9772926
  42.6229708  42.0473767  31.5948597  42.6837235  42.1152954  30.5086758
  41.1719708  42.2813767  32.0188597  40.5815596  41.4558535  31.6213357
  41.1449489  42.2551858  33.1082099  40.5939708  43.5983767  31.5298597
  41.2255310  44.4160735  31.8771412  40.5925780  43.5786708  30.4400391
  39.1679708  43.8153767  31.9888597  38.7479708  43.1443767  32.9528597
  38.4679708  44.6563767  31.3868597  37.5769592  44.7250279  31.7369519
  43.5189708  43.1183767  32.1958597  44.0909708  42.9273767  33.2728597
  38.9374857  45.0924446  30.6721014  37.8331326  43.3370687  33.1726637
  39.4108512  42.5523968  33.3148908  43.6399708  44.2433767  31.4978597
  43.1702500  44.3254792  30.6075109  44.4639708  45.3543767  31.9478597
  44.3684612  45.4729108  33.0271774  45.9359708  45.1173767  31.6108597
  46.0489608  45.0058255  30.5324861  46.5285527  45.9662964  31.9518616
  46.2815536  44.2107665  32.1075787  43.9749708  46.6413767  31.3028597
  44.1999708  46.8673767  30.1108597  43.3199708  47.4833767  32.0938597
  43.1565647  47.2188011  33.0547955  42.7859708  48.7543767  31.6278597
  42.8686969  48.8121045  30.5425380  41.3129708  48.8953767  32.0138597
  40.8010787  48.2230977  31.3253056  41.1976983  48.5272571  33.0333204
  40.7059708  50.2933767  31.9058597  41.1216485  50.9206677  32.6944146
  41.0139708  50.9043767  30.5638597  40.5981793  50.2778438  29.7747635
  40.5728861  51.8995380  30.5072992  42.0940319  50.9784925  30.4370713
  39.2069708  50.2333767  32.1368597  39.0077730  49.8341488  33.1313630
  38.7861553  51.2357160  32.0572882  38.7490114  49.5871171  31.3880468
  43.6069708  49.8903767  32.2188597  43.7279708  50.0033767  33.4428597
  44.1659708  50.7263767  31.3498597  44.0100309  50.5734341  30.3637610
  45.0179708  51.8373767  31.7498597  45.1731194  51.8074510  32.8283459
  46.3799708  51.7623767  31.0578597  46.2045246  51.7526143  29.9821169
  46.9032329  52.6784760  31.3318286  47.2209708  50.5693767  31.4408597
  46.8539708  49.2893767  31.0648597  45.9380018  49.1535806  30.4898295
  47.6219708  48.1983767  31.4038597  47.3156838  47.1957257  31.1055629
  48.7819708  48.3783767  32.1218597  49.5519708  47.2903767  32.4608597
  49.1868835  46.4599450  32.1467035  49.1739708  49.6413767  32.5028597
  50.0917611  49.7860305  33.0728041  48.3969708  50.7283767  32.1588597
  48.7041344  51.7323738  32.4516743  44.3429708  53.1563767  31.4048597
  43.9659708  53.3843767  30.2508597  44.1969708  54.0173767  32.4058597
  44.3872231  53.6922272  33.3429729  43.7559708  55.3943767  32.2288597
  43.5474436  55.5759028  31.1745050  42.4879708  55.6763767  33.0328597
  42.7001829  55.1705749  33.9747885  42.4551466  56.7531956  33.1986418
  41.1369708  55.2023767  32.4928597  40.4488649  55.0653341  33.3270242
  40.5669708  56.2213767  31.5318597  41.2543530  56.3586220  30.6971332
  39.6059715  55.8697390  31.1564504  40.4291487  57.1713091  32.0483225
  41.2519708  53.8513767  31.8258597  41.6114050  53.1184205  32.5481350
  40.2743501  53.5448864  31.4538076  41.9532305  53.9148986  30.9938148
  44.8909708  56.2983767  32.6858597  44.9689708  56.6473767  33.8678597
  45.7629708  56.6783767  31.7538597  45.5856628  56.4903560  30.7774840
  47.0249708  57.3133767  32.1178597  47.0824718  57.5223430  33.1860946
  48.2209708  56.4263767  31.7248597  48.2373890  56.3120569  30.6409959
  49.5259708  57.0583767  32.1878597  49.5104854  57.1725995  33.2717482
  50.3613024  56.4190160  31.9023085  49.6419797  58.0367441  31.7215542
  48.0699708  55.0283767  32.3008597  47.1559608  54.5740424  31.9184095
  48.9266099  54.4204564  32.0098239  48.0188678  55.0863832  33.3881152
  47.1539708  58.6873767  31.4748597  47.6009708  58.8113767  30.3298597
  46.7689708  59.7253767  32.2108597  46.1748122  59.5968442  33.0174292
  47.1609708  61.0793767  31.8518597  47.1889175  61.1790129  30.7667833
  46.1659708  62.0923767  32.4088597  45.7989282  61.7480698  33.3757267
  46.6584579  63.0571533  32.5303607  44.7039708  62.3583767  31.3868597
  48.5579708  61.3563767  32.3888597  48.7269708  61.8453767  33.5098597
  49.5629708  61.0423767  31.5788597  49.3731112  60.8214158  30.6117873
  50.9339708  61.0043767  32.0338597  50.9835618  60.3514235  32.9052333
  51.5450478  60.5878472  31.2331179  51.4759708  62.3693767  32.4088597
  50.7469708  63.3133767  32.7168597  52.8049708  62.4603767  32.3758597
  53.3413855  61.6709889  32.0453668  53.5249708  63.6353767  32.8488597
  53.3773480  63.7583946  33.9217871  55.0209708  63.4733767  32.5768597
  55.1429678  63.3663021  31.4990142  55.5099662  64.3894881  32.9081051
  55.6499708  62.2823767  33.2778597  55.4172570  62.3327092  34.3415381
  55.2156796  61.3769794  32.8538949  57.1509708  62.2113767  33.0788597
  57.7409708  63.2153767  32.6308597  57.7389708  61.1493767  33.3708597
  58.6842613  61.1850497  33.2085872  53.0169708  64.9183767  32.2038597
  52.8179708  64.9763767  30.9868597  57.1465801  60.4728745  33.7068612
  58.6861743  63.0793758  32.5285516  57.1517617  63.9552162  32.4684180
  52.8029708  65.9493767  33.0178597  52.9052174  65.8063628  34.0124410
  52.3939708  67.2663767  32.5478597  52.5875357  67.3443758  31.4780242
  50.9039708  67.5083767  32.7938597  50.7347694  67.3946553  33.8646246
  50.6951818  68.5372737  32.5008099  49.9839708  66.5693767  32.0338597
  50.2646903  66.5877610  30.9807883  50.1170954  65.5616107  32.4272903
  48.5279708  66.9803767  32.1768597  47.9098357  66.3138861  31.5753630
  48.2368316  66.8986569  33.2240747  48.3029708  68.3523767  31.7348597
  49.0930991  68.8408447  31.3383808  47.1429708  68.9893767  31.8198597
  46.0689708  68.4083767  32.3298597  46.1242198  67.4572157  32.6650317
  45.1989618  68.9187773  32.3815830  47.0579708  70.2413767  31.3818597
  47.8725355  70.6927857  30.9909451  46.1792068  70.7356047  31.4419541
  53.2259708  68.3143767  33.2678597  53.7249708  68.0643767  34.3708597
  53.3819708  69.4693767  32.6508597  53.0071139  69.6002511  31.7221759
  54.0839708  70.5743767  33.2698597  53.5290446  71.4964181  33.0966666
  54.1643043  70.3952137  34.3420288  55.4799708  70.7203767  32.6868597
  55.7139708  70.4073767  31.5218597  56.3899708  71.1973767  33.5328597
  56.1162252  71.3509412  34.4928496  57.7499708  71.5413767  33.1388597
  57.8457486  71.4648762  32.0557745  58.0999708  72.9693767  33.5608597
  58.0568319  73.0771492  34.6446601  59.1058114  73.2041929  33.2126557
  57.1889708  74.0213767  32.9868597  55.8459708  74.0573767  33.3188597
  55.4475516  73.3073299  34.0020814  55.0139708  75.0263767  32.7968597
  53.9562296  75.0356308  33.0599163  55.5189708  75.9803767  31.9448597
  54.8644675  76.7487499  31.5333649  56.8549708  75.9633767  31.6118597
  57.2577750  76.7174695  30.9356992  57.6849708  74.9903767  32.1348597
  58.7439268  74.9810229  31.8767425  58.7089708  70.5493767  33.7798597
  58.6649708  70.3383767  34.9968597  59.5689708  69.9443767  32.9648597
  59.5370653  70.1583416  31.9782998  60.5329708  68.9553767  33.4258597
  60.5785318  68.9716981  34.5147844  60.1369708  67.5473767  32.9738597
  60.1348829  67.4860136  31.8855907  60.8369436  66.8156122  33.3771694
  58.7699708  67.1303767  33.4298597  57.6399708  67.6883767  32.8628597
  57.7551965  68.4352058  32.0773221  56.3849708  67.3143767  33.2758597
  55.5033886  67.7656820  32.8206267  56.2409708  66.3703767  34.2638597
  55.2453038  66.0738327  34.5937216  57.3559708  65.7983767  34.8378597
  57.2449580  65.0467456  35.6194139  58.6149708  66.1793767  34.4208597
  59.4984664  65.7294513  34.8737422  61.9079708  69.3153767  32.8878597
  62.0709708  69.5143767  31.6808597  62.8939708  69.3823767  33.7828597
  62.6939581  69.1760321  34.7511139  64.2439708  69.8043767  33.4308597
  64.3210617  69.9204209  32.3498001  64.5859708  71.1393767  34.0908597
  64.6911883  70.9611093  35.1610229  65.5454928  71.4522110  33.6790925
  63.5609708  72.2253767  33.8598597  62.3749708  72.2483767  34.5738597
  62.1883237  71.4630501  35.3063380  61.4399708  73.2383767  34.3728597
  60.5099146  73.2397696  34.9412746  61.6829708  74.2273767  33.4508597
  60.7519708  75.2173767  33.2478597  59.9737334  75.1196436  33.8013888
  62.8529708  74.2313767  32.7308597  63.0470834  75.0153401  31.9988609
  63.7859708  73.2343767  32.9388597  64.7178130  73.2333971  32.3733783
  65.2679708  68.7453767  33.8208597  66.3559708  69.0733767  34.3008597
  64.9319708  67.4743767  33.6248597  64.0151331  67.2465373  33.2676521
  65.8399708  66.3803767  33.9458597  66.0348560  66.3605065  35.0181116
  65.2499708  65.0213767  33.5278597  65.1241702  65.0089726  32.4452145
  66.1719708  63.8853767  33.9438597  66.2978883  63.8968520  35.0265012
  65.7368803  62.9335256  33.6392699  67.1427937  64.0105342  33.4643401
  63.9679708  64.8433767  34.1428597  63.6022673  63.9953694  33.8806672
  67.1879708  66.5703767  33.2588597  67.2499708  66.9053767  32.0748597
  68.2759708  66.3783767  33.9248597  68.2623644  66.1033717  34.8966037
  69.5639708  66.5573767  33.2778597  69.4117462  66.8517791  32.2394688
  70.1268133  67.3336191  33.7962771  70.1213197  65.6212549  33.3115966
  86.8003770  96.2366600  75.3771970  86.7197820  95.3221210  75.1063680
  86.3868190  96.7333670  74.6711680  77.3579590  93.2867320  71.9199390
  76.4696290  93.6283290  71.8179270  77.6420780  93.0867640  71.0280220
  79.5340980  91.8698820  72.9537770  79.6407730  92.7702550  73.2606530
  78.6233340  91.8216790  72.6632420  89.1860090  90.9923630  74.4248670
  90.0069710  90.5020200  74.4674150  89.2194170  91.5821290  75.1780510
  83.0228030  88.6775980  75.8841410  83.3303010  88.1222870  75.1676910
  82.0928730  88.8120440  75.7014400  85.4108790  96.7424810  72.6201530
  84.4838070  96.6762190  72.8490000  85.5633610  97.6804940  72.5056770
  85.3977870  93.0141810  69.6168690  84.4581540  93.1755770  69.7021150
  85.7161130  93.7327490  69.0704680  89.4406080  98.3045110  73.1236780
  88.8218500  97.9664660  72.4763080  89.4230530  97.6604870  73.8315970
  81.0165430  97.2689550  75.4021260  80.6122430  96.5566800  74.9067160
  81.1028550  96.9242790  76.2909300  87.6170780  97.5431920  70.1309530
  88.0564060  96.7054350  69.9847350  88.3299200  98.1761320  70.2173670
  77.7170060  96.1634530  72.9027910  77.5967660  96.8896620  72.2909180
  77.4070950  95.3937440  72.4255820  80.1833720  89.5069600  76.2851580
  79.7401870  90.2879140  75.9536100  80.7418710  89.8299490  76.9922520
  83.2992540  89.1280300  71.1657410  82.6746720  89.1240170  71.8910720
  83.2122660  88.2611260  70.7693380  79.9747940  94.6303170  74.0132830
  79.7488860  94.4140340  74.9179450  79.1940470  95.0631630  73.6678800
  87.2045700  94.6366540  72.6123480  86.6054590  95.3602340  72.4287100
  87.7525310  94.5743320  71.8299930  85.8110570  93.2730080  74.6426760
  86.2040140  93.5902280  73.8295450  86.1727420  92.3941960  74.7571280
  75.0344970  93.8051000  68.0759680  74.9519640  94.7481760  68.2174670
  74.6828030  93.6625910  67.1972030  82.8343100  92.5390030  77.1430030
  82.8379160  92.0979980  76.2934570  83.7294220  92.8607360  77.2501850
  78.6845480  92.4216520  76.1024240  78.3445530  92.8991750  76.8591290
  77.9222800  91.9681640  75.7425340  82.8963250  93.5402110  70.1336790
  83.0176070  93.4988590  71.0822610  82.5111760  94.4026260  69.9783520
  81.9084750  95.8503250  69.5320090  81.3401650  95.4021500  68.9056000
  82.6173750  96.2096030  68.9985240  75.9991560  91.3435500  75.0188910
  75.7138480  90.9791170  75.8567530  75.9370420  90.6115960  74.4052050
  85.6730150  90.2364760  71.7402280  84.8594760  89.7377930  71.6647590
  85.4792100  91.0763010  71.3238630  88.3878540  94.6084410  70.0364440
  89.2758160  94.9201640  69.8615780  88.3583630  93.7356660  69.6445020
  90.6592810  95.9196250  69.5044300  90.5756530  96.3510470  68.6540740
  91.3787000  96.3794600  69.9371120  75.4922220  96.4794450  68.9785610
  76.3617070  96.7619250  69.2621530  75.0012540  97.2930320  68.8634420
  82.6557030  97.8667660  73.0993890  83.1119810  98.6772910  73.3254080
  82.3045240  97.5490800  73.9312380  78.5568810  88.2105310  73.5716410
  78.4283440  88.2023210  74.5201330  77.7330830  88.5488400  73.2207420
  90.4163550  91.4175680  71.5912120  89.7876710  91.5221350  70.8770350
  89.9215470  91.6372460  72.3806000  82.3847580  93.6961630  73.0070000
  81.6763730  94.1647970  73.4483610  82.6692060  93.0383640  73.6415190
  86.4163010  90.4212290  74.4465790  86.2930790  90.4398420  73.4975300
  87.3647570  90.4691230  74.5664190  80.5882600  92.0046710  70.3820710
  81.4373130  92.4416860  70.3160900  80.2213870  92.3166970  71.2092770
  89.5092380  96.5759470  75.2952280  88.5682520  96.5909700  75.4699970
  89.8236450  95.7895430  75.7412580  79.4874020  98.2579070  68.8556240
  80.2537290  98.1460430  69.4181670  79.5648710  97.5617040  68.2033010
  78.1820780  95.6904140  69.5389130  78.2624370  94.7431650  69.6506530
  79.0740530  96.0211020  69.6449790  81.5193050  98.2544200  70.8298880
  81.9409470  98.0884070  71.6730270  81.6443890  97.4444430  70.3354020
  84.0320690  97.2781810  68.0775980  84.5526350  96.5630830  67.7117130
  84.6789090  97.9167680  68.3776490  80.4151950  94.3277430  67.7757040
  80.2141010  93.4644790  68.1370380  80.2444000  94.2410790  66.8378640
  87.8940260  89.1385660  70.3043920  88.1742550  88.2953560  70.6603340
  87.1205990  89.3708770  70.8182670  79.2134750  91.4278050  67.7634920
  79.5160650  91.4345480  66.8554070  79.9529340  91.0775910  68.2602580
  82.4319680  90.3712670  68.7491120  82.0841680  89.6936660  68.1693570
  82.6332450  89.9102180  69.5634510  75.7725320  96.9000320  75.1455490
  75.1174160  96.6311960  74.5015190  76.6103270  96.7904800  74.6957470
  88.7215760  91.6941610  69.3673980  89.1400640  91.5072590  68.5270640
  88.4151820  90.8420660  69.6776910  74.9863400  94.1099250  71.0880820
  74.0827480  94.3729450  70.9132480  75.4704020  94.3810420  70.3080780
  77.5290610  93.1664790  68.9975200  78.2382310  92.7448010  68.5122480
  76.8130550  93.2340020  68.3658550  77.1764770  89.2204120  68.0377850
  77.8992900  89.7613060  68.3559070  77.4489290  88.9467540  67.1619390
  90.9856420  94.0896590  72.3049430  91.4815540  93.8567460  73.0898310
  90.7872490  93.2508430  71.8887070  89.8092270  89.6573000  77.1548790
  90.2500360  89.6018100  76.3070390  89.5399860  90.5731010  77.2258970
  76.6011610  89.2597380  71.6313420  77.3590970  89.3726260  71.0577450
  76.1388780  90.0966580  71.5856850  83.1425420  91.3736650  74.6215730
  82.3299930  90.9993540  74.2811610  83.6467060  90.6181730  74.9236920
  87.6450400  88.0379100  75.8598800  88.2479770  88.6099310  76.3347320
  86.9043390  88.6018540  75.6372700  90.7885000  88.4400660  71.1339080
  90.9835630  89.3384110  71.4006510  90.0014870  88.2087740  71.6272030
  78.9736760  89.7861430  70.1715390  79.5029520  88.9991230  70.0423340
  79.6065080  90.4652620  70.4050920  81.1674600  89.5236570  73.2260780
  80.5377340  88.8223880  73.3930910  80.6279740  90.2840700  73.0093940
  86.8003770  96.2366600  56.6028480  86.7197820  95.3221210  56.3320190
  86.3868190  96.7333670  55.8968190  84.9321810  98.0145620  58.4837750
  84.1563910  97.5346060  58.7736320  85.5834740  97.3351270  58.3093910
  78.9487640  98.3265430  59.3613510  78.1172520  98.0714140  59.7610020
  79.5568620  98.3976200  60.0971430  77.3579590  93.2867320  53.1455900
  76.4696290  93.6283290  53.0435780  77.6420780  93.0867640  52.2536730
  75.3212600  95.8872970  59.0295600  75.8928710  95.1195170  59.0299240
  75.3214140  96.1861730  58.1202210  76.5637470  91.2957330  60.8164530
  76.3840310  90.3983080  61.0967290  76.1617550  91.8429200  61.4911480
  85.4035970  93.4973190  58.7176840  85.7800790  92.6245070  58.6050510
  85.3055480  93.8331890  57.8267280  79.5340980  91.8698820  54.1794280
  79.6407730  92.7702550  54.4863040  78.6233340  91.8216790  53.8888930
  89.1860090  90.9923630  55.6505180  90.0069710  90.5020200  55.6930660
  89.2194170  91.5821290  56.4037020  77.1824140  93.7917830  59.4246870
  77.8634250  94.0556200  60.0434270  76.8672190  92.9518700  59.7584880
  81.3748710  94.8385190  58.5119460  81.8826930  95.3366160  59.1524480
  81.9061950  94.0620390  58.3358820  79.6584810  89.4783750  62.7782880
  79.6603250  89.9956140  61.9728780  78.8289120  89.0013930  62.7552810
  89.4221570  92.9324010  58.4232720  88.7177140  93.2208900  59.0035830
  89.7833730  93.7424120  58.0632280  79.3400140  91.1893710  60.7853330
  79.6816950  92.0335760  60.4907200  78.4015950  91.3377450  60.9018670
  83.0228030  88.6775980  57.1097920  83.3303010  88.1222870  56.3933420
  82.0928730  88.8120440  56.9270910  85.4108790  96.7424810  53.8458040
  84.4838070  96.6762190  54.0746510  85.5633610  97.6804940  53.7313280
  85.3977870  93.0141810  50.8425200  84.4581540  93.1755770  50.9277660
  85.7161130  93.7327490  50.2961190  89.4406080  98.3045110  54.3493290
  88.8218500  97.9664660  53.7019590  89.4230530  97.6604870  55.0572480
  88.8832640  94.4829650  61.7659100  88.4703820  95.3083360  62.0199090
  88.1508590  93.8974690  61.5735460  81.0165430  97.2689550  56.6277770
  80.6122430  96.5566800  56.1323670  81.1028550  96.9242790  57.5165810
  79.7294050  94.0432760  60.4076810  80.2808640  94.1528100  59.6330060
  80.2437560  94.4170360  61.1232040  87.6170780  97.5431920  51.3566040
  88.0564060  96.7054350  51.2103860  88.3299200  98.1761320  51.4430180
  79.4036780  97.5652120  64.0182150  79.2644550  98.4374920  64.3869550
  78.5218140  97.2224930  63.8730090  77.7170060  96.1634530  54.1284420
  77.5967660  96.8896620  53.5165690  77.4070950  95.3937440  53.6512330
  80.1833720  89.5069600  57.5108090  79.7401870  90.2879140  57.1792610
  80.7418710  89.8299490  58.2179030  84.4703530  92.3738120  63.1143410
  84.0082900  92.5821140  63.9263350  84.0681640  91.5597470  62.8114080
  89.4708040  93.5947070  64.2440070  88.6201630  93.2952820  64.5649140
  89.3109830  93.8389080  63.3323890  86.5657750  95.0948820  66.3438860
  86.8911160  94.2612570  66.0041090  87.3538080  95.6177340  66.4917190
  83.2992540  89.1280300  52.3913920  82.6746720  89.1240170  53.1167230
  83.2122660  88.2611260  51.9949890  82.2209620  90.0516930  59.3697690
  82.5181950  90.9579760  59.2889710  82.7695180  89.5635710  58.7557260
  79.9747940  94.6303170  55.2389340  79.7488860  94.4140340  56.1435960
  79.1940470  95.0631630  54.8935310  87.2045700  94.6366540  53.8379990
  86.6054590  95.3602340  53.6543610  87.7525310  94.5743320  53.0556440
  82.4147150  95.5288750  65.9049610  82.3190750  94.5883480  65.7550010
  83.2579130  95.7503820  65.5097680  85.8110570  93.2730080  55.8683270
  86.2040140  93.5902280  55.0551960  86.1727420  92.3941960  55.9827790
  77.5457690  91.9402420  64.0583390  77.1521080  92.7877630  64.2656170
  76.8576090  91.3028790  64.2492030  84.1202740  92.0237390  67.1280130
  83.4301060  91.8309590  67.7626220  84.8635040  92.3072030  67.6604430
  74.8474740  89.8630880  58.0913470  74.5587790  90.4333740  58.8038450
  75.5920500  89.3835330  58.4544700  75.0344970  93.8051000  49.3016190
  74.9519640  94.7481760  49.4431180  74.6828030  93.6625910  48.4228540
  86.3965710  95.8635830  59.9634050  85.6646830  96.3722640  60.3124150
  85.9990050  95.0465810  59.6622830  82.8343100  92.5390030  58.3686540
  82.8379160  92.0979980  57.5191080  83.7294220  92.8607360  58.4758360
  78.6845480  92.4216520  57.3280750  78.3445530  92.8991750  58.0847800
  77.9222800  91.9681640  56.9681850  82.8963250  93.5402110  51.3593300
  83.0176070  93.4988590  52.3079120  82.5111760  94.4026260  51.2040030
  86.8591620  91.3169510  59.3756990  86.8764360  91.7678160  60.2198840
  86.6107200  90.4175150  59.5890430  81.9084750  95.8503250  50.7576600
  81.3401650  95.4021500  50.1312510  82.6173750  96.2096030  50.2241750
  90.2862370  88.7301690  65.2143370  90.6108140  87.9991350  65.7401350
  90.3218880  88.4115330  64.3124360  83.1351070  96.5991810  60.1151950
  83.5021200  96.1250380  60.8613290  82.9456130  97.4733380  60.4560290
  75.9991560  91.3435500  56.2445420  75.7138480  90.9791170  57.0824040
  75.9370420  90.6115960  55.6308560  80.9250440  95.6400450  62.4336160
  80.6207510  96.5192430  62.6586520  81.8796900  95.7000240  62.4693600
  85.6730150  90.2364760  52.9658790  84.8594760  89.7377930  52.8904100
  85.4792100  91.0763010  52.5495140  88.3878540  94.6084410  51.2620950
  89.2758160  94.9201640  51.0872290  88.3583630  93.7356660  50.8701530
  76.9814170  96.4803190  63.5807520  76.6229110  97.1457040  64.1680860
  76.6868730  95.6486740  63.9520140  80.1827290  96.9387430  66.4647070
  79.8827430  97.0844610  65.5674890  80.9538530  96.3792720  66.3720460
  90.6592810  95.9196250  50.7300810  90.5756530  96.3510470  49.8797250
  91.3787000  96.3794600  51.1627630  75.4922220  96.4794450  50.2042120
  76.3617070  96.7619250  50.4878040  75.0012540  97.2930320  50.0890930
  82.6557030  97.8667660  54.3250400  83.1119810  98.6772910  54.5510590
  82.3045240  97.5490800  55.1568890  78.5568810  88.2105310  54.7972920
  78.4283440  88.2023210  55.7457840  77.7330830  88.5488400  54.4463930
  75.5562740  89.9696430  64.2579620  74.8421260  90.1693350  64.8632230
  75.9757780  89.1936000  64.6294420  87.0501520  92.4618740  62.0081070
  87.4182340  91.6413950  62.3360640  86.1899720  92.5220630  62.4236720
  90.4163550  91.4175680  52.8168630  89.7876710  91.5221350  52.1026860
  89.9215470  91.6372460  53.6062510  82.3847580  93.6961630  54.2326510
  81.6763730  94.1647970  54.6740120  82.6692060  93.0383640  54.8671700
  84.0103510  95.1158330  62.2319040  84.5088760  95.5904150  62.8970890
  84.1526460  94.1921850  62.4389070  86.4163010  90.4212290  55.6722300
  86.2930790  90.4398420  54.7231810  87.3647570  90.4691230  55.7920700
  80.5882600  92.0046710  51.6077220  81.4373130  92.4416860  51.5417410
  80.2213870  92.3166970  52.4349280  89.5092380  96.5759470  56.5208790
  88.5682520  96.5909700  56.6956480  89.8236450  95.7895430  56.9669090
  79.4874020  98.2579070  50.0812750  80.2537290  98.1460430  50.6438180
  79.5648710  97.5617040  49.4289520  78.1820780  95.6904140  50.7645640
  78.2624370  94.7431650  50.8763040  79.0740530  96.0211020  50.8706300
  75.7091580  97.5119060  66.0001810  76.2130600  96.9326340  66.5718040
  74.9699000  97.7959290  66.5378180  77.7414660  95.6548650  66.8951880
  77.7820000  95.3562520  67.8037110  78.5960160  96.0556260  66.7359400
  81.5193050  98.2544200  52.0555390  81.9409470  98.0884070  52.8986780
  81.6443890  97.4444430  51.5610530  79.6820470  94.2340750  64.8626370
  79.1516930  93.7431700  64.2349710  80.3508540  94.6624950  64.3284300
  84.0320690  97.2781810  49.3032490  84.5526350  96.5630830  48.9373640
  84.6789090  97.9167680  49.6033000  89.0520700  96.0406370  66.6306710
  89.6341470  95.2858690  66.5427190  89.2282470  96.5713810  65.8538190
  80.1692770  91.2003120  64.9423660  80.0749640  90.5823870  64.2174530
  79.5890160  91.9269410  64.7153570  82.9354210  89.7576360  61.9751050
  82.4871510  89.7800620  61.1296600  82.3019410  89.3595380  62.5721350
  85.6777660  96.3846870  63.9801330  85.7973870  95.7888010  64.7196170
  86.5371660  96.4216560  63.5602630  88.0165560  96.9384060  62.5563840
  87.4900780  97.4626680  61.9528980  88.3596900  97.5711450  63.1873570
  80.4151950  94.3277430  49.0013550  80.2141010  93.4644790  49.3626890
  80.2444000  94.2410790  48.0635150  82.4446430  92.9268220  65.2377150
  83.0346120  92.6184070  65.9254970  81.6266670  92.4547970  65.3937050
  87.2639860  92.5434030  65.4710170  86.5755380  91.8815570  65.4060160
  87.9845880  92.0972300  65.9158630  87.8940260  89.1385660  51.5300430
  88.1742550  88.2953560  51.8859850  87.1205990  89.3708770  52.0439180
  79.2134750  91.4278050  48.9891430  79.5160650  91.4345480  48.0810580
  79.9529340  91.0775910  49.4859090  82.4319680  90.3712670  49.9747630
  82.0841680  89.6936660  49.3950080  82.6332450  89.9102180  50.7891020
  75.7725320  96.9000320  56.3712000  75.1174160  96.6311960  55.7271700
  76.6103270  96.7904800  55.9213980  88.7215760  91.6941610  50.5930490
  89.1400640  91.5072590  49.7527150  88.4151820  90.8420660  50.9033420
  76.8101250  97.2852890  60.9115340  77.1774290  97.1980290  61.7911360
  76.2412070  96.5219440  60.8122200  76.3617250  94.1961980  64.8173760
  75.4673300  94.1628740  65.1567470  76.9014800  94.3948770  65.5825010
  90.0493180  90.9793700  66.7025510  90.9263360  90.9877100  67.0859510
  90.0614020  90.2424540  66.0917860  74.9863400  94.1099250  52.3137330
  74.0827480  94.3729450  52.1388990  75.4704020  94.3810420  51.5337290
  77.5290610  93.1664790  50.2231710  78.2382310  92.7448010  49.7378990
  76.8130550  93.2340020  49.5915060  77.1764770  89.2204120  49.2634360
  77.8992900  89.7613060  49.5815580  77.4489290  88.9467540  48.3875900
  90.9856420  94.0896590  53.5305940  91.4815540  93.8567460  54.3154820
  90.7872490  93.2508430  53.1143580  76.8656960  88.4710310  59.1656980
  77.5133150  87.9207690  58.7252140  77.2858800  88.7253460  59.9872790
  90.7609300  88.6651670  62.5226620  91.3981520  89.2785810  62.8885810
  90.9084190  88.7012330  61.5775850  76.6188960  88.6265980  61.9082300
  76.2703780  89.0829800  62.6740480  76.2876660  87.7323110  61.9904730
  84.1313780  89.8177860  65.4301720  84.0702670  90.4099690  66.1797130
  85.0714160  89.7103820  65.2851980  86.7688340  89.4747920  65.0694010
  87.3828750  89.7927210  64.4075090  87.3137900  88.9896510  65.6889870
  77.2909600  88.1542180  65.1833070  77.8392590  87.9730230  64.4199180
  77.3564910  87.3636290  65.7189380  87.5096380  88.0380060  61.3963300
  86.6356220  88.3715170  61.1936230  87.4007130  87.5653240  62.2215170
  88.4168360  90.2450930  62.7805020  88.0881720  89.4302690  62.4006750
  89.3650660  90.2020740  62.6570710  85.2571200  88.9549900  60.3356210
  84.4742990  89.4295400  60.6152970  84.9634130  88.0504730  60.2269390
  89.8092270  89.6573000  58.3805300  90.2500360  89.6018100  57.5326900
  89.5399860  90.5731010  58.4515480  76.6011610  89.2597380  52.8569930
  77.3590970  89.3726260  52.2833960  76.1388780  90.0966580  52.8113360
  83.1425420  91.3736650  55.8472240  82.3299930  90.9993540  55.5068120
  83.6467060  90.6181730  56.1493430  87.6450400  88.0379100  57.0855310
  88.2479770  88.6099310  57.5603830  86.9043390  88.6018540  56.8629210
  90.7885000  88.4400660  52.3595590  90.9835630  89.3384110  52.6263020
  90.0014870  88.2087740  52.8528540  78.9736760  89.7861430  51.3971900
  79.5029520  88.9991230  51.2679850  79.6065080  90.4652620  51.6307430
  81.1674600  89.5236570  54.4517290  80.5377340  88.8223880  54.6187420
  80.6279740  90.2840700  54.2350450  81.2930160  88.8020550  66.8869780
  81.0114430  89.3054150  66.1230600  81.6749860  88.0042300  66.5211910
  87.8945620  88.2174130  67.4650250  87.7811070  88.5368740  68.3601770
  88.7115360  88.6186640  67.1687530  86.8003770  96.2366600  37.8284990
  86.7197820  95.3221210  37.5576700  86.3868190  96.7333670  37.1224700
  84.9321810  98.0145620  39.7094260  84.1563910  97.5346060  39.9992830
  85.5834740  97.3351270  39.5350420  78.9487640  98.3265430  40.5870020
  78.1172520  98.0714140  40.9866530  79.5568620  98.3976200  41.3227940
  77.3579590  93.2867320  34.3712410  76.4696290  93.6283290  34.2692290
  77.6420780  93.0867640  33.4793240  75.3212600  95.8872970  40.2552110
  75.8928710  95.1195170  40.2555750  75.3214140  96.1861730  39.3458720
  76.5637470  91.2957330  42.0421040  76.3840310  90.3983080  42.3223800
  76.1617550  91.8429200  42.7167990  85.4035970  93.4973190  39.9433350
  85.7800790  92.6245070  39.8307020  85.3055480  93.8331890  39.0523790
  79.5340980  91.8698820  35.4050790  79.6407730  92.7702550  35.7119550
  78.6233340  91.8216790  35.1145440  89.1860090  90.9923630  36.8761690
  90.0069710  90.5020200  36.9187170  89.2194170  91.5821290  37.6293530
  77.1824140  93.7917830  40.6503380  77.8634250  94.0556200  41.2690780
  76.8672190  92.9518700  40.9841390  81.3748710  94.8385190  39.7375970
  81.8826930  95.3366160  40.3780990  81.9061950  94.0620390  39.5615330
  79.6584810  89.4783750  44.0039390  79.6603250  89.9956140  43.1985290
  78.8289120  89.0013930  43.9809320  89.4221570  92.9324010  39.6489230
  88.7177140  93.2208900  40.2292340  89.7833730  93.7424120  39.2888790
  79.3400140  91.1893710  42.0109840  79.6816950  92.0335760  41.7163710
  78.4015950  91.3377450  42.1275180  83.0228030  88.6775980  38.3354430
  83.3303010  88.1222870  37.6189930  82.0928730  88.8120440  38.1527420
  85.4108790  96.7424810  35.0714550  84.4838070  96.6762190  35.3003020
  85.5633610  97.6804940  34.9569790  85.3977870  93.0141810  32.0681710
  84.4581540  93.1755770  32.1534170  85.7161130  93.7327490  31.5217700
  89.4406080  98.3045110  35.5749800  88.8218500  97.9664660  34.9276100
  89.4230530  97.6604870  36.2828990  88.8832640  94.4829650  42.9915610
  88.4703820  95.3083360  43.2455600  88.1508590  93.8974690  42.7991970
  81.0165430  97.2689550  37.8534280  80.6122430  96.5566800  37.3580180
  81.1028550  96.9242790  38.7422320  79.7294050  94.0432760  41.6333320
  80.2808640  94.1528100  40.8586570  80.2437560  94.4170360  42.3488550
  87.6170780  97.5431920  32.5822550  88.0564060  96.7054350  32.4360370
  88.3299200  98.1761320  32.6686690  79.4036780  97.5652120  45.2438660
  79.2644550  98.4374920  45.6126060  78.5218140  97.2224930  45.0986600
  77.7170060  96.1634530  35.3540930  77.5967660  96.8896620  34.7422200
  77.4070950  95.3937440  34.8768840  80.1833720  89.5069600  38.7364600
  79.7401870  90.2879140  38.4049120  80.7418710  89.8299490  39.4435540
  84.4703530  92.3738120  44.3399920  84.0082900  92.5821140  45.1519860
  84.0681640  91.5597470  44.0370590  89.4708040  93.5947070  45.4696580
  88.6201630  93.2952820  45.7905650  89.3109830  93.8389080  44.5580400
  86.5657750  95.0948820  47.5695370  86.8911160  94.2612570  47.2297600
  87.3538080  95.6177340  47.7173700  83.2992540  89.1280300  33.6170430
  82.6746720  89.1240170  34.3423740  83.2122660  88.2611260  33.2206400
  82.2209620  90.0516930  40.5954200  82.5181950  90.9579760  40.5146220
  82.7695180  89.5635710  39.9813770  79.9747940  94.6303170  36.4645850
  79.7488860  94.4140340  37.3692470  79.1940470  95.0631630  36.1191820
  87.2045700  94.6366540  35.0636500  86.6054590  95.3602340  34.8800120
  87.7525310  94.5743320  34.2812950  82.4147150  95.5288750  47.1306120
  82.3190750  94.5883480  46.9806520  83.2579130  95.7503820  46.7354190
  85.8110570  93.2730080  37.0939780  86.2040140  93.5902280  36.2808470
  86.1727420  92.3941960  37.2084300  77.5457690  91.9402420  45.2839900
  77.1521080  92.7877630  45.4912680  76.8576090  91.3028790  45.4748540
  84.1202740  92.0237390  48.3536640  83.4301060  91.8309590  48.9882730
  84.8635040  92.3072030  48.8860940  74.8474740  89.8630880  39.3169980
  74.5587790  90.4333740  40.0294960  75.5920500  89.3835330  39.6801210
  75.0344970  93.8051000  30.5272700  74.9519640  94.7481760  30.6687690
  74.6828030  93.6625910  29.6485050  86.3965710  95.8635830  41.1890560
  85.6646830  96.3722640  41.5380660  85.9990050  95.0465810  40.8879340
  82.8343100  92.5390030  39.5943050  82.8379160  92.0979980  38.7447590
  83.7294220  92.8607360  39.7014870  78.6845480  92.4216520  38.5537260
  78.3445530  92.8991750  39.3104310  77.9222800  91.9681640  38.1938360
  82.8963250  93.5402110  32.5849810  83.0176070  93.4988590  33.5335630
  82.5111760  94.4026260  32.4296540  86.8591620  91.3169510  40.6013500
  86.8764360  91.7678160  41.4455350  86.6107200  90.4175150  40.8146940
  81.9084750  95.8503250  31.9833110  81.3401650  95.4021500  31.3569020
  82.6173750  96.2096030  31.4498260  90.2862370  88.7301690  46.4399880
  90.6108140  87.9991350  46.9657860  90.3218880  88.4115330  45.5380870
  83.1351070  96.5991810  41.3408460  83.5021200  96.1250380  42.0869800
  82.9456130  97.4733380  41.6816800  75.9991560  91.3435500  37.4701930
  75.7138480  90.9791170  38.3080550  75.9370420  90.6115960  36.8565070
  80.9250440  95.6400450  43.6592670  80.6207510  96.5192430  43.8843030
  81.8796900  95.7000240  43.6950110  85.6730150  90.2364760  34.1915300
  84.8594760  89.7377930  34.1160610  85.4792100  91.0763010  33.7751650
  88.3878540  94.6084410  32.4877460  89.2758160  94.9201640  32.3128800
  88.3583630  93.7356660  32.0958040  76.9814170  96.4803190  44.8064030
  76.6229110  97.1457040  45.3937370  76.6868730  95.6486740  45.1776650
  80.1827290  96.9387430  47.6903580  79.8827430  97.0844610  46.7931400
  80.9538530  96.3792720  47.5976970  90.6592810  95.9196250  31.9557320
  90.5756530  96.3510470  31.1053760  91.3787000  96.3794600  32.3884140
  75.4922220  96.4794450  31.4298630  76.3617070  96.7619250  31.7134550
  75.0012540  97.2930320  31.3147440  82.6557030  97.8667660  35.5506910
  83.1119810  98.6772910  35.7767100  82.3045240  97.5490800  36.3825400
  78.5568810  88.2105310  36.0229430  78.4283440  88.2023210  36.9714350
  77.7330830  88.5488400  35.6720440  75.5562740  89.9696430  45.4836130
  74.8421260  90.1693350  46.0888740  75.9757780  89.1936000  45.8550930
  87.0501520  92.4618740  43.2337580  87.4182340  91.6413950  43.5617150
  86.1899720  92.5220630  43.6493230  90.4163550  91.4175680  34.0425140
  89.7876710  91.5221350  33.3283370  89.9215470  91.6372460  34.8319020
  82.3847580  93.6961630  35.4583020  81.6763730  94.1647970  35.8996630
  82.6692060  93.0383640  36.0928210  84.0103510  95.1158330  43.4575550
  84.5088760  95.5904150  44.1227400  84.1526460  94.1921850  43.6645580
  86.4163010  90.4212290  36.8978810  86.2930790  90.4398420  35.9488320
  87.3647570  90.4691230  37.0177210  80.5882600  92.0046710  32.8333730
  81.4373130  92.4416860  32.7673920  80.2213870  92.3166970  33.6605790
  89.5092380  96.5759470  37.7465300  88.5682520  96.5909700  37.9212990
  89.8236450  95.7895430  38.1925600  79.4874020  98.2579070  31.3069260
  80.2537290  98.1460430  31.8694690  79.5648710  97.5617040  30.6546030
  78.1820780  95.6904140  31.9902150  78.2624370  94.7431650  32.1019550
  79.0740530  96.0211020  32.0962810  75.7091580  97.5119060  47.2258320
  76.2130600  96.9326340  47.7974550  74.9699000  97.7959290  47.7634690
  77.7414660  95.6548650  48.1208390  77.7820000  95.3562520  49.0293620
  78.5960160  96.0556260  47.9615910  81.5193050  98.2544200  33.2811900
  81.9409470  98.0884070  34.1243290  81.6443890  97.4444430  32.7867040
  79.6820470  94.2340750  46.0882880  79.1516930  93.7431700  45.4606220
  80.3508540  94.6624950  45.5540810  84.0320690  97.2781810  30.5289000
  84.5526350  96.5630830  30.1630150  84.6789090  97.9167680  30.8289510
  89.0520700  96.0406370  47.8563220  89.6341470  95.2858690  47.7683700
  89.2282470  96.5713810  47.0794700  80.1692770  91.2003120  46.1680170
  80.0749640  90.5823870  45.4431040  79.5890160  91.9269410  45.9410080
  82.9354210  89.7576360  43.2007560  82.4871510  89.7800620  42.3553110
  82.3019410  89.3595380  43.7977860  85.6777660  96.3846870  45.2057840
  85.7973870  95.7888010  45.9452680  86.5371660  96.4216560  44.7859140
  88.0165560  96.9384060  43.7820350  87.4900780  97.4626680  43.1785490
  88.3596900  97.5711450  44.4130080  80.4151950  94.3277430  30.2270060
  80.2141010  93.4644790  30.5883400  80.2444000  94.2410790  29.2891660
  82.4446430  92.9268220  46.4633660  83.0346120  92.6184070  47.1511480
  81.6266670  92.4547970  46.6193560  87.2639860  92.5434030  46.6966680
  86.5755380  91.8815570  46.6316670  87.9845880  92.0972300  47.1415140
  87.8940260  89.1385660  32.7556940  88.1742550  88.2953560  33.1116360
  87.1205990  89.3708770  33.2695690  79.2134750  91.4278050  30.2147940
  79.5160650  91.4345480  29.3067090  79.9529340  91.0775910  30.7115600
  82.4319680  90.3712670  31.2004140  82.0841680  89.6936660  30.6206590
  82.6332450  89.9102180  32.0147530  75.7725320  96.9000320  37.5968510
  75.1174160  96.6311960  36.9528210  76.6103270  96.7904800  37.1470490
  88.7215760  91.6941610  31.8187000  89.1400640  91.5072590  30.9783660
  88.4151820  90.8420660  32.1289930  76.8101250  97.2852890  42.1371850
  77.1774290  97.1980290  43.0167870  76.2412070  96.5219440  42.0378710
  76.3617250  94.1961980  46.0430270  75.4673300  94.1628740  46.3823980
  76.9014800  94.3948770  46.8081520  90.0493180  90.9793700  47.9282020
  90.9263360  90.9877100  48.3116020  90.0614020  90.2424540  47.3174370
  74.9863400  94.1099250  33.5393840  74.0827480  94.3729450  33.3645500
  75.4704020  94.3810420  32.7593800  77.5290610  93.1664790  31.4488220
  78.2382310  92.7448010  30.9635500  76.8130550  93.2340020  30.8171570
  77.1764770  89.2204120  30.4890870  77.8992900  89.7613060  30.8072090
  77.4489290  88.9467540  29.6132410  90.9856420  94.0896590  34.7562450
  91.4815540  93.8567460  35.5411330  90.7872490  93.2508430  34.3400090
  76.8656960  88.4710310  40.3913490  77.5133150  87.9207690  39.9508650
  77.2858800  88.7253460  41.2129300  90.7609300  88.6651670  43.7483130
  91.3981520  89.2785810  44.1142320  90.9084190  88.7012330  42.8032360
  76.6188960  88.6265980  43.1338810  76.2703780  89.0829800  43.8996990
  76.2876660  87.7323110  43.2161240  84.1313780  89.8177860  46.6558230
  84.0702670  90.4099690  47.4053640  85.0714160  89.7103820  46.5108490
  86.7688340  89.4747920  46.2950520  87.3828750  89.7927210  45.6331600
  87.3137900  88.9896510  46.9146380  77.2909600  88.1542180  46.4089580
  77.8392590  87.9730230  45.6455690  77.3564910  87.3636290  46.9445890
  87.5096380  88.0380060  42.6219810  86.6356220  88.3715170  42.4192740
  87.4007130  87.5653240  43.4471680  88.4168360  90.2450930  44.0061530
  88.0881720  89.4302690  43.6263260  89.3650660  90.2020740  43.8827220
  85.2571200  88.9549900  41.5612720  84.4742990  89.4295400  41.8409480
  84.9634130  88.0504730  41.4525900  89.8092270  89.6573000  39.6061810
  90.2500360  89.6018100  38.7583410  89.5399860  90.5731010  39.6771990
  76.6011610  89.2597380  34.0826440  77.3590970  89.3726260  33.5090470
  76.1388780  90.0966580  34.0369870  83.1425420  91.3736650  37.0728750
  82.3299930  90.9993540  36.7324630  83.6467060  90.6181730  37.3749940
  87.6450400  88.0379100  38.3111820  88.2479770  88.6099310  38.7860340
  86.9043390  88.6018540  38.0885720  90.7885000  88.4400660  33.5852100
  90.9835630  89.3384110  33.8519530  90.0014870  88.2087740  34.0785050
  78.9736760  89.7861430  32.6228410  79.5029520  88.9991230  32.4936360
  79.6065080  90.4652620  32.8563940  81.1674600  89.5236570  35.6773800
  80.5377340  88.8223880  35.8443930  80.6279740  90.2840700  35.4606960
  81.2930160  88.8020550  48.1126290  81.0114430  89.3054150  47.3487110
  81.6749860  88.0042300  47.7468420  87.8945620  88.2174130  48.6906760
  87.7811070  88.5368740  49.5858280  88.7115360  88.6186640  48.3944040
  86.8003770  96.2366600  19.0541500  86.7197820  95.3221210  18.7833210
  86.3868190  96.7333670  18.3481210  84.9321810  98.0145620  20.9350770
  84.1563910  97.5346060  21.2249340  85.5834740  97.3351270  20.7606930
  78.9487640  98.3265430  21.8126530  78.1172520  98.0714140  22.2123040
  79.5568620  98.3976200  22.5484450  77.3579590  93.2867320  15.5968920
  76.4696290  93.6283290  15.4948800  77.6420780  93.0867640  14.7049750
  75.3212600  95.8872970  21.4808620  75.8928710  95.1195170  21.4812260
  75.3214140  96.1861730  20.5715230  76.5637470  91.2957330  23.2677550
  76.3840310  90.3983080  23.5480310  76.1617550  91.8429200  23.9424500
  85.4035970  93.4973190  21.1689860  85.7800790  92.6245070  21.0563530
  85.3055480  93.8331890  20.2780300  79.5340980  91.8698820  16.6307300
  79.6407730  92.7702550  16.9376060  78.6233340  91.8216790  16.3401950
  89.1860090  90.9923630  18.1018200  90.0069710  90.5020200  18.1443680
  89.2194170  91.5821290  18.8550040  77.1824140  93.7917830  21.8759890
  77.8634250  94.0556200  22.4947290  76.8672190  92.9518700  22.2097900
  81.3748710  94.8385190  20.9632480  81.8826930  95.3366160  21.6037500
  81.9061950  94.0620390  20.7871840  79.6584810  89.4783750  25.2295900
  79.6603250  89.9956140  24.4241800  78.8289120  89.0013930  25.2065830
  89.4221570  92.9324010  20.8745740  88.7177140  93.2208900  21.4548850
  89.7833730  93.7424120  20.5145300  79.3400140  91.1893710  23.2366350
  79.6816950  92.0335760  22.9420220  78.4015950  91.3377450  23.3531690
  83.0228030  88.6775980  19.5610940  83.3303010  88.1222870  18.8446440
  82.0928730  88.8120440  19.3783930  85.4108790  96.7424810  16.2971060
  84.4838070  96.6762190  16.5259530  85.5633610  97.6804940  16.1826300
  85.3977870  93.0141810  13.2938220  84.4581540  93.1755770  13.3790680
  85.7161130  93.7327490  12.7474210  89.4406080  98.3045110  16.8006310
  88.8218500  97.9664660  16.1532610  89.4230530  97.6604870  17.5085500
  88.8832640  94.4829650  24.2172120  88.4703820  95.3083360  24.4712110
  88.1508590  93.8974690  24.0248480  81.0165430  97.2689550  19.0790790
  80.6122430  96.5566800  18.5836690  81.1028550  96.9242790  19.9678830
  79.7294050  94.0432760  22.8589830  80.2808640  94.1528100  22.0843080
  80.2437560  94.4170360  23.5745060  87.6170780  97.5431920  13.8079060
  88.0564060  96.7054350  13.6616880  88.3299200  98.1761320  13.8943200
  79.4036780  97.5652120  26.4695170  79.2644550  98.4374920  26.8382570
  78.5218140  97.2224930  26.3243110  77.7170060  96.1634530  16.5797440
  77.5967660  96.8896620  15.9678710  77.4070950  95.3937440  16.1025350
  80.1833720  89.5069600  19.9621110  79.7401870  90.2879140  19.6305630
  80.7418710  89.8299490  20.6692050  84.4703530  92.3738120  25.5656430
  84.0082900  92.5821140  26.3776370  84.0681640  91.5597470  25.2627100
  89.4708040  93.5947070  26.6953090  88.6201630  93.2952820  27.0162160
  89.3109830  93.8389080  25.7836910  86.5657750  95.0948820  28.7951880
  86.8911160  94.2612570  28.4554110  87.3538080  95.6177340  28.9430210
  83.2992540  89.1280300  14.8426940  82.6746720  89.1240170  15.5680250
  83.2122660  88.2611260  14.4462910  82.2209620  90.0516930  21.8210710
  82.5181950  90.9579760  21.7402730  82.7695180  89.5635710  21.2070280
  79.9747940  94.6303170  17.6902360  79.7488860  94.4140340  18.5948980
  79.1940470  95.0631630  17.3448330  87.2045700  94.6366540  16.2893010
  86.6054590  95.3602340  16.1056630  87.7525310  94.5743320  15.5069460
  82.4147150  95.5288750  28.3562630  82.3190750  94.5883480  28.2063030
  83.2579130  95.7503820  27.9610700  85.8110570  93.2730080  18.3196290
  86.2040140  93.5902280  17.5064980  86.1727420  92.3941960  18.4340810
  77.5457690  91.9402420  26.5096410  77.1521080  92.7877630  26.7169190
  76.8576090  91.3028790  26.7005050  84.1202740  92.0237390  29.5793150
  83.4301060  91.8309590  30.2139240  84.8635040  92.3072030  30.1117450
  74.8474740  89.8630880  20.5426490  74.5587790  90.4333740  21.2551470
  75.5920500  89.3835330  20.9057720  75.0344970  93.8051000  11.7529210
  74.9519640  94.7481760  11.8944200  74.6828030  93.6625910  10.8741560
  86.3965710  95.8635830  22.4147070  85.6646830  96.3722640  22.7637170
  85.9990050  95.0465810  22.1135850  82.8343100  92.5390030  20.8199560
  82.8379160  92.0979980  19.9704100  83.7294220  92.8607360  20.9271380
  78.6845480  92.4216520  19.7793770  78.3445530  92.8991750  20.5360820
  77.9222800  91.9681640  19.4194870  82.8963250  93.5402110  13.8106320
  83.0176070  93.4988590  14.7592140  82.5111760  94.4026260  13.6553050
  86.8591620  91.3169510  21.8270010  86.8764360  91.7678160  22.6711860
  86.6107200  90.4175150  22.0403450  81.9084750  95.8503250  13.2089620
  81.3401650  95.4021500  12.5825530  82.6173750  96.2096030  12.6754770
  90.2862370  88.7301690  27.6656390  90.6108140  87.9991350  28.1914370
  90.3218880  88.4115330  26.7637380  83.1351070  96.5991810  22.5664970
  83.5021200  96.1250380  23.3126310  82.9456130  97.4733380  22.9073310
  75.9991560  91.3435500  18.6958440  75.7138480  90.9791170  19.5337060
  75.9370420  90.6115960  18.0821580  80.9250440  95.6400450  24.8849180
  80.6207510  96.5192430  25.1099540  81.8796900  95.7000240  24.9206620
  85.6730150  90.2364760  15.4171810  84.8594760  89.7377930  15.3417120
  85.4792100  91.0763010  15.0008160  88.3878540  94.6084410  13.7133970
  89.2758160  94.9201640  13.5385310  88.3583630  93.7356660  13.3214550
  76.9814170  96.4803190  26.0320540  76.6229110  97.1457040  26.6193880
  76.6868730  95.6486740  26.4033160  80.1827290  96.9387430  28.9160090
  79.8827430  97.0844610  28.0187910  80.9538530  96.3792720  28.8233480
  90.6592810  95.9196250  13.1813830  90.5756530  96.3510470  12.3310270
  91.3787000  96.3794600  13.6140650  75.4922220  96.4794450  12.6555140
  76.3617070  96.7619250  12.9391060  75.0012540  97.2930320  12.5403950
  82.6557030  97.8667660  16.7763420  83.1119810  98.6772910  17.0023610
  82.3045240  97.5490800  17.6081910  78.5568810  88.2105310  17.2485940
  78.4283440  88.2023210  18.1970860  77.7330830  88.5488400  16.8976950
  75.5562740  89.9696430  26.7092640  74.8421260  90.1693350  27.3145250
  75.9757780  89.1936000  27.0807440  87.0501520  92.4618740  24.4594090
  87.4182340  91.6413950  24.7873660  86.1899720  92.5220630  24.8749740
  90.4163550  91.4175680  15.2681650  89.7876710  91.5221350  14.5539880
  89.9215470  91.6372460  16.0575530  82.3847580  93.6961630  16.6839530
  81.6763730  94.1647970  17.1253140  82.6692060  93.0383640  17.3184720
  84.0103510  95.1158330  24.6832060  84.5088760  95.5904150  25.3483910
  84.1526460  94.1921850  24.8902090  86.4163010  90.4212290  18.1235320
  86.2930790  90.4398420  17.1744830  87.3647570  90.4691230  18.2433720
  80.5882600  92.0046710  14.0590240  81.4373130  92.4416860  13.9930430
  80.2213870  92.3166970  14.8862300  89.5092380  96.5759470  18.9721810
  88.5682520  96.5909700  19.1469500  89.8236450  95.7895430  19.4182110
  79.4874020  98.2579070  12.5325770  80.2537290  98.1460430  13.0951200
  79.5648710  97.5617040  11.8802540  78.1820780  95.6904140  13.2158660
  78.2624370  94.7431650  13.3276060  79.0740530  96.0211020  13.3219320
  75.7091580  97.5119060  28.4514830  76.2130600  96.9326340  29.0231060
  74.9699000  97.7959290  28.9891200  77.7414660  95.6548650  29.3464900
  77.7820000  95.3562520  30.2550130  78.5960160  96.0556260  29.1872420
  81.5193050  98.2544200  14.5068410  81.9409470  98.0884070  15.3499800
  81.6443890  97.4444430  14.0123550  79.6820470  94.2340750  27.3139390
  79.1516930  93.7431700  26.6862730  80.3508540  94.6624950  26.7797320
  84.0320690  97.2781810  11.7545510  84.5526350  96.5630830  11.3886660
  84.6789090  97.9167680  12.0546020  89.0520700  96.0406370  29.0819730
  89.6341470  95.2858690  28.9940210  89.2282470  96.5713810  28.3051210
  80.1692770  91.2003120  27.3936680  80.0749640  90.5823870  26.6687550
  79.5890160  91.9269410  27.1666590  82.9354210  89.7576360  24.4264070
  82.4871510  89.7800620  23.5809620  82.3019410  89.3595380  25.0234370
  85.6777660  96.3846870  26.4314350  85.7973870  95.7888010  27.1709190
  86.5371660  96.4216560  26.0115650  88.0165560  96.9384060  25.0076860
  87.4900780  97.4626680  24.4042000  88.3596900  97.5711450  25.6386590
  80.4151950  94.3277430  11.4526570  80.2141010  93.4644790  11.8139910
  80.2444000  94.2410790  10.5148170  82.4446430  92.9268220  27.6890170
  83.0346120  92.6184070  28.3767990  81.6266670  92.4547970  27.8450070
  87.2639860  92.5434030  27.9223190  86.5755380  91.8815570  27.8573180
  87.9845880  92.0972300  28.3671650  87.8940260  89.1385660  13.9813450
  88.1742550  88.2953560  14.3372870  87.1205990  89.3708770  14.4952200
  79.2134750  91.4278050  11.4404450  79.5160650  91.4345480  10.5323600
  79.9529340  91.0775910  11.9372110  82.4319680  90.3712670  12.4260650
  82.0841680  89.6936660  11.8463100  82.6332450  89.9102180  13.2404040
  75.7725320  96.9000320  18.8225020  75.1174160  96.6311960  18.1784720
  76.6103270  96.7904800  18.3727000  88.7215760  91.6941610  13.0443510
  89.1400640  91.5072590  12.2040170  88.4151820  90.8420660  13.3546440
  76.8101250  97.2852890  23.3628360  77.1774290  97.1980290  24.2424380
  76.2412070  96.5219440  23.2635220  76.3617250  94.1961980  27.2686780
  75.4673300  94.1628740  27.6080490  76.9014800  94.3948770  28.0338030
  90.0493180  90.9793700  29.1538530  90.9263360  90.9877100  29.5372530
  90.0614020  90.2424540  28.5430880  74.9863400  94.1099250  14.7650350
  74.0827480  94.3729450  14.5902010  75.4704020  94.3810420  13.9850310
  77.5290610  93.1664790  12.6744730  78.2382310  92.7448010  12.1892010
  76.8130550  93.2340020  12.0428080  77.1764770  89.2204120  11.7147380
  77.8992900  89.7613060  12.0328600  77.4489290  88.9467540  10.8388920
  90.9856420  94.0896590  15.9818960  91.4815540  93.8567460  16.7667840
  90.7872490  93.2508430  15.5656600  76.8656960  88.4710310  21.6170000
  77.5133150  87.9207690  21.1765160  77.2858800  88.7253460  22.4385810
  90.7609300  88.6651670  24.9739640  91.3981520  89.2785810  25.3398830
  90.9084190  88.7012330  24.0288870  76.6188960  88.6265980  24.3595320
  76.2703780  89.0829800  25.1253500  76.2876660  87.7323110  24.4417750
  84.1313780  89.8177860  27.8814740  84.0702670  90.4099690  28.6310150
  85.0714160  89.7103820  27.7365000  86.7688340  89.4747920  27.5207030
  87.3828750  89.7927210  26.8588110  87.3137900  88.9896510  28.1402890
  77.2909600  88.1542180  27.6346090  77.8392590  87.9730230  26.8712200
  77.3564910  87.3636290  28.1702400  87.5096380  88.0380060  23.8476320
  86.6356220  88.3715170  23.6449250  87.4007130  87.5653240  24.6728190
  88.4168360  90.2450930  25.2318040  88.0881720  89.4302690  24.8519770
  89.3650660  90.2020740  25.1083730  85.2571200  88.9549900  22.7869230
  84.4742990  89.4295400  23.0665990  84.9634130  88.0504730  22.6782410
  89.8092270  89.6573000  20.8318320  90.2500360  89.6018100  19.9839920
  89.5399860  90.5731010  20.9028500  76.6011610  89.2597380  15.3082950
  77.3590970  89.3726260  14.7346980  76.1388780  90.0966580  15.2626380
  83.1425420  91.3736650  18.2985260  82.3299930  90.9993540  17.9581140
  83.6467060  90.6181730  18.6006450  87.6450400  88.0379100  19.5368330
  88.2479770  88.6099310  20.0116850  86.9043390  88.6018540  19.3142230
  90.7885000  88.4400660  14.8108610  90.9835630  89.3384110  15.0776040
  90.0014870  88.2087740  15.3041560  78.9736760  89.7861430  13.8484920
  79.5029520  88.9991230  13.7192870  79.6065080  90.4652620  14.0820450
  81.1674600  89.5236570  16.9030310  80.5377340  88.8223880  17.0700440
  80.6279740  90.2840700  16.6863470  81.2930160  88.8020550  29.3382800
  81.0114430  89.3054150  28.5743620  81.6749860  88.0042300  28.9724930
  87.8945620  88.2174130  29.9163270  87.7811070  88.5368740  30.8114790
  88.7115360  88.6186640  29.6200550  84.9321810  98.0145620   2.1607280
  84.1563910  97.5346060   2.4505850  85.5834740  97.3351270   1.9863440
  78.9487640  98.3265430   3.0383040  78.1172520  98.0714140   3.4379550
  79.5568620  98.3976200   3.7740960  75.3212600  95.8872970   2.7065130
  75.8928710  95.1195170   2.7068770  75.3214140  96.1861730   1.7971740
  76.5637470  91.2957330   4.4934060  76.3840310  90.3983080   4.7736820
  76.1617550  91.8429200   5.1681010  85.4035970  93.4973190   2.3946370
  85.7800790  92.6245070   2.2820040  85.3055480  93.8331890   1.5036810
  77.1824140  93.7917830   3.1016400  77.8634250  94.0556200   3.7203800
  76.8672190  92.9518700   3.4354410  81.3748710  94.8385190   2.1888990
  81.8826930  95.3366160   2.8294010  81.9061950  94.0620390   2.0128350
  79.6584810  89.4783750   6.4552410  79.6603250  89.9956140   5.6498310
  78.8289120  89.0013930   6.4322340  89.4221570  92.9324010   2.1002250
  88.7177140  93.2208900   2.6805360  89.7833730  93.7424120   1.7401810
  79.3400140  91.1893710   4.4622860  79.6816950  92.0335760   4.1676730
  78.4015950  91.3377450   4.5788200  88.8832640  94.4829650   5.4428630
  88.4703820  95.3083360   5.6968620  88.1508590  93.8974690   5.2504990
  79.7294050  94.0432760   4.0846340  80.2808640  94.1528100   3.3099590
  80.2437560  94.4170360   4.8001570  79.4036780  97.5652120   7.6951680
  79.2644550  98.4374920   8.0639080  78.5218140  97.2224930   7.5499620
  84.4703530  92.3738120   6.7912940  84.0082900  92.5821140   7.6032880
  84.0681640  91.5597470   6.4883610  89.4708040  93.5947070   7.9209600
  88.6201630  93.2952820   8.2418670  89.3109830  93.8389080   7.0093420
  86.5657750  95.0948820  10.0208390  86.8911160  94.2612570   9.6810620
  87.3538080  95.6177340  10.1686720  82.2209620  90.0516930   3.0467220
  82.5181950  90.9579760   2.9659240  82.7695180  89.5635710   2.4326790
  82.4147150  95.5288750   9.5819140  82.3190750  94.5883480   9.4319540
  83.2579130  95.7503820   9.1867210  77.5457690  91.9402420   7.7352920
  77.1521080  92.7877630   7.9425700  76.8576090  91.3028790   7.9261560
  84.1202740  92.0237390  10.8049660  83.4301060  91.8309590  11.4395750
  84.8635040  92.3072030  11.3373960  74.8474740  89.8630880   1.7683000
  74.5587790  90.4333740   2.4807980  75.5920500  89.3835330   2.1314230
  86.3965710  95.8635830   3.6403580  85.6646830  96.3722640   3.9893680
  85.9990050  95.0465810   3.3392360  86.8591620  91.3169510   3.0526520
  86.8764360  91.7678160   3.8968370  86.6107200  90.4175150   3.2659960
  90.2862370  88.7301690   8.8912900  90.6108140  87.9991350   9.4170880
  90.3218880  88.4115330   7.9893890  83.1351070  96.5991810   3.7921480
  83.5021200  96.1250380   4.5382820  82.9456130  97.4733380   4.1329820
  80.9250440  95.6400450   6.1105690  80.6207510  96.5192430   6.3356050
  81.8796900  95.7000240   6.1463130  76.9814170  96.4803190   7.2577050
  76.6229110  97.1457040   7.8450390  76.6868730  95.6486740   7.6289670
  80.1827290  96.9387430  10.1416600  79.8827430  97.0844610   9.2444420
  80.9538530  96.3792720  10.0489990  75.5562740  89.9696430   7.9349150
  74.8421260  90.1693350   8.5401760  75.9757780  89.1936000   8.3063950
  87.0501520  92.4618740   5.6850600  87.4182340  91.6413950   6.0130170
  86.1899720  92.5220630   6.1006250  84.0103510  95.1158330   5.9088570
  84.5088760  95.5904150   6.5740420  84.1526460  94.1921850   6.1158600
  75.7091580  97.5119060   9.6771340  76.2130600  96.9326340  10.2487570
  74.9699000  97.7959290  10.2147710  77.7414660  95.6548650  10.5721410
  77.7820000  95.3562520  11.4806640  78.5960160  96.0556260  10.4128930
  79.6820470  94.2340750   8.5395900  79.1516930  93.7431700   7.9119240
  80.3508540  94.6624950   8.0053830  89.0520700  96.0406370  10.3076240
  89.6341470  95.2858690  10.2196720  89.2282470  96.5713810   9.5307720
  80.1692770  91.2003120   8.6193190  80.0749640  90.5823870   7.8944060
  79.5890160  91.9269410   8.3923100  82.9354210  89.7576360   5.6520580
  82.4871510  89.7800620   4.8066130  82.3019410  89.3595380   6.2490880
  85.6777660  96.3846870   7.6570860  85.7973870  95.7888010   8.3965700
  86.5371660  96.4216560   7.2372160  88.0165560  96.9384060   6.2333370
  87.4900780  97.4626680   5.6298510  88.3596900  97.5711450   6.8643100
  82.4446430  92.9268220   8.9146680  83.0346120  92.6184070   9.6024500
  81.6266670  92.4547970   9.0706580  87.2639860  92.5434030   9.1479700
  86.5755380  91.8815570   9.0829690  87.9845880  92.0972300   9.5928160
  76.8101250  97.2852890   4.5884870  77.1774290  97.1980290   5.4680890
  76.2412070  96.5219440   4.4891730  76.3617250  94.1961980   8.4943290
  75.4673300  94.1628740   8.8337000  76.9014800  94.3948770   9.2594540
  90.0493180  90.9793700  10.3795040  90.9263360  90.9877100  10.7629040
  90.0614020  90.2424540   9.7687390  76.8656960  88.4710310   2.8426510
  77.5133150  87.9207690   2.4021670  77.2858800  88.7253460   3.6642320
  90.7609300  88.6651670   6.1996150  91.3981520  89.2785810   6.5655340
  90.9084190  88.7012330   5.2545380  76.6188960  88.6265980   5.5851830
  76.2703780  89.0829800   6.3510010  76.2876660  87.7323110   5.6674260
  84.1313780  89.8177860   9.1071250  84.0702670  90.4099690   9.8566660
  85.0714160  89.7103820   8.9621510  86.7688340  89.4747920   8.7463540
  87.3828750  89.7927210   8.0844620  87.3137900  88.9896510   9.3659400
  77.2909600  88.1542180   8.8602600  77.8392590  87.9730230   8.0968710
  77.3564910  87.3636290   9.3958910  87.5096380  88.0380060   5.0732830
  86.6356220  88.3715170   4.8705760  87.4007130  87.5653240   5.8984700
  88.4168360  90.2450930   6.4574550  88.0881720  89.4302690   6.0776280
  89.3650660  90.2020740   6.3340240  85.2571200  88.9549900   4.0125740
  84.4742990  89.4295400   4.2922500  84.9634130  88.0504730   3.9038920
  81.2930160  88.8020550  10.5639310  81.0114430  89.3054150   9.8000130
  81.6749860  88.0042300  10.1981440  87.8945620  88.2174130  11.1419780
  87.7811070  88.5368740  12.0371300  88.7115360  88.6186640  10.8457060
  86.8003770  77.4623110  75.3771970  86.7197820  76.5477720  75.1063680
  86.3868190  77.9590180  74.6711680  88.9529240  83.6462320  76.0380370
  88.4910770  82.8749560  76.3667540  89.7654790  83.6728390  76.5432820
  77.3579590  74.5123830  71.9199390  76.4696290  74.8539800  71.8179270
  77.6420780  74.3124150  71.0280220  85.1792550  85.9320330  75.6584360
  84.5603990  86.3877830  75.0878800  86.0344330  86.0871790  75.2574060
  79.5340980  73.0955330  72.9537770  79.6407730  73.9959060  73.2606530
  78.6233340  73.0473300  72.6632420  89.1860090  72.2180140  74.4248670
  90.0069710  71.7276710  74.4674150  89.2194170  72.8077800  75.1780510
  86.0455900  80.8159570  73.0516270  85.4273170  81.2809020  72.4878990
  86.5579150  81.5087050  73.4685780  75.4139100  81.5016100  70.4255900
  75.0367080  81.9903200  69.6940800  75.6712170  82.1741380  71.0562430
  83.0228030  69.9032490  75.8841410  83.3303010  69.3479380  75.1676910
  82.0928730  70.0376950  75.7014400  89.8688510  82.3416000  73.2639040
  89.7584840  81.3990330  73.3888460  89.8656760  82.7031640  74.1501800
  85.4108790  77.9681320  72.6201530  84.4838070  77.9018700  72.8490000
  85.5633610  78.9061450  72.5056770  85.3977870  74.2398320  69.6168690
  84.4581540  74.4012280  69.7021150  85.7161130  74.9584000  69.0704680
  89.4406080  79.5301620  73.1236780  88.8218500  79.1921170  72.4763080
  89.4230530  78.8861380  73.8315970  81.0165430  78.4946060  75.4021260
  80.6122430  77.7823310  74.9067160  81.1028550  78.1499300  76.2909300
  87.6170780  78.7688430  70.1309530  88.0564060  77.9310860  69.9847350
  88.3299200  79.4017830  70.2173670  85.7266160  83.7084500  74.0990770
  86.1662070  84.4508830  73.6846160  85.6653050  83.9511070  75.0229730
  77.7170060  77.3891040  72.9027910  77.5967660  78.1153130  72.2909180
  77.4070950  76.6193950  72.4255820  76.6003060  82.2606370  75.1202730
  76.1931140  82.4020960  74.2656330  77.4916070  81.9766530  74.9173940
  88.3936340  86.6953620  71.4553780  88.2337480  86.4056560  72.3535610
  88.2283050  85.9193750  70.9199010  80.8724720  86.4752150  73.2325400
  80.6967200  85.5587690  73.0193200  80.0180460  86.8339440  73.4723200
  88.0962470  84.2041180  70.0151780  87.4027630  84.2018470  69.3554060
  88.8385330  83.7800500  69.5845950  87.6612400  85.8303890  74.0900270
  88.1169350  85.0493270  74.4038890  88.0004920  86.5410710  74.6341450
  80.1833720  70.7326110  76.2851580  79.7401870  71.5135650  75.9536100
  80.7418710  71.0556000  76.9922520  83.2992540  70.3536810  71.1657410
  82.6746720  70.3496680  71.8910720  83.2122660  69.4867770  70.7693380
  79.9747940  75.8559680  74.0132830  79.7488860  75.6396850  74.9179450
  79.1940470  76.2888140  73.6678800  87.2045700  75.8623050  72.6123480
  86.6054590  76.5858850  72.4287100  87.7525310  75.7999830  71.8299930
  85.8110570  74.4986590  74.6426760  86.2040140  74.8158790  73.8295450
  86.1727420  73.6198470  74.7571280  75.0344970  75.0307510  68.0759680
  74.9519640  75.9738270  68.2174670  74.6828030  74.8882420  67.1972030
  82.8343100  73.7646540  77.1430030  82.8379160  73.3236490  76.2934570
  83.7294220  74.0863870  77.2501850  78.6845480  73.6473030  76.1024240
  78.3445530  74.1248260  76.8591290  77.9222800  73.1938150  75.7425340
  82.8963250  74.7658620  70.1336790  83.0176070  74.7245100  71.0822610
  82.5111760  75.6282770  69.9783520  81.9084750  77.0759760  69.5320090
  81.3401650  76.6278010  68.9056000  82.6173750  77.4352540  68.9985240
  75.9991560  72.5692010  75.0188910  75.7138480  72.2047680  75.8567530
  75.9370420  71.8372470  74.4052050  79.4532230  81.0717950  71.8046500
  78.6794490  80.5315570  71.6445220  80.1826860  80.5524560  71.4664260
  85.6730150  71.4621270  71.7402280  84.8594760  70.9634440  71.6647590
  85.4792100  72.3019520  71.3238630  88.3878540  75.8340920  70.0364440
  89.2758160  76.1458150  69.8615780  88.3583630  74.9613170  69.6445020
  79.4969630  80.7398330  75.4425310  80.0148300  79.9366590  75.3882200
  79.0453650  80.6777470  76.2842140  84.3839130  82.0064610  70.7152610
  84.7254830  82.7506840  70.2195930  83.5551840  82.3195730  71.0777440
  90.6592810  77.1452760  69.5044300  90.5756530  77.5766980  68.6540740
  91.3787000  77.6051110  69.9371120  87.2666540  81.3280450  76.0798120
  87.6190360  80.7308580  75.4199490  86.3828870  81.0024680  76.2506370
  83.3529820  82.0878140  73.4868530  84.0400950  82.6347350  73.8676120
  82.5662240  82.6318870  73.5218140  75.4922220  77.7050960  68.9785610
  76.3617070  77.9875760  69.2621530  75.0012540  78.5186830  68.8634420
  82.6557030  79.0924170  73.0993890  83.1119810  79.9029420  73.3254080
  82.3045240  78.7747310  73.9312380  78.5568810  69.4361820  73.5716410
  78.4283440  69.4279720  74.5201330  77.7330830  69.7744910  73.2207420
  90.0777440  82.8911480  68.7702780  89.8515020  82.1741920  69.3627420
  89.6873640  82.6423920  67.9324530  75.8593470  86.9178340  69.5447240
  76.2191110  87.5167680  68.8904510  75.7185810  87.4638230  70.3182270
  89.6593690  80.8083420  70.4316940  89.3715390  81.2696110  71.2194820
  90.4545860  80.3481190  70.7001160  81.8762090  84.3009540  70.3620910
  81.8672190  85.0339230  69.7465420  80.9560450  84.0541120  70.4547870
  77.4768730  79.5224430  71.1067670  76.8696680  80.2623330  71.1162970
  77.9518080  79.6123790  70.2805870  90.4163550  72.6432190  71.5912120
  89.7876710  72.7477860  70.8770350  89.9215470  72.8628970  72.3806000
  84.8621690  84.3637780  69.0246100  84.9633670  84.1601770  68.0948080
  83.9623430  84.1096060  69.2293880  82.3847580  74.9218140  73.0070000
  81.6763730  75.3904480  73.4483610  82.6692060  74.2640150  73.6415190
  86.4163010  71.6468800  74.4465790  86.2930790  71.6654930  73.4975300
  87.3647570  71.6947740  74.5664190  83.5039800  86.8824100  73.7193770
  83.7581300  86.8445490  72.7973140  82.5552280  86.7557430  73.7122020
  80.5882600  73.2303220  70.3820710  81.4373130  73.6673370  70.3160900
  80.2213870  73.5423480  71.2092770  89.5092380  77.8015980  75.2952280
  88.5682520  77.8166210  75.4699970  89.8236450  77.0151940  75.7412580
  79.4874020  79.4835580  68.8556240  80.2537290  79.3716940  69.4181670
  79.5648710  78.7873550  68.2033010  78.1820780  76.9160650  69.5389130
  78.2624370  75.9688160  69.6506530  79.0740530  77.2467530  69.6449790
  78.9835490  87.0656040  76.6423670  79.7197970  86.5171500  76.9132240
  79.3676410  87.9312050  76.5029660  75.8680970  83.1329610  72.5165180
  74.9420750  83.3750750  72.5070590  76.3337400  83.9603870  72.3949930
  82.0937800  86.2386350  68.4649240  82.8866410  86.5275180  68.0131030
  81.5742150  85.8078520  67.7861720  91.1467970  85.4656480  69.8885980
  90.8609480  85.0521620  69.0740160  90.9487520  86.3944190  69.7686500
  82.6115200  81.4589760  68.3291590  82.5065840  80.8442110  69.0552970
  82.4439420  80.9355650  67.5454600  85.8517930  80.5209790  68.9333580
  85.3028030  80.9679090  69.5776320  86.4737190  80.0159040  69.4571250
  81.5193050  79.4800710  70.8298880  81.9409470  79.3140580  71.6730270
  81.6443890  78.6700940  70.3354020  84.0320690  78.5038320  68.0775980
  84.5526350  77.7887340  67.7117130  84.6789090  79.1424190  68.3776490
  80.4151950  75.5533940  67.7757040  80.2141010  74.6901300  68.1370380
  80.2444000  75.4667300  66.8378640  87.8940260  70.3642170  70.3043920
  88.1742550  69.5210070  70.6603340  87.1205990  70.5965280  70.8182670
  79.2134750  72.6534560  67.7634920  79.5160650  72.6601990  66.8554070
  79.9529340  72.3032420  68.2602580  82.4319680  71.5969180  68.7491120
  82.0841680  70.9193170  68.1693570  82.6332450  71.1358690  69.5634510
  84.5968720  86.5849930  70.3677720  85.4919510  86.9234900  70.3896480
  84.6286350  85.8629340  69.7402000  78.2364880  81.9576980  68.5964720
  78.6739750  82.5006650  69.2522300  78.7212610  81.1323930  68.6061060
  75.4510680  84.7466010  76.0484980  75.7813690  83.8787070  75.8163620
  75.8801680  84.9524530  76.8789940  80.0472600  83.0775020  73.7086950
  79.7468140  82.9539990  74.6090860  79.9410090  82.2183610  73.3002680
  75.7725320  78.1256830  75.1455490  75.1174160  77.8568470  74.5015190
  76.6103270  78.0161310  74.6957470  88.7215760  72.9198120  69.3673980
  89.1400640  72.7329100  68.5270640  88.4151820  72.0677170  69.6776910
  74.9863400  75.3355760  71.0880820  74.0827480  75.5985960  70.9132480
  75.4704020  75.6066930  70.3080780  77.5290610  74.3921300  68.9975200
  78.2382310  73.9704520  68.5122480  76.8130550  74.4596530  68.3658550
  77.1764770  70.4460630  68.0377850  77.8992900  70.9869570  68.3559070
  77.4489290  70.1724050  67.1619390  90.9856420  75.3153100  72.3049430
  91.4815540  75.0823970  73.0898310  90.7872490  74.4764940  71.8887070
  90.3190760  86.5924180  74.6988350  90.9149830  86.2708750  74.0222770
  90.5768910  86.1196000  75.4901620  89.8092270  70.8829510  77.1548790
  90.2500360  70.8274610  76.3070390  89.5399860  71.7987520  77.2258970
  75.9783590  86.6537110  74.1281560  75.8105630  86.0207790  74.8263450
  75.1118100  86.8596510  73.7775750  76.6011610  70.4853890  71.6313420
  77.3590970  70.5982770  71.0577450  76.1388780  71.3223090  71.5856850
  83.1425420  72.5993160  74.6215730  82.3299930  72.2250050  74.2811610
  83.6467060  71.8438240  74.9236920  87.6450400  69.2635610  75.8598800
  88.2479770  69.8355820  76.3347320  86.9043390  69.8275050  75.6372700
  90.7885000  69.6657170  71.1339080  90.9835630  70.5640620  71.4006510
  90.0014870  69.4344250  71.6272030  77.5846290  85.3470340  71.5731700
  77.0593910  85.7278370  70.8693660  77.5090870  85.9721110  72.2941410
  78.9736760  71.0117940  70.1715390  79.5029520  70.2247740  70.0423340
  79.6065080  71.6909130  70.4050920  81.1674600  70.7493080  73.2260780
  80.5377340  70.0480390  73.3930910  80.6279740  71.5097210  73.0093940
  80.1839260  87.2952720  70.4480950  80.9158080  87.0112000  69.9004840
  80.4432930  87.0566000  71.3380330  79.3454050  83.4117450  70.4527280
  78.7162930  83.8802550  71.0013110  79.4601880  82.5666670  70.8873470
  86.8003770  77.4623110  56.6028480  86.7197820  76.5477720  56.3320190
  86.3868190  77.9590180  55.8968190  84.9321810  79.2402130  58.4837750
  84.1563910  78.7602570  58.7736320  85.5834740  78.5607780  58.3093910
  78.9487640  79.5521940  59.3613510  78.1172520  79.2970650  59.7610020
  79.5568620  79.6232710  60.0971430  88.9529240  83.6462320  57.2636880
  88.4910770  82.8749560  57.5924050  89.7654790  83.6728390  57.7689330
  78.9288900  83.5862030  59.5571530  79.2316940  82.6959770  59.3781750
  79.6732490  84.1432250  59.3293780  77.3579590  74.5123830  53.1455900
  76.4696290  74.8539800  53.0435780  77.6420780  74.3124150  52.2536730
  75.3212600  77.1129480  59.0295600  75.8928710  76.3451680  59.0299240
  75.3214140  77.4118240  58.1202210  85.1792550  85.9320330  56.8840870
  84.5603990  86.3877830  56.3135310  86.0344330  86.0871790  56.4830570
  84.3730800  81.9159320  58.4907910  84.3039080  80.9749260  58.3297040
  85.1350660  82.0060730  59.0630480  76.5637470  72.5213840  60.8164530
  76.3840310  71.6239590  61.0967290  76.1617550  73.0685710  61.4911480
  85.4035970  74.7229700  58.7176840  85.7800790  73.8501580  58.6050510
  85.3055480  75.0588400  57.8267280  79.5340980  73.0955330  54.1794280
  79.6407730  73.9959060  54.4863040  78.6233340  73.0473300  53.8888930
  89.1860090  72.2180140  55.6505180  90.0069710  71.7276710  55.6930660
  89.2194170  72.8077800  56.4037020  77.1824140  75.0174340  59.4246870
  77.8634250  75.2812710  60.0434270  76.8672190  74.1775210  59.7584880
  81.3748710  76.0641700  58.5119460  81.8826930  76.5622670  59.1524480
  81.9061950  75.2876900  58.3358820  79.6584810  70.7040260  62.7782880
  79.6603250  71.2212650  61.9728780  78.8289120  70.2270440  62.7552810
  86.0455900  80.8159570  54.2772780  85.4273170  81.2809020  53.7135500
  86.5579150  81.5087050  54.6942290  80.9087660  80.3435440  60.9556380
  80.5757040  80.9704360  61.5977450  81.0854340  80.8697320  60.1758050
  89.4221570  74.1580520  58.4232720  88.7177140  74.4465410  59.0035830
  89.7833730  74.9680630  58.0632280  79.3400140  72.4150220  60.7853330
  79.6816950  73.2592270  60.4907200  78.4015950  72.5633960  60.9018670
  80.1206760  82.3116240  62.7705560  80.7380760  82.9867320  62.4890010
  79.2599880  82.7204220  62.6793060  75.4139100  81.5016100  51.6512410
  75.0367080  81.9903200  50.9197310  75.6712170  82.1741380  52.2818940
  83.0228030  69.9032490  57.1097920  83.3303010  69.3479380  56.3933420
  82.0928730  70.0376950  56.9270910  88.5743090  85.6199780  59.4005380
  88.5870250  85.2162070  58.5327640  88.0218310  86.3947070  59.2966810
  89.8688510  82.3416000  54.4895550  89.7584840  81.3990330  54.6144970
  89.8656760  82.7031640  55.3758310  87.9728530  80.5229620  60.7287990
  88.3897320  80.3089730  59.8941450  88.6968350  80.7802410  61.2996610
  85.4108790  77.9681320  53.8458040  84.4838070  77.9018700  54.0746510
  85.5633610  78.9061450  53.7313280  85.3977870  74.2398320  50.8425200
  84.4581540  74.4012280  50.9277660  85.7161130  74.9584000  50.2961190
  89.4406080  79.5301620  54.3493290  88.8218500  79.1921170  53.7019590
  89.4230530  78.8861380  55.0572480  88.8832640  75.7086160  61.7659100
  88.4703820  76.5339870  62.0199090  88.1508590  75.1231200  61.5735460
  81.0165430  78.4946060  56.6277770  80.6122430  77.7823310  56.1323670
  81.1028550  78.1499300  57.5165810  81.4847130  82.1813620  58.7916980
  81.1875420  81.5759090  58.1124760  82.4346950  82.2190930  58.6806340
  79.7294050  75.2689270  60.4076810  80.2808640  75.3784610  59.6330060
  80.2437560  75.6426870  61.1232040  89.5732740  85.7545490  62.4540080
  89.0963300  86.5617680  62.2612690  88.8894530  85.1023820  62.6066290
  80.5765560  81.9195310  65.4424780  79.6794090  82.1435280  65.6898180
  80.6018430  82.0430250  64.4936180  87.6170780  78.7688430  51.3566040
  88.0564060  77.9310860  51.2103860  88.3299200  79.4017830  51.4430180
  79.4036780  78.7908630  64.0182150  79.2644550  79.6631430  64.3869550
  78.5218140  78.4481440  63.8730090  85.7266160  83.7084500  55.3247280
  86.1662070  84.4508830  54.9102670  85.6653050  83.9511070  56.2486240
  81.2017130  84.7330330  66.2267300  81.1732560  85.1373280  65.3595730
  81.0382100  83.8040690  66.0638900  77.7170060  77.3891040  54.1284420
  77.5967660  78.1153130  53.5165690  77.4070950  76.6193950  53.6512330
  75.3555430  80.5606180  59.9353060  75.4335850  80.6954950  58.9908780
  75.9697110  79.8522070  60.1281180  76.6003060  82.2606370  56.3459240
  76.1931140  82.4020960  55.4912840  77.4916070  81.9766530  56.1430450
  86.4181940  86.4098280  63.2526290  86.9326610  86.3206290  64.0548720
  85.5751020  86.7557980  63.5454200  88.3936340  86.6953620  52.6810290
  88.2337480  86.4056560  53.5792120  88.2283050  85.9193750  52.1455520
  80.8724720  86.4752150  54.4581910  80.6967200  85.5587690  54.2449710
  80.0180460  86.8339440  54.6979710  88.0962470  84.2041180  51.2408290
  87.4027630  84.2018470  50.5810570  88.8385330  83.7800500  50.8102460
  87.6612400  85.8303890  55.3156780  88.1169350  85.0493270  55.6295400
  88.0004920  86.5410710  55.8597960  75.4114950  81.6020350  62.4747520
  75.5745990  81.1325710  61.6566890  75.8767400  81.0943910  63.1396360
  80.1833720  70.7326110  57.5108090  79.7401870  71.5135650  57.1792610
  80.7418710  71.0556000  58.2179030  84.4703530  73.5994630  63.1143410
  84.0082900  73.8077650  63.9263350  84.0681640  72.7853980  62.8114080
  89.4708040  74.8203580  64.2440070  88.6201630  74.5209330  64.5649140
  89.3109830  75.0645590  63.3323890  86.5657750  76.3205330  66.3438860
  86.8911160  75.4869080  66.0041090  87.3538080  76.8433850  66.4917190
  83.2992540  70.3536810  52.3913920  82.6746720  70.3496680  53.1167230
  83.2122660  69.4867770  51.9949890  82.2209620  71.2773440  59.3697690
  82.5181950  72.1836270  59.2889710  82.7695180  70.7892220  58.7557260
  79.9747940  75.8559680  55.2389340  79.7488860  75.6396850  56.1435960
  79.1940470  76.2888140  54.8935310  87.2045700  75.8623050  53.8379990
  86.6054590  76.5858850  53.6543610  87.7525310  75.7999830  53.0556440
  82.4147150  76.7545260  65.9049610  82.3190750  75.8139990  65.7550010
  83.2579130  76.9760330  65.5097680  85.8110570  74.4986590  55.8683270
  86.2040140  74.8158790  55.0551960  86.1727420  73.6198470  55.9827790
  77.5457690  73.1658930  64.0583390  77.1521080  74.0134140  64.2656170
  76.8576090  72.5285300  64.2492030  84.1202740  73.2493900  67.1280130
  83.4301060  73.0566100  67.7626220  84.8635040  73.5328540  67.6604430
  74.8474740  71.0887390  58.0913470  74.5587790  71.6590250  58.8038450
  75.5920500  70.6091840  58.4544700  75.0344970  75.0307510  49.3016190
  74.9519640  75.9738270  49.4431180  74.6828030  74.8882420  48.4228540
  86.3965710  77.0892340  59.9634050  85.6646830  77.5979150  60.3124150
  85.9990050  76.2722320  59.6622830  82.8343100  73.7646540  58.3686540
  82.8379160  73.3236490  57.5191080  83.7294220  74.0863870  58.4758360
  78.6845480  73.6473030  57.3280750  78.3445530  74.1248260  58.0847800
  77.9222800  73.1938150  56.9681850  82.8963250  74.7658620  51.3593300
  83.0176070  74.7245100  52.3079120  82.5111760  75.6282770  51.2040030
  86.8591620  72.5426020  59.3756990  86.8764360  72.9934670  60.2198840
  86.6107200  71.6431660  59.5890430  81.9084750  77.0759760  50.7576600
  81.3401650  76.6278010  50.1312510  82.6173750  77.4352540  50.2241750
  90.2862370  69.9558200  65.2143370  90.6108140  69.2247860  65.7401350
  90.3218880  69.6371840  64.3124360  76.9853930  80.9771780  64.6343330
  76.6008720  80.3365450  65.2326290  77.2966120  81.6807900  65.2038060
  83.1351070  77.8248320  60.1151950  83.5021200  77.3506890  60.8613290
  82.9456130  78.6989890  60.4560290  75.9991560  72.5692010  56.2445420
  75.7138480  72.2047680  57.0824040  75.9370420  71.8372470  55.6308560
  80.9250440  76.8656960  62.4336160  80.6207510  77.7448940  62.6586520
  81.8796900  76.9256750  62.4693600  79.4532230  81.0717950  53.0303010
  78.6794490  80.5315570  52.8701730  80.1826860  80.5524560  52.6920770
  90.2120210  80.0683310  58.8229400  90.9319330  80.5638600  58.4325510
  90.0102030  79.3901200  58.1783270  85.6730150  71.4621270  52.9658790
  84.8594760  70.9634440  52.8904100  85.4792100  72.3019520  52.5495140
  85.5939010  80.1392370  64.7098400  85.5276320  79.2188040  64.4555990
  84.9644150  80.2367810  65.4243040  88.3878540  75.8340920  51.2620950
  89.2758160  76.1458150  51.0872290  88.3583630  74.9613170  50.8701530
  79.4969630  80.7398330  56.6681820  80.0148300  79.9366590  56.6138710
  79.0453650  80.6777470  57.5098650  84.3839130  82.0064610  51.9409120
  84.7254830  82.7506840  51.4452440  83.5551840  82.3195730  52.3033950
  76.9814170  77.7059700  63.5807520  76.6229110  78.3713550  64.1680860
  76.6868730  76.8743250  63.9520140  80.1827290  78.1643940  66.4647070
  79.8827430  78.3101120  65.5674890  80.9538530  77.6049230  66.3720460
  85.5255740  82.9612940  64.4602200  85.5400280  82.0293900  64.2421110
  84.8180840  83.0472700  65.0991970  90.6592810  77.1452760  50.7300810
  90.5756530  77.5766980  49.8797250  91.3787000  77.6051110  51.1627630
  87.2666540  81.3280450  57.3054630  87.6190360  80.7308580  56.6456000
  86.3828870  81.0024680  57.4762880  83.3529820  82.0878140  54.7125040
  84.0400950  82.6347350  55.0932630  82.5662240  82.6318870  54.7474650
  75.4922220  77.7050960  50.2042120  76.3617070  77.9875760  50.4878040
  75.0012540  78.5186830  50.0890930  82.6557030  79.0924170  54.3250400
  83.1119810  79.9029420  54.5510590  82.3045240  78.7747310  55.1568890
  84.9589640  84.6030510  61.5542700  85.6031860  84.8089890  62.2316120
  85.3219080  83.8418910  61.1013550  78.5568810  69.4361820  54.7972920
  78.4283440  69.4279720  55.7457840  77.7330830  69.7744910  54.4463930
  86.2321720  82.6062860  60.2720150  86.8743950  81.9056020  60.3852320
  86.7571070  83.3861300  60.0917040  90.0777440  82.8911480  49.9959290
  89.8515020  82.1741920  50.5883930  89.6873640  82.6423920  49.1581040
  88.0059340  83.4057760  63.4756210  88.3415580  83.9924450  64.1534130
  87.0859680  83.2750470  63.7054000  75.8593470  86.9178340  50.7703750
  76.2191110  87.5167680  50.1161020  75.7185810  87.4638230  51.5438780
  75.5562740  71.1952940  64.2579620  74.8421260  71.3949860  64.8632230
  75.9757780  70.4192510  64.6294420  89.6593690  80.8083420  51.6573450
  89.3715390  81.2696110  52.4451330  90.4545860  80.3481190  51.9257670
  75.8435330  85.1833200  65.2446150  75.9526450  84.2427940  65.1041540
  75.1915890  85.4487950  64.5959880  83.8347920  83.4549090  66.6444270
  83.5144790  82.7358330  67.1889960  83.1606280  84.1304160  66.7180330
  81.8762090  84.3009540  51.5877420  81.8672190  85.0339230  50.9721930
  80.9560450  84.0541120  51.6804380  77.4768730  79.5224430  52.3324180
  76.8696680  80.2623330  52.3419480  77.9518080  79.6123790  51.5062380
  87.0501520  73.6875250  62.0081070  87.4182340  72.8670460  62.3360640
  86.1899720  73.7477140  62.4236720  90.4163550  72.6432190  52.8168630
  89.7876710  72.7477860  52.1026860  89.9215470  72.8628970  53.6062510
  84.8621690  84.3637780  50.2502610  84.9633670  84.1601770  49.3204590
  83.9623430  84.1096060  50.4550390  82.3847580  74.9218140  54.2326510
  81.6763730  75.3904480  54.6740120  82.6692060  74.2640150  54.8671700
  84.0103510  76.3414840  62.2319040  84.5088760  76.8160660  62.8970890
  84.1526460  75.4178360  62.4389070  86.4163010  71.6468800  55.6722300
  86.2930790  71.6654930  54.7231810  87.3647570  71.6947740  55.7920700
  83.5039800  86.8824100  54.9450280  83.7581300  86.8445490  54.0229650
  82.5552280  86.7557430  54.9378530  80.5882600  73.2303220  51.6077220
  81.4373130  73.6673370  51.5417410  80.2213870  73.5423480  52.4349280
  89.5092380  77.8015980  56.5208790  88.5682520  77.8166210  56.6956480
  89.8236450  77.0151940  56.9669090  79.4874020  79.4835580  50.0812750
  80.2537290  79.3716940  50.6438180  79.5648710  78.7873550  49.4289520
  78.1820780  76.9160650  50.7645640  78.2624370  75.9688160  50.8763040
  79.0740530  77.2467530  50.8706300  78.9835490  87.0656040  57.8680180
  79.7197970  86.5171500  58.1388750  79.3676410  87.9312050  57.7286170
  75.8680970  83.1329610  53.7421690  74.9420750  83.3750750  53.7327100
  76.3337400  83.9603870  53.6206440  77.9893770  86.2502110  67.0565760
  78.7906500  86.5714160  67.4701160  77.4745590  85.8897690  67.7785670
  82.0937800  86.2386350  49.6905750  82.8866410  86.5275180  49.2387540
  81.5742150  85.8078520  49.0118230  86.8258400  82.3581980  67.0041170
  86.2196560  82.3813580  66.2636920  86.5212510  81.6265020  67.5408420
  88.2558770  86.0862270  65.6150580  89.2080520  86.0020290  65.5650820
  88.1086990  86.7503980  66.2884370  91.1467970  85.4656480  51.1142490
  90.8609480  85.0521620  50.2996670  90.9487520  86.3944190  50.9943010
  75.7091580  78.7375570  66.0001810  76.2130600  78.1582850  66.5718040
  74.9699000  79.0215800  66.5378180  82.6115200  81.4589760  49.5548100
  82.5065840  80.8442110  50.2809480  82.4439420  80.9355650  48.7711110
  82.7629520  80.1446560  65.5337330  81.9975190  80.7131560  65.4492000
  82.9445480  79.8522770  64.6405560  85.8517930  80.5209790  50.1590090
  85.3028030  80.9679090  50.8032830  86.4737190  80.0159040  50.6827760
  89.9052870  81.8751890  66.0912350  90.6462340  82.2127650  65.5879810
  89.1425550  82.0443950  65.5382120  77.7414660  76.8805160  66.8951880
  77.7820000  76.5819030  67.8037110  78.5960160  77.2812770  66.7359400
  81.5193050  79.4800710  52.0555390  81.9409470  79.3140580  52.8986780
  81.6443890  78.6700940  51.5610530  79.6820470  75.4597260  64.8626370
  79.1516930  74.9688210  64.2349710  80.3508540  75.8881460  64.3284300
  84.0320690  78.5038320  49.3032490  84.5526350  77.7887340  48.9373640
  84.6789090  79.1424190  49.6033000  88.5798530  79.9266720  64.6267560
  88.9939550  80.0811800  65.4757980  87.6449530  80.0521940  64.7893340
  89.0520700  77.2662880  66.6306710  89.6341470  76.5115200  66.5427190
  89.2282470  77.7970320  65.8538190  80.1692770  72.4259630  64.9423660
  80.0749640  71.8080380  64.2174530  79.5890160  73.1525920  64.7153570
  82.9354210  70.9832870  61.9751050  82.4871510  71.0057130  61.1296600
  82.3019410  70.5851890  62.5721350  83.3413760  79.8787200  62.5963490
  83.7601870  80.7219930  62.4239730  82.4222390  80.0159240  62.3670270
  85.6777660  77.6103380  63.9801330  85.7973870  77.0144520  64.7196170
  86.5371660  77.6473070  63.5602630  88.0165560  78.1640570  62.5563840
  87.4900780  78.6883190  61.9528980  88.3596900  78.7967960  63.1873570
  80.4151950  75.5533940  49.0013550  80.2141010  74.6901300  49.3626890
  80.2444000  75.4667300  48.0635150  81.1921180  86.1840210  63.7121220
  80.6542270  86.9086270  63.3929920  81.4455140  85.7070550  62.9218560
  82.4446430  74.1524730  65.2377150  83.0346120  73.8440580  65.9254970
  81.6266670  73.6804480  65.3937050  87.2639860  73.7690540  65.4710170
  86.5755380  73.1072080  65.4060160  87.9845880  73.3228810  65.9158630
  87.8940260  70.3642170  51.5300430  88.1742550  69.5210070  51.8859850
  87.1205990  70.5965280  52.0439180  79.2134750  72.6534560  48.9891430
  79.5160650  72.6601990  48.0810580  79.9529340  72.3032420  49.4859090
  84.0483390  87.4191420  63.9707870  83.9742090  88.3226560  64.2780240
  83.1462230  87.1003320  63.9429940  82.4319680  71.5969180  49.9747630
  82.0841680  70.9193170  49.3950080  82.6332450  71.1358690  50.7891020
  84.5968720  86.5849930  51.5934230  85.4919510  86.9234900  51.6152990
  84.6286350  85.8629340  50.9658510  78.2364880  81.9576980  49.8221230
  78.6739750  82.5006650  50.4778810  78.7212610  81.1323930  49.8317570
  75.4510680  84.7466010  57.2741490  75.7813690  83.8787070  57.0420130
  75.8801680  84.9524530  58.1046450  80.0472600  83.0775020  54.9343460
  79.7468140  82.9539990  55.8347370  79.9410090  82.2183610  54.5259190
  75.9400890  85.6136600  60.0123120  75.5031880  85.7937400  60.8447270
  76.5078570  86.3711220  59.8704840  75.7725320  78.1256830  56.3712000
  75.1174160  77.8568470  55.7271700  76.6103270  78.0161310  55.9213980
  90.2614710  81.8405580  62.3976590  89.4474550  82.2702740  62.6602380
  90.6688910  82.4523990  61.7845640  88.7215760  72.9198120  50.5930490
  89.1400640  72.7329100  49.7527150  88.4151820  72.0677170  50.9033420
  76.8101250  78.5109400  60.9115340  77.1774290  78.4236800  61.7911360
  76.2412070  77.7475950  60.8122200  76.3617250  75.4218490  64.8173760
  75.4673300  75.3885250  65.1567470  76.9014800  75.6205280  65.5825010
  90.0493180  72.2050210  66.7025510  90.9263360  72.2133610  67.0859510
  90.0614020  71.4681050  66.0917860  74.9863400  75.3355760  52.3137330
  74.0827480  75.5985960  52.1388990  75.4704020  75.6066930  51.5337290
  77.5290610  74.3921300  50.2231710  78.2382310  73.9704520  49.7378990
  76.8130550  74.4596530  49.5915060  77.1764770  70.4460630  49.2634360
  77.8992900  70.9869570  49.5815580  77.4489290  70.1724050  48.3875900
  90.9856420  75.3153100  53.5305940  91.4815540  75.0823970  54.3154820
  90.7872490  74.4764940  53.1143580  76.8656960  69.6966820  59.1656980
  77.5133150  69.1464200  58.7252140  77.2858800  69.9509970  59.9872790
  90.7609300  69.8908180  62.5226620  91.3981520  70.5042320  62.8885810
  90.9084190  69.9268840  61.5775850  90.3190760  86.5924180  55.9244860
  90.9149830  86.2708750  55.2479280  90.5768910  86.1196000  56.7158130
  76.6188960  69.8522490  61.9082300  76.2703780  70.3086310  62.6740480
  76.2876660  68.9579620  61.9904730  78.2253330  83.0242090  66.0735490
  78.1822960  82.6535000  66.9549950  78.3564340  83.9619660  66.2137310
  81.9259360  84.5801680  61.6745210  81.6850720  84.8476240  60.7875730
  82.8662000  84.7507410  61.7296070  84.1313780  71.0434370  65.4301720
  84.0702670  71.6356200  66.1797130  85.0714160  70.9360330  65.2851980
  86.7688340  70.7004430  65.0694010  87.3828750  71.0183720  64.4075090
  87.3137900  70.2153020  65.6889870  77.2909600  69.3798690  65.1833070
  77.8392590  69.1986740  64.4199180  77.3564910  68.5892800  65.7189380
  78.0641360  85.9704340  63.1933270  77.4701680  85.8389040  63.9323310
  78.0565200  85.1342480  62.7275370  87.5096380  69.2636570  61.3963300
  86.6356220  69.5971680  61.1936230  87.4007130  68.7909750  62.2215170
  88.4168360  71.4707440  62.7805020  88.0881720  70.6559200  62.4006750
  89.3650660  71.4277250  62.6570710  90.8702970  87.2419480  59.7542590
  90.4105940  87.9935290  59.3800610  90.2415430  86.5225950  59.6957390
  77.6953590  83.3362720  62.1441310  76.9687650  82.7168010  62.0767260
  77.7562740  83.7303330  61.2739390  81.2998690  85.5507720  58.9290720
  81.8163710  84.9395080  58.4038980  81.9496070  86.0536500  59.4201730
  84.0394190  86.4416210  59.7559700  84.3272000  86.1870510  58.8792710
  84.5517410  85.8893570  60.3465270  85.2571200  70.1806410  60.3356210
  84.4742990  70.6551910  60.6152970  84.9634130  69.2761240  60.2269390
  89.8092270  70.8829510  58.3805300  90.2500360  70.8274610  57.5326900
  89.5399860  71.7987520  58.4515480  75.9783590  86.6537110  55.3538070
  75.8105630  86.0207790  56.0519960  75.1118100  86.8596510  55.0032260
  76.6011610  70.4853890  52.8569930  77.3590970  70.5982770  52.2833960
  76.1388780  71.3223090  52.8113360  83.1425420  72.5993160  55.8472240
  82.3299930  72.2250050  55.5068120  83.6467060  71.8438240  56.1493430
  87.6450400  69.2635610  57.0855310  88.2479770  69.8355820  57.5603830
  86.9043390  69.8275050  56.8629210  90.7885000  69.6657170  52.3595590
  90.9835630  70.5640620  52.6263020  90.0014870  69.4344250  52.8528540
  77.5846290  85.3470340  52.7988210  77.0593910  85.7278370  52.0950170
  77.5090870  85.9721110  53.5197920  78.9736760  71.0117940  51.3971900
  79.5029520  70.2247740  51.2679850  79.6065080  71.6909130  51.6307430
  81.1674600  70.7493080  54.4517290  80.5377340  70.0480390  54.6187420
  80.6279740  71.5097210  54.2350450  84.1066550  87.3632310  67.1227900
  85.0333860  87.1276580  67.1663860  84.0916980  88.1904310  66.6413930
  81.2930160  70.0277060  66.8869780  81.0114430  70.5310660  66.1230600
  81.6749860  69.2298810  66.5211910  80.1839260  87.2952720  51.6737460
  80.9158080  87.0112000  51.1261350  80.4432930  87.0566000  52.5636840
  79.3454050  83.4117450  51.6783790  78.7162930  83.8802550  52.2269620
  79.4601880  82.5666670  52.1129980  87.8945620  69.4430640  67.4650250
  87.7811070  69.7625250  68.3601770  88.7115360  69.8443150  67.1687530
  90.6744110  86.5902170  66.9468940  91.4669430  86.0951400  66.7394900
  90.9677260  87.2692310  67.5544550  86.8003770  77.4623110  37.8284990
  86.7197820  76.5477720  37.5576700  86.3868190  77.9590180  37.1224700
  84.9321810  79.2402130  39.7094260  84.1563910  78.7602570  39.9992830
  85.5834740  78.5607780  39.5350420  78.9487640  79.5521940  40.5870020
  78.1172520  79.2970650  40.9866530  79.5568620  79.6232710  41.3227940
  88.9529240  83.6462320  38.4893390  88.4910770  82.8749560  38.8180560
  89.7654790  83.6728390  38.9945840  78.9288900  83.5862030  40.7828040
  79.2316940  82.6959770  40.6038260  79.6732490  84.1432250  40.5550290
  77.3579590  74.5123830  34.3712410  76.4696290  74.8539800  34.2692290
  77.6420780  74.3124150  33.4793240  75.3212600  77.1129480  40.2552110
  75.8928710  76.3451680  40.2555750  75.3214140  77.4118240  39.3458720
  85.1792550  85.9320330  38.1097380  84.5603990  86.3877830  37.5391820
  86.0344330  86.0871790  37.7087080  84.3730800  81.9159320  39.7164420
  84.3039080  80.9749260  39.5553550  85.1350660  82.0060730  40.2886990
  76.5637470  72.5213840  42.0421040  76.3840310  71.6239590  42.3223800
  76.1617550  73.0685710  42.7167990  85.4035970  74.7229700  39.9433350
  85.7800790  73.8501580  39.8307020  85.3055480  75.0588400  39.0523790
  79.5340980  73.0955330  35.4050790  79.6407730  73.9959060  35.7119550
  78.6233340  73.0473300  35.1145440  89.1860090  72.2180140  36.8761690
  90.0069710  71.7276710  36.9187170  89.2194170  72.8077800  37.6293530
  77.1824140  75.0174340  40.6503380  77.8634250  75.2812710  41.2690780
  76.8672190  74.1775210  40.9841390  81.3748710  76.0641700  39.7375970
  81.8826930  76.5622670  40.3780990  81.9061950  75.2876900  39.5615330
  79.6584810  70.7040260  44.0039390  79.6603250  71.2212650  43.1985290
  78.8289120  70.2270440  43.9809320  86.0455900  80.8159570  35.5029290
  85.4273170  81.2809020  34.9392010  86.5579150  81.5087050  35.9198800
  80.9087660  80.3435440  42.1812890  80.5757040  80.9704360  42.8233960
  81.0854340  80.8697320  41.4014560  89.4221570  74.1580520  39.6489230
  88.7177140  74.4465410  40.2292340  89.7833730  74.9680630  39.2888790
  79.3400140  72.4150220  42.0109840  79.6816950  73.2592270  41.7163710
  78.4015950  72.5633960  42.1275180  80.1206760  82.3116240  43.9962070
  80.7380760  82.9867320  43.7146520  79.2599880  82.7204220  43.9049570
  75.4139100  81.5016100  32.8768920  75.0367080  81.9903200  32.1453820
  75.6712170  82.1741380  33.5075450  83.0228030  69.9032490  38.3354430
  83.3303010  69.3479380  37.6189930  82.0928730  70.0376950  38.1527420
  88.5743090  85.6199780  40.6261890  88.5870250  85.2162070  39.7584150
  88.0218310  86.3947070  40.5223320  89.8688510  82.3416000  35.7152060
  89.7584840  81.3990330  35.8401480  89.8656760  82.7031640  36.6014820
  87.9728530  80.5229620  41.9544500  88.3897320  80.3089730  41.1197960
  88.6968350  80.7802410  42.5253120  85.4108790  77.9681320  35.0714550
  84.4838070  77.9018700  35.3003020  85.5633610  78.9061450  34.9569790
  85.3977870  74.2398320  32.0681710  84.4581540  74.4012280  32.1534170
  85.7161130  74.9584000  31.5217700  89.4406080  79.5301620  35.5749800
  88.8218500  79.1921170  34.9276100  89.4230530  78.8861380  36.2828990
  88.8832640  75.7086160  42.9915610  88.4703820  76.5339870  43.2455600
  88.1508590  75.1231200  42.7991970  81.0165430  78.4946060  37.8534280
  80.6122430  77.7823310  37.3580180  81.1028550  78.1499300  38.7422320
  81.4847130  82.1813620  40.0173490  81.1875420  81.5759090  39.3381270
  82.4346950  82.2190930  39.9062850  79.7294050  75.2689270  41.6333320
  80.2808640  75.3784610  40.8586570  80.2437560  75.6426870  42.3488550
  89.5732740  85.7545490  43.6796590  89.0963300  86.5617680  43.4869200
  88.8894530  85.1023820  43.8322800  80.5765560  81.9195310  46.6681290
  79.6794090  82.1435280  46.9154690  80.6018430  82.0430250  45.7192690
  87.6170780  78.7688430  32.5822550  88.0564060  77.9310860  32.4360370
  88.3299200  79.4017830  32.6686690  79.4036780  78.7908630  45.2438660
  79.2644550  79.6631430  45.6126060  78.5218140  78.4481440  45.0986600
  85.7266160  83.7084500  36.5503790  86.1662070  84.4508830  36.1359180
  85.6653050  83.9511070  37.4742750  81.2017130  84.7330330  47.4523810
  81.1732560  85.1373280  46.5852240  81.0382100  83.8040690  47.2895410
  77.7170060  77.3891040  35.3540930  77.5967660  78.1153130  34.7422200
  77.4070950  76.6193950  34.8768840  75.3555430  80.5606180  41.1609570
  75.4335850  80.6954950  40.2165290  75.9697110  79.8522070  41.3537690
  76.6003060  82.2606370  37.5715750  76.1931140  82.4020960  36.7169350
  77.4916070  81.9766530  37.3686960  86.4181940  86.4098280  44.4782800
  86.9326610  86.3206290  45.2805230  85.5751020  86.7557980  44.7710710
  88.3936340  86.6953620  33.9066800  88.2337480  86.4056560  34.8048630
  88.2283050  85.9193750  33.3712030  80.8724720  86.4752150  35.6838420
  80.6967200  85.5587690  35.4706220  80.0180460  86.8339440  35.9236220
  88.0962470  84.2041180  32.4664800  87.4027630  84.2018470  31.8067080
  88.8385330  83.7800500  32.0358970  87.6612400  85.8303890  36.5413290
  88.1169350  85.0493270  36.8551910  88.0004920  86.5410710  37.0854470
  75.4114950  81.6020350  43.7004030  75.5745990  81.1325710  42.8823400
  75.8767400  81.0943910  44.3652870  80.1833720  70.7326110  38.7364600
  79.7401870  71.5135650  38.4049120  80.7418710  71.0556000  39.4435540
  84.4703530  73.5994630  44.3399920  84.0082900  73.8077650  45.1519860
  84.0681640  72.7853980  44.0370590  89.4708040  74.8203580  45.4696580
  88.6201630  74.5209330  45.7905650  89.3109830  75.0645590  44.5580400
  86.5657750  76.3205330  47.5695370  86.8911160  75.4869080  47.2297600
  87.3538080  76.8433850  47.7173700  83.2992540  70.3536810  33.6170430
  82.6746720  70.3496680  34.3423740  83.2122660  69.4867770  33.2206400
  82.2209620  71.2773440  40.5954200  82.5181950  72.1836270  40.5146220
  82.7695180  70.7892220  39.9813770  79.9747940  75.8559680  36.4645850
  79.7488860  75.6396850  37.3692470  79.1940470  76.2888140  36.1191820
  87.2045700  75.8623050  35.0636500  86.6054590  76.5858850  34.8800120
  87.7525310  75.7999830  34.2812950  82.4147150  76.7545260  47.1306120
  82.3190750  75.8139990  46.9806520  83.2579130  76.9760330  46.7354190
  85.8110570  74.4986590  37.0939780  86.2040140  74.8158790  36.2808470
  86.1727420  73.6198470  37.2084300  77.5457690  73.1658930  45.2839900
  77.1521080  74.0134140  45.4912680  76.8576090  72.5285300  45.4748540
  84.1202740  73.2493900  48.3536640  83.4301060  73.0566100  48.9882730
  84.8635040  73.5328540  48.8860940  74.8474740  71.0887390  39.3169980
  74.5587790  71.6590250  40.0294960  75.5920500  70.6091840  39.6801210
  75.0344970  75.0307510  30.5272700  74.9519640  75.9738270  30.6687690
  74.6828030  74.8882420  29.6485050  86.3965710  77.0892340  41.1890560
  85.6646830  77.5979150  41.5380660  85.9990050  76.2722320  40.8879340
  82.8343100  73.7646540  39.5943050  82.8379160  73.3236490  38.7447590
  83.7294220  74.0863870  39.7014870  78.6845480  73.6473030  38.5537260
  78.3445530  74.1248260  39.3104310  77.9222800  73.1938150  38.1938360
  82.8963250  74.7658620  32.5849810  83.0176070  74.7245100  33.5335630
  82.5111760  75.6282770  32.4296540  86.8591620  72.5426020  40.6013500
  86.8764360  72.9934670  41.4455350  86.6107200  71.6431660  40.8146940
  81.9084750  77.0759760  31.9833110  81.3401650  76.6278010  31.3569020
  82.6173750  77.4352540  31.4498260  90.2862370  69.9558200  46.4399880
  90.6108140  69.2247860  46.9657860  90.3218880  69.6371840  45.5380870
  76.9853930  80.9771780  45.8599840  76.6008720  80.3365450  46.4582800
  77.2966120  81.6807900  46.4294570  83.1351070  77.8248320  41.3408460
  83.5021200  77.3506890  42.0869800  82.9456130  78.6989890  41.6816800
  75.9991560  72.5692010  37.4701930  75.7138480  72.2047680  38.3080550
  75.9370420  71.8372470  36.8565070  80.9250440  76.8656960  43.6592670
  80.6207510  77.7448940  43.8843030  81.8796900  76.9256750  43.6950110
  79.4532230  81.0717950  34.2559520  78.6794490  80.5315570  34.0958240
  80.1826860  80.5524560  33.9177280  90.2120210  80.0683310  40.0485910
  90.9319330  80.5638600  39.6582020  90.0102030  79.3901200  39.4039780
  85.6730150  71.4621270  34.1915300  84.8594760  70.9634440  34.1160610
  85.4792100  72.3019520  33.7751650  85.5939010  80.1392370  45.9354910
  85.5276320  79.2188040  45.6812500  84.9644150  80.2367810  46.6499550
  88.3878540  75.8340920  32.4877460  89.2758160  76.1458150  32.3128800
  88.3583630  74.9613170  32.0958040  79.4969630  80.7398330  37.8938330
  80.0148300  79.9366590  37.8395220  79.0453650  80.6777470  38.7355160
  84.3839130  82.0064610  33.1665630  84.7254830  82.7506840  32.6708950
  83.5551840  82.3195730  33.5290460  76.9814170  77.7059700  44.8064030
  76.6229110  78.3713550  45.3937370  76.6868730  76.8743250  45.1776650
  80.1827290  78.1643940  47.6903580  79.8827430  78.3101120  46.7931400
  80.9538530  77.6049230  47.5976970  85.5255740  82.9612940  45.6858710
  85.5400280  82.0293900  45.4677620  84.8180840  83.0472700  46.3248480
  90.6592810  77.1452760  31.9557320  90.5756530  77.5766980  31.1053760
  91.3787000  77.6051110  32.3884140  87.2666540  81.3280450  38.5311140
  87.6190360  80.7308580  37.8712510  86.3828870  81.0024680  38.7019390
  83.3529820  82.0878140  35.9381550  84.0400950  82.6347350  36.3189140
  82.5662240  82.6318870  35.9731160  75.4922220  77.7050960  31.4298630
  76.3617070  77.9875760  31.7134550  75.0012540  78.5186830  31.3147440
  82.6557030  79.0924170  35.5506910  83.1119810  79.9029420  35.7767100
  82.3045240  78.7747310  36.3825400  84.9589640  84.6030510  42.7799210
  85.6031860  84.8089890  43.4572630  85.3219080  83.8418910  42.3270060
  78.5568810  69.4361820  36.0229430  78.4283440  69.4279720  36.9714350
  77.7330830  69.7744910  35.6720440  86.2321720  82.6062860  41.4976660
  86.8743950  81.9056020  41.6108830  86.7571070  83.3861300  41.3173550
  90.0777440  82.8911480  31.2215800  89.8515020  82.1741920  31.8140440
  89.6873640  82.6423920  30.3837550  88.0059340  83.4057760  44.7012720
  88.3415580  83.9924450  45.3790640  87.0859680  83.2750470  44.9310510
  75.8593470  86.9178340  31.9960260  76.2191110  87.5167680  31.3417530
  75.7185810  87.4638230  32.7695290  75.5562740  71.1952940  45.4836130
  74.8421260  71.3949860  46.0888740  75.9757780  70.4192510  45.8550930
  89.6593690  80.8083420  32.8829960  89.3715390  81.2696110  33.6707840
  90.4545860  80.3481190  33.1514180  75.8435330  85.1833200  46.4702660
  75.9526450  84.2427940  46.3298050  75.1915890  85.4487950  45.8216390
  83.8347920  83.4549090  47.8700780  83.5144790  82.7358330  48.4146470
  83.1606280  84.1304160  47.9436840  81.8762090  84.3009540  32.8133930
  81.8672190  85.0339230  32.1978440  80.9560450  84.0541120  32.9060890
  77.4768730  79.5224430  33.5580690  76.8696680  80.2623330  33.5675990
  77.9518080  79.6123790  32.7318890  87.0501520  73.6875250  43.2337580
  87.4182340  72.8670460  43.5617150  86.1899720  73.7477140  43.6493230
  90.4163550  72.6432190  34.0425140  89.7876710  72.7477860  33.3283370
  89.9215470  72.8628970  34.8319020  84.8621690  84.3637780  31.4759120
  84.9633670  84.1601770  30.5461100  83.9623430  84.1096060  31.6806900
  82.3847580  74.9218140  35.4583020  81.6763730  75.3904480  35.8996630
  82.6692060  74.2640150  36.0928210  84.0103510  76.3414840  43.4575550
  84.5088760  76.8160660  44.1227400  84.1526460  75.4178360  43.6645580
  86.4163010  71.6468800  36.8978810  86.2930790  71.6654930  35.9488320
  87.3647570  71.6947740  37.0177210  83.5039800  86.8824100  36.1706790
  83.7581300  86.8445490  35.2486160  82.5552280  86.7557430  36.1635040
  80.5882600  73.2303220  32.8333730  81.4373130  73.6673370  32.7673920
  80.2213870  73.5423480  33.6605790  89.5092380  77.8015980  37.7465300
  88.5682520  77.8166210  37.9212990  89.8236450  77.0151940  38.1925600
  79.4874020  79.4835580  31.3069260  80.2537290  79.3716940  31.8694690
  79.5648710  78.7873550  30.6546030  78.1820780  76.9160650  31.9902150
  78.2624370  75.9688160  32.1019550  79.0740530  77.2467530  32.0962810
  78.9835490  87.0656040  39.0936690  79.7197970  86.5171500  39.3645260
  79.3676410  87.9312050  38.9542680  75.8680970  83.1329610  34.9678200
  74.9420750  83.3750750  34.9583610  76.3337400  83.9603870  34.8462950
  77.9893770  86.2502110  48.2822270  78.7906500  86.5714160  48.6957670
  77.4745590  85.8897690  49.0042180  82.0937800  86.2386350  30.9162260
  82.8866410  86.5275180  30.4644050  81.5742150  85.8078520  30.2374740
  86.8258400  82.3581980  48.2297680  86.2196560  82.3813580  47.4893430
  86.5212510  81.6265020  48.7664930  88.2558770  86.0862270  46.8407090
  89.2080520  86.0020290  46.7907330  88.1086990  86.7503980  47.5140880
  91.1467970  85.4656480  32.3399000  90.8609480  85.0521620  31.5253180
  90.9487520  86.3944190  32.2199520  75.7091580  78.7375570  47.2258320
  76.2130600  78.1582850  47.7974550  74.9699000  79.0215800  47.7634690
  82.6115200  81.4589760  30.7804610  82.5065840  80.8442110  31.5065990
  82.4439420  80.9355650  29.9967620  82.7629520  80.1446560  46.7593840
  81.9975190  80.7131560  46.6748510  82.9445480  79.8522770  45.8662070
  85.8517930  80.5209790  31.3846600  85.3028030  80.9679090  32.0289340
  86.4737190  80.0159040  31.9084270  89.9052870  81.8751890  47.3168860
  90.6462340  82.2127650  46.8136320  89.1425550  82.0443950  46.7638630
  77.7414660  76.8805160  48.1208390  77.7820000  76.5819030  49.0293620
  78.5960160  77.2812770  47.9615910  81.5193050  79.4800710  33.2811900
  81.9409470  79.3140580  34.1243290  81.6443890  78.6700940  32.7867040
  79.6820470  75.4597260  46.0882880  79.1516930  74.9688210  45.4606220
  80.3508540  75.8881460  45.5540810  84.0320690  78.5038320  30.5289000
  84.5526350  77.7887340  30.1630150  84.6789090  79.1424190  30.8289510
  88.5798530  79.9266720  45.8524070  88.9939550  80.0811800  46.7014490
  87.6449530  80.0521940  46.0149850  89.0520700  77.2662880  47.8563220
  89.6341470  76.5115200  47.7683700  89.2282470  77.7970320  47.0794700
  80.1692770  72.4259630  46.1680170  80.0749640  71.8080380  45.4431040
  79.5890160  73.1525920  45.9410080  82.9354210  70.9832870  43.2007560
  82.4871510  71.0057130  42.3553110  82.3019410  70.5851890  43.7977860
  83.3413760  79.8787200  43.8220000  83.7601870  80.7219930  43.6496240
  82.4222390  80.0159240  43.5926780  85.6777660  77.6103380  45.2057840
  85.7973870  77.0144520  45.9452680  86.5371660  77.6473070  44.7859140
  88.0165560  78.1640570  43.7820350  87.4900780  78.6883190  43.1785490
  88.3596900  78.7967960  44.4130080  80.4151950  75.5533940  30.2270060
  80.2141010  74.6901300  30.5883400  80.2444000  75.4667300  29.2891660
  81.1921180  86.1840210  44.9377730  80.6542270  86.9086270  44.6186430
  81.4455140  85.7070550  44.1475070  82.4446430  74.1524730  46.4633660
  83.0346120  73.8440580  47.1511480  81.6266670  73.6804480  46.6193560
  87.2639860  73.7690540  46.6966680  86.5755380  73.1072080  46.6316670
  87.9845880  73.3228810  47.1415140  87.8940260  70.3642170  32.7556940
  88.1742550  69.5210070  33.1116360  87.1205990  70.5965280  33.2695690
  79.2134750  72.6534560  30.2147940  79.5160650  72.6601990  29.3067090
  79.9529340  72.3032420  30.7115600  84.0483390  87.4191420  45.1964380
  83.9742090  88.3226560  45.5036750  83.1462230  87.1003320  45.1686450
  82.4319680  71.5969180  31.2004140  82.0841680  70.9193170  30.6206590
  82.6332450  71.1358690  32.0147530  84.5968720  86.5849930  32.8190740
  85.4919510  86.9234900  32.8409500  84.6286350  85.8629340  32.1915020
  78.2364880  81.9576980  31.0477740  78.6739750  82.5006650  31.7035320
  78.7212610  81.1323930  31.0574080  75.4510680  84.7466010  38.4998000
  75.7813690  83.8787070  38.2676640  75.8801680  84.9524530  39.3302960
  80.0472600  83.0775020  36.1599970  79.7468140  82.9539990  37.0603880
  79.9410090  82.2183610  35.7515700  75.9400890  85.6136600  41.2379630
  75.5031880  85.7937400  42.0703780  76.5078570  86.3711220  41.0961350
  75.7725320  78.1256830  37.5968510  75.1174160  77.8568470  36.9528210
  76.6103270  78.0161310  37.1470490  90.2614710  81.8405580  43.6233100
  89.4474550  82.2702740  43.8858890  90.6688910  82.4523990  43.0102150
  88.7215760  72.9198120  31.8187000  89.1400640  72.7329100  30.9783660
  88.4151820  72.0677170  32.1289930  76.8101250  78.5109400  42.1371850
  77.1774290  78.4236800  43.0167870  76.2412070  77.7475950  42.0378710
  76.3617250  75.4218490  46.0430270  75.4673300  75.3885250  46.3823980
  76.9014800  75.6205280  46.8081520  90.0493180  72.2050210  47.9282020
  90.9263360  72.2133610  48.3116020  90.0614020  71.4681050  47.3174370
  74.9863400  75.3355760  33.5393840  74.0827480  75.5985960  33.3645500
  75.4704020  75.6066930  32.7593800  77.5290610  74.3921300  31.4488220
  78.2382310  73.9704520  30.9635500  76.8130550  74.4596530  30.8171570
  77.1764770  70.4460630  30.4890870  77.8992900  70.9869570  30.8072090
  77.4489290  70.1724050  29.6132410  90.9856420  75.3153100  34.7562450
  91.4815540  75.0823970  35.5411330  90.7872490  74.4764940  34.3400090
  76.8656960  69.6966820  40.3913490  77.5133150  69.1464200  39.9508650
  77.2858800  69.9509970  41.2129300  90.7609300  69.8908180  43.7483130
  91.3981520  70.5042320  44.1142320  90.9084190  69.9268840  42.8032360
  90.3190760  86.5924180  37.1501370  90.9149830  86.2708750  36.4735790
  90.5768910  86.1196000  37.9414640  76.6188960  69.8522490  43.1338810
  76.2703780  70.3086310  43.8996990  76.2876660  68.9579620  43.2161240
  78.2253330  83.0242090  47.2992000  78.1822960  82.6535000  48.1806460
  78.3564340  83.9619660  47.4393820  81.9259360  84.5801680  42.9001720
  81.6850720  84.8476240  42.0132240  82.8662000  84.7507410  42.9552580
  84.1313780  71.0434370  46.6558230  84.0702670  71.6356200  47.4053640
  85.0714160  70.9360330  46.5108490  86.7688340  70.7004430  46.2950520
  87.3828750  71.0183720  45.6331600  87.3137900  70.2153020  46.9146380
  77.2909600  69.3798690  46.4089580  77.8392590  69.1986740  45.6455690
  77.3564910  68.5892800  46.9445890  78.0641360  85.9704340  44.4189780
  77.4701680  85.8389040  45.1579820  78.0565200  85.1342480  43.9531880
  87.5096380  69.2636570  42.6219810  86.6356220  69.5971680  42.4192740
  87.4007130  68.7909750  43.4471680  88.4168360  71.4707440  44.0061530
  88.0881720  70.6559200  43.6263260  89.3650660  71.4277250  43.8827220
  90.8702970  87.2419480  40.9799100  90.4105940  87.9935290  40.6057120
  90.2415430  86.5225950  40.9213900  77.6953590  83.3362720  43.3697820
  76.9687650  82.7168010  43.3023770  77.7562740  83.7303330  42.4995900
  81.2998690  85.5507720  40.1547230  81.8163710  84.9395080  39.6295490
  81.9496070  86.0536500  40.6458240  84.0394190  86.4416210  40.9816210
  84.3272000  86.1870510  40.1049220  84.5517410  85.8893570  41.5721780
  85.2571200  70.1806410  41.5612720  84.4742990  70.6551910  41.8409480
  84.9634130  69.2761240  41.4525900  89.8092270  70.8829510  39.6061810
  90.2500360  70.8274610  38.7583410  89.5399860  71.7987520  39.6771990
  75.9783590  86.6537110  36.5794580  75.8105630  86.0207790  37.2776470
  75.1118100  86.8596510  36.2288770  76.6011610  70.4853890  34.0826440
  77.3590970  70.5982770  33.5090470  76.1388780  71.3223090  34.0369870
  83.1425420  72.5993160  37.0728750  82.3299930  72.2250050  36.7324630
  83.6467060  71.8438240  37.3749940  87.6450400  69.2635610  38.3111820
  88.2479770  69.8355820  38.7860340  86.9043390  69.8275050  38.0885720
  90.7885000  69.6657170  33.5852100  90.9835630  70.5640620  33.8519530
  90.0014870  69.4344250  34.0785050  77.5846290  85.3470340  34.0244720
  77.0593910  85.7278370  33.3206680  77.5090870  85.9721110  34.7454430
  78.9736760  71.0117940  32.6228410  79.5029520  70.2247740  32.4936360
  79.6065080  71.6909130  32.8563940  81.1674600  70.7493080  35.6773800
  80.5377340  70.0480390  35.8443930  80.6279740  71.5097210  35.4606960
  84.1066550  87.3632310  48.3484410  85.0333860  87.1276580  48.3920370
  84.0916980  88.1904310  47.8670440  81.2930160  70.0277060  48.1126290
  81.0114430  70.5310660  47.3487110  81.6749860  69.2298810  47.7468420
  80.1839260  87.2952720  32.8993970  80.9158080  87.0112000  32.3517860
  80.4432930  87.0566000  33.7893350  79.3454050  83.4117450  32.9040300
  78.7162930  83.8802550  33.4526130  79.4601880  82.5666670  33.3386490
  87.8945620  69.4430640  48.6906760  87.7811070  69.7625250  49.5858280
  88.7115360  69.8443150  48.3944040  90.6744110  86.5902170  48.1725450
  91.4669430  86.0951400  47.9651410  90.9677260  87.2692310  48.7801060
  86.8003770  77.4623110  19.0541500  86.7197820  76.5477720  18.7833210
  86.3868190  77.9590180  18.3481210  84.9321810  79.2402130  20.9350770
  84.1563910  78.7602570  21.2249340  85.5834740  78.5607780  20.7606930
  78.9487640  79.5521940  21.8126530  78.1172520  79.2970650  22.2123040
  79.5568620  79.6232710  22.5484450  88.9529240  83.6462320  19.7149900
  88.4910770  82.8749560  20.0437070  89.7654790  83.6728390  20.2202350
  78.9288900  83.5862030  22.0084550  79.2316940  82.6959770  21.8294770
  79.6732490  84.1432250  21.7806800  77.3579590  74.5123830  15.5968920
  76.4696290  74.8539800  15.4948800  77.6420780  74.3124150  14.7049750
  75.3212600  77.1129480  21.4808620  75.8928710  76.3451680  21.4812260
  75.3214140  77.4118240  20.5715230  85.1792550  85.9320330  19.3353890
  84.5603990  86.3877830  18.7648330  86.0344330  86.0871790  18.9343590
  84.3730800  81.9159320  20.9420930  84.3039080  80.9749260  20.7810060
  85.1350660  82.0060730  21.5143500  76.5637470  72.5213840  23.2677550
  76.3840310  71.6239590  23.5480310  76.1617550  73.0685710  23.9424500
  85.4035970  74.7229700  21.1689860  85.7800790  73.8501580  21.0563530
  85.3055480  75.0588400  20.2780300  79.5340980  73.0955330  16.6307300
  79.6407730  73.9959060  16.9376060  78.6233340  73.0473300  16.3401950
  89.1860090  72.2180140  18.1018200  90.0069710  71.7276710  18.1443680
  89.2194170  72.8077800  18.8550040  77.1824140  75.0174340  21.8759890
  77.8634250  75.2812710  22.4947290  76.8672190  74.1775210  22.2097900
  81.3748710  76.0641700  20.9632480  81.8826930  76.5622670  21.6037500
  81.9061950  75.2876900  20.7871840  79.6584810  70.7040260  25.2295900
  79.6603250  71.2212650  24.4241800  78.8289120  70.2270440  25.2065830
  86.0455900  80.8159570  16.7285800  85.4273170  81.2809020  16.1648520
  86.5579150  81.5087050  17.1455310  80.9087660  80.3435440  23.4069400
  80.5757040  80.9704360  24.0490470  81.0854340  80.8697320  22.6271070
  89.4221570  74.1580520  20.8745740  88.7177140  74.4465410  21.4548850
  89.7833730  74.9680630  20.5145300  79.3400140  72.4150220  23.2366350
  79.6816950  73.2592270  22.9420220  78.4015950  72.5633960  23.3531690
  80.1206760  82.3116240  25.2218580  80.7380760  82.9867320  24.9403030
  79.2599880  82.7204220  25.1306080  75.4139100  81.5016100  14.1025430
  75.0367080  81.9903200  13.3710330  75.6712170  82.1741380  14.7331960
  83.0228030  69.9032490  19.5610940  83.3303010  69.3479380  18.8446440
  82.0928730  70.0376950  19.3783930  88.5743090  85.6199780  21.8518400
  88.5870250  85.2162070  20.9840660  88.0218310  86.3947070  21.7479830
  89.8688510  82.3416000  16.9408570  89.7584840  81.3990330  17.0657990
  89.8656760  82.7031640  17.8271330  87.9728530  80.5229620  23.1801010
  88.3897320  80.3089730  22.3454470  88.6968350  80.7802410  23.7509630
  85.4108790  77.9681320  16.2971060  84.4838070  77.9018700  16.5259530
  85.5633610  78.9061450  16.1826300  85.3977870  74.2398320  13.2938220
  84.4581540  74.4012280  13.3790680  85.7161130  74.9584000  12.7474210
  89.4406080  79.5301620  16.8006310  88.8218500  79.1921170  16.1532610
  89.4230530  78.8861380  17.5085500  88.8832640  75.7086160  24.2172120
  88.4703820  76.5339870  24.4712110  88.1508590  75.1231200  24.0248480
  81.0165430  78.4946060  19.0790790  80.6122430  77.7823310  18.5836690
  81.1028550  78.1499300  19.9678830  81.4847130  82.1813620  21.2430000
  81.1875420  81.5759090  20.5637780  82.4346950  82.2190930  21.1319360
  79.7294050  75.2689270  22.8589830  80.2808640  75.3784610  22.0843080
  80.2437560  75.6426870  23.5745060  89.5732740  85.7545490  24.9053100
  89.0963300  86.5617680  24.7125710  88.8894530  85.1023820  25.0579310
  80.5765560  81.9195310  27.8937800  79.6794090  82.1435280  28.1411200
  80.6018430  82.0430250  26.9449200  87.6170780  78.7688430  13.8079060
  88.0564060  77.9310860  13.6616880  88.3299200  79.4017830  13.8943200
  79.4036780  78.7908630  26.4695170  79.2644550  79.6631430  26.8382570
  78.5218140  78.4481440  26.3243110  85.7266160  83.7084500  17.7760300
  86.1662070  84.4508830  17.3615690  85.6653050  83.9511070  18.6999260
  81.2017130  84.7330330  28.6780320  81.1732560  85.1373280  27.8108750
  81.0382100  83.8040690  28.5151920  77.7170060  77.3891040  16.5797440
  77.5967660  78.1153130  15.9678710  77.4070950  76.6193950  16.1025350
  75.3555430  80.5606180  22.3866080  75.4335850  80.6954950  21.4421800
  75.9697110  79.8522070  22.5794200  76.6003060  82.2606370  18.7972260
  76.1931140  82.4020960  17.9425860  77.4916070  81.9766530  18.5943470
  86.4181940  86.4098280  25.7039310  86.9326610  86.3206290  26.5061740
  85.5751020  86.7557980  25.9967220  88.3936340  86.6953620  15.1323310
  88.2337480  86.4056560  16.0305140  88.2283050  85.9193750  14.5968540
  80.8724720  86.4752150  16.9094930  80.6967200  85.5587690  16.6962730
  80.0180460  86.8339440  17.1492730  88.0962470  84.2041180  13.6921310
  87.4027630  84.2018470  13.0323590  88.8385330  83.7800500  13.2615480
  87.6612400  85.8303890  17.7669800  88.1169350  85.0493270  18.0808420
  88.0004920  86.5410710  18.3110980  75.4114950  81.6020350  24.9260540
  75.5745990  81.1325710  24.1079910  75.8767400  81.0943910  25.5909380
  80.1833720  70.7326110  19.9621110  79.7401870  71.5135650  19.6305630
  80.7418710  71.0556000  20.6692050  84.4703530  73.5994630  25.5656430
  84.0082900  73.8077650  26.3776370  84.0681640  72.7853980  25.2627100
  89.4708040  74.8203580  26.6953090  88.6201630  74.5209330  27.0162160
  89.3109830  75.0645590  25.7836910  86.5657750  76.3205330  28.7951880
  86.8911160  75.4869080  28.4554110  87.3538080  76.8433850  28.9430210
  83.2992540  70.3536810  14.8426940  82.6746720  70.3496680  15.5680250
  83.2122660  69.4867770  14.4462910  82.2209620  71.2773440  21.8210710
  82.5181950  72.1836270  21.7402730  82.7695180  70.7892220  21.2070280
  79.9747940  75.8559680  17.6902360  79.7488860  75.6396850  18.5948980
  79.1940470  76.2888140  17.3448330  87.2045700  75.8623050  16.2893010
  86.6054590  76.5858850  16.1056630  87.7525310  75.7999830  15.5069460
  82.4147150  76.7545260  28.3562630  82.3190750  75.8139990  28.2063030
  83.2579130  76.9760330  27.9610700  85.8110570  74.4986590  18.3196290
  86.2040140  74.8158790  17.5064980  86.1727420  73.6198470  18.4340810
  77.5457690  73.1658930  26.5096410  77.1521080  74.0134140  26.7169190
  76.8576090  72.5285300  26.7005050  84.1202740  73.2493900  29.5793150
  83.4301060  73.0566100  30.2139240  84.8635040  73.5328540  30.1117450
  74.8474740  71.0887390  20.5426490  74.5587790  71.6590250  21.2551470
  75.5920500  70.6091840  20.9057720  75.0344970  75.0307510  11.7529210
  74.9519640  75.9738270  11.8944200  74.6828030  74.8882420  10.8741560
  86.3965710  77.0892340  22.4147070  85.6646830  77.5979150  22.7637170
  85.9990050  76.2722320  22.1135850  82.8343100  73.7646540  20.8199560
  82.8379160  73.3236490  19.9704100  83.7294220  74.0863870  20.9271380
  78.6845480  73.6473030  19.7793770  78.3445530  74.1248260  20.5360820
  77.9222800  73.1938150  19.4194870  82.8963250  74.7658620  13.8106320
  83.0176070  74.7245100  14.7592140  82.5111760  75.6282770  13.6553050
  86.8591620  72.5426020  21.8270010  86.8764360  72.9934670  22.6711860
  86.6107200  71.6431660  22.0403450  81.9084750  77.0759760  13.2089620
  81.3401650  76.6278010  12.5825530  82.6173750  77.4352540  12.6754770
  90.2862370  69.9558200  27.6656390  90.6108140  69.2247860  28.1914370
  90.3218880  69.6371840  26.7637380  76.9853930  80.9771780  27.0856350
  76.6008720  80.3365450  27.6839310  77.2966120  81.6807900  27.6551080
  83.1351070  77.8248320  22.5664970  83.5021200  77.3506890  23.3126310
  82.9456130  78.6989890  22.9073310  75.9991560  72.5692010  18.6958440
  75.7138480  72.2047680  19.5337060  75.9370420  71.8372470  18.0821580
  80.9250440  76.8656960  24.8849180  80.6207510  77.7448940  25.1099540
  81.8796900  76.9256750  24.9206620  79.4532230  81.0717950  15.4816030
  78.6794490  80.5315570  15.3214750  80.1826860  80.5524560  15.1433790
  90.2120210  80.0683310  21.2742420  90.9319330  80.5638600  20.8838530
  90.0102030  79.3901200  20.6296290  85.6730150  71.4621270  15.4171810
  84.8594760  70.9634440  15.3417120  85.4792100  72.3019520  15.0008160
  85.5939010  80.1392370  27.1611420  85.5276320  79.2188040  26.9069010
  84.9644150  80.2367810  27.8756060  88.3878540  75.8340920  13.7133970
  89.2758160  76.1458150  13.5385310  88.3583630  74.9613170  13.3214550
  79.4969630  80.7398330  19.1194840  80.0148300  79.9366590  19.0651730
  79.0453650  80.6777470  19.9611670  84.3839130  82.0064610  14.3922140
  84.7254830  82.7506840  13.8965460  83.5551840  82.3195730  14.7546970
  76.9814170  77.7059700  26.0320540  76.6229110  78.3713550  26.6193880
  76.6868730  76.8743250  26.4033160  80.1827290  78.1643940  28.9160090
  79.8827430  78.3101120  28.0187910  80.9538530  77.6049230  28.8233480
  85.5255740  82.9612940  26.9115220  85.5400280  82.0293900  26.6934130
  84.8180840  83.0472700  27.5504990  90.6592810  77.1452760  13.1813830
  90.5756530  77.5766980  12.3310270  91.3787000  77.6051110  13.6140650
  87.2666540  81.3280450  19.7567650  87.6190360  80.7308580  19.0969020
  86.3828870  81.0024680  19.9275900  83.3529820  82.0878140  17.1638060
  84.0400950  82.6347350  17.5445650  82.5662240  82.6318870  17.1987670
  75.4922220  77.7050960  12.6555140  76.3617070  77.9875760  12.9391060
  75.0012540  78.5186830  12.5403950  82.6557030  79.0924170  16.7763420
  83.1119810  79.9029420  17.0023610  82.3045240  78.7747310  17.6081910
  84.9589640  84.6030510  24.0055720  85.6031860  84.8089890  24.6829140
  85.3219080  83.8418910  23.5526570  78.5568810  69.4361820  17.2485940
  78.4283440  69.4279720  18.1970860  77.7330830  69.7744910  16.8976950
  86.2321720  82.6062860  22.7233170  86.8743950  81.9056020  22.8365340
  86.7571070  83.3861300  22.5430060  90.0777440  82.8911480  12.4472310
  89.8515020  82.1741920  13.0396950  89.6873640  82.6423920  11.6094060
  88.0059340  83.4057760  25.9269230  88.3415580  83.9924450  26.6047150
  87.0859680  83.2750470  26.1567020  75.8593470  86.9178340  13.2216770
  76.2191110  87.5167680  12.5674040  75.7185810  87.4638230  13.9951800
  75.5562740  71.1952940  26.7092640  74.8421260  71.3949860  27.3145250
  75.9757780  70.4192510  27.0807440  89.6593690  80.8083420  14.1086470
  89.3715390  81.2696110  14.8964350  90.4545860  80.3481190  14.3770690
  75.8435330  85.1833200  27.6959170  75.9526450  84.2427940  27.5554560
  75.1915890  85.4487950  27.0472900  83.8347920  83.4549090  29.0957290
  83.5144790  82.7358330  29.6402980  83.1606280  84.1304160  29.1693350
  81.8762090  84.3009540  14.0390440  81.8672190  85.0339230  13.4234950
  80.9560450  84.0541120  14.1317400  77.4768730  79.5224430  14.7837200
  76.8696680  80.2623330  14.7932500  77.9518080  79.6123790  13.9575400
  87.0501520  73.6875250  24.4594090  87.4182340  72.8670460  24.7873660
  86.1899720  73.7477140  24.8749740  90.4163550  72.6432190  15.2681650
  89.7876710  72.7477860  14.5539880  89.9215470  72.8628970  16.0575530
  84.8621690  84.3637780  12.7015630  84.9633670  84.1601770  11.7717610
  83.9623430  84.1096060  12.9063410  82.3847580  74.9218140  16.6839530
  81.6763730  75.3904480  17.1253140  82.6692060  74.2640150  17.3184720
  84.0103510  76.3414840  24.6832060  84.5088760  76.8160660  25.3483910
  84.1526460  75.4178360  24.8902090  86.4163010  71.6468800  18.1235320
  86.2930790  71.6654930  17.1744830  87.3647570  71.6947740  18.2433720
  83.5039800  86.8824100  17.3963300  83.7581300  86.8445490  16.4742670
  82.5552280  86.7557430  17.3891550  80.5882600  73.2303220  14.0590240
  81.4373130  73.6673370  13.9930430  80.2213870  73.5423480  14.8862300
  89.5092380  77.8015980  18.9721810  88.5682520  77.8166210  19.1469500
  89.8236450  77.0151940  19.4182110  79.4874020  79.4835580  12.5325770
  80.2537290  79.3716940  13.0951200  79.5648710  78.7873550  11.8802540
  78.1820780  76.9160650  13.2158660  78.2624370  75.9688160  13.3276060
  79.0740530  77.2467530  13.3219320  78.9835490  87.0656040  20.3193200
  79.7197970  86.5171500  20.5901770  79.3676410  87.9312050  20.1799190
  75.8680970  83.1329610  16.1934710  74.9420750  83.3750750  16.1840120
  76.3337400  83.9603870  16.0719460  77.9893770  86.2502110  29.5078780
  78.7906500  86.5714160  29.9214180  77.4745590  85.8897690  30.2298690
  82.0937800  86.2386350  12.1418770  82.8866410  86.5275180  11.6900560
  81.5742150  85.8078520  11.4631250  86.8258400  82.3581980  29.4554190
  86.2196560  82.3813580  28.7149940  86.5212510  81.6265020  29.9921440
  88.2558770  86.0862270  28.0663600  89.2080520  86.0020290  28.0163840
  88.1086990  86.7503980  28.7397390  91.1467970  85.4656480  13.5655510
  90.8609480  85.0521620  12.7509690  90.9487520  86.3944190  13.4456030
  75.7091580  78.7375570  28.4514830  76.2130600  78.1582850  29.0231060
  74.9699000  79.0215800  28.9891200  82.6115200  81.4589760  12.0061120
  82.5065840  80.8442110  12.7322500  82.4439420  80.9355650  11.2224130
  82.7629520  80.1446560  27.9850350  81.9975190  80.7131560  27.9005020
  82.9445480  79.8522770  27.0918580  85.8517930  80.5209790  12.6103110
  85.3028030  80.9679090  13.2545850  86.4737190  80.0159040  13.1340780
  89.9052870  81.8751890  28.5425370  90.6462340  82.2127650  28.0392830
  89.1425550  82.0443950  27.9895140  77.7414660  76.8805160  29.3464900
  77.7820000  76.5819030  30.2550130  78.5960160  77.2812770  29.1872420
  81.5193050  79.4800710  14.5068410  81.9409470  79.3140580  15.3499800
  81.6443890  78.6700940  14.0123550  79.6820470  75.4597260  27.3139390
  79.1516930  74.9688210  26.6862730  80.3508540  75.8881460  26.7797320
  84.0320690  78.5038320  11.7545510  84.5526350  77.7887340  11.3886660
  84.6789090  79.1424190  12.0546020  88.5798530  79.9266720  27.0780580
  88.9939550  80.0811800  27.9271000  87.6449530  80.0521940  27.2406360
  89.0520700  77.2662880  29.0819730  89.6341470  76.5115200  28.9940210
  89.2282470  77.7970320  28.3051210  80.1692770  72.4259630  27.3936680
  80.0749640  71.8080380  26.6687550  79.5890160  73.1525920  27.1666590
  82.9354210  70.9832870  24.4264070  82.4871510  71.0057130  23.5809620
  82.3019410  70.5851890  25.0234370  83.3413760  79.8787200  25.0476510
  83.7601870  80.7219930  24.8752750  82.4222390  80.0159240  24.8183290
  85.6777660  77.6103380  26.4314350  85.7973870  77.0144520  27.1709190
  86.5371660  77.6473070  26.0115650  88.0165560  78.1640570  25.0076860
  87.4900780  78.6883190  24.4042000  88.3596900  78.7967960  25.6386590
  80.4151950  75.5533940  11.4526570  80.2141010  74.6901300  11.8139910
  80.2444000  75.4667300  10.5148170  81.1921180  86.1840210  26.1634240
  80.6542270  86.9086270  25.8442940  81.4455140  85.7070550  25.3731580
  82.4446430  74.1524730  27.6890170  83.0346120  73.8440580  28.3767990
  81.6266670  73.6804480  27.8450070  87.2639860  73.7690540  27.9223190
  86.5755380  73.1072080  27.8573180  87.9845880  73.3228810  28.3671650
  87.8940260  70.3642170  13.9813450  88.1742550  69.5210070  14.3372870
  87.1205990  70.5965280  14.4952200  79.2134750  72.6534560  11.4404450
  79.5160650  72.6601990  10.5323600  79.9529340  72.3032420  11.9372110
  84.0483390  87.4191420  26.4220890  83.9742090  88.3226560  26.7293260
  83.1462230  87.1003320  26.3942960  82.4319680  71.5969180  12.4260650
  82.0841680  70.9193170  11.8463100  82.6332450  71.1358690  13.2404040
  84.5968720  86.5849930  14.0447250  85.4919510  86.9234900  14.0666010
  84.6286350  85.8629340  13.4171530  78.2364880  81.9576980  12.2734250
  78.6739750  82.5006650  12.9291830  78.7212610  81.1323930  12.2830590
  75.4510680  84.7466010  19.7254510  75.7813690  83.8787070  19.4933150
  75.8801680  84.9524530  20.5559470  80.0472600  83.0775020  17.3856480
  79.7468140  82.9539990  18.2860390  79.9410090  82.2183610  16.9772210
  75.9400890  85.6136600  22.4636140  75.5031880  85.7937400  23.2960290
  76.5078570  86.3711220  22.3217860  75.7725320  78.1256830  18.8225020
  75.1174160  77.8568470  18.1784720  76.6103270  78.0161310  18.3727000
  90.2614710  81.8405580  24.8489610  89.4474550  82.2702740  25.1115400
  90.6688910  82.4523990  24.2358660  88.7215760  72.9198120  13.0443510
  89.1400640  72.7329100  12.2040170  88.4151820  72.0677170  13.3546440
  76.8101250  78.5109400  23.3628360  77.1774290  78.4236800  24.2424380
  76.2412070  77.7475950  23.2635220  76.3617250  75.4218490  27.2686780
  75.4673300  75.3885250  27.6080490  76.9014800  75.6205280  28.0338030
  90.0493180  72.2050210  29.1538530  90.9263360  72.2133610  29.5372530
  90.0614020  71.4681050  28.5430880  74.9863400  75.3355760  14.7650350
  74.0827480  75.5985960  14.5902010  75.4704020  75.6066930  13.9850310
  77.5290610  74.3921300  12.6744730  78.2382310  73.9704520  12.1892010
  76.8130550  74.4596530  12.0428080  77.1764770  70.4460630  11.7147380
  77.8992900  70.9869570  12.0328600  77.4489290  70.1724050  10.8388920
  90.9856420  75.3153100  15.9818960  91.4815540  75.0823970  16.7667840
  90.7872490  74.4764940  15.5656600  76.8656960  69.6966820  21.6170000
  77.5133150  69.1464200  21.1765160  77.2858800  69.9509970  22.4385810
  90.7609300  69.8908180  24.9739640  91.3981520  70.5042320  25.3398830
  90.9084190  69.9268840  24.0288870  90.3190760  86.5924180  18.3757880
  90.9149830  86.2708750  17.6992300  90.5768910  86.1196000  19.1671150
  76.6188960  69.8522490  24.3595320  76.2703780  70.3086310  25.1253500
  76.2876660  68.9579620  24.4417750  78.2253330  83.0242090  28.5248510
  78.1822960  82.6535000  29.4062970  78.3564340  83.9619660  28.6650330
  81.9259360  84.5801680  24.1258230  81.6850720  84.8476240  23.2388750
  82.8662000  84.7507410  24.1809090  84.1313780  71.0434370  27.8814740
  84.0702670  71.6356200  28.6310150  85.0714160  70.9360330  27.7365000
  86.7688340  70.7004430  27.5207030  87.3828750  71.0183720  26.8588110
  87.3137900  70.2153020  28.1402890  77.2909600  69.3798690  27.6346090
  77.8392590  69.1986740  26.8712200  77.3564910  68.5892800  28.1702400
  78.0641360  85.9704340  25.6446290  77.4701680  85.8389040  26.3836330
  78.0565200  85.1342480  25.1788390  87.5096380  69.2636570  23.8476320
  86.6356220  69.5971680  23.6449250  87.4007130  68.7909750  24.6728190
  88.4168360  71.4707440  25.2318040  88.0881720  70.6559200  24.8519770
  89.3650660  71.4277250  25.1083730  90.8702970  87.2419480  22.2055610
  90.4105940  87.9935290  21.8313630  90.2415430  86.5225950  22.1470410
  77.6953590  83.3362720  24.5954330  76.9687650  82.7168010  24.5280280
  77.7562740  83.7303330  23.7252410  81.2998690  85.5507720  21.3803740
  81.8163710  84.9395080  20.8552000  81.9496070  86.0536500  21.8714750
  84.0394190  86.4416210  22.2072720  84.3272000  86.1870510  21.3305730
  84.5517410  85.8893570  22.7978290  85.2571200  70.1806410  22.7869230
  84.4742990  70.6551910  23.0665990  84.9634130  69.2761240  22.6782410
  89.8092270  70.8829510  20.8318320  90.2500360  70.8274610  19.9839920
  89.5399860  71.7987520  20.9028500  75.9783590  86.6537110  17.8051090
  75.8105630  86.0207790  18.5032980  75.1118100  86.8596510  17.4545280
  76.6011610  70.4853890  15.3082950  77.3590970  70.5982770  14.7346980
  76.1388780  71.3223090  15.2626380  83.1425420  72.5993160  18.2985260
  82.3299930  72.2250050  17.9581140  83.6467060  71.8438240  18.6006450
  87.6450400  69.2635610  19.5368330  88.2479770  69.8355820  20.0116850
  86.9043390  69.8275050  19.3142230  90.7885000  69.6657170  14.8108610
  90.9835630  70.5640620  15.0776040  90.0014870  69.4344250  15.3041560
  77.5846290  85.3470340  15.2501230  77.0593910  85.7278370  14.5463190
  77.5090870  85.9721110  15.9710940  78.9736760  71.0117940  13.8484920
  79.5029520  70.2247740  13.7192870  79.6065080  71.6909130  14.0820450
  81.1674600  70.7493080  16.9030310  80.5377340  70.0480390  17.0700440
  80.6279740  71.5097210  16.6863470  84.1066550  87.3632310  29.5740920
  85.0333860  87.1276580  29.6176880  84.0916980  88.1904310  29.0926950
  81.2930160  70.0277060  29.3382800  81.0114430  70.5310660  28.5743620
  81.6749860  69.2298810  28.9724930  80.1839260  87.2952720  14.1250480
  80.9158080  87.0112000  13.5774370  80.4432930  87.0566000  15.0149860
  79.3454050  83.4117450  14.1296810  78.7162930  83.8802550  14.6782640
  79.4601880  82.5666670  14.5643000  87.8945620  69.4430640  29.9163270
  87.7811070  69.7625250  30.8114790  88.7115360  69.8443150  29.6200550
  90.6744110  86.5902170  29.3981960  91.4669430  86.0951400  29.1907920
  90.9677260  87.2692310  30.0057570  84.9321810  79.2402130   2.1607280
  84.1563910  78.7602570   2.4505850  85.5834740  78.5607780   1.9863440
  78.9487640  79.5521940   3.0383040  78.1172520  79.2970650   3.4379550
  79.5568620  79.6232710   3.7740960  78.9288900  83.5862030   3.2341060
  79.2316940  82.6959770   3.0551280  79.6732490  84.1432250   3.0063310
  75.3212600  77.1129480   2.7065130  75.8928710  76.3451680   2.7068770
  75.3214140  77.4118240   1.7971740  84.3730800  81.9159320   2.1677440
  84.3039080  80.9749260   2.0066570  85.1350660  82.0060730   2.7400010
  76.5637470  72.5213840   4.4934060  76.3840310  71.6239590   4.7736820
  76.1617550  73.0685710   5.1681010  85.4035970  74.7229700   2.3946370
  85.7800790  73.8501580   2.2820040  85.3055480  75.0588400   1.5036810
  77.1824140  75.0174340   3.1016400  77.8634250  75.2812710   3.7203800
  76.8672190  74.1775210   3.4354410  81.3748710  76.0641700   2.1888990
  81.8826930  76.5622670   2.8294010  81.9061950  75.2876900   2.0128350
  79.6584810  70.7040260   6.4552410  79.6603250  71.2212650   5.6498310
  78.8289120  70.2270440   6.4322340  80.9087660  80.3435440   4.6325910
  80.5757040  80.9704360   5.2746980  81.0854340  80.8697320   3.8527580
  89.4221570  74.1580520   2.1002250  88.7177140  74.4465410   2.6805360
  89.7833730  74.9680630   1.7401810  79.3400140  72.4150220   4.4622860
  79.6816950  73.2592270   4.1676730  78.4015950  72.5633960   4.5788200
  80.1206760  82.3116240   6.4475090  80.7380760  82.9867320   6.1659540
  79.2599880  82.7204220   6.3562590  88.5743090  85.6199780   3.0774910
  88.5870250  85.2162070   2.2097170  88.0218310  86.3947070   2.9736340
  87.9728530  80.5229620   4.4057520  88.3897320  80.3089730   3.5710980
  88.6968350  80.7802410   4.9766140  88.8832640  75.7086160   5.4428630
  88.4703820  76.5339870   5.6968620  88.1508590  75.1231200   5.2504990
  81.4847130  82.1813620   2.4686510  81.1875420  81.5759090   1.7894290
  82.4346950  82.2190930   2.3575870  79.7294050  75.2689270   4.0846340
  80.2808640  75.3784610   3.3099590  80.2437560  75.6426870   4.8001570
  89.5732740  85.7545490   6.1309610  89.0963300  86.5617680   5.9382220
  88.8894530  85.1023820   6.2835820  80.5765560  81.9195310   9.1194310
  79.6794090  82.1435280   9.3667710  80.6018430  82.0430250   8.1705710
  79.4036780  78.7908630   7.6951680  79.2644550  79.6631430   8.0639080
  78.5218140  78.4481440   7.5499620  81.2017130  84.7330330   9.9036830
  81.1732560  85.1373280   9.0365260  81.0382100  83.8040690   9.7408430
  75.3555430  80.5606180   3.6122590  75.4335850  80.6954950   2.6678310
  75.9697110  79.8522070   3.8050710  86.4181940  86.4098280   6.9295820
  86.9326610  86.3206290   7.7318250  85.5751020  86.7557980   7.2223730
  75.4114950  81.6020350   6.1517050  75.5745990  81.1325710   5.3336420
  75.8767400  81.0943910   6.8165890  84.4703530  73.5994630   6.7912940
  84.0082900  73.8077650   7.6032880  84.0681640  72.7853980   6.4883610
  89.4708040  74.8203580   7.9209600  88.6201630  74.5209330   8.2418670
  89.3109830  75.0645590   7.0093420  86.5657750  76.3205330  10.0208390
  86.8911160  75.4869080   9.6810620  87.3538080  76.8433850  10.1686720
  82.2209620  71.2773440   3.0467220  82.5181950  72.1836270   2.9659240
  82.7695180  70.7892220   2.4326790  82.4147150  76.7545260   9.5819140
  82.3190750  75.8139990   9.4319540  83.2579130  76.9760330   9.1867210
  77.5457690  73.1658930   7.7352920  77.1521080  74.0134140   7.9425700
  76.8576090  72.5285300   7.9261560  84.1202740  73.2493900  10.8049660
  83.4301060  73.0566100  11.4395750  84.8635040  73.5328540  11.3373960
  74.8474740  71.0887390   1.7683000  74.5587790  71.6590250   2.4807980
  75.5920500  70.6091840   2.1314230  86.3965710  77.0892340   3.6403580
  85.6646830  77.5979150   3.9893680  85.9990050  76.2722320   3.3392360
  86.8591620  72.5426020   3.0526520  86.8764360  72.9934670   3.8968370
  86.6107200  71.6431660   3.2659960  90.2862370  69.9558200   8.8912900
  90.6108140  69.2247860   9.4170880  90.3218880  69.6371840   7.9893890
  76.9853930  80.9771780   8.3112860  76.6008720  80.3365450   8.9095820
  77.2966120  81.6807900   8.8807590  83.1351070  77.8248320   3.7921480
  83.5021200  77.3506890   4.5382820  82.9456130  78.6989890   4.1329820
  80.9250440  76.8656960   6.1105690  80.6207510  77.7448940   6.3356050
  81.8796900  76.9256750   6.1463130  90.2120210  80.0683310   2.4998930
  90.9319330  80.5638600   2.1095040  90.0102030  79.3901200   1.8552800
  85.5939010  80.1392370   8.3867930  85.5276320  79.2188040   8.1325520
  84.9644150  80.2367810   9.1012570  76.9814170  77.7059700   7.2577050
  76.6229110  78.3713550   7.8450390  76.6868730  76.8743250   7.6289670
  80.1827290  78.1643940  10.1416600  79.8827430  78.3101120   9.2444420
  80.9538530  77.6049230  10.0489990  85.5255740  82.9612940   8.1371730
  85.5400280  82.0293900   7.9190640  84.8180840  83.0472700   8.7761500
  84.9589640  84.6030510   5.2312230  85.6031860  84.8089890   5.9085650
  85.3219080  83.8418910   4.7783080  86.2321720  82.6062860   3.9489680
  86.8743950  81.9056020   4.0621850  86.7571070  83.3861300   3.7686570
  88.0059340  83.4057760   7.1525740  88.3415580  83.9924450   7.8303660
  87.0859680  83.2750470   7.3823530  75.5562740  71.1952940   7.9349150
  74.8421260  71.3949860   8.5401760  75.9757780  70.4192510   8.3063950
  75.8435330  85.1833200   8.9215680  75.9526450  84.2427940   8.7811070
  75.1915890  85.4487950   8.2729410  83.8347920  83.4549090  10.3213800
  83.5144790  82.7358330  10.8659490  83.1606280  84.1304160  10.3949860
  87.0501520  73.6875250   5.6850600  87.4182340  72.8670460   6.0130170
  86.1899720  73.7477140   6.1006250  84.0103510  76.3414840   5.9088570
  84.5088760  76.8160660   6.5740420  84.1526460  75.4178360   6.1158600
  77.9893770  86.2502110  10.7335290  78.7906500  86.5714160  11.1470690
  77.4745590  85.8897690  11.4555200  86.8258400  82.3581980  10.6810700
  86.2196560  82.3813580   9.9406450  86.5212510  81.6265020  11.2177950
  88.2558770  86.0862270   9.2920110  89.2080520  86.0020290   9.2420350
  88.1086990  86.7503980   9.9653900  75.7091580  78.7375570   9.6771340
  76.2130600  78.1582850  10.2487570  74.9699000  79.0215800  10.2147710
  82.7629520  80.1446560   9.2106860  81.9975190  80.7131560   9.1261530
  82.9445480  79.8522770   8.3175090  89.9052870  81.8751890   9.7681880
  90.6462340  82.2127650   9.2649340  89.1425550  82.0443950   9.2151650
  77.7414660  76.8805160  10.5721410  77.7820000  76.5819030  11.4806640
  78.5960160  77.2812770  10.4128930  79.6820470  75.4597260   8.5395900
  79.1516930  74.9688210   7.9119240  80.3508540  75.8881460   8.0053830
  88.5798530  79.9266720   8.3037090  88.9939550  80.0811800   9.1527510
  87.6449530  80.0521940   8.4662870  89.0520700  77.2662880  10.3076240
  89.6341470  76.5115200  10.2196720  89.2282470  77.7970320   9.5307720
  80.1692770  72.4259630   8.6193190  80.0749640  71.8080380   7.8944060
  79.5890160  73.1525920   8.3923100  82.9354210  70.9832870   5.6520580
  82.4871510  71.0057130   4.8066130  82.3019410  70.5851890   6.2490880
  83.3413760  79.8787200   6.2733020  83.7601870  80.7219930   6.1009260
  82.4222390  80.0159240   6.0439800  85.6777660  77.6103380   7.6570860
  85.7973870  77.0144520   8.3965700  86.5371660  77.6473070   7.2372160
  88.0165560  78.1640570   6.2333370  87.4900780  78.6883190   5.6298510
  88.3596900  78.7967960   6.8643100  81.1921180  86.1840210   7.3890750
  80.6542270  86.9086270   7.0699450  81.4455140  85.7070550   6.5988090
  82.4446430  74.1524730   8.9146680  83.0346120  73.8440580   9.6024500
  81.6266670  73.6804480   9.0706580  87.2639860  73.7690540   9.1479700
  86.5755380  73.1072080   9.0829690  87.9845880  73.3228810   9.5928160
  84.0483390  87.4191420   7.6477400  83.9742090  88.3226560   7.9549770
  83.1462230  87.1003320   7.6199470  75.9400890  85.6136600   3.6892650
  75.5031880  85.7937400   4.5216800  76.5078570  86.3711220   3.5474370
  90.2614710  81.8405580   6.0746120  89.4474550  82.2702740   6.3371910
  90.6688910  82.4523990   5.4615170  76.8101250  78.5109400   4.5884870
  77.1774290  78.4236800   5.4680890  76.2412070  77.7475950   4.4891730
  76.3617250  75.4218490   8.4943290  75.4673300  75.3885250   8.8337000
  76.9014800  75.6205280   9.2594540  90.0493180  72.2050210  10.3795040
  90.9263360  72.2133610  10.7629040  90.0614020  71.4681050   9.7687390
  76.8656960  69.6966820   2.8426510  77.5133150  69.1464200   2.4021670
  77.2858800  69.9509970   3.6642320  90.7609300  69.8908180   6.1996150
  91.3981520  70.5042320   6.5655340  90.9084190  69.9268840   5.2545380
  76.6188960  69.8522490   5.5851830  76.2703780  70.3086310   6.3510010
  76.2876660  68.9579620   5.6674260  78.2253330  83.0242090   9.7505020
  78.1822960  82.6535000  10.6319480  78.3564340  83.9619660   9.8906840
  81.9259360  84.5801680   5.3514740  81.6850720  84.8476240   4.4645260
  82.8662000  84.7507410   5.4065600  84.1313780  71.0434370   9.1071250
  84.0702670  71.6356200   9.8566660  85.0714160  70.9360330   8.9621510
  86.7688340  70.7004430   8.7463540  87.3828750  71.0183720   8.0844620
  87.3137900  70.2153020   9.3659400  77.2909600  69.3798690   8.8602600
  77.8392590  69.1986740   8.0968710  77.3564910  68.5892800   9.3958910
  78.0641360  85.9704340   6.8702800  77.4701680  85.8389040   7.6092840
  78.0565200  85.1342480   6.4044900  87.5096380  69.2636570   5.0732830
  86.6356220  69.5971680   4.8705760  87.4007130  68.7909750   5.8984700
  88.4168360  71.4707440   6.4574550  88.0881720  70.6559200   6.0776280
  89.3650660  71.4277250   6.3340240  90.8702970  87.2419480   3.4312120
  90.4105940  87.9935290   3.0570140  90.2415430  86.5225950   3.3726920
  77.6953590  83.3362720   5.8210840  76.9687650  82.7168010   5.7536790
  77.7562740  83.7303330   4.9508920  81.2998690  85.5507720   2.6060250
  81.8163710  84.9395080   2.0808510  81.9496070  86.0536500   3.0971260
  84.0394190  86.4416210   3.4329230  84.3272000  86.1870510   2.5562240
  84.5517410  85.8893570   4.0234800  85.2571200  70.1806410   4.0125740
  84.4742990  70.6551910   4.2922500  84.9634130  69.2761240   3.9038920
  84.1066550  87.3632310  10.7997430  85.0333860  87.1276580  10.8433390
  84.0916980  88.1904310  10.3183460  81.2930160  70.0277060  10.5639310
  81.0114430  70.5310660   9.8000130  81.6749860  69.2298810  10.1981440
  87.8945620  69.4430640  11.1419780  87.7811070  69.7625250  12.0371300
  88.7115360  69.8443150  10.8457060  90.6744110  86.5902170  10.6238470
  91.4669430  86.0951400  10.4164430  90.9677260  87.2692310  11.2314080
  86.8003770  58.6879620  75.3771970  86.7197820  57.7734230  75.1063680
  86.3868190  59.1846690  74.6711680  88.9529240  64.8718830  76.0380370
  88.4910770  64.1006070  76.3667540  89.7654790  64.8984900  76.5432820
  77.3579590  55.7380340  71.9199390  76.4696290  56.0796310  71.8179270
  77.6420780  55.5380660  71.0280220  85.1792550  67.1576840  75.6584360
  84.5603990  67.6134340  75.0878800  86.0344330  67.3128300  75.2574060
  79.5340980  54.3211840  72.9537770  79.6407730  55.2215570  73.2606530
  78.6233340  54.2729810  72.6632420  89.1860090  53.4436650  74.4248670
  90.0069710  52.9533220  74.4674150  89.2194170  54.0334310  75.1780510
  86.0455900  62.0416080  73.0516270  85.4273170  62.5065530  72.4878990
  86.5579150  62.7343560  73.4685780  75.4139100  62.7272610  70.4255900
  75.0367080  63.2159710  69.6940800  75.6712170  63.3997890  71.0562430
  83.0228030  51.1289000  75.8841410  83.3303010  50.5735890  75.1676910
  82.0928730  51.2633460  75.7014400  89.8688510  63.5672510  73.2639040
  89.7584840  62.6246840  73.3888460  89.8656760  63.9288150  74.1501800
  85.4108790  59.1937830  72.6201530  84.4838070  59.1275210  72.8490000
  85.5633610  60.1317960  72.5056770  85.3977870  55.4654830  69.6168690
  84.4581540  55.6268790  69.7021150  85.7161130  56.1840510  69.0704680
  89.4406080  60.7558130  73.1236780  88.8218500  60.4177680  72.4763080
  89.4230530  60.1117890  73.8315970  81.0165430  59.7202570  75.4021260
  80.6122430  59.0079820  74.9067160  81.1028550  59.3755810  76.2909300
  87.6170780  59.9944940  70.1309530  88.0564060  59.1567370  69.9847350
  88.3299200  60.6274340  70.2173670  85.7266160  64.9341010  74.0990770
  86.1662070  65.6765340  73.6846160  85.6653050  65.1767580  75.0229730
  77.7170060  58.6147550  72.9027910  77.5967660  59.3409640  72.2909180
  77.4070950  57.8450460  72.4255820  76.6003060  63.4862880  75.1202730
  76.1931140  63.6277470  74.2656330  77.4916070  63.2023040  74.9173940
  88.3936340  67.9210130  71.4553780  88.2337480  67.6313070  72.3535610
  88.2283050  67.1450260  70.9199010  80.8724720  67.7008660  73.2325400
  80.6967200  66.7844200  73.0193200  80.0180460  68.0595950  73.4723200
  88.0962470  65.4297690  70.0151780  87.4027630  65.4274980  69.3554060
  88.8385330  65.0057010  69.5845950  87.6612400  67.0560400  74.0900270
  88.1169350  66.2749780  74.4038890  88.0004920  67.7667220  74.6341450
  80.1833720  51.9582620  76.2851580  79.7401870  52.7392160  75.9536100
  80.7418710  52.2812510  76.9922520  83.2992540  51.5793320  71.1657410
  82.6746720  51.5753190  71.8910720  83.2122660  50.7124280  70.7693380
  79.9747940  57.0816190  74.0132830  79.7488860  56.8653360  74.9179450
  79.1940470  57.5144650  73.6678800  87.2045700  57.0879560  72.6123480
  86.6054590  57.8115360  72.4287100  87.7525310  57.0256340  71.8299930
  85.8110570  55.7243100  74.6426760  86.2040140  56.0415300  73.8295450
  86.1727420  54.8454980  74.7571280  75.0344970  56.2564020  68.0759680
  74.9519640  57.1994780  68.2174670  74.6828030  56.1138930  67.1972030
  82.8343100  54.9903050  77.1430030  82.8379160  54.5493000  76.2934570
  83.7294220  55.3120380  77.2501850  78.6845480  54.8729540  76.1024240
  78.3445530  55.3504770  76.8591290  77.9222800  54.4194660  75.7425340
  82.8963250  55.9915130  70.1336790  83.0176070  55.9501610  71.0822610
  82.5111760  56.8539280  69.9783520  81.9084750  58.3016270  69.5320090
  81.3401650  57.8534520  68.9056000  82.6173750  58.6609050  68.9985240
  75.9991560  53.7948520  75.0188910  75.7138480  53.4304190  75.8567530
  75.9370420  53.0628980  74.4052050  79.4532230  62.2974460  71.8046500
  78.6794490  61.7572080  71.6445220  80.1826860  61.7781070  71.4664260
  85.6730150  52.6877780  71.7402280  84.8594760  52.1890950  71.6647590
  85.4792100  53.5276030  71.3238630  88.3878540  57.0597430  70.0364440
  89.2758160  57.3714660  69.8615780  88.3583630  56.1869680  69.6445020
  79.4969630  61.9654840  75.4425310  80.0148300  61.1623100  75.3882200
  79.0453650  61.9033980  76.2842140  84.3839130  63.2321120  70.7152610
  84.7254830  63.9763350  70.2195930  83.5551840  63.5452240  71.0777440
  90.6592810  58.3709270  69.5044300  90.5756530  58.8023490  68.6540740
  91.3787000  58.8307620  69.9371120  87.2666540  62.5536960  76.0798120
  87.6190360  61.9565090  75.4199490  86.3828870  62.2281190  76.2506370
  83.3529820  63.3134650  73.4868530  84.0400950  63.8603860  73.8676120
  82.5662240  63.8575380  73.5218140  75.4922220  58.9307470  68.9785610
  76.3617070  59.2132270  69.2621530  75.0012540  59.7443340  68.8634420
  82.6557030  60.3180680  73.0993890  83.1119810  61.1285930  73.3254080
  82.3045240  60.0003820  73.9312380  78.5568810  50.6618330  73.5716410
  78.4283440  50.6536230  74.5201330  77.7330830  51.0001420  73.2207420
  90.0777440  64.1167990  68.7702780  89.8515020  63.3998430  69.3627420
  89.6873640  63.8680430  67.9324530  75.8593470  68.1434850  69.5447240
  76.2191110  68.7424190  68.8904510  75.7185810  68.6894740  70.3182270
  89.6593690  62.0339930  70.4316940  89.3715390  62.4952620  71.2194820
  90.4545860  61.5737700  70.7001160  81.8762090  65.5266050  70.3620910
  81.8672190  66.2595740  69.7465420  80.9560450  65.2797630  70.4547870
  77.4768730  60.7480940  71.1067670  76.8696680  61.4879840  71.1162970
  77.9518080  60.8380300  70.2805870  90.4163550  53.8688700  71.5912120
  89.7876710  53.9734370  70.8770350  89.9215470  54.0885480  72.3806000
  84.8621690  65.5894290  69.0246100  84.9633670  65.3858280  68.0948080
  83.9623430  65.3352570  69.2293880  82.3847580  56.1474650  73.0070000
  81.6763730  56.6160990  73.4483610  82.6692060  55.4896660  73.6415190
  86.4163010  52.8725310  74.4465790  86.2930790  52.8911440  73.4975300
  87.3647570  52.9204250  74.5664190  83.5039800  68.1080610  73.7193770
  83.7581300  68.0702000  72.7973140  82.5552280  67.9813940  73.7122020
  80.5882600  54.4559730  70.3820710  81.4373130  54.8929880  70.3160900
  80.2213870  54.7679990  71.2092770  89.5092380  59.0272490  75.2952280
  88.5682520  59.0422720  75.4699970  89.8236450  58.2408450  75.7412580
  79.4874020  60.7092090  68.8556240  80.2537290  60.5973450  69.4181670
  79.5648710  60.0130060  68.2033010  78.1820780  58.1417160  69.5389130
  78.2624370  57.1944670  69.6506530  79.0740530  58.4724040  69.6449790
  78.9835490  68.2912550  76.6423670  79.7197970  67.7428010  76.9132240
  79.3676410  69.1568560  76.5029660  75.8680970  64.3586120  72.5165180
  74.9420750  64.6007260  72.5070590  76.3337400  65.1860380  72.3949930
  82.0937800  67.4642860  68.4649240  82.8866410  67.7531690  68.0131030
  81.5742150  67.0335030  67.7861720  91.1467970  66.6912990  69.8885980
  90.8609480  66.2778130  69.0740160  90.9487520  67.6200700  69.7686500
  82.6115200  62.6846270  68.3291590  82.5065840  62.0698620  69.0552970
  82.4439420  62.1612160  67.5454600  85.8517930  61.7466300  68.9333580
  85.3028030  62.1935600  69.5776320  86.4737190  61.2415550  69.4571250
  81.5193050  60.7057220  70.8298880  81.9409470  60.5397090  71.6730270
  81.6443890  59.8957450  70.3354020  84.0320690  59.7294830  68.0775980
  84.5526350  59.0143850  67.7117130  84.6789090  60.3680700  68.3776490
  80.4151950  56.7790450  67.7757040  80.2141010  55.9157810  68.1370380
  80.2444000  56.6923810  66.8378640  87.8940260  51.5898680  70.3043920
  88.1742550  50.7466580  70.6603340  87.1205990  51.8221790  70.8182670
  79.2134750  53.8791070  67.7634920  79.5160650  53.8858500  66.8554070
  79.9529340  53.5288930  68.2602580  82.4319680  52.8225690  68.7491120
  82.0841680  52.1449680  68.1693570  82.6332450  52.3615200  69.5634510
  84.5968720  67.8106440  70.3677720  85.4919510  68.1491410  70.3896480
  84.6286350  67.0885850  69.7402000  78.2364880  63.1833490  68.5964720
  78.6739750  63.7263160  69.2522300  78.7212610  62.3580440  68.6061060
  75.4510680  65.9722520  76.0484980  75.7813690  65.1043580  75.8163620
  75.8801680  66.1781040  76.8789940  80.0472600  64.3031530  73.7086950
  79.7468140  64.1796500  74.6090860  79.9410090  63.4440120  73.3002680
  75.7725320  59.3513340  75.1455490  75.1174160  59.0824980  74.5015190
  76.6103270  59.2417820  74.6957470  88.7215760  54.1454630  69.3673980
  89.1400640  53.9585610  68.5270640  88.4151820  53.2933680  69.6776910
  74.9863400  56.5612270  71.0880820  74.0827480  56.8242470  70.9132480
  75.4704020  56.8323440  70.3080780  77.5290610  55.6177810  68.9975200
  78.2382310  55.1961030  68.5122480  76.8130550  55.6853040  68.3658550
  77.1764770  51.6717140  68.0377850  77.8992900  52.2126080  68.3559070
  77.4489290  51.3980560  67.1619390  90.9856420  56.5409610  72.3049430
  91.4815540  56.3080480  73.0898310  90.7872490  55.7021450  71.8887070
  90.3190760  67.8180690  74.6988350  90.9149830  67.4965260  74.0222770
  90.5768910  67.3452510  75.4901620  89.8092270  52.1086020  77.1548790
  90.2500360  52.0531120  76.3070390  89.5399860  53.0244030  77.2258970
  75.9783590  67.8793620  74.1281560  75.8105630  67.2464300  74.8263450
  75.1118100  68.0853020  73.7775750  76.6011610  51.7110400  71.6313420
  77.3590970  51.8239280  71.0577450  76.1388780  52.5479600  71.5856850
  83.1425420  53.8249670  74.6215730  82.3299930  53.4506560  74.2811610
  83.6467060  53.0694750  74.9236920  87.6450400  50.4892120  75.8598800
  88.2479770  51.0612330  76.3347320  86.9043390  51.0531560  75.6372700
  90.7885000  50.8913680  71.1339080  90.9835630  51.7897130  71.4006510
  90.0014870  50.6600760  71.6272030  77.5846290  66.5726850  71.5731700
  77.0593910  66.9534880  70.8693660  77.5090870  67.1977620  72.2941410
  78.9736760  52.2374450  70.1715390  79.5029520  51.4504250  70.0423340
  79.6065080  52.9165640  70.4050920  81.1674600  51.9749590  73.2260780
  80.5377340  51.2736900  73.3930910  80.6279740  52.7353720  73.0093940
  80.1839260  68.5209230  70.4480950  80.9158080  68.2368510  69.9004840
  80.4432930  68.2822510  71.3380330  79.3454050  64.6373960  70.4527280
  78.7162930  65.1059060  71.0013110  79.4601880  63.7923180  70.8873470
  86.8003770  58.6879620  56.6028480  86.7197820  57.7734230  56.3320190
  86.3868190  59.1846690  55.8968190  84.9321810  60.4658640  58.4837750
  84.1563910  59.9859080  58.7736320  85.5834740  59.7864290  58.3093910
  78.9487640  60.7778450  59.3613510  78.1172520  60.5227160  59.7610020
  79.5568620  60.8489220  60.0971430  88.9529240  64.8718830  57.2636880
  88.4910770  64.1006070  57.5924050  89.7654790  64.8984900  57.7689330
  78.9288900  64.8118540  59.5571530  79.2316940  63.9216280  59.3781750
  79.6732490  65.3688760  59.3293780  77.3579590  55.7380340  53.1455900
  76.4696290  56.0796310  53.0435780  77.6420780  55.5380660  52.2536730
  75.3212600  58.3385990  59.0295600  75.8928710  57.5708190  59.0299240
  75.3214140  58.6374750  58.1202210  85.1792550  67.1576840  56.8840870
  84.5603990  67.6134340  56.3135310  86.0344330  67.3128300  56.4830570
  84.3730800  63.1415830  58.4907910  84.3039080  62.2005770  58.3297040
  85.1350660  63.2317240  59.0630480  76.5637470  53.7470350  60.8164530
  76.3840310  52.8496100  61.0967290  76.1617550  54.2942220  61.4911480
  85.4035970  55.9486210  58.7176840  85.7800790  55.0758090  58.6050510
  85.3055480  56.2844910  57.8267280  79.5340980  54.3211840  54.1794280
  79.6407730  55.2215570  54.4863040  78.6233340  54.2729810  53.8888930
  89.1860090  53.4436650  55.6505180  90.0069710  52.9533220  55.6930660
  89.2194170  54.0334310  56.4037020  77.1824140  56.2430850  59.4246870
  77.8634250  56.5069220  60.0434270  76.8672190  55.4031720  59.7584880
  81.3748710  57.2898210  58.5119460  81.8826930  57.7879180  59.1524480
  81.9061950  56.5133410  58.3358820  79.6584810  51.9296770  62.7782880
  79.6603250  52.4469160  61.9728780  78.8289120  51.4526950  62.7552810
  86.0455900  62.0416080  54.2772780  85.4273170  62.5065530  53.7135500
  86.5579150  62.7343560  54.6942290  80.9087660  61.5691950  60.9556380
  80.5757040  62.1960870  61.5977450  81.0854340  62.0953830  60.1758050
  89.4221570  55.3837030  58.4232720  88.7177140  55.6721920  59.0035830
  89.7833730  56.1937140  58.0632280  79.3400140  53.6406730  60.7853330
  79.6816950  54.4848780  60.4907200  78.4015950  53.7890470  60.9018670
  80.1206760  63.5372750  62.7705560  80.7380760  64.2123830  62.4890010
  79.2599880  63.9460730  62.6793060  75.4139100  62.7272610  51.6512410
  75.0367080  63.2159710  50.9197310  75.6712170  63.3997890  52.2818940
  83.0228030  51.1289000  57.1097920  83.3303010  50.5735890  56.3933420
  82.0928730  51.2633460  56.9270910  88.5743090  66.8456290  59.4005380
  88.5870250  66.4418580  58.5327640  88.0218310  67.6203580  59.2966810
  89.8688510  63.5672510  54.4895550  89.7584840  62.6246840  54.6144970
  89.8656760  63.9288150  55.3758310  87.9728530  61.7486130  60.7287990
  88.3897320  61.5346240  59.8941450  88.6968350  62.0058920  61.2996610
  85.4108790  59.1937830  53.8458040  84.4838070  59.1275210  54.0746510
  85.5633610  60.1317960  53.7313280  85.3977870  55.4654830  50.8425200
  84.4581540  55.6268790  50.9277660  85.7161130  56.1840510  50.2961190
  89.4406080  60.7558130  54.3493290  88.8218500  60.4177680  53.7019590
  89.4230530  60.1117890  55.0572480  88.8832640  56.9342670  61.7659100
  88.4703820  57.7596380  62.0199090  88.1508590  56.3487710  61.5735460
  81.0165430  59.7202570  56.6277770  80.6122430  59.0079820  56.1323670
  81.1028550  59.3755810  57.5165810  81.4847130  63.4070130  58.7916980
  81.1875420  62.8015600  58.1124760  82.4346950  63.4447440  58.6806340
  79.7294050  56.4945780  60.4076810  80.2808640  56.6041120  59.6330060
  80.2437560  56.8683380  61.1232040  89.5732740  66.9802000  62.4540080
  89.0963300  67.7874190  62.2612690  88.8894530  66.3280330  62.6066290
  80.5765560  63.1451820  65.4424780  79.6794090  63.3691790  65.6898180
  80.6018430  63.2686760  64.4936180  87.6170780  59.9944940  51.3566040
  88.0564060  59.1567370  51.2103860  88.3299200  60.6274340  51.4430180
  79.4036780  60.0165140  64.0182150  79.2644550  60.8887940  64.3869550
  78.5218140  59.6737950  63.8730090  85.7266160  64.9341010  55.3247280
  86.1662070  65.6765340  54.9102670  85.6653050  65.1767580  56.2486240
  81.2017130  65.9586840  66.2267300  81.1732560  66.3629790  65.3595730
  81.0382100  65.0297200  66.0638900  77.7170060  58.6147550  54.1284420
  77.5967660  59.3409640  53.5165690  77.4070950  57.8450460  53.6512330
  75.3555430  61.7862690  59.9353060  75.4335850  61.9211460  58.9908780
  75.9697110  61.0778580  60.1281180  76.6003060  63.4862880  56.3459240
  76.1931140  63.6277470  55.4912840  77.4916070  63.2023040  56.1430450
  86.4181940  67.6354790  63.2526290  86.9326610  67.5462800  64.0548720
  85.5751020  67.9814490  63.5454200  88.3936340  67.9210130  52.6810290
  88.2337480  67.6313070  53.5792120  88.2283050  67.1450260  52.1455520
  80.8724720  67.7008660  54.4581910  80.6967200  66.7844200  54.2449710
  80.0180460  68.0595950  54.6979710  88.0962470  65.4297690  51.2408290
  87.4027630  65.4274980  50.5810570  88.8385330  65.0057010  50.8102460
  87.6612400  67.0560400  55.3156780  88.1169350  66.2749780  55.6295400
  88.0004920  67.7667220  55.8597960  75.4114950  62.8276860  62.4747520
  75.5745990  62.3582220  61.6566890  75.8767400  62.3200420  63.1396360
  80.1833720  51.9582620  57.5108090  79.7401870  52.7392160  57.1792610
  80.7418710  52.2812510  58.2179030  84.4703530  54.8251140  63.1143410
  84.0082900  55.0334160  63.9263350  84.0681640  54.0110490  62.8114080
  89.4708040  56.0460090  64.2440070  88.6201630  55.7465840  64.5649140
  89.3109830  56.2902100  63.3323890  86.5657750  57.5461840  66.3438860
  86.8911160  56.7125590  66.0041090  87.3538080  58.0690360  66.4917190
  83.2992540  51.5793320  52.3913920  82.6746720  51.5753190  53.1167230
  83.2122660  50.7124280  51.9949890  82.2209620  52.5029950  59.3697690
  82.5181950  53.4092780  59.2889710  82.7695180  52.0148730  58.7557260
  79.9747940  57.0816190  55.2389340  79.7488860  56.8653360  56.1435960
  79.1940470  57.5144650  54.8935310  87.2045700  57.0879560  53.8379990
  86.6054590  57.8115360  53.6543610  87.7525310  57.0256340  53.0556440
  82.4147150  57.9801770  65.9049610  82.3190750  57.0396500  65.7550010
  83.2579130  58.2016840  65.5097680  85.8110570  55.7243100  55.8683270
  86.2040140  56.0415300  55.0551960  86.1727420  54.8454980  55.9827790
  77.5457690  54.3915440  64.0583390  77.1521080  55.2390650  64.2656170
  76.8576090  53.7541810  64.2492030  84.1202740  54.4750410  67.1280130
  83.4301060  54.2822610  67.7626220  84.8635040  54.7585050  67.6604430
  74.8474740  52.3143900  58.0913470  74.5587790  52.8846760  58.8038450
  75.5920500  51.8348350  58.4544700  75.0344970  56.2564020  49.3016190
  74.9519640  57.1994780  49.4431180  74.6828030  56.1138930  48.4228540
  86.3965710  58.3148850  59.9634050  85.6646830  58.8235660  60.3124150
  85.9990050  57.4978830  59.6622830  82.8343100  54.9903050  58.3686540
  82.8379160  54.5493000  57.5191080  83.7294220  55.3120380  58.4758360
  78.6845480  54.8729540  57.3280750  78.3445530  55.3504770  58.0847800
  77.9222800  54.4194660  56.9681850  82.8963250  55.9915130  51.3593300
  83.0176070  55.9501610  52.3079120  82.5111760  56.8539280  51.2040030
  86.8591620  53.7682530  59.3756990  86.8764360  54.2191180  60.2198840
  86.6107200  52.8688170  59.5890430  81.9084750  58.3016270  50.7576600
  81.3401650  57.8534520  50.1312510  82.6173750  58.6609050  50.2241750
  90.2862370  51.1814710  65.2143370  90.6108140  50.4504370  65.7401350
  90.3218880  50.8628350  64.3124360  76.9853930  62.2028290  64.6343330
  76.6008720  61.5621960  65.2326290  77.2966120  62.9064410  65.2038060
  83.1351070  59.0504830  60.1151950  83.5021200  58.5763400  60.8613290
  82.9456130  59.9246400  60.4560290  75.9991560  53.7948520  56.2445420
  75.7138480  53.4304190  57.0824040  75.9370420  53.0628980  55.6308560
  80.9250440  58.0913470  62.4336160  80.6207510  58.9705450  62.6586520
  81.8796900  58.1513260  62.4693600  79.4532230  62.2974460  53.0303010
  78.6794490  61.7572080  52.8701730  80.1826860  61.7781070  52.6920770
  90.2120210  61.2939820  58.8229400  90.9319330  61.7895110  58.4325510
  90.0102030  60.6157710  58.1783270  85.6730150  52.6877780  52.9658790
  84.8594760  52.1890950  52.8904100  85.4792100  53.5276030  52.5495140
  85.5939010  61.3648880  64.7098400  85.5276320  60.4444550  64.4555990
  84.9644150  61.4624320  65.4243040  88.3878540  57.0597430  51.2620950
  89.2758160  57.3714660  51.0872290  88.3583630  56.1869680  50.8701530
  79.4969630  61.9654840  56.6681820  80.0148300  61.1623100  56.6138710
  79.0453650  61.9033980  57.5098650  84.3839130  63.2321120  51.9409120
  84.7254830  63.9763350  51.4452440  83.5551840  63.5452240  52.3033950
  76.9814170  58.9316210  63.5807520  76.6229110  59.5970060  64.1680860
  76.6868730  58.0999760  63.9520140  80.1827290  59.3900450  66.4647070
  79.8827430  59.5357630  65.5674890  80.9538530  58.8305740  66.3720460
  85.5255740  64.1869450  64.4602200  85.5400280  63.2550410  64.2421110
  84.8180840  64.2729210  65.0991970  90.6592810  58.3709270  50.7300810
  90.5756530  58.8023490  49.8797250  91.3787000  58.8307620  51.1627630
  87.2666540  62.5536960  57.3054630  87.6190360  61.9565090  56.6456000
  86.3828870  62.2281190  57.4762880  83.3529820  63.3134650  54.7125040
  84.0400950  63.8603860  55.0932630  82.5662240  63.8575380  54.7474650
  75.4922220  58.9307470  50.2042120  76.3617070  59.2132270  50.4878040
  75.0012540  59.7443340  50.0890930  82.6557030  60.3180680  54.3250400
  83.1119810  61.1285930  54.5510590  82.3045240  60.0003820  55.1568890
  84.9589640  65.8287020  61.5542700  85.6031860  66.0346400  62.2316120
  85.3219080  65.0675420  61.1013550  78.5568810  50.6618330  54.7972920
  78.4283440  50.6536230  55.7457840  77.7330830  51.0001420  54.4463930
  86.2321720  63.8319370  60.2720150  86.8743950  63.1312530  60.3852320
  86.7571070  64.6117810  60.0917040  90.0777440  64.1167990  49.9959290
  89.8515020  63.3998430  50.5883930  89.6873640  63.8680430  49.1581040
  88.0059340  64.6314270  63.4756210  88.3415580  65.2180960  64.1534130
  87.0859680  64.5006980  63.7054000  75.8593470  68.1434850  50.7703750
  76.2191110  68.7424190  50.1161020  75.7185810  68.6894740  51.5438780
  75.5562740  52.4209450  64.2579620  74.8421260  52.6206370  64.8632230
  75.9757780  51.6449020  64.6294420  89.6593690  62.0339930  51.6573450
  89.3715390  62.4952620  52.4451330  90.4545860  61.5737700  51.9257670
  75.8435330  66.4089710  65.2446150  75.9526450  65.4684450  65.1041540
  75.1915890  66.6744460  64.5959880  83.8347920  64.6805600  66.6444270
  83.5144790  63.9614840  67.1889960  83.1606280  65.3560670  66.7180330
  81.8762090  65.5266050  51.5877420  81.8672190  66.2595740  50.9721930
  80.9560450  65.2797630  51.6804380  77.4768730  60.7480940  52.3324180
  76.8696680  61.4879840  52.3419480  77.9518080  60.8380300  51.5062380
  87.0501520  54.9131760  62.0081070  87.4182340  54.0926970  62.3360640
  86.1899720  54.9733650  62.4236720  90.4163550  53.8688700  52.8168630
  89.7876710  53.9734370  52.1026860  89.9215470  54.0885480  53.6062510
  84.8621690  65.5894290  50.2502610  84.9633670  65.3858280  49.3204590
  83.9623430  65.3352570  50.4550390  82.3847580  56.1474650  54.2326510
  81.6763730  56.6160990  54.6740120  82.6692060  55.4896660  54.8671700
  84.0103510  57.5671350  62.2319040  84.5088760  58.0417170  62.8970890
  84.1526460  56.6434870  62.4389070  86.4163010  52.8725310  55.6722300
  86.2930790  52.8911440  54.7231810  87.3647570  52.9204250  55.7920700
  83.5039800  68.1080610  54.9450280  83.7581300  68.0702000  54.0229650
  82.5552280  67.9813940  54.9378530  80.5882600  54.4559730  51.6077220
  81.4373130  54.8929880  51.5417410  80.2213870  54.7679990  52.4349280
  89.5092380  59.0272490  56.5208790  88.5682520  59.0422720  56.6956480
  89.8236450  58.2408450  56.9669090  79.4874020  60.7092090  50.0812750
  80.2537290  60.5973450  50.6438180  79.5648710  60.0130060  49.4289520
  78.1820780  58.1417160  50.7645640  78.2624370  57.1944670  50.8763040
  79.0740530  58.4724040  50.8706300  78.9835490  68.2912550  57.8680180
  79.7197970  67.7428010  58.1388750  79.3676410  69.1568560  57.7286170
  75.8680970  64.3586120  53.7421690  74.9420750  64.6007260  53.7327100
  76.3337400  65.1860380  53.6206440  77.9893770  67.4758620  67.0565760
  78.7906500  67.7970670  67.4701160  77.4745590  67.1154200  67.7785670
  82.0937800  67.4642860  49.6905750  82.8866410  67.7531690  49.2387540
  81.5742150  67.0335030  49.0118230  86.8258400  63.5838490  67.0041170
  86.2196560  63.6070090  66.2636920  86.5212510  62.8521530  67.5408420
  88.2558770  67.3118780  65.6150580  89.2080520  67.2276800  65.5650820
  88.1086990  67.9760490  66.2884370  91.1467970  66.6912990  51.1142490
  90.8609480  66.2778130  50.2996670  90.9487520  67.6200700  50.9943010
  75.7091580  59.9632080  66.0001810  76.2130600  59.3839360  66.5718040
  74.9699000  60.2472310  66.5378180  82.6115200  62.6846270  49.5548100
  82.5065840  62.0698620  50.2809480  82.4439420  62.1612160  48.7711110
  82.7629520  61.3703070  65.5337330  81.9975190  61.9388070  65.4492000
  82.9445480  61.0779280  64.6405560  85.8517930  61.7466300  50.1590090
  85.3028030  62.1935600  50.8032830  86.4737190  61.2415550  50.6827760
  89.9052870  63.1008400  66.0912350  90.6462340  63.4384160  65.5879810
  89.1425550  63.2700460  65.5382120  77.7414660  58.1061670  66.8951880
  77.7820000  57.8075540  67.8037110  78.5960160  58.5069280  66.7359400
  81.5193050  60.7057220  52.0555390  81.9409470  60.5397090  52.8986780
  81.6443890  59.8957450  51.5610530  79.6820470  56.6853770  64.8626370
  79.1516930  56.1944720  64.2349710  80.3508540  57.1137970  64.3284300
  84.0320690  59.7294830  49.3032490  84.5526350  59.0143850  48.9373640
  84.6789090  60.3680700  49.6033000  88.5798530  61.1523230  64.6267560
  88.9939550  61.3068310  65.4757980  87.6449530  61.2778450  64.7893340
  89.0520700  58.4919390  66.6306710  89.6341470  57.7371710  66.5427190
  89.2282470  59.0226830  65.8538190  80.1692770  53.6516140  64.9423660
  80.0749640  53.0336890  64.2174530  79.5890160  54.3782430  64.7153570
  82.9354210  52.2089380  61.9751050  82.4871510  52.2313640  61.1296600
  82.3019410  51.8108400  62.5721350  83.3413760  61.1043710  62.5963490
  83.7601870  61.9476440  62.4239730  82.4222390  61.2415750  62.3670270
  85.6777660  58.8359890  63.9801330  85.7973870  58.2401030  64.7196170
  86.5371660  58.8729580  63.5602630  88.0165560  59.3897080  62.5563840
  87.4900780  59.9139700  61.9528980  88.3596900  60.0224470  63.1873570
  80.4151950  56.7790450  49.0013550  80.2141010  55.9157810  49.3626890
  80.2444000  56.6923810  48.0635150  81.1921180  67.4096720  63.7121220
  80.6542270  68.1342780  63.3929920  81.4455140  66.9327060  62.9218560
  82.4446430  55.3781240  65.2377150  83.0346120  55.0697090  65.9254970
  81.6266670  54.9060990  65.3937050  87.2639860  54.9947050  65.4710170
  86.5755380  54.3328590  65.4060160  87.9845880  54.5485320  65.9158630
  87.8940260  51.5898680  51.5300430  88.1742550  50.7466580  51.8859850
  87.1205990  51.8221790  52.0439180  79.2134750  53.8791070  48.9891430
  79.5160650  53.8858500  48.0810580  79.9529340  53.5288930  49.4859090
  84.0483390  68.6447930  63.9707870  83.9742090  69.5483070  64.2780240
  83.1462230  68.3259830  63.9429940  82.4319680  52.8225690  49.9747630
  82.0841680  52.1449680  49.3950080  82.6332450  52.3615200  50.7891020
  84.5968720  67.8106440  51.5934230  85.4919510  68.1491410  51.6152990
  84.6286350  67.0885850  50.9658510  78.2364880  63.1833490  49.8221230
  78.6739750  63.7263160  50.4778810  78.7212610  62.3580440  49.8317570
  75.4510680  65.9722520  57.2741490  75.7813690  65.1043580  57.0420130
  75.8801680  66.1781040  58.1046450  80.0472600  64.3031530  54.9343460
  79.7468140  64.1796500  55.8347370  79.9410090  63.4440120  54.5259190
  75.9400890  66.8393110  60.0123120  75.5031880  67.0193910  60.8447270
  76.5078570  67.5967730  59.8704840  75.7725320  59.3513340  56.3712000
  75.1174160  59.0824980  55.7271700  76.6103270  59.2417820  55.9213980
  90.2614710  63.0662090  62.3976590  89.4474550  63.4959250  62.6602380
  90.6688910  63.6780500  61.7845640  88.7215760  54.1454630  50.5930490
  89.1400640  53.9585610  49.7527150  88.4151820  53.2933680  50.9033420
  76.8101250  59.7365910  60.9115340  77.1774290  59.6493310  61.7911360
  76.2412070  58.9732460  60.8122200  76.3617250  56.6475000  64.8173760
  75.4673300  56.6141760  65.1567470  76.9014800  56.8461790  65.5825010
  90.0493180  53.4306720  66.7025510  90.9263360  53.4390120  67.0859510
  90.0614020  52.6937560  66.0917860  74.9863400  56.5612270  52.3137330
  74.0827480  56.8242470  52.1388990  75.4704020  56.8323440  51.5337290
  77.5290610  55.6177810  50.2231710  78.2382310  55.1961030  49.7378990
  76.8130550  55.6853040  49.5915060  77.1764770  51.6717140  49.2634360
  77.8992900  52.2126080  49.5815580  77.4489290  51.3980560  48.3875900
  90.9856420  56.5409610  53.5305940  91.4815540  56.3080480  54.3154820
  90.7872490  55.7021450  53.1143580  76.8656960  50.9223330  59.1656980
  77.5133150  50.3720710  58.7252140  77.2858800  51.1766480  59.9872790
  90.7609300  51.1164690  62.5226620  91.3981520  51.7298830  62.8885810
  90.9084190  51.1525350  61.5775850  90.3190760  67.8180690  55.9244860
  90.9149830  67.4965260  55.2479280  90.5768910  67.3452510  56.7158130
  76.6188960  51.0779000  61.9082300  76.2703780  51.5342820  62.6740480
  76.2876660  50.1836130  61.9904730  78.2253330  64.2498600  66.0735490
  78.1822960  63.8791510  66.9549950  78.3564340  65.1876170  66.2137310
  81.9259360  65.8058190  61.6745210  81.6850720  66.0732750  60.7875730
  82.8662000  65.9763920  61.7296070  84.1313780  52.2690880  65.4301720
  84.0702670  52.8612710  66.1797130  85.0714160  52.1616840  65.2851980
  86.7688340  51.9260940  65.0694010  87.3828750  52.2440230  64.4075090
  87.3137900  51.4409530  65.6889870  77.2909600  50.6055200  65.1833070
  77.8392590  50.4243250  64.4199180  77.3564910  49.8149310  65.7189380
  78.0641360  67.1960850  63.1933270  77.4701680  67.0645550  63.9323310
  78.0565200  66.3598990  62.7275370  87.5096380  50.4893080  61.3963300
  86.6356220  50.8228190  61.1936230  87.4007130  50.0166260  62.2215170
  88.4168360  52.6963950  62.7805020  88.0881720  51.8815710  62.4006750
  89.3650660  52.6533760  62.6570710  90.8702970  68.4675990  59.7542590
  90.4105940  69.2191800  59.3800610  90.2415430  67.7482460  59.6957390
  77.6953590  64.5619230  62.1441310  76.9687650  63.9424520  62.0767260
  77.7562740  64.9559840  61.2739390  81.2998690  66.7764230  58.9290720
  81.8163710  66.1651590  58.4038980  81.9496070  67.2793010  59.4201730
  84.0394190  67.6672720  59.7559700  84.3272000  67.4127020  58.8792710
  84.5517410  67.1150080  60.3465270  85.2571200  51.4062920  60.3356210
  84.4742990  51.8808420  60.6152970  84.9634130  50.5017750  60.2269390
  89.8092270  52.1086020  58.3805300  90.2500360  52.0531120  57.5326900
  89.5399860  53.0244030  58.4515480  75.9783590  67.8793620  55.3538070
  75.8105630  67.2464300  56.0519960  75.1118100  68.0853020  55.0032260
  76.6011610  51.7110400  52.8569930  77.3590970  51.8239280  52.2833960
  76.1388780  52.5479600  52.8113360  83.1425420  53.8249670  55.8472240
  82.3299930  53.4506560  55.5068120  83.6467060  53.0694750  56.1493430
  87.6450400  50.4892120  57.0855310  88.2479770  51.0612330  57.5603830
  86.9043390  51.0531560  56.8629210  90.7885000  50.8913680  52.3595590
  90.9835630  51.7897130  52.6263020  90.0014870  50.6600760  52.8528540
  77.5846290  66.5726850  52.7988210  77.0593910  66.9534880  52.0950170
  77.5090870  67.1977620  53.5197920  78.9736760  52.2374450  51.3971900
  79.5029520  51.4504250  51.2679850  79.6065080  52.9165640  51.6307430
  81.1674600  51.9749590  54.4517290  80.5377340  51.2736900  54.6187420
  80.6279740  52.7353720  54.2350450  84.1066550  68.5888820  67.1227900
  85.0333860  68.3533090  67.1663860  84.0916980  69.4160820  66.6413930
  81.2930160  51.2533570  66.8869780  81.0114430  51.7567170  66.1230600
  81.6749860  50.4555320  66.5211910  80.1839260  68.5209230  51.6737460
  80.9158080  68.2368510  51.1261350  80.4432930  68.2822510  52.5636840
  79.3454050  64.6373960  51.6783790  78.7162930  65.1059060  52.2269620
  79.4601880  63.7923180  52.1129980  87.8945620  50.6687150  67.4650250
  87.7811070  50.9881760  68.3601770  88.7115360  51.0699660  67.1687530
  90.6744110  67.8158680  66.9468940  91.4669430  67.3207910  66.7394900
  90.9677260  68.4948820  67.5544550  86.8003770  58.6879620  37.8284990
  86.7197820  57.7734230  37.5576700  86.3868190  59.1846690  37.1224700
  84.9321810  60.4658640  39.7094260  84.1563910  59.9859080  39.9992830
  85.5834740  59.7864290  39.5350420  78.9487640  60.7778450  40.5870020
  78.1172520  60.5227160  40.9866530  79.5568620  60.8489220  41.3227940
  88.9529240  64.8718830  38.4893390  88.4910770  64.1006070  38.8180560
  89.7654790  64.8984900  38.9945840  78.9288900  64.8118540  40.7828040
  79.2316940  63.9216280  40.6038260  79.6732490  65.3688760  40.5550290
  77.3579590  55.7380340  34.3712410  76.4696290  56.0796310  34.2692290
  77.6420780  55.5380660  33.4793240  75.3212600  58.3385990  40.2552110
  75.8928710  57.5708190  40.2555750  75.3214140  58.6374750  39.3458720
  85.1792550  67.1576840  38.1097380  84.5603990  67.6134340  37.5391820
  86.0344330  67.3128300  37.7087080  84.3730800  63.1415830  39.7164420
  84.3039080  62.2005770  39.5553550  85.1350660  63.2317240  40.2886990
  76.5637470  53.7470350  42.0421040  76.3840310  52.8496100  42.3223800
  76.1617550  54.2942220  42.7167990  85.4035970  55.9486210  39.9433350
  85.7800790  55.0758090  39.8307020  85.3055480  56.2844910  39.0523790
  79.5340980  54.3211840  35.4050790  79.6407730  55.2215570  35.7119550
  78.6233340  54.2729810  35.1145440  89.1860090  53.4436650  36.8761690
  90.0069710  52.9533220  36.9187170  89.2194170  54.0334310  37.6293530
  77.1824140  56.2430850  40.6503380  77.8634250  56.5069220  41.2690780
  76.8672190  55.4031720  40.9841390  81.3748710  57.2898210  39.7375970
  81.8826930  57.7879180  40.3780990  81.9061950  56.5133410  39.5615330
  79.6584810  51.9296770  44.0039390  79.6603250  52.4469160  43.1985290
  78.8289120  51.4526950  43.9809320  86.0455900  62.0416080  35.5029290
  85.4273170  62.5065530  34.9392010  86.5579150  62.7343560  35.9198800
  80.9087660  61.5691950  42.1812890  80.5757040  62.1960870  42.8233960
  81.0854340  62.0953830  41.4014560  89.4221570  55.3837030  39.6489230
  88.7177140  55.6721920  40.2292340  89.7833730  56.1937140  39.2888790
  79.3400140  53.6406730  42.0109840  79.6816950  54.4848780  41.7163710
  78.4015950  53.7890470  42.1275180  80.1206760  63.5372750  43.9962070
  80.7380760  64.2123830  43.7146520  79.2599880  63.9460730  43.9049570
  75.4139100  62.7272610  32.8768920  75.0367080  63.2159710  32.1453820
  75.6712170  63.3997890  33.5075450  83.0228030  51.1289000  38.3354430
  83.3303010  50.5735890  37.6189930  82.0928730  51.2633460  38.1527420
  88.5743090  66.8456290  40.6261890  88.5870250  66.4418580  39.7584150
  88.0218310  67.6203580  40.5223320  89.8688510  63.5672510  35.7152060
  89.7584840  62.6246840  35.8401480  89.8656760  63.9288150  36.6014820
  87.9728530  61.7486130  41.9544500  88.3897320  61.5346240  41.1197960
  88.6968350  62.0058920  42.5253120  85.4108790  59.1937830  35.0714550
  84.4838070  59.1275210  35.3003020  85.5633610  60.1317960  34.9569790
  85.3977870  55.4654830  32.0681710  84.4581540  55.6268790  32.1534170
  85.7161130  56.1840510  31.5217700  89.4406080  60.7558130  35.5749800
  88.8218500  60.4177680  34.9276100  89.4230530  60.1117890  36.2828990
  88.8832640  56.9342670  42.9915610  88.4703820  57.7596380  43.2455600
  88.1508590  56.3487710  42.7991970  81.0165430  59.7202570  37.8534280
  80.6122430  59.0079820  37.3580180  81.1028550  59.3755810  38.7422320
  81.4847130  63.4070130  40.0173490  81.1875420  62.8015600  39.3381270
  82.4346950  63.4447440  39.9062850  79.7294050  56.4945780  41.6333320
  80.2808640  56.6041120  40.8586570  80.2437560  56.8683380  42.3488550
  89.5732740  66.9802000  43.6796590  89.0963300  67.7874190  43.4869200
  88.8894530  66.3280330  43.8322800  80.5765560  63.1451820  46.6681290
  79.6794090  63.3691790  46.9154690  80.6018430  63.2686760  45.7192690
  87.6170780  59.9944940  32.5822550  88.0564060  59.1567370  32.4360370
  88.3299200  60.6274340  32.6686690  79.4036780  60.0165140  45.2438660
  79.2644550  60.8887940  45.6126060  78.5218140  59.6737950  45.0986600
  85.7266160  64.9341010  36.5503790  86.1662070  65.6765340  36.1359180
  85.6653050  65.1767580  37.4742750  81.2017130  65.9586840  47.4523810
  81.1732560  66.3629790  46.5852240  81.0382100  65.0297200  47.2895410
  77.7170060  58.6147550  35.3540930  77.5967660  59.3409640  34.7422200
  77.4070950  57.8450460  34.8768840  75.3555430  61.7862690  41.1609570
  75.4335850  61.9211460  40.2165290  75.9697110  61.0778580  41.3537690
  76.6003060  63.4862880  37.5715750  76.1931140  63.6277470  36.7169350
  77.4916070  63.2023040  37.3686960  86.4181940  67.6354790  44.4782800
  86.9326610  67.5462800  45.2805230  85.5751020  67.9814490  44.7710710
  88.3936340  67.9210130  33.9066800  88.2337480  67.6313070  34.8048630
  88.2283050  67.1450260  33.3712030  80.8724720  67.7008660  35.6838420
  80.6967200  66.7844200  35.4706220  80.0180460  68.0595950  35.9236220
  88.0962470  65.4297690  32.4664800  87.4027630  65.4274980  31.8067080
  88.8385330  65.0057010  32.0358970  87.6612400  67.0560400  36.5413290
  88.1169350  66.2749780  36.8551910  88.0004920  67.7667220  37.0854470
  75.4114950  62.8276860  43.7004030  75.5745990  62.3582220  42.8823400
  75.8767400  62.3200420  44.3652870  80.1833720  51.9582620  38.7364600
  79.7401870  52.7392160  38.4049120  80.7418710  52.2812510  39.4435540
  84.4703530  54.8251140  44.3399920  84.0082900  55.0334160  45.1519860
  84.0681640  54.0110490  44.0370590  89.4708040  56.0460090  45.4696580
  88.6201630  55.7465840  45.7905650  89.3109830  56.2902100  44.5580400
  86.5657750  57.5461840  47.5695370  86.8911160  56.7125590  47.2297600
  87.3538080  58.0690360  47.7173700  83.2992540  51.5793320  33.6170430
  82.6746720  51.5753190  34.3423740  83.2122660  50.7124280  33.2206400
  82.2209620  52.5029950  40.5954200  82.5181950  53.4092780  40.5146220
  82.7695180  52.0148730  39.9813770  79.9747940  57.0816190  36.4645850
  79.7488860  56.8653360  37.3692470  79.1940470  57.5144650  36.1191820
  87.2045700  57.0879560  35.0636500  86.6054590  57.8115360  34.8800120
  87.7525310  57.0256340  34.2812950  82.4147150  57.9801770  47.1306120
  82.3190750  57.0396500  46.9806520  83.2579130  58.2016840  46.7354190
  85.8110570  55.7243100  37.0939780  86.2040140  56.0415300  36.2808470
  86.1727420  54.8454980  37.2084300  77.5457690  54.3915440  45.2839900
  77.1521080  55.2390650  45.4912680  76.8576090  53.7541810  45.4748540
  84.1202740  54.4750410  48.3536640  83.4301060  54.2822610  48.9882730
  84.8635040  54.7585050  48.8860940  74.8474740  52.3143900  39.3169980
  74.5587790  52.8846760  40.0294960  75.5920500  51.8348350  39.6801210
  75.0344970  56.2564020  30.5272700  74.9519640  57.1994780  30.6687690
  74.6828030  56.1138930  29.6485050  86.3965710  58.3148850  41.1890560
  85.6646830  58.8235660  41.5380660  85.9990050  57.4978830  40.8879340
  82.8343100  54.9903050  39.5943050  82.8379160  54.5493000  38.7447590
  83.7294220  55.3120380  39.7014870  78.6845480  54.8729540  38.5537260
  78.3445530  55.3504770  39.3104310  77.9222800  54.4194660  38.1938360
  82.8963250  55.9915130  32.5849810  83.0176070  55.9501610  33.5335630
  82.5111760  56.8539280  32.4296540  86.8591620  53.7682530  40.6013500
  86.8764360  54.2191180  41.4455350  86.6107200  52.8688170  40.8146940
  81.9084750  58.3016270  31.9833110  81.3401650  57.8534520  31.3569020
  82.6173750  58.6609050  31.4498260  90.2862370  51.1814710  46.4399880
  90.6108140  50.4504370  46.9657860  90.3218880  50.8628350  45.5380870
  76.9853930  62.2028290  45.8599840  76.6008720  61.5621960  46.4582800
  77.2966120  62.9064410  46.4294570  83.1351070  59.0504830  41.3408460
  83.5021200  58.5763400  42.0869800  82.9456130  59.9246400  41.6816800
  75.9991560  53.7948520  37.4701930  75.7138480  53.4304190  38.3080550
  75.9370420  53.0628980  36.8565070  80.9250440  58.0913470  43.6592670
  80.6207510  58.9705450  43.8843030  81.8796900  58.1513260  43.6950110
  79.4532230  62.2974460  34.2559520  78.6794490  61.7572080  34.0958240
  80.1826860  61.7781070  33.9177280  90.2120210  61.2939820  40.0485910
  90.9319330  61.7895110  39.6582020  90.0102030  60.6157710  39.4039780
  85.6730150  52.6877780  34.1915300  84.8594760  52.1890950  34.1160610
  85.4792100  53.5276030  33.7751650  85.5939010  61.3648880  45.9354910
  85.5276320  60.4444550  45.6812500  84.9644150  61.4624320  46.6499550
  88.3878540  57.0597430  32.4877460  89.2758160  57.3714660  32.3128800
  88.3583630  56.1869680  32.0958040  79.4969630  61.9654840  37.8938330
  80.0148300  61.1623100  37.8395220  79.0453650  61.9033980  38.7355160
  84.3839130  63.2321120  33.1665630  84.7254830  63.9763350  32.6708950
  83.5551840  63.5452240  33.5290460  76.9814170  58.9316210  44.8064030
  76.6229110  59.5970060  45.3937370  76.6868730  58.0999760  45.1776650
  80.1827290  59.3900450  47.6903580  79.8827430  59.5357630  46.7931400
  80.9538530  58.8305740  47.5976970  85.5255740  64.1869450  45.6858710
  85.5400280  63.2550410  45.4677620  84.8180840  64.2729210  46.3248480
  90.6592810  58.3709270  31.9557320  90.5756530  58.8023490  31.1053760
  91.3787000  58.8307620  32.3884140  87.2666540  62.5536960  38.5311140
  87.6190360  61.9565090  37.8712510  86.3828870  62.2281190  38.7019390
  83.3529820  63.3134650  35.9381550  84.0400950  63.8603860  36.3189140
  82.5662240  63.8575380  35.9731160  75.4922220  58.9307470  31.4298630
  76.3617070  59.2132270  31.7134550  75.0012540  59.7443340  31.3147440
  82.6557030  60.3180680  35.5506910  83.1119810  61.1285930  35.7767100
  82.3045240  60.0003820  36.3825400  84.9589640  65.8287020  42.7799210
  85.6031860  66.0346400  43.4572630  85.3219080  65.0675420  42.3270060
  78.5568810  50.6618330  36.0229430  78.4283440  50.6536230  36.9714350
  77.7330830  51.0001420  35.6720440  86.2321720  63.8319370  41.4976660
  86.8743950  63.1312530  41.6108830  86.7571070  64.6117810  41.3173550
  90.0777440  64.1167990  31.2215800  89.8515020  63.3998430  31.8140440
  89.6873640  63.8680430  30.3837550  88.0059340  64.6314270  44.7012720
  88.3415580  65.2180960  45.3790640  87.0859680  64.5006980  44.9310510
  75.8593470  68.1434850  31.9960260  76.2191110  68.7424190  31.3417530
  75.7185810  68.6894740  32.7695290  75.5562740  52.4209450  45.4836130
  74.8421260  52.6206370  46.0888740  75.9757780  51.6449020  45.8550930
  89.6593690  62.0339930  32.8829960  89.3715390  62.4952620  33.6707840
  90.4545860  61.5737700  33.1514180  75.8435330  66.4089710  46.4702660
  75.9526450  65.4684450  46.3298050  75.1915890  66.6744460  45.8216390
  83.8347920  64.6805600  47.8700780  83.5144790  63.9614840  48.4146470
  83.1606280  65.3560670  47.9436840  81.8762090  65.5266050  32.8133930
  81.8672190  66.2595740  32.1978440  80.9560450  65.2797630  32.9060890
  77.4768730  60.7480940  33.5580690  76.8696680  61.4879840  33.5675990
  77.9518080  60.8380300  32.7318890  87.0501520  54.9131760  43.2337580
  87.4182340  54.0926970  43.5617150  86.1899720  54.9733650  43.6493230
  90.4163550  53.8688700  34.0425140  89.7876710  53.9734370  33.3283370
  89.9215470  54.0885480  34.8319020  84.8621690  65.5894290  31.4759120
  84.9633670  65.3858280  30.5461100  83.9623430  65.3352570  31.6806900
  82.3847580  56.1474650  35.4583020  81.6763730  56.6160990  35.8996630
  82.6692060  55.4896660  36.0928210  84.0103510  57.5671350  43.4575550
  84.5088760  58.0417170  44.1227400  84.1526460  56.6434870  43.6645580
  86.4163010  52.8725310  36.8978810  86.2930790  52.8911440  35.9488320
  87.3647570  52.9204250  37.0177210  83.5039800  68.1080610  36.1706790
  83.7581300  68.0702000  35.2486160  82.5552280  67.9813940  36.1635040
  80.5882600  54.4559730  32.8333730  81.4373130  54.8929880  32.7673920
  80.2213870  54.7679990  33.6605790  89.5092380  59.0272490  37.7465300
  88.5682520  59.0422720  37.9212990  89.8236450  58.2408450  38.1925600
  79.4874020  60.7092090  31.3069260  80.2537290  60.5973450  31.8694690
  79.5648710  60.0130060  30.6546030  78.1820780  58.1417160  31.9902150
  78.2624370  57.1944670  32.1019550  79.0740530  58.4724040  32.0962810
  78.9835490  68.2912550  39.0936690  79.7197970  67.7428010  39.3645260
  79.3676410  69.1568560  38.9542680  75.8680970  64.3586120  34.9678200
  74.9420750  64.6007260  34.9583610  76.3337400  65.1860380  34.8462950
  77.9893770  67.4758620  48.2822270  78.7906500  67.7970670  48.6957670
  77.4745590  67.1154200  49.0042180  82.0937800  67.4642860  30.9162260
  82.8866410  67.7531690  30.4644050  81.5742150  67.0335030  30.2374740
  86.8258400  63.5838490  48.2297680  86.2196560  63.6070090  47.4893430
  86.5212510  62.8521530  48.7664930  88.2558770  67.3118780  46.8407090
  89.2080520  67.2276800  46.7907330  88.1086990  67.9760490  47.5140880
  91.1467970  66.6912990  32.3399000  90.8609480  66.2778130  31.5253180
  90.9487520  67.6200700  32.2199520  75.7091580  59.9632080  47.2258320
  76.2130600  59.3839360  47.7974550  74.9699000  60.2472310  47.7634690
  82.6115200  62.6846270  30.7804610  82.5065840  62.0698620  31.5065990
  82.4439420  62.1612160  29.9967620  82.7629520  61.3703070  46.7593840
  81.9975190  61.9388070  46.6748510  82.9445480  61.0779280  45.8662070
  85.8517930  61.7466300  31.3846600  85.3028030  62.1935600  32.0289340
  86.4737190  61.2415550  31.9084270  89.9052870  63.1008400  47.3168860
  90.6462340  63.4384160  46.8136320  89.1425550  63.2700460  46.7638630
  77.7414660  58.1061670  48.1208390  77.7820000  57.8075540  49.0293620
  78.5960160  58.5069280  47.9615910  81.5193050  60.7057220  33.2811900
  81.9409470  60.5397090  34.1243290  81.6443890  59.8957450  32.7867040
  79.6820470  56.6853770  46.0882880  79.1516930  56.1944720  45.4606220
  80.3508540  57.1137970  45.5540810  84.0320690  59.7294830  30.5289000
  84.5526350  59.0143850  30.1630150  84.6789090  60.3680700  30.8289510
  88.5798530  61.1523230  45.8524070  88.9939550  61.3068310  46.7014490
  87.6449530  61.2778450  46.0149850  89.0520700  58.4919390  47.8563220
  89.6341470  57.7371710  47.7683700  89.2282470  59.0226830  47.0794700
  80.1692770  53.6516140  46.1680170  80.0749640  53.0336890  45.4431040
  79.5890160  54.3782430  45.9410080  82.9354210  52.2089380  43.2007560
  82.4871510  52.2313640  42.3553110  82.3019410  51.8108400  43.7977860
  83.3413760  61.1043710  43.8220000  83.7601870  61.9476440  43.6496240
  82.4222390  61.2415750  43.5926780  85.6777660  58.8359890  45.2057840
  85.7973870  58.2401030  45.9452680  86.5371660  58.8729580  44.7859140
  88.0165560  59.3897080  43.7820350  87.4900780  59.9139700  43.1785490
  88.3596900  60.0224470  44.4130080  80.4151950  56.7790450  30.2270060
  80.2141010  55.9157810  30.5883400  80.2444000  56.6923810  29.2891660
  81.1921180  67.4096720  44.9377730  80.6542270  68.1342780  44.6186430
  81.4455140  66.9327060  44.1475070  82.4446430  55.3781240  46.4633660
  83.0346120  55.0697090  47.1511480  81.6266670  54.9060990  46.6193560
  87.2639860  54.9947050  46.6966680  86.5755380  54.3328590  46.6316670
  87.9845880  54.5485320  47.1415140  87.8940260  51.5898680  32.7556940
  88.1742550  50.7466580  33.1116360  87.1205990  51.8221790  33.2695690
  79.2134750  53.8791070  30.2147940  79.5160650  53.8858500  29.3067090
  79.9529340  53.5288930  30.7115600  84.0483390  68.6447930  45.1964380
  83.9742090  69.5483070  45.5036750  83.1462230  68.3259830  45.1686450
  82.4319680  52.8225690  31.2004140  82.0841680  52.1449680  30.6206590
  82.6332450  52.3615200  32.0147530  84.5968720  67.8106440  32.8190740
  85.4919510  68.1491410  32.8409500  84.6286350  67.0885850  32.1915020
  78.2364880  63.1833490  31.0477740  78.6739750  63.7263160  31.7035320
  78.7212610  62.3580440  31.0574080  75.4510680  65.9722520  38.4998000
  75.7813690  65.1043580  38.2676640  75.8801680  66.1781040  39.3302960
  80.0472600  64.3031530  36.1599970  79.7468140  64.1796500  37.0603880
  79.9410090  63.4440120  35.7515700  75.9400890  66.8393110  41.2379630
  75.5031880  67.0193910  42.0703780  76.5078570  67.5967730  41.0961350
  75.7725320  59.3513340  37.5968510  75.1174160  59.0824980  36.9528210
  76.6103270  59.2417820  37.1470490  90.2614710  63.0662090  43.6233100
  89.4474550  63.4959250  43.8858890  90.6688910  63.6780500  43.0102150
  88.7215760  54.1454630  31.8187000  89.1400640  53.9585610  30.9783660
  88.4151820  53.2933680  32.1289930  76.8101250  59.7365910  42.1371850
  77.1774290  59.6493310  43.0167870  76.2412070  58.9732460  42.0378710
  76.3617250  56.6475000  46.0430270  75.4673300  56.6141760  46.3823980
  76.9014800  56.8461790  46.8081520  90.0493180  53.4306720  47.9282020
  90.9263360  53.4390120  48.3116020  90.0614020  52.6937560  47.3174370
  74.9863400  56.5612270  33.5393840  74.0827480  56.8242470  33.3645500
  75.4704020  56.8323440  32.7593800  77.5290610  55.6177810  31.4488220
  78.2382310  55.1961030  30.9635500  76.8130550  55.6853040  30.8171570
  77.1764770  51.6717140  30.4890870  77.8992900  52.2126080  30.8072090
  77.4489290  51.3980560  29.6132410  90.9856420  56.5409610  34.7562450
  91.4815540  56.3080480  35.5411330  90.7872490  55.7021450  34.3400090
  76.8656960  50.9223330  40.3913490  77.5133150  50.3720710  39.9508650
  77.2858800  51.1766480  41.2129300  90.7609300  51.1164690  43.7483130
  91.3981520  51.7298830  44.1142320  90.9084190  51.1525350  42.8032360
  90.3190760  67.8180690  37.1501370  90.9149830  67.4965260  36.4735790
  90.5768910  67.3452510  37.9414640  76.6188960  51.0779000  43.1338810
  76.2703780  51.5342820  43.8996990  76.2876660  50.1836130  43.2161240
  78.2253330  64.2498600  47.2992000  78.1822960  63.8791510  48.1806460
  78.3564340  65.1876170  47.4393820  81.9259360  65.8058190  42.9001720
  81.6850720  66.0732750  42.0132240  82.8662000  65.9763920  42.9552580
  84.1313780  52.2690880  46.6558230  84.0702670  52.8612710  47.4053640
  85.0714160  52.1616840  46.5108490  86.7688340  51.9260940  46.2950520
  87.3828750  52.2440230  45.6331600  87.3137900  51.4409530  46.9146380
  77.2909600  50.6055200  46.4089580  77.8392590  50.4243250  45.6455690
  77.3564910  49.8149310  46.9445890  78.0641360  67.1960850  44.4189780
  77.4701680  67.0645550  45.1579820  78.0565200  66.3598990  43.9531880
  87.5096380  50.4893080  42.6219810  86.6356220  50.8228190  42.4192740
  87.4007130  50.0166260  43.4471680  88.4168360  52.6963950  44.0061530
  88.0881720  51.8815710  43.6263260  89.3650660  52.6533760  43.8827220
  90.8702970  68.4675990  40.9799100  90.4105940  69.2191800  40.6057120
  90.2415430  67.7482460  40.9213900  77.6953590  64.5619230  43.3697820
  76.9687650  63.9424520  43.3023770  77.7562740  64.9559840  42.4995900
  81.2998690  66.7764230  40.1547230  81.8163710  66.1651590  39.6295490
  81.9496070  67.2793010  40.6458240  84.0394190  67.6672720  40.9816210
  84.3272000  67.4127020  40.1049220  84.5517410  67.1150080  41.5721780
  85.2571200  51.4062920  41.5612720  84.4742990  51.8808420  41.8409480
  84.9634130  50.5017750  41.4525900  89.8092270  52.1086020  39.6061810
  90.2500360  52.0531120  38.7583410  89.5399860  53.0244030  39.6771990
  75.9783590  67.8793620  36.5794580  75.8105630  67.2464300  37.2776470
  75.1118100  68.0853020  36.2288770  76.6011610  51.7110400  34.0826440
  77.3590970  51.8239280  33.5090470  76.1388780  52.5479600  34.0369870
  83.1425420  53.8249670  37.0728750  82.3299930  53.4506560  36.7324630
  83.6467060  53.0694750  37.3749940  87.6450400  50.4892120  38.3111820
  88.2479770  51.0612330  38.7860340  86.9043390  51.0531560  38.0885720
  90.7885000  50.8913680  33.5852100  90.9835630  51.7897130  33.8519530
  90.0014870  50.6600760  34.0785050  77.5846290  66.5726850  34.0244720
  77.0593910  66.9534880  33.3206680  77.5090870  67.1977620  34.7454430
  78.9736760  52.2374450  32.6228410  79.5029520  51.4504250  32.4936360
  79.6065080  52.9165640  32.8563940  81.1674600  51.9749590  35.6773800
  80.5377340  51.2736900  35.8443930  80.6279740  52.7353720  35.4606960
  84.1066550  68.5888820  48.3484410  85.0333860  68.3533090  48.3920370
  84.0916980  69.4160820  47.8670440  81.2930160  51.2533570  48.1126290
  81.0114430  51.7567170  47.3487110  81.6749860  50.4555320  47.7468420
  80.1839260  68.5209230  32.8993970  80.9158080  68.2368510  32.3517860
  80.4432930  68.2822510  33.7893350  79.3454050  64.6373960  32.9040300
  78.7162930  65.1059060  33.4526130  79.4601880  63.7923180  33.3386490
  87.8945620  50.6687150  48.6906760  87.7811070  50.9881760  49.5858280
  88.7115360  51.0699660  48.3944040  90.6744110  67.8158680  48.1725450
  91.4669430  67.3207910  47.9651410  90.9677260  68.4948820  48.7801060
  86.8003770  58.6879620  19.0541500  86.7197820  57.7734230  18.7833210
  86.3868190  59.1846690  18.3481210  84.9321810  60.4658640  20.9350770
  84.1563910  59.9859080  21.2249340  85.5834740  59.7864290  20.7606930
  78.9487640  60.7778450  21.8126530  78.1172520  60.5227160  22.2123040
  79.5568620  60.8489220  22.5484450  88.9529240  64.8718830  19.7149900
  88.4910770  64.1006070  20.0437070  89.7654790  64.8984900  20.2202350
  78.9288900  64.8118540  22.0084550  79.2316940  63.9216280  21.8294770
  79.6732490  65.3688760  21.7806800  77.3579590  55.7380340  15.5968920
  76.4696290  56.0796310  15.4948800  77.6420780  55.5380660  14.7049750
  75.3212600  58.3385990  21.4808620  75.8928710  57.5708190  21.4812260
  75.3214140  58.6374750  20.5715230  85.1792550  67.1576840  19.3353890
  84.5603990  67.6134340  18.7648330  86.0344330  67.3128300  18.9343590
  84.3730800  63.1415830  20.9420930  84.3039080  62.2005770  20.7810060
  85.1350660  63.2317240  21.5143500  76.5637470  53.7470350  23.2677550
  76.3840310  52.8496100  23.5480310  76.1617550  54.2942220  23.9424500
  85.4035970  55.9486210  21.1689860  85.7800790  55.0758090  21.0563530
  85.3055480  56.2844910  20.2780300  79.5340980  54.3211840  16.6307300
  79.6407730  55.2215570  16.9376060  78.6233340  54.2729810  16.3401950
  89.1860090  53.4436650  18.1018200  90.0069710  52.9533220  18.1443680
  89.2194170  54.0334310  18.8550040  77.1824140  56.2430850  21.8759890
  77.8634250  56.5069220  22.4947290  76.8672190  55.4031720  22.2097900
  81.3748710  57.2898210  20.9632480  81.8826930  57.7879180  21.6037500
  81.9061950  56.5133410  20.7871840  79.6584810  51.9296770  25.2295900
  79.6603250  52.4469160  24.4241800  78.8289120  51.4526950  25.2065830
  86.0455900  62.0416080  16.7285800  85.4273170  62.5065530  16.1648520
  86.5579150  62.7343560  17.1455310  80.9087660  61.5691950  23.4069400
  80.5757040  62.1960870  24.0490470  81.0854340  62.0953830  22.6271070
  89.4221570  55.3837030  20.8745740  88.7177140  55.6721920  21.4548850
  89.7833730  56.1937140  20.5145300  79.3400140  53.6406730  23.2366350
  79.6816950  54.4848780  22.9420220  78.4015950  53.7890470  23.3531690
  80.1206760  63.5372750  25.2218580  80.7380760  64.2123830  24.9403030
  79.2599880  63.9460730  25.1306080  75.4139100  62.7272610  14.1025430
  75.0367080  63.2159710  13.3710330  75.6712170  63.3997890  14.7331960
  83.0228030  51.1289000  19.5610940  83.3303010  50.5735890  18.8446440
  82.0928730  51.2633460  19.3783930  88.5743090  66.8456290  21.8518400
  88.5870250  66.4418580  20.9840660  88.0218310  67.6203580  21.7479830
  89.8688510  63.5672510  16.9408570  89.7584840  62.6246840  17.0657990
  89.8656760  63.9288150  17.8271330  87.9728530  61.7486130  23.1801010
  88.3897320  61.5346240  22.3454470  88.6968350  62.0058920  23.7509630
  85.4108790  59.1937830  16.2971060  84.4838070  59.1275210  16.5259530
  85.5633610  60.1317960  16.1826300  85.3977870  55.4654830  13.2938220
  84.4581540  55.6268790  13.3790680  85.7161130  56.1840510  12.7474210
  89.4406080  60.7558130  16.8006310  88.8218500  60.4177680  16.1532610
  89.4230530  60.1117890  17.5085500  88.8832640  56.9342670  24.2172120
  88.4703820  57.7596380  24.4712110  88.1508590  56.3487710  24.0248480
  81.0165430  59.7202570  19.0790790  80.6122430  59.0079820  18.5836690
  81.1028550  59.3755810  19.9678830  81.4847130  63.4070130  21.2430000
  81.1875420  62.8015600  20.5637780  82.4346950  63.4447440  21.1319360
  79.7294050  56.4945780  22.8589830  80.2808640  56.6041120  22.0843080
  80.2437560  56.8683380  23.5745060  89.5732740  66.9802000  24.9053100
  89.0963300  67.7874190  24.7125710  88.8894530  66.3280330  25.0579310
  80.5765560  63.1451820  27.8937800  79.6794090  63.3691790  28.1411200
  80.6018430  63.2686760  26.9449200  87.6170780  59.9944940  13.8079060
  88.0564060  59.1567370  13.6616880  88.3299200  60.6274340  13.8943200
  79.4036780  60.0165140  26.4695170  79.2644550  60.8887940  26.8382570
  78.5218140  59.6737950  26.3243110  85.7266160  64.9341010  17.7760300
  86.1662070  65.6765340  17.3615690  85.6653050  65.1767580  18.6999260
  81.2017130  65.9586840  28.6780320  81.1732560  66.3629790  27.8108750
  81.0382100  65.0297200  28.5151920  77.7170060  58.6147550  16.5797440
  77.5967660  59.3409640  15.9678710  77.4070950  57.8450460  16.1025350
  75.3555430  61.7862690  22.3866080  75.4335850  61.9211460  21.4421800
  75.9697110  61.0778580  22.5794200  76.6003060  63.4862880  18.7972260
  76.1931140  63.6277470  17.9425860  77.4916070  63.2023040  18.5943470
  86.4181940  67.6354790  25.7039310  86.9326610  67.5462800  26.5061740
  85.5751020  67.9814490  25.9967220  88.3936340  67.9210130  15.1323310
  88.2337480  67.6313070  16.0305140  88.2283050  67.1450260  14.5968540
  80.8724720  67.7008660  16.9094930  80.6967200  66.7844200  16.6962730
  80.0180460  68.0595950  17.1492730  88.0962470  65.4297690  13.6921310
  87.4027630  65.4274980  13.0323590  88.8385330  65.0057010  13.2615480
  87.6612400  67.0560400  17.7669800  88.1169350  66.2749780  18.0808420
  88.0004920  67.7667220  18.3110980  75.4114950  62.8276860  24.9260540
  75.5745990  62.3582220  24.1079910  75.8767400  62.3200420  25.5909380
  80.1833720  51.9582620  19.9621110  79.7401870  52.7392160  19.6305630
  80.7418710  52.2812510  20.6692050  84.4703530  54.8251140  25.5656430
  84.0082900  55.0334160  26.3776370  84.0681640  54.0110490  25.2627100
  89.4708040  56.0460090  26.6953090  88.6201630  55.7465840  27.0162160
  89.3109830  56.2902100  25.7836910  86.5657750  57.5461840  28.7951880
  86.8911160  56.7125590  28.4554110  87.3538080  58.0690360  28.9430210
  83.2992540  51.5793320  14.8426940  82.6746720  51.5753190  15.5680250
  83.2122660  50.7124280  14.4462910  82.2209620  52.5029950  21.8210710
  82.5181950  53.4092780  21.7402730  82.7695180  52.0148730  21.2070280
  79.9747940  57.0816190  17.6902360  79.7488860  56.8653360  18.5948980
  79.1940470  57.5144650  17.3448330  87.2045700  57.0879560  16.2893010
  86.6054590  57.8115360  16.1056630  87.7525310  57.0256340  15.5069460
  82.4147150  57.9801770  28.3562630  82.3190750  57.0396500  28.2063030
  83.2579130  58.2016840  27.9610700  85.8110570  55.7243100  18.3196290
  86.2040140  56.0415300  17.5064980  86.1727420  54.8454980  18.4340810
  77.5457690  54.3915440  26.5096410  77.1521080  55.2390650  26.7169190
  76.8576090  53.7541810  26.7005050  84.1202740  54.4750410  29.5793150
  83.4301060  54.2822610  30.2139240  84.8635040  54.7585050  30.1117450
  74.8474740  52.3143900  20.5426490  74.5587790  52.8846760  21.2551470
  75.5920500  51.8348350  20.9057720  75.0344970  56.2564020  11.7529210
  74.9519640  57.1994780  11.8944200  74.6828030  56.1138930  10.8741560
  86.3965710  58.3148850  22.4147070  85.6646830  58.8235660  22.7637170
  85.9990050  57.4978830  22.1135850  82.8343100  54.9903050  20.8199560
  82.8379160  54.5493000  19.9704100  83.7294220  55.3120380  20.9271380
  78.6845480  54.8729540  19.7793770  78.3445530  55.3504770  20.5360820
  77.9222800  54.4194660  19.4194870  82.8963250  55.9915130  13.8106320
  83.0176070  55.9501610  14.7592140  82.5111760  56.8539280  13.6553050
  86.8591620  53.7682530  21.8270010  86.8764360  54.2191180  22.6711860
  86.6107200  52.8688170  22.0403450  81.9084750  58.3016270  13.2089620
  81.3401650  57.8534520  12.5825530  82.6173750  58.6609050  12.6754770
  90.2862370  51.1814710  27.6656390  90.6108140  50.4504370  28.1914370
  90.3218880  50.8628350  26.7637380  76.9853930  62.2028290  27.0856350
  76.6008720  61.5621960  27.6839310  77.2966120  62.9064410  27.6551080
  83.1351070  59.0504830  22.5664970  83.5021200  58.5763400  23.3126310
  82.9456130  59.9246400  22.9073310  75.9991560  53.7948520  18.6958440
  75.7138480  53.4304190  19.5337060  75.9370420  53.0628980  18.0821580
  80.9250440  58.0913470  24.8849180  80.6207510  58.9705450  25.1099540
  81.8796900  58.1513260  24.9206620  79.4532230  62.2974460  15.4816030
  78.6794490  61.7572080  15.3214750  80.1826860  61.7781070  15.1433790
  90.2120210  61.2939820  21.2742420  90.9319330  61.7895110  20.8838530
  90.0102030  60.6157710  20.6296290  85.6730150  52.6877780  15.4171810
  84.8594760  52.1890950  15.3417120  85.4792100  53.5276030  15.0008160
  85.5939010  61.3648880  27.1611420  85.5276320  60.4444550  26.9069010
  84.9644150  61.4624320  27.8756060  88.3878540  57.0597430  13.7133970
  89.2758160  57.3714660  13.5385310  88.3583630  56.1869680  13.3214550
  79.4969630  61.9654840  19.1194840  80.0148300  61.1623100  19.0651730
  79.0453650  61.9033980  19.9611670  84.3839130  63.2321120  14.3922140
  84.7254830  63.9763350  13.8965460  83.5551840  63.5452240  14.7546970
  76.9814170  58.9316210  26.0320540  76.6229110  59.5970060  26.6193880
  76.6868730  58.0999760  26.4033160  80.1827290  59.3900450  28.9160090
  79.8827430  59.5357630  28.0187910  80.9538530  58.8305740  28.8233480
  85.5255740  64.1869450  26.9115220  85.5400280  63.2550410  26.6934130
  84.8180840  64.2729210  27.5504990  90.6592810  58.3709270  13.1813830
  90.5756530  58.8023490  12.3310270  91.3787000  58.8307620  13.6140650
  87.2666540  62.5536960  19.7567650  87.6190360  61.9565090  19.0969020
  86.3828870  62.2281190  19.9275900  83.3529820  63.3134650  17.1638060
  84.0400950  63.8603860  17.5445650  82.5662240  63.8575380  17.1987670
  75.4922220  58.9307470  12.6555140  76.3617070  59.2132270  12.9391060
  75.0012540  59.7443340  12.5403950  82.6557030  60.3180680  16.7763420
  83.1119810  61.1285930  17.0023610  82.3045240  60.0003820  17.6081910
  84.9589640  65.8287020  24.0055720  85.6031860  66.0346400  24.6829140
  85.3219080  65.0675420  23.5526570  78.5568810  50.6618330  17.2485940
  78.4283440  50.6536230  18.1970860  77.7330830  51.0001420  16.8976950
  86.2321720  63.8319370  22.7233170  86.8743950  63.1312530  22.8365340
  86.7571070  64.6117810  22.5430060  90.0777440  64.1167990  12.4472310
  89.8515020  63.3998430  13.0396950  89.6873640  63.8680430  11.6094060
  88.0059340  64.6314270  25.9269230  88.3415580  65.2180960  26.6047150
  87.0859680  64.5006980  26.1567020  75.8593470  68.1434850  13.2216770
  76.2191110  68.7424190  12.5674040  75.7185810  68.6894740  13.9951800
  75.5562740  52.4209450  26.7092640  74.8421260  52.6206370  27.3145250
  75.9757780  51.6449020  27.0807440  89.6593690  62.0339930  14.1086470
  89.3715390  62.4952620  14.8964350  90.4545860  61.5737700  14.3770690
  75.8435330  66.4089710  27.6959170  75.9526450  65.4684450  27.5554560
  75.1915890  66.6744460  27.0472900  83.8347920  64.6805600  29.0957290
  83.5144790  63.9614840  29.6402980  83.1606280  65.3560670  29.1693350
  81.8762090  65.5266050  14.0390440  81.8672190  66.2595740  13.4234950
  80.9560450  65.2797630  14.1317400  77.4768730  60.7480940  14.7837200
  76.8696680  61.4879840  14.7932500  77.9518080  60.8380300  13.9575400
  87.0501520  54.9131760  24.4594090  87.4182340  54.0926970  24.7873660
  86.1899720  54.9733650  24.8749740  90.4163550  53.8688700  15.2681650
  89.7876710  53.9734370  14.5539880  89.9215470  54.0885480  16.0575530
  84.8621690  65.5894290  12.7015630  84.9633670  65.3858280  11.7717610
  83.9623430  65.3352570  12.9063410  82.3847580  56.1474650  16.6839530
  81.6763730  56.6160990  17.1253140  82.6692060  55.4896660  17.3184720
  84.0103510  57.5671350  24.6832060  84.5088760  58.0417170  25.3483910
  84.1526460  56.6434870  24.8902090  86.4163010  52.8725310  18.1235320
  86.2930790  52.8911440  17.1744830  87.3647570  52.9204250  18.2433720
  83.5039800  68.1080610  17.3963300  83.7581300  68.0702000  16.4742670
  82.5552280  67.9813940  17.3891550  80.5882600  54.4559730  14.0590240
  81.4373130  54.8929880  13.9930430  80.2213870  54.7679990  14.8862300
  89.5092380  59.0272490  18.9721810  88.5682520  59.0422720  19.1469500
  89.8236450  58.2408450  19.4182110  79.4874020  60.7092090  12.5325770
  80.2537290  60.5973450  13.0951200  79.5648710  60.0130060  11.8802540
  78.1820780  58.1417160  13.2158660  78.2624370  57.1944670  13.3276060
  79.0740530  58.4724040  13.3219320  78.9835490  68.2912550  20.3193200
  79.7197970  67.7428010  20.5901770  79.3676410  69.1568560  20.1799190
  75.8680970  64.3586120  16.1934710  74.9420750  64.6007260  16.1840120
  76.3337400  65.1860380  16.0719460  77.9893770  67.4758620  29.5078780
  78.7906500  67.7970670  29.9214180  77.4745590  67.1154200  30.2298690
  82.0937800  67.4642860  12.1418770  82.8866410  67.7531690  11.6900560
  81.5742150  67.0335030  11.4631250  86.8258400  63.5838490  29.4554190
  86.2196560  63.6070090  28.7149940  86.5212510  62.8521530  29.9921440
  88.2558770  67.3118780  28.0663600  89.2080520  67.2276800  28.0163840
  88.1086990  67.9760490  28.7397390  91.1467970  66.6912990  13.5655510
  90.8609480  66.2778130  12.7509690  90.9487520  67.6200700  13.4456030
  75.7091580  59.9632080  28.4514830  76.2130600  59.3839360  29.0231060
  74.9699000  60.2472310  28.9891200  82.6115200  62.6846270  12.0061120
  82.5065840  62.0698620  12.7322500  82.4439420  62.1612160  11.2224130
  82.7629520  61.3703070  27.9850350  81.9975190  61.9388070  27.9005020
  82.9445480  61.0779280  27.0918580  85.8517930  61.7466300  12.6103110
  85.3028030  62.1935600  13.2545850  86.4737190  61.2415550  13.1340780
  89.9052870  63.1008400  28.5425370  90.6462340  63.4384160  28.0392830
  89.1425550  63.2700460  27.9895140  77.7414660  58.1061670  29.3464900
  77.7820000  57.8075540  30.2550130  78.5960160  58.5069280  29.1872420
  81.5193050  60.7057220  14.5068410  81.9409470  60.5397090  15.3499800
  81.6443890  59.8957450  14.0123550  79.6820470  56.6853770  27.3139390
  79.1516930  56.1944720  26.6862730  80.3508540  57.1137970  26.7797320
  84.0320690  59.7294830  11.7545510  84.5526350  59.0143850  11.3886660
  84.6789090  60.3680700  12.0546020  88.5798530  61.1523230  27.0780580
  88.9939550  61.3068310  27.9271000  87.6449530  61.2778450  27.2406360
  89.0520700  58.4919390  29.0819730  89.6341470  57.7371710  28.9940210
  89.2282470  59.0226830  28.3051210  80.1692770  53.6516140  27.3936680
  80.0749640  53.0336890  26.6687550  79.5890160  54.3782430  27.1666590
  82.9354210  52.2089380  24.4264070  82.4871510  52.2313640  23.5809620
  82.3019410  51.8108400  25.0234370  83.3413760  61.1043710  25.0476510
  83.7601870  61.9476440  24.8752750  82.4222390  61.2415750  24.8183290
  85.6777660  58.8359890  26.4314350  85.7973870  58.2401030  27.1709190
  86.5371660  58.8729580  26.0115650  88.0165560  59.3897080  25.0076860
  87.4900780  59.9139700  24.4042000  88.3596900  60.0224470  25.6386590
  80.4151950  56.7790450  11.4526570  80.2141010  55.9157810  11.8139910
  80.2444000  56.6923810  10.5148170  81.1921180  67.4096720  26.1634240
  80.6542270  68.1342780  25.8442940  81.4455140  66.9327060  25.3731580
  82.4446430  55.3781240  27.6890170  83.0346120  55.0697090  28.3767990
  81.6266670  54.9060990  27.8450070  87.2639860  54.9947050  27.9223190
  86.5755380  54.3328590  27.8573180  87.9845880  54.5485320  28.3671650
  87.8940260  51.5898680  13.9813450  88.1742550  50.7466580  14.3372870
  87.1205990  51.8221790  14.4952200  79.2134750  53.8791070  11.4404450
  79.5160650  53.8858500  10.5323600  79.9529340  53.5288930  11.9372110
  84.0483390  68.6447930  26.4220890  83.9742090  69.5483070  26.7293260
  83.1462230  68.3259830  26.3942960  82.4319680  52.8225690  12.4260650
  82.0841680  52.1449680  11.8463100  82.6332450  52.3615200  13.2404040
  84.5968720  67.8106440  14.0447250  85.4919510  68.1491410  14.0666010
  84.6286350  67.0885850  13.4171530  78.2364880  63.1833490  12.2734250
  78.6739750  63.7263160  12.9291830  78.7212610  62.3580440  12.2830590
  75.4510680  65.9722520  19.7254510  75.7813690  65.1043580  19.4933150
  75.8801680  66.1781040  20.5559470  80.0472600  64.3031530  17.3856480
  79.7468140  64.1796500  18.2860390  79.9410090  63.4440120  16.9772210
  75.9400890  66.8393110  22.4636140  75.5031880  67.0193910  23.2960290
  76.5078570  67.5967730  22.3217860  75.7725320  59.3513340  18.8225020
  75.1174160  59.0824980  18.1784720  76.6103270  59.2417820  18.3727000
  90.2614710  63.0662090  24.8489610  89.4474550  63.4959250  25.1115400
  90.6688910  63.6780500  24.2358660  88.7215760  54.1454630  13.0443510
  89.1400640  53.9585610  12.2040170  88.4151820  53.2933680  13.3546440
  76.8101250  59.7365910  23.3628360  77.1774290  59.6493310  24.2424380
  76.2412070  58.9732460  23.2635220  76.3617250  56.6475000  27.2686780
  75.4673300  56.6141760  27.6080490  76.9014800  56.8461790  28.0338030
  90.0493180  53.4306720  29.1538530  90.9263360  53.4390120  29.5372530
  90.0614020  52.6937560  28.5430880  74.9863400  56.5612270  14.7650350
  74.0827480  56.8242470  14.5902010  75.4704020  56.8323440  13.9850310
  77.5290610  55.6177810  12.6744730  78.2382310  55.1961030  12.1892010
  76.8130550  55.6853040  12.0428080  77.1764770  51.6717140  11.7147380
  77.8992900  52.2126080  12.0328600  77.4489290  51.3980560  10.8388920
  90.9856420  56.5409610  15.9818960  91.4815540  56.3080480  16.7667840
  90.7872490  55.7021450  15.5656600  76.8656960  50.9223330  21.6170000
  77.5133150  50.3720710  21.1765160  77.2858800  51.1766480  22.4385810
  90.7609300  51.1164690  24.9739640  91.3981520  51.7298830  25.3398830
  90.9084190  51.1525350  24.0288870  90.3190760  67.8180690  18.3757880
  90.9149830  67.4965260  17.6992300  90.5768910  67.3452510  19.1671150
  76.6188960  51.0779000  24.3595320  76.2703780  51.5342820  25.1253500
  76.2876660  50.1836130  24.4417750  78.2253330  64.2498600  28.5248510
  78.1822960  63.8791510  29.4062970  78.3564340  65.1876170  28.6650330
  81.9259360  65.8058190  24.1258230  81.6850720  66.0732750  23.2388750
  82.8662000  65.9763920  24.1809090  84.1313780  52.2690880  27.8814740
  84.0702670  52.8612710  28.6310150  85.0714160  52.1616840  27.7365000
  86.7688340  51.9260940  27.5207030  87.3828750  52.2440230  26.8588110
  87.3137900  51.4409530  28.1402890  77.2909600  50.6055200  27.6346090
  77.8392590  50.4243250  26.8712200  77.3564910  49.8149310  28.1702400
  78.0641360  67.1960850  25.6446290  77.4701680  67.0645550  26.3836330
  78.0565200  66.3598990  25.1788390  87.5096380  50.4893080  23.8476320
  86.6356220  50.8228190  23.6449250  87.4007130  50.0166260  24.6728190
  88.4168360  52.6963950  25.2318040  88.0881720  51.8815710  24.8519770
  89.3650660  52.6533760  25.1083730  90.8702970  68.4675990  22.2055610
  90.4105940  69.2191800  21.8313630  90.2415430  67.7482460  22.1470410
  77.6953590  64.5619230  24.5954330  76.9687650  63.9424520  24.5280280
  77.7562740  64.9559840  23.7252410  81.2998690  66.7764230  21.3803740
  81.8163710  66.1651590  20.8552000  81.9496070  67.2793010  21.8714750
  84.0394190  67.6672720  22.2072720  84.3272000  67.4127020  21.3305730
  84.5517410  67.1150080  22.7978290  85.2571200  51.4062920  22.7869230
  84.4742990  51.8808420  23.0665990  84.9634130  50.5017750  22.6782410
  89.8092270  52.1086020  20.8318320  90.2500360  52.0531120  19.9839920
  89.5399860  53.0244030  20.9028500  75.9783590  67.8793620  17.8051090
  75.8105630  67.2464300  18.5032980  75.1118100  68.0853020  17.4545280
  76.6011610  51.7110400  15.3082950  77.3590970  51.8239280  14.7346980
  76.1388780  52.5479600  15.2626380  83.1425420  53.8249670  18.2985260
  82.3299930  53.4506560  17.9581140  83.6467060  53.0694750  18.6006450
  87.6450400  50.4892120  19.5368330  88.2479770  51.0612330  20.0116850
  86.9043390  51.0531560  19.3142230  90.7885000  50.8913680  14.8108610
  90.9835630  51.7897130  15.0776040  90.0014870  50.6600760  15.3041560
  77.5846290  66.5726850  15.2501230  77.0593910  66.9534880  14.5463190
  77.5090870  67.1977620  15.9710940  78.9736760  52.2374450  13.8484920
  79.5029520  51.4504250  13.7192870  79.6065080  52.9165640  14.0820450
  81.1674600  51.9749590  16.9030310  80.5377340  51.2736900  17.0700440
  80.6279740  52.7353720  16.6863470  84.1066550  68.5888820  29.5740920
  85.0333860  68.3533090  29.6176880  84.0916980  69.4160820  29.0926950
  81.2930160  51.2533570  29.3382800  81.0114430  51.7567170  28.5743620
  81.6749860  50.4555320  28.9724930  80.1839260  68.5209230  14.1250480
  80.9158080  68.2368510  13.5774370  80.4432930  68.2822510  15.0149860
  79.3454050  64.6373960  14.1296810  78.7162930  65.1059060  14.6782640
  79.4601880  63.7923180  14.5643000  87.8945620  50.6687150  29.9163270
  87.7811070  50.9881760  30.8114790  88.7115360  51.0699660  29.6200550
  90.6744110  67.8158680  29.3981960  91.4669430  67.3207910  29.1907920
  90.9677260  68.4948820  30.0057570  84.9321810  60.4658640   2.1607280
  84.1563910  59.9859080   2.4505850  85.5834740  59.7864290   1.9863440
  78.9487640  60.7778450   3.0383040  78.1172520  60.5227160   3.4379550
  79.5568620  60.8489220   3.7740960  78.9288900  64.8118540   3.2341060
  79.2316940  63.9216280   3.0551280  79.6732490  65.3688760   3.0063310
  75.3212600  58.3385990   2.7065130  75.8928710  57.5708190   2.7068770
  75.3214140  58.6374750   1.7971740  84.3730800  63.1415830   2.1677440
  84.3039080  62.2005770   2.0066570  85.1350660  63.2317240   2.7400010
  76.5637470  53.7470350   4.4934060  76.3840310  52.8496100   4.7736820
  76.1617550  54.2942220   5.1681010  85.4035970  55.9486210   2.3946370
  85.7800790  55.0758090   2.2820040  85.3055480  56.2844910   1.5036810
  77.1824140  56.2430850   3.1016400  77.8634250  56.5069220   3.7203800
  76.8672190  55.4031720   3.4354410  81.3748710  57.2898210   2.1888990
  81.8826930  57.7879180   2.8294010  81.9061950  56.5133410   2.0128350
  79.6584810  51.9296770   6.4552410  79.6603250  52.4469160   5.6498310
  78.8289120  51.4526950   6.4322340  80.9087660  61.5691950   4.6325910
  80.5757040  62.1960870   5.2746980  81.0854340  62.0953830   3.8527580
  89.4221570  55.3837030   2.1002250  88.7177140  55.6721920   2.6805360
  89.7833730  56.1937140   1.7401810  79.3400140  53.6406730   4.4622860
  79.6816950  54.4848780   4.1676730  78.4015950  53.7890470   4.5788200
  80.1206760  63.5372750   6.4475090  80.7380760  64.2123830   6.1659540
  79.2599880  63.9460730   6.3562590  88.5743090  66.8456290   3.0774910
  88.5870250  66.4418580   2.2097170  88.0218310  67.6203580   2.9736340
  87.9728530  61.7486130   4.4057520  88.3897320  61.5346240   3.5710980
  88.6968350  62.0058920   4.9766140  88.8832640  56.9342670   5.4428630
  88.4703820  57.7596380   5.6968620  88.1508590  56.3487710   5.2504990
  81.4847130  63.4070130   2.4686510  81.1875420  62.8015600   1.7894290
  82.4346950  63.4447440   2.3575870  79.7294050  56.4945780   4.0846340
  80.2808640  56.6041120   3.3099590  80.2437560  56.8683380   4.8001570
  89.5732740  66.9802000   6.1309610  89.0963300  67.7874190   5.9382220
  88.8894530  66.3280330   6.2835820  80.5765560  63.1451820   9.1194310
  79.6794090  63.3691790   9.3667710  80.6018430  63.2686760   8.1705710
  79.4036780  60.0165140   7.6951680  79.2644550  60.8887940   8.0639080
  78.5218140  59.6737950   7.5499620  81.2017130  65.9586840   9.9036830
  81.1732560  66.3629790   9.0365260  81.0382100  65.0297200   9.7408430
  75.3555430  61.7862690   3.6122590  75.4335850  61.9211460   2.6678310
  75.9697110  61.0778580   3.8050710  86.4181940  67.6354790   6.9295820
  86.9326610  67.5462800   7.7318250  85.5751020  67.9814490   7.2223730
  75.4114950  62.8276860   6.1517050  75.5745990  62.3582220   5.3336420
  75.8767400  62.3200420   6.8165890  84.4703530  54.8251140   6.7912940
  84.0082900  55.0334160   7.6032880  84.0681640  54.0110490   6.4883610
  89.4708040  56.0460090   7.9209600  88.6201630  55.7465840   8.2418670
  89.3109830  56.2902100   7.0093420  86.5657750  57.5461840  10.0208390
  86.8911160  56.7125590   9.6810620  87.3538080  58.0690360  10.1686720
  82.2209620  52.5029950   3.0467220  82.5181950  53.4092780   2.9659240
  82.7695180  52.0148730   2.4326790  82.4147150  57.9801770   9.5819140
  82.3190750  57.0396500   9.4319540  83.2579130  58.2016840   9.1867210
  77.5457690  54.3915440   7.7352920  77.1521080  55.2390650   7.9425700
  76.8576090  53.7541810   7.9261560  84.1202740  54.4750410  10.8049660
  83.4301060  54.2822610  11.4395750  84.8635040  54.7585050  11.3373960
  74.8474740  52.3143900   1.7683000  74.5587790  52.8846760   2.4807980
  75.5920500  51.8348350   2.1314230  86.3965710  58.3148850   3.6403580
  85.6646830  58.8235660   3.9893680  85.9990050  57.4978830   3.3392360
  86.8591620  53.7682530   3.0526520  86.8764360  54.2191180   3.8968370
  86.6107200  52.8688170   3.2659960  90.2862370  51.1814710   8.8912900
  90.6108140  50.4504370   9.4170880  90.3218880  50.8628350   7.9893890
  76.9853930  62.2028290   8.3112860  76.6008720  61.5621960   8.9095820
  77.2966120  62.9064410   8.8807590  83.1351070  59.0504830   3.7921480
  83.5021200  58.5763400   4.5382820  82.9456130  59.9246400   4.1329820
  80.9250440  58.0913470   6.1105690  80.6207510  58.9705450   6.3356050
  81.8796900  58.1513260   6.1463130  90.2120210  61.2939820   2.4998930
  90.9319330  61.7895110   2.1095040  90.0102030  60.6157710   1.8552800
  85.5939010  61.3648880   8.3867930  85.5276320  60.4444550   8.1325520
  84.9644150  61.4624320   9.1012570  76.9814170  58.9316210   7.2577050
  76.6229110  59.5970060   7.8450390  76.6868730  58.0999760   7.6289670
  80.1827290  59.3900450  10.1416600  79.8827430  59.5357630   9.2444420
  80.9538530  58.8305740  10.0489990  85.5255740  64.1869450   8.1371730
  85.5400280  63.2550410   7.9190640  84.8180840  64.2729210   8.7761500
  84.9589640  65.8287020   5.2312230  85.6031860  66.0346400   5.9085650
  85.3219080  65.0675420   4.7783080  86.2321720  63.8319370   3.9489680
  86.8743950  63.1312530   4.0621850  86.7571070  64.6117810   3.7686570
  88.0059340  64.6314270   7.1525740  88.3415580  65.2180960   7.8303660
  87.0859680  64.5006980   7.3823530  75.5562740  52.4209450   7.9349150
  74.8421260  52.6206370   8.5401760  75.9757780  51.6449020   8.3063950
  75.8435330  66.4089710   8.9215680  75.9526450  65.4684450   8.7811070
  75.1915890  66.6744460   8.2729410  83.8347920  64.6805600  10.3213800
  83.5144790  63.9614840  10.8659490  83.1606280  65.3560670  10.3949860
  87.0501520  54.9131760   5.6850600  87.4182340  54.0926970   6.0130170
  86.1899720  54.9733650   6.1006250  84.0103510  57.5671350   5.9088570
  84.5088760  58.0417170   6.5740420  84.1526460  56.6434870   6.1158600
  77.9893770  67.4758620  10.7335290  78.7906500  67.7970670  11.1470690
  77.4745590  67.1154200  11.4555200  86.8258400  63.5838490  10.6810700
  86.2196560  63.6070090   9.9406450  86.5212510  62.8521530  11.2177950
  88.2558770  67.3118780   9.2920110  89.2080520  67.2276800   9.2420350
  88.1086990  67.9760490   9.9653900  75.7091580  59.9632080   9.6771340
  76.2130600  59.3839360  10.2487570  74.9699000  60.2472310  10.2147710
  82.7629520  61.3703070   9.2106860  81.9975190  61.9388070   9.1261530
  82.9445480  61.0779280   8.3175090  89.9052870  63.1008400   9.7681880
  90.6462340  63.4384160   9.2649340  89.1425550  63.2700460   9.2151650
  77.7414660  58.1061670  10.5721410  77.7820000  57.8075540  11.4806640
  78.5960160  58.5069280  10.4128930  79.6820470  56.6853770   8.5395900
  79.1516930  56.1944720   7.9119240  80.3508540  57.1137970   8.0053830
  88.5798530  61.1523230   8.3037090  88.9939550  61.3068310   9.1527510
  87.6449530  61.2778450   8.4662870  89.0520700  58.4919390  10.3076240
  89.6341470  57.7371710  10.2196720  89.2282470  59.0226830   9.5307720
  80.1692770  53.6516140   8.6193190  80.0749640  53.0336890   7.8944060
  79.5890160  54.3782430   8.3923100  82.9354210  52.2089380   5.6520580
  82.4871510  52.2313640   4.8066130  82.3019410  51.8108400   6.2490880
  83.3413760  61.1043710   6.2733020  83.7601870  61.9476440   6.1009260
  82.4222390  61.2415750   6.0439800  85.6777660  58.8359890   7.6570860
  85.7973870  58.2401030   8.3965700  86.5371660  58.8729580   7.2372160
  88.0165560  59.3897080   6.2333370  87.4900780  59.9139700   5.6298510
  88.3596900  60.0224470   6.8643100  81.1921180  67.4096720   7.3890750
  80.6542270  68.1342780   7.0699450  81.4455140  66.9327060   6.5988090
  82.4446430  55.3781240   8.9146680  83.0346120  55.0697090   9.6024500
  81.6266670  54.9060990   9.0706580  87.2639860  54.9947050   9.1479700
  86.5755380  54.3328590   9.0829690  87.9845880  54.5485320   9.5928160
  84.0483390  68.6447930   7.6477400  83.9742090  69.5483070   7.9549770
  83.1462230  68.3259830   7.6199470  75.9400890  66.8393110   3.6892650
  75.5031880  67.0193910   4.5216800  76.5078570  67.5967730   3.5474370
  90.2614710  63.0662090   6.0746120  89.4474550  63.4959250   6.3371910
  90.6688910  63.6780500   5.4615170  76.8101250  59.7365910   4.5884870
  77.1774290  59.6493310   5.4680890  76.2412070  58.9732460   4.4891730
  76.3617250  56.6475000   8.4943290  75.4673300  56.6141760   8.8337000
  76.9014800  56.8461790   9.2594540  90.0493180  53.4306720  10.3795040
  90.9263360  53.4390120  10.7629040  90.0614020  52.6937560   9.7687390
  76.8656960  50.9223330   2.8426510  77.5133150  50.3720710   2.4021670
  77.2858800  51.1766480   3.6642320  90.7609300  51.1164690   6.1996150
  91.3981520  51.7298830   6.5655340  90.9084190  51.1525350   5.2545380
  76.6188960  51.0779000   5.5851830  76.2703780  51.5342820   6.3510010
  76.2876660  50.1836130   5.6674260  78.2253330  64.2498600   9.7505020
  78.1822960  63.8791510  10.6319480  78.3564340  65.1876170   9.8906840
  81.9259360  65.8058190   5.3514740  81.6850720  66.0732750   4.4645260
  82.8662000  65.9763920   5.4065600  84.1313780  52.2690880   9.1071250
  84.0702670  52.8612710   9.8566660  85.0714160  52.1616840   8.9621510
  86.7688340  51.9260940   8.7463540  87.3828750  52.2440230   8.0844620
  87.3137900  51.4409530   9.3659400  77.2909600  50.6055200   8.8602600
  77.8392590  50.4243250   8.0968710  77.3564910  49.8149310   9.3958910
  78.0641360  67.1960850   6.8702800  77.4701680  67.0645550   7.6092840
  78.0565200  66.3598990   6.4044900  87.5096380  50.4893080   5.0732830
  86.6356220  50.8228190   4.8705760  87.4007130  50.0166260   5.8984700
  88.4168360  52.6963950   6.4574550  88.0881720  51.8815710   6.0776280
  89.3650660  52.6533760   6.3340240  90.8702970  68.4675990   3.4312120
  90.4105940  69.2191800   3.0570140  90.2415430  67.7482460   3.3726920
  77.6953590  64.5619230   5.8210840  76.9687650  63.9424520   5.7536790
  77.7562740  64.9559840   4.9508920  81.2998690  66.7764230   2.6060250
  81.8163710  66.1651590   2.0808510  81.9496070  67.2793010   3.0971260
  84.0394190  67.6672720   3.4329230  84.3272000  67.4127020   2.5562240
  84.5517410  67.1150080   4.0234800  85.2571200  51.4062920   4.0125740
  84.4742990  51.8808420   4.2922500  84.9634130  50.5017750   3.9038920
  84.1066550  68.5888820  10.7997430  85.0333860  68.3533090  10.8433390
  84.0916980  69.4160820  10.3183460  81.2930160  51.2533570  10.5639310
  81.0114430  51.7567170   9.8000130  81.6749860  50.4555320  10.1981440
  87.8945620  50.6687150  11.1419780  87.7811070  50.9881760  12.0371300
  88.7115360  51.0699660  10.8457060  90.6744110  67.8158680  10.6238470
  91.4669430  67.3207910  10.4164430  90.9677260  68.4948820  11.2314080
  86.8003770  39.9136130  75.3771970  86.7197820  38.9990740  75.1063680
  86.3868190  40.4103200  74.6711680  88.9529240  46.0975340  76.0380370
  88.4910770  45.3262580  76.3667540  89.7654790  46.1241410  76.5432820
  77.3579590  36.9636850  71.9199390  76.4696290  37.3052820  71.8179270
  77.6420780  36.7637170  71.0280220  85.1792550  48.3833350  75.6584360
  84.5603990  48.8390850  75.0878800  86.0344330  48.5384810  75.2574060
  79.5340980  35.5468350  72.9537770  79.6407730  36.4472080  73.2606530
  78.6233340  35.4986320  72.6632420  89.1860090  34.6693160  74.4248670
  90.0069710  34.1789730  74.4674150  89.2194170  35.2590820  75.1780510
  86.0455900  43.2672590  73.0516270  85.4273170  43.7322040  72.4878990
  86.5579150  43.9600070  73.4685780  75.4139100  43.9529120  70.4255900
  75.0367080  44.4416220  69.6940800  75.6712170  44.6254400  71.0562430
  83.0228030  32.3545510  75.8841410  83.3303010  31.7992400  75.1676910
  82.0928730  32.4889970  75.7014400  89.8688510  44.7929020  73.2639040
  89.7584840  43.8503350  73.3888460  89.8656760  45.1544660  74.1501800
  85.4108790  40.4194340  72.6201530  84.4838070  40.3531720  72.8490000
  85.5633610  41.3574470  72.5056770  85.3977870  36.6911340  69.6168690
  84.4581540  36.8525300  69.7021150  85.7161130  37.4097020  69.0704680
  89.4406080  41.9814640  73.1236780  88.8218500  41.6434190  72.4763080
  89.4230530  41.3374400  73.8315970  81.0165430  40.9459080  75.4021260
  80.6122430  40.2336330  74.9067160  81.1028550  40.6012320  76.2909300
  87.6170780  41.2201450  70.1309530  88.0564060  40.3823880  69.9847350
  88.3299200  41.8530850  70.2173670  85.7266160  46.1597520  74.0990770
  86.1662070  46.9021850  73.6846160  85.6653050  46.4024090  75.0229730
  77.7170060  39.8404060  72.9027910  77.5967660  40.5666150  72.2909180
  77.4070950  39.0706970  72.4255820  76.6003060  44.7119390  75.1202730
  76.1931140  44.8533980  74.2656330  77.4916070  44.4279550  74.9173940
  88.3936340  49.1466640  71.4553780  88.2337480  48.8569580  72.3535610
  88.2283050  48.3706770  70.9199010  80.8724720  48.9265170  73.2325400
  80.6967200  48.0100710  73.0193200  80.0180460  49.2852460  73.4723200
  88.0962470  46.6554200  70.0151780  87.4027630  46.6531490  69.3554060
  88.8385330  46.2313520  69.5845950  87.6612400  48.2816910  74.0900270
  88.1169350  47.5006290  74.4038890  88.0004920  48.9923730  74.6341450
  80.1833720  33.1839130  76.2851580  79.7401870  33.9648670  75.9536100
  80.7418710  33.5069020  76.9922520  83.2992540  32.8049830  71.1657410
  82.6746720  32.8009700  71.8910720  83.2122660  31.9380790  70.7693380
  79.9747940  38.3072700  74.0132830  79.7488860  38.0909870  74.9179450
  79.1940470  38.7401160  73.6678800  87.2045700  38.3136070  72.6123480
  86.6054590  39.0371870  72.4287100  87.7525310  38.2512850  71.8299930
  85.8110570  36.9499610  74.6426760  86.2040140  37.2671810  73.8295450
  86.1727420  36.0711490  74.7571280  75.0344970  37.4820530  68.0759680
  74.9519640  38.4251290  68.2174670  74.6828030  37.3395440  67.1972030
  82.8343100  36.2159560  77.1430030  82.8379160  35.7749510  76.2934570
  83.7294220  36.5376890  77.2501850  78.6845480  36.0986050  76.1024240
  78.3445530  36.5761280  76.8591290  77.9222800  35.6451170  75.7425340
  82.8963250  37.2171640  70.1336790  83.0176070  37.1758120  71.0822610
  82.5111760  38.0795790  69.9783520  81.9084750  39.5272780  69.5320090
  81.3401650  39.0791030  68.9056000  82.6173750  39.8865560  68.9985240
  75.9991560  35.0205030  75.0188910  75.7138480  34.6560700  75.8567530
  75.9370420  34.2885490  74.4052050  79.4532230  43.5230970  71.8046500
  78.6794490  42.9828590  71.6445220  80.1826860  43.0037580  71.4664260
  85.6730150  33.9134290  71.7402280  84.8594760  33.4147460  71.6647590
  85.4792100  34.7532540  71.3238630  88.3878540  38.2853940  70.0364440
  89.2758160  38.5971170  69.8615780  88.3583630  37.4126190  69.6445020
  79.4969630  43.1911350  75.4425310  80.0148300  42.3879610  75.3882200
  79.0453650  43.1290490  76.2842140  84.3839130  44.4577630  70.7152610
  84.7254830  45.2019860  70.2195930  83.5551840  44.7708750  71.0777440
  90.6592810  39.5965780  69.5044300  90.5756530  40.0280000  68.6540740
  91.3787000  40.0564130  69.9371120  87.2666540  43.7793470  76.0798120
  87.6190360  43.1821600  75.4199490  86.3828870  43.4537700  76.2506370
  83.3529820  44.5391160  73.4868530  84.0400950  45.0860370  73.8676120
  82.5662240  45.0831890  73.5218140  75.4922220  40.1563980  68.9785610
  76.3617070  40.4388780  69.2621530  75.0012540  40.9699850  68.8634420
  82.6557030  41.5437190  73.0993890  83.1119810  42.3542440  73.3254080
  82.3045240  41.2260330  73.9312380  78.5568810  31.8874840  73.5716410
  78.4283440  31.8792740  74.5201330  77.7330830  32.2257930  73.2207420
  90.0777440  45.3424500  68.7702780  89.8515020  44.6254940  69.3627420
  89.6873640  45.0936940  67.9324530  75.8593470  49.3691360  69.5447240
  76.2191110  49.9680700  68.8904510  75.7185810  49.9151250  70.3182270
  89.6593690  43.2596440  70.4316940  89.3715390  43.7209130  71.2194820
  90.4545860  42.7994210  70.7001160  81.8762090  46.7522560  70.3620910
  81.8672190  47.4852250  69.7465420  80.9560450  46.5054140  70.4547870
  77.4768730  41.9737450  71.1067670  76.8696680  42.7136350  71.1162970
  77.9518080  42.0636810  70.2805870  90.4163550  35.0945210  71.5912120
  89.7876710  35.1990880  70.8770350  89.9215470  35.3141990  72.3806000
  84.8621690  46.8150800  69.0246100  84.9633670  46.6114790  68.0948080
  83.9623430  46.5609080  69.2293880  82.3847580  37.3731160  73.0070000
  81.6763730  37.8417500  73.4483610  82.6692060  36.7153170  73.6415190
  86.4163010  34.0981820  74.4465790  86.2930790  34.1167950  73.4975300
  87.3647570  34.1460760  74.5664190  83.5039800  49.3337120  73.7193770
  83.7581300  49.2958510  72.7973140  82.5552280  49.2070450  73.7122020
  80.5882600  35.6816240  70.3820710  81.4373130  36.1186390  70.3160900
  80.2213870  35.9936500  71.2092770  89.5092380  40.2529000  75.2952280
  88.5682520  40.2679230  75.4699970  89.8236450  39.4664960  75.7412580
  79.4874020  41.9348600  68.8556240  80.2537290  41.8229960  69.4181670
  79.5648710  41.2386570  68.2033010  78.1820780  39.3673670  69.5389130
  78.2624370  38.4201180  69.6506530  79.0740530  39.6980550  69.6449790
  78.9835490  49.5169060  76.6423670  79.7197970  48.9684520  76.9132240
  79.3676410  50.3825070  76.5029660  75.8680970  45.5842630  72.5165180
  74.9420750  45.8263770  72.5070590  76.3337400  46.4116890  72.3949930
  82.0937800  48.6899370  68.4649240  82.8866410  48.9788200  68.0131030
  81.5742150  48.2591540  67.7861720  91.1467970  47.9169500  69.8885980
  90.8609480  47.5034640  69.0740160  90.9487520  48.8457210  69.7686500
  82.6115200  43.9102780  68.3291590  82.5065840  43.2955130  69.0552970
  82.4439420  43.3868670  67.5454600  85.8517930  42.9722810  68.9333580
  85.3028030  43.4192110  69.5776320  86.4737190  42.4672060  69.4571250
  81.5193050  41.9313730  70.8298880  81.9409470  41.7653600  71.6730270
  81.6443890  41.1213960  70.3354020  84.0320690  40.9551340  68.0775980
  84.5526350  40.2400360  67.7117130  84.6789090  41.5937210  68.3776490
  80.4151950  38.0046960  67.7757040  80.2141010  37.1414320  68.1370380
  80.2444000  37.9180320  66.8378640  87.8940260  32.8155190  70.3043920
  88.1742550  31.9723090  70.6603340  87.1205990  33.0478300  70.8182670
  79.2134750  35.1047580  67.7634920  79.5160650  35.1115010  66.8554070
  79.9529340  34.7545440  68.2602580  82.4319680  34.0482200  68.7491120
  82.0841680  33.3706190  68.1693570  82.6332450  33.5871710  69.5634510
  84.5968720  49.0362950  70.3677720  85.4919510  49.3747920  70.3896480
  84.6286350  48.3142360  69.7402000  78.2364880  44.4090000  68.5964720
  78.6739750  44.9519670  69.2522300  78.7212610  43.5836950  68.6061060
  75.4510680  47.1979030  76.0484980  75.7813690  46.3300090  75.8163620
  75.8801680  47.4037550  76.8789940  80.0472600  45.5288040  73.7086950
  79.7468140  45.4053010  74.6090860  79.9410090  44.6696630  73.3002680
  75.7725320  40.5769850  75.1455490  75.1174160  40.3081490  74.5015190
  76.6103270  40.4674330  74.6957470  88.7215760  35.3711140  69.3673980
  89.1400640  35.1842120  68.5270640  88.4151820  34.5190190  69.6776910
  74.9863400  37.7868780  71.0880820  74.0827480  38.0498980  70.9132480
  75.4704020  38.0579950  70.3080780  77.5290610  36.8434320  68.9975200
  78.2382310  36.4217540  68.5122480  76.8130550  36.9109550  68.3658550
  77.1764770  32.8973650  68.0377850  77.8992900  33.4382590  68.3559070
  77.4489290  32.6237070  67.1619390  90.9856420  37.7666120  72.3049430
  91.4815540  37.5336990  73.0898310  90.7872490  36.9277960  71.8887070
  90.3190760  49.0437200  74.6988350  90.9149830  48.7221770  74.0222770
  90.5768910  48.5709020  75.4901620  89.8092270  33.3342530  77.1548790
  90.2500360  33.2787630  76.3070390  89.5399860  34.2500540  77.2258970
  75.9783590  49.1050130  74.1281560  75.8105630  48.4720810  74.8263450
  75.1118100  49.3109530  73.7775750  76.6011610  32.9366910  71.6313420
  77.3590970  33.0495790  71.0577450  76.1388780  33.7736110  71.5856850
  83.1425420  35.0506180  74.6215730  82.3299930  34.6763070  74.2811610
  83.6467060  34.2951260  74.9236920  87.6450400  31.7148630  75.8598800
  88.2479770  32.2868840  76.3347320  86.9043390  32.2788070  75.6372700
  90.7885000  32.1170190  71.1339080  90.9835630  33.0153640  71.4006510
  90.0014870  31.8857270  71.6272030  77.5846290  47.7983360  71.5731700
  77.0593910  48.1791390  70.8693660  77.5090870  48.4234130  72.2941410
  78.9736760  33.4630960  70.1715390  79.5029520  32.6760760  70.0423340
  79.6065080  34.1422150  70.4050920  81.1674600  33.2006100  73.2260780
  80.5377340  32.4993410  73.3930910  80.6279740  33.9610230  73.0093940
  80.1839260  49.7465740  70.4480950  80.9158080  49.4625020  69.9004840
  80.4432930  49.5079020  71.3380330  79.3454050  45.8630470  70.4527280
  78.7162930  46.3315570  71.0013110  79.4601880  45.0179690  70.8873470
  86.8003770  39.9136130  56.6028480  86.7197820  38.9990740  56.3320190
  86.3868190  40.4103200  55.8968190  84.9321810  41.6915150  58.4837750
  84.1563910  41.2115590  58.7736320  85.5834740  41.0120800  58.3093910
  78.9487640  42.0034960  59.3613510  78.1172520  41.7483670  59.7610020
  79.5568620  42.0745730  60.0971430  88.9529240  46.0975340  57.2636880
  88.4910770  45.3262580  57.5924050  89.7654790  46.1241410  57.7689330
  78.9288900  46.0375050  59.5571530  79.2316940  45.1472790  59.3781750
  79.6732490  46.5945270  59.3293780  77.3579590  36.9636850  53.1455900
  76.4696290  37.3052820  53.0435780  77.6420780  36.7637170  52.2536730
  75.3212600  39.5642500  59.0295600  75.8928710  38.7964700  59.0299240
  75.3214140  39.8631260  58.1202210  85.1792550  48.3833350  56.8840870
  84.5603990  48.8390850  56.3135310  86.0344330  48.5384810  56.4830570
  84.3730800  44.3672340  58.4907910  84.3039080  43.4262280  58.3297040
  85.1350660  44.4573750  59.0630480  76.5637470  34.9726860  60.8164530
  76.3840310  34.0752610  61.0967290  76.1617550  35.5198730  61.4911480
  85.4035970  37.1742720  58.7176840  85.7800790  36.3014600  58.6050510
  85.3055480  37.5101420  57.8267280  79.5340980  35.5468350  54.1794280
  79.6407730  36.4472080  54.4863040  78.6233340  35.4986320  53.8888930
  89.1860090  34.6693160  55.6505180  90.0069710  34.1789730  55.6930660
  89.2194170  35.2590820  56.4037020  77.1824140  37.4687360  59.4246870
  77.8634250  37.7325730  60.0434270  76.8672190  36.6288230  59.7584880
  81.3748710  38.5154720  58.5119460  81.8826930  39.0135690  59.1524480
  81.9061950  37.7389920  58.3358820  79.6584810  33.1553280  62.7782880
  79.6603250  33.6725670  61.9728780  78.8289120  32.6783460  62.7552810
  86.0455900  43.2672590  54.2772780  85.4273170  43.7322040  53.7135500
  86.5579150  43.9600070  54.6942290  80.9087660  42.7948460  60.9556380
  80.5757040  43.4217380  61.5977450  81.0854340  43.3210340  60.1758050
  89.4221570  36.6093540  58.4232720  88.7177140  36.8978430  59.0035830
  89.7833730  37.4193650  58.0632280  79.3400140  34.8663240  60.7853330
  79.6816950  35.7105290  60.4907200  78.4015950  35.0146980  60.9018670
  80.1206760  44.7629260  62.7705560  80.7380760  45.4380340  62.4890010
  79.2599880  45.1717240  62.6793060  75.4139100  43.9529120  51.6512410
  75.0367080  44.4416220  50.9197310  75.6712170  44.6254400  52.2818940
  83.0228030  32.3545510  57.1097920  83.3303010  31.7992400  56.3933420
  82.0928730  32.4889970  56.9270910  88.5743090  48.0712800  59.4005380
  88.5870250  47.6675090  58.5327640  88.0218310  48.8460090  59.2966810
  89.8688510  44.7929020  54.4895550  89.7584840  43.8503350  54.6144970
  89.8656760  45.1544660  55.3758310  87.9728530  42.9742640  60.7287990
  88.3897320  42.7602750  59.8941450  88.6968350  43.2315430  61.2996610
  85.4108790  40.4194340  53.8458040  84.4838070  40.3531720  54.0746510
  85.5633610  41.3574470  53.7313280  85.3977870  36.6911340  50.8425200
  84.4581540  36.8525300  50.9277660  85.7161130  37.4097020  50.2961190
  89.4406080  41.9814640  54.3493290  88.8218500  41.6434190  53.7019590
  89.4230530  41.3374400  55.0572480  88.8832640  38.1599180  61.7659100
  88.4703820  38.9852890  62.0199090  88.1508590  37.5744220  61.5735460
  81.0165430  40.9459080  56.6277770  80.6122430  40.2336330  56.1323670
  81.1028550  40.6012320  57.5165810  81.4847130  44.6326640  58.7916980
  81.1875420  44.0272110  58.1124760  82.4346950  44.6703950  58.6806340
  79.7294050  37.7202290  60.4076810  80.2808640  37.8297630  59.6330060
  80.2437560  38.0939890  61.1232040  89.5732740  48.2058510  62.4540080
  89.0963300  49.0130700  62.2612690  88.8894530  47.5536840  62.6066290
  80.5765560  44.3708330  65.4424780  79.6794090  44.5948300  65.6898180
  80.6018430  44.4943270  64.4936180  87.6170780  41.2201450  51.3566040
  88.0564060  40.3823880  51.2103860  88.3299200  41.8530850  51.4430180
  79.4036780  41.2421650  64.0182150  79.2644550  42.1144450  64.3869550
  78.5218140  40.8994460  63.8730090  85.7266160  46.1597520  55.3247280
  86.1662070  46.9021850  54.9102670  85.6653050  46.4024090  56.2486240
  81.2017130  47.1843350  66.2267300  81.1732560  47.5886300  65.3595730
  81.0382100  46.2553710  66.0638900  77.7170060  39.8404060  54.1284420
  77.5967660  40.5666150  53.5165690  77.4070950  39.0706970  53.6512330
  75.3555430  43.0119200  59.9353060  75.4335850  43.1467970  58.9908780
  75.9697110  42.3035090  60.1281180  76.6003060  44.7119390  56.3459240
  76.1931140  44.8533980  55.4912840  77.4916070  44.4279550  56.1430450
  86.4181940  48.8611300  63.2526290  86.9326610  48.7719310  64.0548720
  85.5751020  49.2071000  63.5454200  88.3936340  49.1466640  52.6810290
  88.2337480  48.8569580  53.5792120  88.2283050  48.3706770  52.1455520
  80.8724720  48.9265170  54.4581910  80.6967200  48.0100710  54.2449710
  80.0180460  49.2852460  54.6979710  88.0962470  46.6554200  51.2408290
  87.4027630  46.6531490  50.5810570  88.8385330  46.2313520  50.8102460
  87.6612400  48.2816910  55.3156780  88.1169350  47.5006290  55.6295400
  88.0004920  48.9923730  55.8597960  75.4114950  44.0533370  62.4747520
  75.5745990  43.5838730  61.6566890  75.8767400  43.5456930  63.1396360
  80.1833720  33.1839130  57.5108090  79.7401870  33.9648670  57.1792610
  80.7418710  33.5069020  58.2179030  84.4703530  36.0507650  63.1143410
  84.0082900  36.2590670  63.9263350  84.0681640  35.2367000  62.8114080
  89.4708040  37.2716600  64.2440070  88.6201630  36.9722350  64.5649140
  89.3109830  37.5158610  63.3323890  86.5657750  38.7718350  66.3438860
  86.8911160  37.9382100  66.0041090  87.3538080  39.2946870  66.4917190
  83.2992540  32.8049830  52.3913920  82.6746720  32.8009700  53.1167230
  83.2122660  31.9380790  51.9949890  82.2209620  33.7286460  59.3697690
  82.5181950  34.6349290  59.2889710  82.7695180  33.2405240  58.7557260
  79.9747940  38.3072700  55.2389340  79.7488860  38.0909870  56.1435960
  79.1940470  38.7401160  54.8935310  87.2045700  38.3136070  53.8379990
  86.6054590  39.0371870  53.6543610  87.7525310  38.2512850  53.0556440
  82.4147150  39.2058280  65.9049610  82.3190750  38.2653010  65.7550010
  83.2579130  39.4273350  65.5097680  85.8110570  36.9499610  55.8683270
  86.2040140  37.2671810  55.0551960  86.1727420  36.0711490  55.9827790
  77.5457690  35.6171950  64.0583390  77.1521080  36.4647160  64.2656170
  76.8576090  34.9798320  64.2492030  84.1202740  35.7006920  67.1280130
  83.4301060  35.5079120  67.7626220  84.8635040  35.9841560  67.6604430
  74.8474740  33.5400410  58.0913470  74.5587790  34.1103270  58.8038450
  75.5920500  33.0604860  58.4544700  75.0344970  37.4820530  49.3016190
  74.9519640  38.4251290  49.4431180  74.6828030  37.3395440  48.4228540
  86.3965710  39.5405360  59.9634050  85.6646830  40.0492170  60.3124150
  85.9990050  38.7235340  59.6622830  82.8343100  36.2159560  58.3686540
  82.8379160  35.7749510  57.5191080  83.7294220  36.5376890  58.4758360
  78.6845480  36.0986050  57.3280750  78.3445530  36.5761280  58.0847800
  77.9222800  35.6451170  56.9681850  82.8963250  37.2171640  51.3593300
  83.0176070  37.1758120  52.3079120  82.5111760  38.0795790  51.2040030
  86.8591620  34.9939040  59.3756990  86.8764360  35.4447690  60.2198840
  86.6107200  34.0944680  59.5890430  81.9084750  39.5272780  50.7576600
  81.3401650  39.0791030  50.1312510  82.6173750  39.8865560  50.2241750
  90.2862370  32.4071220  65.2143370  90.6108140  31.6760880  65.7401350
  90.3218880  32.0884860  64.3124360  76.9853930  43.4284800  64.6343330
  76.6008720  42.7878470  65.2326290  77.2966120  44.1320920  65.2038060
  83.1351070  40.2761340  60.1151950  83.5021200  39.8019910  60.8613290
  82.9456130  41.1502910  60.4560290  75.9991560  35.0205030  56.2445420
  75.7138480  34.6560700  57.0824040  75.9370420  34.2885490  55.6308560
  80.9250440  39.3169980  62.4336160  80.6207510  40.1961960  62.6586520
  81.8796900  39.3769770  62.4693600  79.4532230  43.5230970  53.0303010
  78.6794490  42.9828590  52.8701730  80.1826860  43.0037580  52.6920770
  90.2120210  42.5196330  58.8229400  90.9319330  43.0151620  58.4325510
  90.0102030  41.8414220  58.1783270  85.6730150  33.9134290  52.9658790
  84.8594760  33.4147460  52.8904100  85.4792100  34.7532540  52.5495140
  85.5939010  42.5905390  64.7098400  85.5276320  41.6701060  64.4555990
  84.9644150  42.6880830  65.4243040  88.3878540  38.2853940  51.2620950
  89.2758160  38.5971170  51.0872290  88.3583630  37.4126190  50.8701530
  79.4969630  43.1911350  56.6681820  80.0148300  42.3879610  56.6138710
  79.0453650  43.1290490  57.5098650  84.3839130  44.4577630  51.9409120
  84.7254830  45.2019860  51.4452440  83.5551840  44.7708750  52.3033950
  76.9814170  40.1572720  63.5807520  76.6229110  40.8226570  64.1680860
  76.6868730  39.3256270  63.9520140  80.1827290  40.6156960  66.4647070
  79.8827430  40.7614140  65.5674890  80.9538530  40.0562250  66.3720460
  85.5255740  45.4125960  64.4602200  85.5400280  44.4806920  64.2421110
  84.8180840  45.4985720  65.0991970  90.6592810  39.5965780  50.7300810
  90.5756530  40.0280000  49.8797250  91.3787000  40.0564130  51.1627630
  87.2666540  43.7793470  57.3054630  87.6190360  43.1821600  56.6456000
  86.3828870  43.4537700  57.4762880  83.3529820  44.5391160  54.7125040
  84.0400950  45.0860370  55.0932630  82.5662240  45.0831890  54.7474650
  75.4922220  40.1563980  50.2042120  76.3617070  40.4388780  50.4878040
  75.0012540  40.9699850  50.0890930  82.6557030  41.5437190  54.3250400
  83.1119810  42.3542440  54.5510590  82.3045240  41.2260330  55.1568890
  84.9589640  47.0543530  61.5542700  85.6031860  47.2602910  62.2316120
  85.3219080  46.2931930  61.1013550  78.5568810  31.8874840  54.7972920
  78.4283440  31.8792740  55.7457840  77.7330830  32.2257930  54.4463930
  86.2321720  45.0575880  60.2720150  86.8743950  44.3569040  60.3852320
  86.7571070  45.8374320  60.0917040  90.0777440  45.3424500  49.9959290
  89.8515020  44.6254940  50.5883930  89.6873640  45.0936940  49.1581040
  88.0059340  45.8570780  63.4756210  88.3415580  46.4437470  64.1534130
  87.0859680  45.7263490  63.7054000  75.8593470  49.3691360  50.7703750
  76.2191110  49.9680700  50.1161020  75.7185810  49.9151250  51.5438780
  75.5562740  33.6465960  64.2579620  74.8421260  33.8462880  64.8632230
  75.9757780  32.8705530  64.6294420  89.6593690  43.2596440  51.6573450
  89.3715390  43.7209130  52.4451330  90.4545860  42.7994210  51.9257670
  75.8435330  47.6346220  65.2446150  75.9526450  46.6940960  65.1041540
  75.1915890  47.9000970  64.5959880  83.8347920  45.9062110  66.6444270
  83.5144790  45.1871350  67.1889960  83.1606280  46.5817180  66.7180330
  81.8762090  46.7522560  51.5877420  81.8672190  47.4852250  50.9721930
  80.9560450  46.5054140  51.6804380  77.4768730  41.9737450  52.3324180
  76.8696680  42.7136350  52.3419480  77.9518080  42.0636810  51.5062380
  87.0501520  36.1388270  62.0081070  87.4182340  35.3183480  62.3360640
  86.1899720  36.1990160  62.4236720  90.4163550  35.0945210  52.8168630
  89.7876710  35.1990880  52.1026860  89.9215470  35.3141990  53.6062510
  84.8621690  46.8150800  50.2502610  84.9633670  46.6114790  49.3204590
  83.9623430  46.5609080  50.4550390  82.3847580  37.3731160  54.2326510
  81.6763730  37.8417500  54.6740120  82.6692060  36.7153170  54.8671700
  84.0103510  38.7927860  62.2319040  84.5088760  39.2673680  62.8970890
  84.1526460  37.8691380  62.4389070  86.4163010  34.0981820  55.6722300
  86.2930790  34.1167950  54.7231810  87.3647570  34.1460760  55.7920700
  83.5039800  49.3337120  54.9450280  83.7581300  49.2958510  54.0229650
  82.5552280  49.2070450  54.9378530  80.5882600  35.6816240  51.6077220
  81.4373130  36.1186390  51.5417410  80.2213870  35.9936500  52.4349280
  89.5092380  40.2529000  56.5208790  88.5682520  40.2679230  56.6956480
  89.8236450  39.4664960  56.9669090  79.4874020  41.9348600  50.0812750
  80.2537290  41.8229960  50.6438180  79.5648710  41.2386570  49.4289520
  78.1820780  39.3673670  50.7645640  78.2624370  38.4201180  50.8763040
  79.0740530  39.6980550  50.8706300  78.9835490  49.5169060  57.8680180
  79.7197970  48.9684520  58.1388750  79.3676410  50.3825070  57.7286170
  75.8680970  45.5842630  53.7421690  74.9420750  45.8263770  53.7327100
  76.3337400  46.4116890  53.6206440  77.9893770  48.7015130  67.0565760
  78.7906500  49.0227180  67.4701160  77.4745590  48.3410710  67.7785670
  82.0937800  48.6899370  49.6905750  82.8866410  48.9788200  49.2387540
  81.5742150  48.2591540  49.0118230  86.8258400  44.8095000  67.0041170
  86.2196560  44.8326600  66.2636920  86.5212510  44.0778040  67.5408420
  88.2558770  48.5375290  65.6150580  89.2080520  48.4533310  65.5650820
  88.1086990  49.2017000  66.2884370  91.1467970  47.9169500  51.1142490
  90.8609480  47.5034640  50.2996670  90.9487520  48.8457210  50.9943010
  75.7091580  41.1888590  66.0001810  76.2130600  40.6095870  66.5718040
  74.9699000  41.4728820  66.5378180  82.6115200  43.9102780  49.5548100
  82.5065840  43.2955130  50.2809480  82.4439420  43.3868670  48.7711110
  82.7629520  42.5959580  65.5337330  81.9975190  43.1644580  65.4492000
  82.9445480  42.3035790  64.6405560  85.8517930  42.9722810  50.1590090
  85.3028030  43.4192110  50.8032830  86.4737190  42.4672060  50.6827760
  89.9052870  44.3264910  66.0912350  90.6462340  44.6640670  65.5879810
  89.1425550  44.4956970  65.5382120  77.7414660  39.3318180  66.8951880
  77.7820000  39.0332050  67.8037110  78.5960160  39.7325790  66.7359400
  81.5193050  41.9313730  52.0555390  81.9409470  41.7653600  52.8986780
  81.6443890  41.1213960  51.5610530  79.6820470  37.9110280  64.8626370
  79.1516930  37.4201230  64.2349710  80.3508540  38.3394480  64.3284300
  84.0320690  40.9551340  49.3032490  84.5526350  40.2400360  48.9373640
  84.6789090  41.5937210  49.6033000  88.5798530  42.3779740  64.6267560
  88.9939550  42.5324820  65.4757980  87.6449530  42.5034960  64.7893340
  89.0520700  39.7175900  66.6306710  89.6341470  38.9628220  66.5427190
  89.2282470  40.2483340  65.8538190  80.1692770  34.8772650  64.9423660
  80.0749640  34.2593400  64.2174530  79.5890160  35.6038940  64.7153570
  82.9354210  33.4345890  61.9751050  82.4871510  33.4570150  61.1296600
  82.3019410  33.0364910  62.5721350  83.3413760  42.3300220  62.5963490
  83.7601870  43.1732950  62.4239730  82.4222390  42.4672260  62.3670270
  85.6777660  40.0616400  63.9801330  85.7973870  39.4657540  64.7196170
  86.5371660  40.0986090  63.5602630  88.0165560  40.6153590  62.5563840
  87.4900780  41.1396210  61.9528980  88.3596900  41.2480980  63.1873570
  80.4151950  38.0046960  49.0013550  80.2141010  37.1414320  49.3626890
  80.2444000  37.9180320  48.0635150  81.1921180  48.6353230  63.7121220
  80.6542270  49.3599290  63.3929920  81.4455140  48.1583570  62.9218560
  82.4446430  36.6037750  65.2377150  83.0346120  36.2953600  65.9254970
  81.6266670  36.1317500  65.3937050  87.2639860  36.2203560  65.4710170
  86.5755380  35.5585100  65.4060160  87.9845880  35.7741830  65.9158630
  87.8940260  32.8155190  51.5300430  88.1742550  31.9723090  51.8859850
  87.1205990  33.0478300  52.0439180  79.2134750  35.1047580  48.9891430
  79.5160650  35.1115010  48.0810580  79.9529340  34.7545440  49.4859090
  84.0483390  49.8704440  63.9707870  83.9742090  50.7739580  64.2780240
  83.1462230  49.5516340  63.9429940  82.4319680  34.0482200  49.9747630
  82.0841680  33.3706190  49.3950080  82.6332450  33.5871710  50.7891020
  84.5968720  49.0362950  51.5934230  85.4919510  49.3747920  51.6152990
  84.6286350  48.3142360  50.9658510  78.2364880  44.4090000  49.8221230
  78.6739750  44.9519670  50.4778810  78.7212610  43.5836950  49.8317570
  75.4510680  47.1979030  57.2741490  75.7813690  46.3300090  57.0420130
  75.8801680  47.4037550  58.1046450  80.0472600  45.5288040  54.9343460
  79.7468140  45.4053010  55.8347370  79.9410090  44.6696630  54.5259190
  75.9400890  48.0649620  60.0123120  75.5031880  48.2450420  60.8447270
  76.5078570  48.8224240  59.8704840  75.7725320  40.5769850  56.3712000
  75.1174160  40.3081490  55.7271700  76.6103270  40.4674330  55.9213980
  90.2614710  44.2918600  62.3976590  89.4474550  44.7215760  62.6602380
  90.6688910  44.9037010  61.7845640  88.7215760  35.3711140  50.5930490
  89.1400640  35.1842120  49.7527150  88.4151820  34.5190190  50.9033420
  76.8101250  40.9622420  60.9115340  77.1774290  40.8749820  61.7911360
  76.2412070  40.1988970  60.8122200  76.3617250  37.8731510  64.8173760
  75.4673300  37.8398270  65.1567470  76.9014800  38.0718300  65.5825010
  90.0493180  34.6563230  66.7025510  90.9263360  34.6646630  67.0859510
  90.0614020  33.9194070  66.0917860  74.9863400  37.7868780  52.3137330
  74.0827480  38.0498980  52.1388990  75.4704020  38.0579950  51.5337290
  77.5290610  36.8434320  50.2231710  78.2382310  36.4217540  49.7378990
  76.8130550  36.9109550  49.5915060  77.1764770  32.8973650  49.2634360
  77.8992900  33.4382590  49.5815580  77.4489290  32.6237070  48.3875900
  90.9856420  37.7666120  53.5305940  91.4815540  37.5336990  54.3154820
  90.7872490  36.9277960  53.1143580  76.8656960  32.1479840  59.1656980
  77.5133150  31.5977220  58.7252140  77.2858800  32.4022990  59.9872790
  90.7609300  32.3421200  62.5226620  91.3981520  32.9555340  62.8885810
  90.9084190  32.3781860  61.5775850  90.3190760  49.0437200  55.9244860
  90.9149830  48.7221770  55.2479280  90.5768910  48.5709020  56.7158130
  76.6188960  32.3035510  61.9082300  76.2703780  32.7599330  62.6740480
  76.2876660  31.4092640  61.9904730  78.2253330  45.4755110  66.0735490
  78.1822960  45.1048020  66.9549950  78.3564340  46.4132680  66.2137310
  81.9259360  47.0314700  61.6745210  81.6850720  47.2989260  60.7875730
  82.8662000  47.2020430  61.7296070  84.1313780  33.4947390  65.4301720
  84.0702670  34.0869220  66.1797130  85.0714160  33.3873350  65.2851980
  86.7688340  33.1517450  65.0694010  87.3828750  33.4696740  64.4075090
  87.3137900  32.6666040  65.6889870  77.2909600  31.8311710  65.1833070
  77.8392590  31.6499760  64.4199180  77.3564910  31.0405820  65.7189380
  78.0641360  48.4217360  63.1933270  77.4701680  48.2902060  63.9323310
  78.0565200  47.5855500  62.7275370  87.5096380  31.7149590  61.3963300
  86.6356220  32.0484700  61.1936230  87.4007130  31.2422770  62.2215170
  88.4168360  33.9220460  62.7805020  88.0881720  33.1072220  62.4006750
  89.3650660  33.8790270  62.6570710  90.8702970  49.6932500  59.7542590
  90.4105940  50.4448310  59.3800610  90.2415430  48.9738970  59.6957390
  77.6953590  45.7875740  62.1441310  76.9687650  45.1681030  62.0767260
  77.7562740  46.1816350  61.2739390  81.2998690  48.0020740  58.9290720
  81.8163710  47.3908100  58.4038980  81.9496070  48.5049520  59.4201730
  84.0394190  48.8929230  59.7559700  84.3272000  48.6383530  58.8792710
  84.5517410  48.3406590  60.3465270  85.2571200  32.6319430  60.3356210
  84.4742990  33.1064930  60.6152970  84.9634130  31.7274260  60.2269390
  89.8092270  33.3342530  58.3805300  90.2500360  33.2787630  57.5326900
  89.5399860  34.2500540  58.4515480  75.9783590  49.1050130  55.3538070
  75.8105630  48.4720810  56.0519960  75.1118100  49.3109530  55.0032260
  76.6011610  32.9366910  52.8569930  77.3590970  33.0495790  52.2833960
  76.1388780  33.7736110  52.8113360  83.1425420  35.0506180  55.8472240
  82.3299930  34.6763070  55.5068120  83.6467060  34.2951260  56.1493430
  87.6450400  31.7148630  57.0855310  88.2479770  32.2868840  57.5603830
  86.9043390  32.2788070  56.8629210  90.7885000  32.1170190  52.3595590
  90.9835630  33.0153640  52.6263020  90.0014870  31.8857270  52.8528540
  77.5846290  47.7983360  52.7988210  77.0593910  48.1791390  52.0950170
  77.5090870  48.4234130  53.5197920  78.9736760  33.4630960  51.3971900
  79.5029520  32.6760760  51.2679850  79.6065080  34.1422150  51.6307430
  81.1674600  33.2006100  54.4517290  80.5377340  32.4993410  54.6187420
  80.6279740  33.9610230  54.2350450  84.1066550  49.8145330  67.1227900
  85.0333860  49.5789600  67.1663860  84.0916980  50.6417330  66.6413930
  81.2930160  32.4790080  66.8869780  81.0114430  32.9823680  66.1230600
  81.6749860  31.6811830  66.5211910  80.1839260  49.7465740  51.6737460
  80.9158080  49.4625020  51.1261350  80.4432930  49.5079020  52.5636840
  79.3454050  45.8630470  51.6783790  78.7162930  46.3315570  52.2269620
  79.4601880  45.0179690  52.1129980  87.8945620  31.8943660  67.4650250
  87.7811070  32.2138270  68.3601770  88.7115360  32.2956170  67.1687530
  90.6744110  49.0415190  66.9468940  91.4669430  48.5464420  66.7394900
  90.9677260  49.7205330  67.5544550  86.8003770  39.9136130  37.8284990
  86.7197820  38.9990740  37.5576700  86.3868190  40.4103200  37.1224700
  84.9321810  41.6915150  39.7094260  84.1563910  41.2115590  39.9992830
  85.5834740  41.0120800  39.5350420  78.9487640  42.0034960  40.5870020
  78.1172520  41.7483670  40.9866530  79.5568620  42.0745730  41.3227940
  88.9529240  46.0975340  38.4893390  88.4910770  45.3262580  38.8180560
  89.7654790  46.1241410  38.9945840  78.9288900  46.0375050  40.7828040
  79.2316940  45.1472790  40.6038260  79.6732490  46.5945270  40.5550290
  77.3579590  36.9636850  34.3712410  76.4696290  37.3052820  34.2692290
  77.6420780  36.7637170  33.4793240  75.3212600  39.5642500  40.2552110
  75.8928710  38.7964700  40.2555750  75.3214140  39.8631260  39.3458720
  85.1792550  48.3833350  38.1097380  84.5603990  48.8390850  37.5391820
  86.0344330  48.5384810  37.7087080  84.3730800  44.3672340  39.7164420
  84.3039080  43.4262280  39.5553550  85.1350660  44.4573750  40.2886990
  76.5637470  34.9726860  42.0421040  76.3840310  34.0752610  42.3223800
  76.1617550  35.5198730  42.7167990  85.4035970  37.1742720  39.9433350
  85.7800790  36.3014600  39.8307020  85.3055480  37.5101420  39.0523790
  79.5340980  35.5468350  35.4050790  79.6407730  36.4472080  35.7119550
  78.6233340  35.4986320  35.1145440  89.1860090  34.6693160  36.8761690
  90.0069710  34.1789730  36.9187170  89.2194170  35.2590820  37.6293530
  77.1824140  37.4687360  40.6503380  77.8634250  37.7325730  41.2690780
  76.8672190  36.6288230  40.9841390  81.3748710  38.5154720  39.7375970
  81.8826930  39.0135690  40.3780990  81.9061950  37.7389920  39.5615330
  79.6584810  33.1553280  44.0039390  79.6603250  33.6725670  43.1985290
  78.8289120  32.6783460  43.9809320  86.0455900  43.2672590  35.5029290
  85.4273170  43.7322040  34.9392010  86.5579150  43.9600070  35.9198800
  80.9087660  42.7948460  42.1812890  80.5757040  43.4217380  42.8233960
  81.0854340  43.3210340  41.4014560  89.4221570  36.6093540  39.6489230
  88.7177140  36.8978430  40.2292340  89.7833730  37.4193650  39.2888790
  79.3400140  34.8663240  42.0109840  79.6816950  35.7105290  41.7163710
  78.4015950  35.0146980  42.1275180  80.1206760  44.7629260  43.9962070
  80.7380760  45.4380340  43.7146520  79.2599880  45.1717240  43.9049570
  75.4139100  43.9529120  32.8768920  75.0367080  44.4416220  32.1453820
  75.6712170  44.6254400  33.5075450  83.0228030  32.3545510  38.3354430
  83.3303010  31.7992400  37.6189930  82.0928730  32.4889970  38.1527420
  88.5743090  48.0712800  40.6261890  88.5870250  47.6675090  39.7584150
  88.0218310  48.8460090  40.5223320  89.8688510  44.7929020  35.7152060
  89.7584840  43.8503350  35.8401480  89.8656760  45.1544660  36.6014820
  87.9728530  42.9742640  41.9544500  88.3897320  42.7602750  41.1197960
  88.6968350  43.2315430  42.5253120  85.4108790  40.4194340  35.0714550
  84.4838070  40.3531720  35.3003020  85.5633610  41.3574470  34.9569790
  85.3977870  36.6911340  32.0681710  84.4581540  36.8525300  32.1534170
  85.7161130  37.4097020  31.5217700  89.4406080  41.9814640  35.5749800
  88.8218500  41.6434190  34.9276100  89.4230530  41.3374400  36.2828990
  88.8832640  38.1599180  42.9915610  88.4703820  38.9852890  43.2455600
  88.1508590  37.5744220  42.7991970  81.0165430  40.9459080  37.8534280
  80.6122430  40.2336330  37.3580180  81.1028550  40.6012320  38.7422320
  81.4847130  44.6326640  40.0173490  81.1875420  44.0272110  39.3381270
  82.4346950  44.6703950  39.9062850  79.7294050  37.7202290  41.6333320
  80.2808640  37.8297630  40.8586570  80.2437560  38.0939890  42.3488550
  89.5732740  48.2058510  43.6796590  89.0963300  49.0130700  43.4869200
  88.8894530  47.5536840  43.8322800  80.5765560  44.3708330  46.6681290
  79.6794090  44.5948300  46.9154690  80.6018430  44.4943270  45.7192690
  87.6170780  41.2201450  32.5822550  88.0564060  40.3823880  32.4360370
  88.3299200  41.8530850  32.6686690  79.4036780  41.2421650  45.2438660
  79.2644550  42.1144450  45.6126060  78.5218140  40.8994460  45.0986600
  85.7266160  46.1597520  36.5503790  86.1662070  46.9021850  36.1359180
  85.6653050  46.4024090  37.4742750  81.2017130  47.1843350  47.4523810
  81.1732560  47.5886300  46.5852240  81.0382100  46.2553710  47.2895410
  77.7170060  39.8404060  35.3540930  77.5967660  40.5666150  34.7422200
  77.4070950  39.0706970  34.8768840  75.3555430  43.0119200  41.1609570
  75.4335850  43.1467970  40.2165290  75.9697110  42.3035090  41.3537690
  76.6003060  44.7119390  37.5715750  76.1931140  44.8533980  36.7169350
  77.4916070  44.4279550  37.3686960  86.4181940  48.8611300  44.4782800
  86.9326610  48.7719310  45.2805230  85.5751020  49.2071000  44.7710710
  88.3936340  49.1466640  33.9066800  88.2337480  48.8569580  34.8048630
  88.2283050  48.3706770  33.3712030  80.8724720  48.9265170  35.6838420
  80.6967200  48.0100710  35.4706220  80.0180460  49.2852460  35.9236220
  88.0962470  46.6554200  32.4664800  87.4027630  46.6531490  31.8067080
  88.8385330  46.2313520  32.0358970  87.6612400  48.2816910  36.5413290
  88.1169350  47.5006290  36.8551910  88.0004920  48.9923730  37.0854470
  75.4114950  44.0533370  43.7004030  75.5745990  43.5838730  42.8823400
  75.8767400  43.5456930  44.3652870  80.1833720  33.1839130  38.7364600
  79.7401870  33.9648670  38.4049120  80.7418710  33.5069020  39.4435540
  84.4703530  36.0507650  44.3399920  84.0082900  36.2590670  45.1519860
  84.0681640  35.2367000  44.0370590  89.4708040  37.2716600  45.4696580
  88.6201630  36.9722350  45.7905650  89.3109830  37.5158610  44.5580400
  86.5657750  38.7718350  47.5695370  86.8911160  37.9382100  47.2297600
  87.3538080  39.2946870  47.7173700  83.2992540  32.8049830  33.6170430
  82.6746720  32.8009700  34.3423740  83.2122660  31.9380790  33.2206400
  82.2209620  33.7286460  40.5954200  82.5181950  34.6349290  40.5146220
  82.7695180  33.2405240  39.9813770  79.9747940  38.3072700  36.4645850
  79.7488860  38.0909870  37.3692470  79.1940470  38.7401160  36.1191820
  87.2045700  38.3136070  35.0636500  86.6054590  39.0371870  34.8800120
  87.7525310  38.2512850  34.2812950  82.4147150  39.2058280  47.1306120
  82.3190750  38.2653010  46.9806520  83.2579130  39.4273350  46.7354190
  85.8110570  36.9499610  37.0939780  86.2040140  37.2671810  36.2808470
  86.1727420  36.0711490  37.2084300  77.5457690  35.6171950  45.2839900
  77.1521080  36.4647160  45.4912680  76.8576090  34.9798320  45.4748540
  84.1202740  35.7006920  48.3536640  83.4301060  35.5079120  48.9882730
  84.8635040  35.9841560  48.8860940  74.8474740  33.5400410  39.3169980
  74.5587790  34.1103270  40.0294960  75.5920500  33.0604860  39.6801210
  75.0344970  37.4820530  30.5272700  74.9519640  38.4251290  30.6687690
  74.6828030  37.3395440  29.6485050  86.3965710  39.5405360  41.1890560
  85.6646830  40.0492170  41.5380660  85.9990050  38.7235340  40.8879340
  82.8343100  36.2159560  39.5943050  82.8379160  35.7749510  38.7447590
  83.7294220  36.5376890  39.7014870  78.6845480  36.0986050  38.5537260
  78.3445530  36.5761280  39.3104310  77.9222800  35.6451170  38.1938360
  82.8963250  37.2171640  32.5849810  83.0176070  37.1758120  33.5335630
  82.5111760  38.0795790  32.4296540  86.8591620  34.9939040  40.6013500
  86.8764360  35.4447690  41.4455350  86.6107200  34.0944680  40.8146940
  81.9084750  39.5272780  31.9833110  81.3401650  39.0791030  31.3569020
  82.6173750  39.8865560  31.4498260  90.2862370  32.4071220  46.4399880
  90.6108140  31.6760880  46.9657860  90.3218880  32.0884860  45.5380870
  76.9853930  43.4284800  45.8599840  76.6008720  42.7878470  46.4582800
  77.2966120  44.1320920  46.4294570  83.1351070  40.2761340  41.3408460
  83.5021200  39.8019910  42.0869800  82.9456130  41.1502910  41.6816800
  75.9991560  35.0205030  37.4701930  75.7138480  34.6560700  38.3080550
  75.9370420  34.2885490  36.8565070  80.9250440  39.3169980  43.6592670
  80.6207510  40.1961960  43.8843030  81.8796900  39.3769770  43.6950110
  79.4532230  43.5230970  34.2559520  78.6794490  42.9828590  34.0958240
  80.1826860  43.0037580  33.9177280  90.2120210  42.5196330  40.0485910
  90.9319330  43.0151620  39.6582020  90.0102030  41.8414220  39.4039780
  85.6730150  33.9134290  34.1915300  84.8594760  33.4147460  34.1160610
  85.4792100  34.7532540  33.7751650  85.5939010  42.5905390  45.9354910
  85.5276320  41.6701060  45.6812500  84.9644150  42.6880830  46.6499550
  88.3878540  38.2853940  32.4877460  89.2758160  38.5971170  32.3128800
  88.3583630  37.4126190  32.0958040  79.4969630  43.1911350  37.8938330
  80.0148300  42.3879610  37.8395220  79.0453650  43.1290490  38.7355160
  84.3839130  44.4577630  33.1665630  84.7254830  45.2019860  32.6708950
  83.5551840  44.7708750  33.5290460  76.9814170  40.1572720  44.8064030
  76.6229110  40.8226570  45.3937370  76.6868730  39.3256270  45.1776650
  80.1827290  40.6156960  47.6903580  79.8827430  40.7614140  46.7931400
  80.9538530  40.0562250  47.5976970  85.5255740  45.4125960  45.6858710
  85.5400280  44.4806920  45.4677620  84.8180840  45.4985720  46.3248480
  90.6592810  39.5965780  31.9557320  90.5756530  40.0280000  31.1053760
  91.3787000  40.0564130  32.3884140  87.2666540  43.7793470  38.5311140
  87.6190360  43.1821600  37.8712510  86.3828870  43.4537700  38.7019390
  83.3529820  44.5391160  35.9381550  84.0400950  45.0860370  36.3189140
  82.5662240  45.0831890  35.9731160  75.4922220  40.1563980  31.4298630
  76.3617070  40.4388780  31.7134550  75.0012540  40.9699850  31.3147440
  82.6557030  41.5437190  35.5506910  83.1119810  42.3542440  35.7767100
  82.3045240  41.2260330  36.3825400  84.9589640  47.0543530  42.7799210
  85.6031860  47.2602910  43.4572630  85.3219080  46.2931930  42.3270060
  78.5568810  31.8874840  36.0229430  78.4283440  31.8792740  36.9714350
  77.7330830  32.2257930  35.6720440  86.2321720  45.0575880  41.4976660
  86.8743950  44.3569040  41.6108830  86.7571070  45.8374320  41.3173550
  90.0777440  45.3424500  31.2215800  89.8515020  44.6254940  31.8140440
  89.6873640  45.0936940  30.3837550  88.0059340  45.8570780  44.7012720
  88.3415580  46.4437470  45.3790640  87.0859680  45.7263490  44.9310510
  75.8593470  49.3691360  31.9960260  76.2191110  49.9680700  31.3417530
  75.7185810  49.9151250  32.7695290  75.5562740  33.6465960  45.4836130
  74.8421260  33.8462880  46.0888740  75.9757780  32.8705530  45.8550930
  89.6593690  43.2596440  32.8829960  89.3715390  43.7209130  33.6707840
  90.4545860  42.7994210  33.1514180  75.8435330  47.6346220  46.4702660
  75.9526450  46.6940960  46.3298050  75.1915890  47.9000970  45.8216390
  83.8347920  45.9062110  47.8700780  83.5144790  45.1871350  48.4146470
  83.1606280  46.5817180  47.9436840  81.8762090  46.7522560  32.8133930
  81.8672190  47.4852250  32.1978440  80.9560450  46.5054140  32.9060890
  77.4768730  41.9737450  33.5580690  76.8696680  42.7136350  33.5675990
  77.9518080  42.0636810  32.7318890  87.0501520  36.1388270  43.2337580
  87.4182340  35.3183480  43.5617150  86.1899720  36.1990160  43.6493230
  90.4163550  35.0945210  34.0425140  89.7876710  35.1990880  33.3283370
  89.9215470  35.3141990  34.8319020  84.8621690  46.8150800  31.4759120
  84.9633670  46.6114790  30.5461100  83.9623430  46.5609080  31.6806900
  82.3847580  37.3731160  35.4583020  81.6763730  37.8417500  35.8996630
  82.6692060  36.7153170  36.0928210  84.0103510  38.7927860  43.4575550
  84.5088760  39.2673680  44.1227400  84.1526460  37.8691380  43.6645580
  86.4163010  34.0981820  36.8978810  86.2930790  34.1167950  35.9488320
  87.3647570  34.1460760  37.0177210  83.5039800  49.3337120  36.1706790
  83.7581300  49.2958510  35.2486160  82.5552280  49.2070450  36.1635040
  80.5882600  35.6816240  32.8333730  81.4373130  36.1186390  32.7673920
  80.2213870  35.9936500  33.6605790  89.5092380  40.2529000  37.7465300
  88.5682520  40.2679230  37.9212990  89.8236450  39.4664960  38.1925600
  79.4874020  41.9348600  31.3069260  80.2537290  41.8229960  31.8694690
  79.5648710  41.2386570  30.6546030  78.1820780  39.3673670  31.9902150
  78.2624370  38.4201180  32.1019550  79.0740530  39.6980550  32.0962810
  78.9835490  49.5169060  39.0936690  79.7197970  48.9684520  39.3645260
  79.3676410  50.3825070  38.9542680  75.8680970  45.5842630  34.9678200
  74.9420750  45.8263770  34.9583610  76.3337400  46.4116890  34.8462950
  77.9893770  48.7015130  48.2822270  78.7906500  49.0227180  48.6957670
  77.4745590  48.3410710  49.0042180  82.0937800  48.6899370  30.9162260
  82.8866410  48.9788200  30.4644050  81.5742150  48.2591540  30.2374740
  86.8258400  44.8095000  48.2297680  86.2196560  44.8326600  47.4893430
  86.5212510  44.0778040  48.7664930  88.2558770  48.5375290  46.8407090
  89.2080520  48.4533310  46.7907330  88.1086990  49.2017000  47.5140880
  91.1467970  47.9169500  32.3399000  90.8609480  47.5034640  31.5253180
  90.9487520  48.8457210  32.2199520  75.7091580  41.1888590  47.2258320
  76.2130600  40.6095870  47.7974550  74.9699000  41.4728820  47.7634690
  82.6115200  43.9102780  30.7804610  82.5065840  43.2955130  31.5065990
  82.4439420  43.3868670  29.9967620  82.7629520  42.5959580  46.7593840
  81.9975190  43.1644580  46.6748510  82.9445480  42.3035790  45.8662070
  85.8517930  42.9722810  31.3846600  85.3028030  43.4192110  32.0289340
  86.4737190  42.4672060  31.9084270  89.9052870  44.3264910  47.3168860
  90.6462340  44.6640670  46.8136320  89.1425550  44.4956970  46.7638630
  77.7414660  39.3318180  48.1208390  77.7820000  39.0332050  49.0293620
  78.5960160  39.7325790  47.9615910  81.5193050  41.9313730  33.2811900
  81.9409470  41.7653600  34.1243290  81.6443890  41.1213960  32.7867040
  79.6820470  37.9110280  46.0882880  79.1516930  37.4201230  45.4606220
  80.3508540  38.3394480  45.5540810  84.0320690  40.9551340  30.5289000
  84.5526350  40.2400360  30.1630150  84.6789090  41.5937210  30.8289510
  88.5798530  42.3779740  45.8524070  88.9939550  42.5324820  46.7014490
  87.6449530  42.5034960  46.0149850  89.0520700  39.7175900  47.8563220
  89.6341470  38.9628220  47.7683700  89.2282470  40.2483340  47.0794700
  80.1692770  34.8772650  46.1680170  80.0749640  34.2593400  45.4431040
  79.5890160  35.6038940  45.9410080  82.9354210  33.4345890  43.2007560
  82.4871510  33.4570150  42.3553110  82.3019410  33.0364910  43.7977860
  83.3413760  42.3300220  43.8220000  83.7601870  43.1732950  43.6496240
  82.4222390  42.4672260  43.5926780  85.6777660  40.0616400  45.2057840
  85.7973870  39.4657540  45.9452680  86.5371660  40.0986090  44.7859140
  88.0165560  40.6153590  43.7820350  87.4900780  41.1396210  43.1785490
  88.3596900  41.2480980  44.4130080  80.4151950  38.0046960  30.2270060
  80.2141010  37.1414320  30.5883400  80.2444000  37.9180320  29.2891660
  81.1921180  48.6353230  44.9377730  80.6542270  49.3599290  44.6186430
  81.4455140  48.1583570  44.1475070  82.4446430  36.6037750  46.4633660
  83.0346120  36.2953600  47.1511480  81.6266670  36.1317500  46.6193560
  87.2639860  36.2203560  46.6966680  86.5755380  35.5585100  46.6316670
  87.9845880  35.7741830  47.1415140  87.8940260  32.8155190  32.7556940
  88.1742550  31.9723090  33.1116360  87.1205990  33.0478300  33.2695690
  79.2134750  35.1047580  30.2147940  79.5160650  35.1115010  29.3067090
  79.9529340  34.7545440  30.7115600  84.0483390  49.8704440  45.1964380
  83.9742090  50.7739580  45.5036750  83.1462230  49.5516340  45.1686450
  82.4319680  34.0482200  31.2004140  82.0841680  33.3706190  30.6206590
  82.6332450  33.5871710  32.0147530  84.5968720  49.0362950  32.8190740
  85.4919510  49.3747920  32.8409500  84.6286350  48.3142360  32.1915020
  78.2364880  44.4090000  31.0477740  78.6739750  44.9519670  31.7035320
  78.7212610  43.5836950  31.0574080  75.4510680  47.1979030  38.4998000
  75.7813690  46.3300090  38.2676640  75.8801680  47.4037550  39.3302960
  80.0472600  45.5288040  36.1599970  79.7468140  45.4053010  37.0603880
  79.9410090  44.6696630  35.7515700  75.9400890  48.0649620  41.2379630
  75.5031880  48.2450420  42.0703780  76.5078570  48.8224240  41.0961350
  75.7725320  40.5769850  37.5968510  75.1174160  40.3081490  36.9528210
  76.6103270  40.4674330  37.1470490  90.2614710  44.2918600  43.6233100
  89.4474550  44.7215760  43.8858890  90.6688910  44.9037010  43.0102150
  88.7215760  35.3711140  31.8187000  89.1400640  35.1842120  30.9783660
  88.4151820  34.5190190  32.1289930  76.8101250  40.9622420  42.1371850
  77.1774290  40.8749820  43.0167870  76.2412070  40.1988970  42.0378710
  76.3617250  37.8731510  46.0430270  75.4673300  37.8398270  46.3823980
  76.9014800  38.0718300  46.8081520  90.0493180  34.6563230  47.9282020
  90.9263360  34.6646630  48.3116020  90.0614020  33.9194070  47.3174370
  74.9863400  37.7868780  33.5393840  74.0827480  38.0498980  33.3645500
  75.4704020  38.0579950  32.7593800  77.5290610  36.8434320  31.4488220
  78.2382310  36.4217540  30.9635500  76.8130550  36.9109550  30.8171570
  77.1764770  32.8973650  30.4890870  77.8992900  33.4382590  30.8072090
  77.4489290  32.6237070  29.6132410  90.9856420  37.7666120  34.7562450
  91.4815540  37.5336990  35.5411330  90.7872490  36.9277960  34.3400090
  76.8656960  32.1479840  40.3913490  77.5133150  31.5977220  39.9508650
  77.2858800  32.4022990  41.2129300  90.7609300  32.3421200  43.7483130
  91.3981520  32.9555340  44.1142320  90.9084190  32.3781860  42.8032360
  90.3190760  49.0437200  37.1501370  90.9149830  48.7221770  36.4735790
  90.5768910  48.5709020  37.9414640  76.6188960  32.3035510  43.1338810
  76.2703780  32.7599330  43.8996990  76.2876660  31.4092640  43.2161240
  78.2253330  45.4755110  47.2992000  78.1822960  45.1048020  48.1806460
  78.3564340  46.4132680  47.4393820  81.9259360  47.0314700  42.9001720
  81.6850720  47.2989260  42.0132240  82.8662000  47.2020430  42.9552580
  84.1313780  33.4947390  46.6558230  84.0702670  34.0869220  47.4053640
  85.0714160  33.3873350  46.5108490  86.7688340  33.1517450  46.2950520
  87.3828750  33.4696740  45.6331600  87.3137900  32.6666040  46.9146380
  77.2909600  31.8311710  46.4089580  77.8392590  31.6499760  45.6455690
  77.3564910  31.0405820  46.9445890  78.0641360  48.4217360  44.4189780
  77.4701680  48.2902060  45.1579820  78.0565200  47.5855500  43.9531880
  87.5096380  31.7149590  42.6219810  86.6356220  32.0484700  42.4192740
  87.4007130  31.2422770  43.4471680  88.4168360  33.9220460  44.0061530
  88.0881720  33.1072220  43.6263260  89.3650660  33.8790270  43.8827220
  90.8702970  49.6932500  40.9799100  90.4105940  50.4448310  40.6057120
  90.2415430  48.9738970  40.9213900  77.6953590  45.7875740  43.3697820
  76.9687650  45.1681030  43.3023770  77.7562740  46.1816350  42.4995900
  81.2998690  48.0020740  40.1547230  81.8163710  47.3908100  39.6295490
  81.9496070  48.5049520  40.6458240  84.0394190  48.8929230  40.9816210
  84.3272000  48.6383530  40.1049220  84.5517410  48.3406590  41.5721780
  85.2571200  32.6319430  41.5612720  84.4742990  33.1064930  41.8409480
  84.9634130  31.7274260  41.4525900  89.8092270  33.3342530  39.6061810
  90.2500360  33.2787630  38.7583410  89.5399860  34.2500540  39.6771990
  75.9783590  49.1050130  36.5794580  75.8105630  48.4720810  37.2776470
  75.1118100  49.3109530  36.2288770  76.6011610  32.9366910  34.0826440
  77.3590970  33.0495790  33.5090470  76.1388780  33.7736110  34.0369870
  83.1425420  35.0506180  37.0728750  82.3299930  34.6763070  36.7324630
  83.6467060  34.2951260  37.3749940  87.6450400  31.7148630  38.3111820
  88.2479770  32.2868840  38.7860340  86.9043390  32.2788070  38.0885720
  90.7885000  32.1170190  33.5852100  90.9835630  33.0153640  33.8519530
  90.0014870  31.8857270  34.0785050  77.5846290  47.7983360  34.0244720
  77.0593910  48.1791390  33.3206680  77.5090870  48.4234130  34.7454430
  78.9736760  33.4630960  32.6228410  79.5029520  32.6760760  32.4936360
  79.6065080  34.1422150  32.8563940  81.1674600  33.2006100  35.6773800
  80.5377340  32.4993410  35.8443930  80.6279740  33.9610230  35.4606960
  84.1066550  49.8145330  48.3484410  85.0333860  49.5789600  48.3920370
  84.0916980  50.6417330  47.8670440  81.2930160  32.4790080  48.1126290
  81.0114430  32.9823680  47.3487110  81.6749860  31.6811830  47.7468420
  80.1839260  49.7465740  32.8993970  80.9158080  49.4625020  32.3517860
  80.4432930  49.5079020  33.7893350  79.3454050  45.8630470  32.9040300
  78.7162930  46.3315570  33.4526130  79.4601880  45.0179690  33.3386490
  87.8945620  31.8943660  48.6906760  87.7811070  32.2138270  49.5858280
  88.7115360  32.2956170  48.3944040  90.6744110  49.0415190  48.1725450
  91.4669430  48.5464420  47.9651410  90.9677260  49.7205330  48.7801060
  86.8003770  39.9136130  19.0541500  86.7197820  38.9990740  18.7833210
  86.3868190  40.4103200  18.3481210  84.9321810  41.6915150  20.9350770
  84.1563910  41.2115590  21.2249340  85.5834740  41.0120800  20.7606930
  78.9487640  42.0034960  21.8126530  78.1172520  41.7483670  22.2123040
  79.5568620  42.0745730  22.5484450  88.9529240  46.0975340  19.7149900
  88.4910770  45.3262580  20.0437070  89.7654790  46.1241410  20.2202350
  78.9288900  46.0375050  22.0084550  79.2316940  45.1472790  21.8294770
  79.6732490  46.5945270  21.7806800  77.3579590  36.9636850  15.5968920
  76.4696290  37.3052820  15.4948800  77.6420780  36.7637170  14.7049750
  75.3212600  39.5642500  21.4808620  75.8928710  38.7964700  21.4812260
  75.3214140  39.8631260  20.5715230  85.1792550  48.3833350  19.3353890
  84.5603990  48.8390850  18.7648330  86.0344330  48.5384810  18.9343590
  84.3730800  44.3672340  20.9420930  84.3039080  43.4262280  20.7810060
  85.1350660  44.4573750  21.5143500  76.5637470  34.9726860  23.2677550
  76.3840310  34.0752610  23.5480310  76.1617550  35.5198730  23.9424500
  85.4035970  37.1742720  21.1689860  85.7800790  36.3014600  21.0563530
  85.3055480  37.5101420  20.2780300  79.5340980  35.5468350  16.6307300
  79.6407730  36.4472080  16.9376060  78.6233340  35.4986320  16.3401950
  89.1860090  34.6693160  18.1018200  90.0069710  34.1789730  18.1443680
  89.2194170  35.2590820  18.8550040  77.1824140  37.4687360  21.8759890
  77.8634250  37.7325730  22.4947290  76.8672190  36.6288230  22.2097900
  81.3748710  38.5154720  20.9632480  81.8826930  39.0135690  21.6037500
  81.9061950  37.7389920  20.7871840  79.6584810  33.1553280  25.2295900
  79.6603250  33.6725670  24.4241800  78.8289120  32.6783460  25.2065830
  86.0455900  43.2672590  16.7285800  85.4273170  43.7322040  16.1648520
  86.5579150  43.9600070  17.1455310  80.9087660  42.7948460  23.4069400
  80.5757040  43.4217380  24.0490470  81.0854340  43.3210340  22.6271070
  89.4221570  36.6093540  20.8745740  88.7177140  36.8978430  21.4548850
  89.7833730  37.4193650  20.5145300  79.3400140  34.8663240  23.2366350
  79.6816950  35.7105290  22.9420220  78.4015950  35.0146980  23.3531690
  80.1206760  44.7629260  25.2218580  80.7380760  45.4380340  24.9403030
  79.2599880  45.1717240  25.1306080  75.4139100  43.9529120  14.1025430
  75.0367080  44.4416220  13.3710330  75.6712170  44.6254400  14.7331960
  83.0228030  32.3545510  19.5610940  83.3303010  31.7992400  18.8446440
  82.0928730  32.4889970  19.3783930  88.5743090  48.0712800  21.8518400
  88.5870250  47.6675090  20.9840660  88.0218310  48.8460090  21.7479830
  89.8688510  44.7929020  16.9408570  89.7584840  43.8503350  17.0657990
  89.8656760  45.1544660  17.8271330  87.9728530  42.9742640  23.1801010
  88.3897320  42.7602750  22.3454470  88.6968350  43.2315430  23.7509630
  85.4108790  40.4194340  16.2971060  84.4838070  40.3531720  16.5259530
  85.5633610  41.3574470  16.1826300  85.3977870  36.6911340  13.2938220
  84.4581540  36.8525300  13.3790680  85.7161130  37.4097020  12.7474210
  89.4406080  41.9814640  16.8006310  88.8218500  41.6434190  16.1532610
  89.4230530  41.3374400  17.5085500  88.8832640  38.1599180  24.2172120
  88.4703820  38.9852890  24.4712110  88.1508590  37.5744220  24.0248480
  81.0165430  40.9459080  19.0790790  80.6122430  40.2336330  18.5836690
  81.1028550  40.6012320  19.9678830  81.4847130  44.6326640  21.2430000
  81.1875420  44.0272110  20.5637780  82.4346950  44.6703950  21.1319360
  79.7294050  37.7202290  22.8589830  80.2808640  37.8297630  22.0843080
  80.2437560  38.0939890  23.5745060  89.5732740  48.2058510  24.9053100
  89.0963300  49.0130700  24.7125710  88.8894530  47.5536840  25.0579310
  80.5765560  44.3708330  27.8937800  79.6794090  44.5948300  28.1411200
  80.6018430  44.4943270  26.9449200  87.6170780  41.2201450  13.8079060
  88.0564060  40.3823880  13.6616880  88.3299200  41.8530850  13.8943200
  79.4036780  41.2421650  26.4695170  79.2644550  42.1144450  26.8382570
  78.5218140  40.8994460  26.3243110  85.7266160  46.1597520  17.7760300
  86.1662070  46.9021850  17.3615690  85.6653050  46.4024090  18.6999260
  81.2017130  47.1843350  28.6780320  81.1732560  47.5886300  27.8108750
  81.0382100  46.2553710  28.5151920  77.7170060  39.8404060  16.5797440
  77.5967660  40.5666150  15.9678710  77.4070950  39.0706970  16.1025350
  75.3555430  43.0119200  22.3866080  75.4335850  43.1467970  21.4421800
  75.9697110  42.3035090  22.5794200  76.6003060  44.7119390  18.7972260
  76.1931140  44.8533980  17.9425860  77.4916070  44.4279550  18.5943470
  86.4181940  48.8611300  25.7039310  86.9326610  48.7719310  26.5061740
  85.5751020  49.2071000  25.9967220  88.3936340  49.1466640  15.1323310
  88.2337480  48.8569580  16.0305140  88.2283050  48.3706770  14.5968540
  80.8724720  48.9265170  16.9094930  80.6967200  48.0100710  16.6962730
  80.0180460  49.2852460  17.1492730  88.0962470  46.6554200  13.6921310
  87.4027630  46.6531490  13.0323590  88.8385330  46.2313520  13.2615480
  87.6612400  48.2816910  17.7669800  88.1169350  47.5006290  18.0808420
  88.0004920  48.9923730  18.3110980  75.4114950  44.0533370  24.9260540
  75.5745990  43.5838730  24.1079910  75.8767400  43.5456930  25.5909380
  80.1833720  33.1839130  19.9621110  79.7401870  33.9648670  19.6305630
  80.7418710  33.5069020  20.6692050  84.4703530  36.0507650  25.5656430
  84.0082900  36.2590670  26.3776370  84.0681640  35.2367000  25.2627100
  89.4708040  37.2716600  26.6953090  88.6201630  36.9722350  27.0162160
  89.3109830  37.5158610  25.7836910  86.5657750  38.7718350  28.7951880
  86.8911160  37.9382100  28.4554110  87.3538080  39.2946870  28.9430210
  83.2992540  32.8049830  14.8426940  82.6746720  32.8009700  15.5680250
  83.2122660  31.9380790  14.4462910  82.2209620  33.7286460  21.8210710
  82.5181950  34.6349290  21.7402730  82.7695180  33.2405240  21.2070280
  79.9747940  38.3072700  17.6902360  79.7488860  38.0909870  18.5948980
  79.1940470  38.7401160  17.3448330  87.2045700  38.3136070  16.2893010
  86.6054590  39.0371870  16.1056630  87.7525310  38.2512850  15.5069460
  82.4147150  39.2058280  28.3562630  82.3190750  38.2653010  28.2063030
  83.2579130  39.4273350  27.9610700  85.8110570  36.9499610  18.3196290
  86.2040140  37.2671810  17.5064980  86.1727420  36.0711490  18.4340810
  77.5457690  35.6171950  26.5096410  77.1521080  36.4647160  26.7169190
  76.8576090  34.9798320  26.7005050  84.1202740  35.7006920  29.5793150
  83.4301060  35.5079120  30.2139240  84.8635040  35.9841560  30.1117450
  74.8474740  33.5400410  20.5426490  74.5587790  34.1103270  21.2551470
  75.5920500  33.0604860  20.9057720  75.0344970  37.4820530  11.7529210
  74.9519640  38.4251290  11.8944200  74.6828030  37.3395440  10.8741560
  86.3965710  39.5405360  22.4147070  85.6646830  40.0492170  22.7637170
  85.9990050  38.7235340  22.1135850  82.8343100  36.2159560  20.8199560
  82.8379160  35.7749510  19.9704100  83.7294220  36.5376890  20.9271380
  78.6845480  36.0986050  19.7793770  78.3445530  36.5761280  20.5360820
  77.9222800  35.6451170  19.4194870  82.8963250  37.2171640  13.8106320
  83.0176070  37.1758120  14.7592140  82.5111760  38.0795790  13.6553050
  86.8591620  34.9939040  21.8270010  86.8764360  35.4447690  22.6711860
  86.6107200  34.0944680  22.0403450  81.9084750  39.5272780  13.2089620
  81.3401650  39.0791030  12.5825530  82.6173750  39.8865560  12.6754770
  90.2862370  32.4071220  27.6656390  90.6108140  31.6760880  28.1914370
  90.3218880  32.0884860  26.7637380  76.9853930  43.4284800  27.0856350
  76.6008720  42.7878470  27.6839310  77.2966120  44.1320920  27.6551080
  83.1351070  40.2761340  22.5664970  83.5021200  39.8019910  23.3126310
  82.9456130  41.1502910  22.9073310  75.9991560  35.0205030  18.6958440
  75.7138480  34.6560700  19.5337060  75.9370420  34.2885490  18.0821580
  80.9250440  39.3169980  24.8849180  80.6207510  40.1961960  25.1099540
  81.8796900  39.3769770  24.9206620  79.4532230  43.5230970  15.4816030
  78.6794490  42.9828590  15.3214750  80.1826860  43.0037580  15.1433790
  90.2120210  42.5196330  21.2742420  90.9319330  43.0151620  20.8838530
  90.0102030  41.8414220  20.6296290  85.6730150  33.9134290  15.4171810
  84.8594760  33.4147460  15.3417120  85.4792100  34.7532540  15.0008160
  85.5939010  42.5905390  27.1611420  85.5276320  41.6701060  26.9069010
  84.9644150  42.6880830  27.8756060  88.3878540  38.2853940  13.7133970
  89.2758160  38.5971170  13.5385310  88.3583630  37.4126190  13.3214550
  79.4969630  43.1911350  19.1194840  80.0148300  42.3879610  19.0651730
  79.0453650  43.1290490  19.9611670  84.3839130  44.4577630  14.3922140
  84.7254830  45.2019860  13.8965460  83.5551840  44.7708750  14.7546970
  76.9814170  40.1572720  26.0320540  76.6229110  40.8226570  26.6193880
  76.6868730  39.3256270  26.4033160  80.1827290  40.6156960  28.9160090
  79.8827430  40.7614140  28.0187910  80.9538530  40.0562250  28.8233480
  85.5255740  45.4125960  26.9115220  85.5400280  44.4806920  26.6934130
  84.8180840  45.4985720  27.5504990  90.6592810  39.5965780  13.1813830
  90.5756530  40.0280000  12.3310270  91.3787000  40.0564130  13.6140650
  87.2666540  43.7793470  19.7567650  87.6190360  43.1821600  19.0969020
  86.3828870  43.4537700  19.9275900  83.3529820  44.5391160  17.1638060
  84.0400950  45.0860370  17.5445650  82.5662240  45.0831890  17.1987670
  75.4922220  40.1563980  12.6555140  76.3617070  40.4388780  12.9391060
  75.0012540  40.9699850  12.5403950  82.6557030  41.5437190  16.7763420
  83.1119810  42.3542440  17.0023610  82.3045240  41.2260330  17.6081910
  84.9589640  47.0543530  24.0055720  85.6031860  47.2602910  24.6829140
  85.3219080  46.2931930  23.5526570  78.5568810  31.8874840  17.2485940
  78.4283440  31.8792740  18.1970860  77.7330830  32.2257930  16.8976950
  86.2321720  45.0575880  22.7233170  86.8743950  44.3569040  22.8365340
  86.7571070  45.8374320  22.5430060  90.0777440  45.3424500  12.4472310
  89.8515020  44.6254940  13.0396950  89.6873640  45.0936940  11.6094060
  88.0059340  45.8570780  25.9269230  88.3415580  46.4437470  26.6047150
  87.0859680  45.7263490  26.1567020  75.8593470  49.3691360  13.2216770
  76.2191110  49.9680700  12.5674040  75.7185810  49.9151250  13.9951800
  75.5562740  33.6465960  26.7092640  74.8421260  33.8462880  27.3145250
  75.9757780  32.8705530  27.0807440  89.6593690  43.2596440  14.1086470
  89.3715390  43.7209130  14.8964350  90.4545860  42.7994210  14.3770690
  75.8435330  47.6346220  27.6959170  75.9526450  46.6940960  27.5554560
  75.1915890  47.9000970  27.0472900  83.8347920  45.9062110  29.0957290
  83.5144790  45.1871350  29.6402980  83.1606280  46.5817180  29.1693350
  81.8762090  46.7522560  14.0390440  81.8672190  47.4852250  13.4234950
  80.9560450  46.5054140  14.1317400  77.4768730  41.9737450  14.7837200
  76.8696680  42.7136350  14.7932500  77.9518080  42.0636810  13.9575400
  87.0501520  36.1388270  24.4594090  87.4182340  35.3183480  24.7873660
  86.1899720  36.1990160  24.8749740  90.4163550  35.0945210  15.2681650
  89.7876710  35.1990880  14.5539880  89.9215470  35.3141990  16.0575530
  84.8621690  46.8150800  12.7015630  84.9633670  46.6114790  11.7717610
  83.9623430  46.5609080  12.9063410  82.3847580  37.3731160  16.6839530
  81.6763730  37.8417500  17.1253140  82.6692060  36.7153170  17.3184720
  84.0103510  38.7927860  24.6832060  84.5088760  39.2673680  25.3483910
  84.1526460  37.8691380  24.8902090  86.4163010  34.0981820  18.1235320
  86.2930790  34.1167950  17.1744830  87.3647570  34.1460760  18.2433720
  83.5039800  49.3337120  17.3963300  83.7581300  49.2958510  16.4742670
  82.5552280  49.2070450  17.3891550  80.5882600  35.6816240  14.0590240
  81.4373130  36.1186390  13.9930430  80.2213870  35.9936500  14.8862300
  89.5092380  40.2529000  18.9721810  88.5682520  40.2679230  19.1469500
  89.8236450  39.4664960  19.4182110  79.4874020  41.9348600  12.5325770
  80.2537290  41.8229960  13.0951200  79.5648710  41.2386570  11.8802540
  78.1820780  39.3673670  13.2158660  78.2624370  38.4201180  13.3276060
  79.0740530  39.6980550  13.3219320  78.9835490  49.5169060  20.3193200
  79.7197970  48.9684520  20.5901770  79.3676410  50.3825070  20.1799190
  75.8680970  45.5842630  16.1934710  74.9420750  45.8263770  16.1840120
  76.3337400  46.4116890  16.0719460  77.9893770  48.7015130  29.5078780
  78.7906500  49.0227180  29.9214180  77.4745590  48.3410710  30.2298690
  82.0937800  48.6899370  12.1418770  82.8866410  48.9788200  11.6900560
  81.5742150  48.2591540  11.4631250  86.8258400  44.8095000  29.4554190
  86.2196560  44.8326600  28.7149940  86.5212510  44.0778040  29.9921440
  88.2558770  48.5375290  28.0663600  89.2080520  48.4533310  28.0163840
  88.1086990  49.2017000  28.7397390  91.1467970  47.9169500  13.5655510
  90.8609480  47.5034640  12.7509690  90.9487520  48.8457210  13.4456030
  75.7091580  41.1888590  28.4514830  76.2130600  40.6095870  29.0231060
  74.9699000  41.4728820  28.9891200  82.6115200  43.9102780  12.0061120
  82.5065840  43.2955130  12.7322500  82.4439420  43.3868670  11.2224130
  82.7629520  42.5959580  27.9850350  81.9975190  43.1644580  27.9005020
  82.9445480  42.3035790  27.0918580  85.8517930  42.9722810  12.6103110
  85.3028030  43.4192110  13.2545850  86.4737190  42.4672060  13.1340780
  89.9052870  44.3264910  28.5425370  90.6462340  44.6640670  28.0392830
  89.1425550  44.4956970  27.9895140  77.7414660  39.3318180  29.3464900
  77.7820000  39.0332050  30.2550130  78.5960160  39.7325790  29.1872420
  81.5193050  41.9313730  14.5068410  81.9409470  41.7653600  15.3499800
  81.6443890  41.1213960  14.0123550  79.6820470  37.9110280  27.3139390
  79.1516930  37.4201230  26.6862730  80.3508540  38.3394480  26.7797320
  84.0320690  40.9551340  11.7545510  84.5526350  40.2400360  11.3886660
  84.6789090  41.5937210  12.0546020  88.5798530  42.3779740  27.0780580
  88.9939550  42.5324820  27.9271000  87.6449530  42.5034960  27.2406360
  89.0520700  39.7175900  29.0819730  89.6341470  38.9628220  28.9940210
  89.2282470  40.2483340  28.3051210  80.1692770  34.8772650  27.3936680
  80.0749640  34.2593400  26.6687550  79.5890160  35.6038940  27.1666590
  82.9354210  33.4345890  24.4264070  82.4871510  33.4570150  23.5809620
  82.3019410  33.0364910  25.0234370  83.3413760  42.3300220  25.0476510
  83.7601870  43.1732950  24.8752750  82.4222390  42.4672260  24.8183290
  85.6777660  40.0616400  26.4314350  85.7973870  39.4657540  27.1709190
  86.5371660  40.0986090  26.0115650  88.0165560  40.6153590  25.0076860
  87.4900780  41.1396210  24.4042000  88.3596900  41.2480980  25.6386590
  80.4151950  38.0046960  11.4526570  80.2141010  37.1414320  11.8139910
  80.2444000  37.9180320  10.5148170  81.1921180  48.6353230  26.1634240
  80.6542270  49.3599290  25.8442940  81.4455140  48.1583570  25.3731580
  82.4446430  36.6037750  27.6890170  83.0346120  36.2953600  28.3767990
  81.6266670  36.1317500  27.8450070  87.2639860  36.2203560  27.9223190
  86.5755380  35.5585100  27.8573180  87.9845880  35.7741830  28.3671650
  87.8940260  32.8155190  13.9813450  88.1742550  31.9723090  14.3372870
  87.1205990  33.0478300  14.4952200  79.2134750  35.1047580  11.4404450
  79.5160650  35.1115010  10.5323600  79.9529340  34.7545440  11.9372110
  84.0483390  49.8704440  26.4220890  83.9742090  50.7739580  26.7293260
  83.1462230  49.5516340  26.3942960  82.4319680  34.0482200  12.4260650
  82.0841680  33.3706190  11.8463100  82.6332450  33.5871710  13.2404040
  84.5968720  49.0362950  14.0447250  85.4919510  49.3747920  14.0666010
  84.6286350  48.3142360  13.4171530  78.2364880  44.4090000  12.2734250
  78.6739750  44.9519670  12.9291830  78.7212610  43.5836950  12.2830590
  75.4510680  47.1979030  19.7254510  75.7813690  46.3300090  19.4933150
  75.8801680  47.4037550  20.5559470  80.0472600  45.5288040  17.3856480
  79.7468140  45.4053010  18.2860390  79.9410090  44.6696630  16.9772210
  75.9400890  48.0649620  22.4636140  75.5031880  48.2450420  23.2960290
  76.5078570  48.8224240  22.3217860  75.7725320  40.5769850  18.8225020
  75.1174160  40.3081490  18.1784720  76.6103270  40.4674330  18.3727000
  90.2614710  44.2918600  24.8489610  89.4474550  44.7215760  25.1115400
  90.6688910  44.9037010  24.2358660  88.7215760  35.3711140  13.0443510
  89.1400640  35.1842120  12.2040170  88.4151820  34.5190190  13.3546440
  76.8101250  40.9622420  23.3628360  77.1774290  40.8749820  24.2424380
  76.2412070  40.1988970  23.2635220  76.3617250  37.8731510  27.2686780
  75.4673300  37.8398270  27.6080490  76.9014800  38.0718300  28.0338030
  90.0493180  34.6563230  29.1538530  90.9263360  34.6646630  29.5372530
  90.0614020  33.9194070  28.5430880  74.9863400  37.7868780  14.7650350
  74.0827480  38.0498980  14.5902010  75.4704020  38.0579950  13.9850310
  77.5290610  36.8434320  12.6744730  78.2382310  36.4217540  12.1892010
  76.8130550  36.9109550  12.0428080  77.1764770  32.8973650  11.7147380
  77.8992900  33.4382590  12.0328600  77.4489290  32.6237070  10.8388920
  90.9856420  37.7666120  15.9818960  91.4815540  37.5336990  16.7667840
  90.7872490  36.9277960  15.5656600  76.8656960  32.1479840  21.6170000
  77.5133150  31.5977220  21.1765160  77.2858800  32.4022990  22.4385810
  90.7609300  32.3421200  24.9739640  91.3981520  32.9555340  25.3398830
  90.9084190  32.3781860  24.0288870  90.3190760  49.0437200  18.3757880
  90.9149830  48.7221770  17.6992300  90.5768910  48.5709020  19.1671150
  76.6188960  32.3035510  24.3595320  76.2703780  32.7599330  25.1253500
  76.2876660  31.4092640  24.4417750  78.2253330  45.4755110  28.5248510
  78.1822960  45.1048020  29.4062970  78.3564340  46.4132680  28.6650330
  81.9259360  47.0314700  24.1258230  81.6850720  47.2989260  23.2388750
  82.8662000  47.2020430  24.1809090  84.1313780  33.4947390  27.8814740
  84.0702670  34.0869220  28.6310150  85.0714160  33.3873350  27.7365000
  86.7688340  33.1517450  27.5207030  87.3828750  33.4696740  26.8588110
  87.3137900  32.6666040  28.1402890  77.2909600  31.8311710  27.6346090
  77.8392590  31.6499760  26.8712200  77.3564910  31.0405820  28.1702400
  78.0641360  48.4217360  25.6446290  77.4701680  48.2902060  26.3836330
  78.0565200  47.5855500  25.1788390  87.5096380  31.7149590  23.8476320
  86.6356220  32.0484700  23.6449250  87.4007130  31.2422770  24.6728190
  88.4168360  33.9220460  25.2318040  88.0881720  33.1072220  24.8519770
  89.3650660  33.8790270  25.1083730  90.8702970  49.6932500  22.2055610
  90.4105940  50.4448310  21.8313630  90.2415430  48.9738970  22.1470410
  77.6953590  45.7875740  24.5954330  76.9687650  45.1681030  24.5280280
  77.7562740  46.1816350  23.7252410  81.2998690  48.0020740  21.3803740
  81.8163710  47.3908100  20.8552000  81.9496070  48.5049520  21.8714750
  84.0394190  48.8929230  22.2072720  84.3272000  48.6383530  21.3305730
  84.5517410  48.3406590  22.7978290  85.2571200  32.6319430  22.7869230
  84.4742990  33.1064930  23.0665990  84.9634130  31.7274260  22.6782410
  89.8092270  33.3342530  20.8318320  90.2500360  33.2787630  19.9839920
  89.5399860  34.2500540  20.9028500  75.9783590  49.1050130  17.8051090
  75.8105630  48.4720810  18.5032980  75.1118100  49.3109530  17.4545280
  76.6011610  32.9366910  15.3082950  77.3590970  33.0495790  14.7346980
  76.1388780  33.7736110  15.2626380  83.1425420  35.0506180  18.2985260
  82.3299930  34.6763070  17.9581140  83.6467060  34.2951260  18.6006450
  87.6450400  31.7148630  19.5368330  88.2479770  32.2868840  20.0116850
  86.9043390  32.2788070  19.3142230  90.7885000  32.1170190  14.8108610
  90.9835630  33.0153640  15.0776040  90.0014870  31.8857270  15.3041560
  77.5846290  47.7983360  15.2501230  77.0593910  48.1791390  14.5463190
  77.5090870  48.4234130  15.9710940  78.9736760  33.4630960  13.8484920
  79.5029520  32.6760760  13.7192870  79.6065080  34.1422150  14.0820450
  81.1674600  33.2006100  16.9030310  80.5377340  32.4993410  17.0700440
  80.6279740  33.9610230  16.6863470  84.1066550  49.8145330  29.5740920
  85.0333860  49.5789600  29.6176880  84.0916980  50.6417330  29.0926950
  81.2930160  32.4790080  29.3382800  81.0114430  32.9823680  28.5743620
  81.6749860  31.6811830  28.9724930  80.1839260  49.7465740  14.1250480
  80.9158080  49.4625020  13.5774370  80.4432930  49.5079020  15.0149860
  79.3454050  45.8630470  14.1296810  78.7162930  46.3315570  14.6782640
  79.4601880  45.0179690  14.5643000  87.8945620  31.8943660  29.9163270
  87.7811070  32.2138270  30.8114790  88.7115360  32.2956170  29.6200550
  90.6744110  49.0415190  29.3981960  91.4669430  48.5464420  29.1907920
  90.9677260  49.7205330  30.0057570  84.9321810  41.6915150   2.1607280
  84.1563910  41.2115590   2.4505850  85.5834740  41.0120800   1.9863440
  78.9487640  42.0034960   3.0383040  78.1172520  41.7483670   3.4379550
  79.5568620  42.0745730   3.7740960  78.9288900  46.0375050   3.2341060
  79.2316940  45.1472790   3.0551280  79.6732490  46.5945270   3.0063310
  75.3212600  39.5642500   2.7065130  75.8928710  38.7964700   2.7068770
  75.3214140  39.8631260   1.7971740  84.3730800  44.3672340   2.1677440
  84.3039080  43.4262280   2.0066570  85.1350660  44.4573750   2.7400010
  76.5637470  34.9726860   4.4934060  76.3840310  34.0752610   4.7736820
  76.1617550  35.5198730   5.1681010  85.4035970  37.1742720   2.3946370
  85.7800790  36.3014600   2.2820040  85.3055480  37.5101420   1.5036810
  77.1824140  37.4687360   3.1016400  77.8634250  37.7325730   3.7203800
  76.8672190  36.6288230   3.4354410  81.3748710  38.5154720   2.1888990
  81.8826930  39.0135690   2.8294010  81.9061950  37.7389920   2.0128350
  79.6584810  33.1553280   6.4552410  79.6603250  33.6725670   5.6498310
  78.8289120  32.6783460   6.4322340  80.9087660  42.7948460   4.6325910
  80.5757040  43.4217380   5.2746980  81.0854340  43.3210340   3.8527580
  89.4221570  36.6093540   2.1002250  88.7177140  36.8978430   2.6805360
  89.7833730  37.4193650   1.7401810  79.3400140  34.8663240   4.4622860
  79.6816950  35.7105290   4.1676730  78.4015950  35.0146980   4.5788200
  80.1206760  44.7629260   6.4475090  80.7380760  45.4380340   6.1659540
  79.2599880  45.1717240   6.3562590  88.5743090  48.0712800   3.0774910
  88.5870250  47.6675090   2.2097170  88.0218310  48.8460090   2.9736340
  87.9728530  42.9742640   4.4057520  88.3897320  42.7602750   3.5710980
  88.6968350  43.2315430   4.9766140  88.8832640  38.1599180   5.4428630
  88.4703820  38.9852890   5.6968620  88.1508590  37.5744220   5.2504990
  81.4847130  44.6326640   2.4686510  81.1875420  44.0272110   1.7894290
  82.4346950  44.6703950   2.3575870  79.7294050  37.7202290   4.0846340
  80.2808640  37.8297630   3.3099590  80.2437560  38.0939890   4.8001570
  89.5732740  48.2058510   6.1309610  89.0963300  49.0130700   5.9382220
  88.8894530  47.5536840   6.2835820  80.5765560  44.3708330   9.1194310
  79.6794090  44.5948300   9.3667710  80.6018430  44.4943270   8.1705710
  79.4036780  41.2421650   7.6951680  79.2644550  42.1144450   8.0639080
  78.5218140  40.8994460   7.5499620  81.2017130  47.1843350   9.9036830
  81.1732560  47.5886300   9.0365260  81.0382100  46.2553710   9.7408430
  75.3555430  43.0119200   3.6122590  75.4335850  43.1467970   2.6678310
  75.9697110  42.3035090   3.8050710  86.4181940  48.8611300   6.9295820
  86.9326610  48.7719310   7.7318250  85.5751020  49.2071000   7.2223730
  75.4114950  44.0533370   6.1517050  75.5745990  43.5838730   5.3336420
  75.8767400  43.5456930   6.8165890  84.4703530  36.0507650   6.7912940
  84.0082900  36.2590670   7.6032880  84.0681640  35.2367000   6.4883610
  89.4708040  37.2716600   7.9209600  88.6201630  36.9722350   8.2418670
  89.3109830  37.5158610   7.0093420  86.5657750  38.7718350  10.0208390
  86.8911160  37.9382100   9.6810620  87.3538080  39.2946870  10.1686720
  82.2209620  33.7286460   3.0467220  82.5181950  34.6349290   2.9659240
  82.7695180  33.2405240   2.4326790  82.4147150  39.2058280   9.5819140
  82.3190750  38.2653010   9.4319540  83.2579130  39.4273350   9.1867210
  77.5457690  35.6171950   7.7352920  77.1521080  36.4647160   7.9425700
  76.8576090  34.9798320   7.9261560  84.1202740  35.7006920  10.8049660
  83.4301060  35.5079120  11.4395750  84.8635040  35.9841560  11.3373960
  74.8474740  33.5400410   1.7683000  74.5587790  34.1103270   2.4807980
  75.5920500  33.0604860   2.1314230  86.3965710  39.5405360   3.6403580
  85.6646830  40.0492170   3.9893680  85.9990050  38.7235340   3.3392360
  86.8591620  34.9939040   3.0526520  86.8764360  35.4447690   3.8968370
  86.6107200  34.0944680   3.2659960  90.2862370  32.4071220   8.8912900
  90.6108140  31.6760880   9.4170880  90.3218880  32.0884860   7.9893890
  76.9853930  43.4284800   8.3112860  76.6008720  42.7878470   8.9095820
  77.2966120  44.1320920   8.8807590  83.1351070  40.2761340   3.7921480
  83.5021200  39.8019910   4.5382820  82.9456130  41.1502910   4.1329820
  80.9250440  39.3169980   6.1105690  80.6207510  40.1961960   6.3356050
  81.8796900  39.3769770   6.1463130  90.2120210  42.5196330   2.4998930
  90.9319330  43.0151620   2.1095040  90.0102030  41.8414220   1.8552800
  85.5939010  42.5905390   8.3867930  85.5276320  41.6701060   8.1325520
  84.9644150  42.6880830   9.1012570  76.9814170  40.1572720   7.2577050
  76.6229110  40.8226570   7.8450390  76.6868730  39.3256270   7.6289670
  80.1827290  40.6156960  10.1416600  79.8827430  40.7614140   9.2444420
  80.9538530  40.0562250  10.0489990  85.5255740  45.4125960   8.1371730
  85.5400280  44.4806920   7.9190640  84.8180840  45.4985720   8.7761500
  84.9589640  47.0543530   5.2312230  85.6031860  47.2602910   5.9085650
  85.3219080  46.2931930   4.7783080  86.2321720  45.0575880   3.9489680
  86.8743950  44.3569040   4.0621850  86.7571070  45.8374320   3.7686570
  88.0059340  45.8570780   7.1525740  88.3415580  46.4437470   7.8303660
  87.0859680  45.7263490   7.3823530  75.5562740  33.6465960   7.9349150
  74.8421260  33.8462880   8.5401760  75.9757780  32.8705530   8.3063950
  75.8435330  47.6346220   8.9215680  75.9526450  46.6940960   8.7811070
  75.1915890  47.9000970   8.2729410  83.8347920  45.9062110  10.3213800
  83.5144790  45.1871350  10.8659490  83.1606280  46.5817180  10.3949860
  87.0501520  36.1388270   5.6850600  87.4182340  35.3183480   6.0130170
  86.1899720  36.1990160   6.1006250  84.0103510  38.7927860   5.9088570
  84.5088760  39.2673680   6.5740420  84.1526460  37.8691380   6.1158600
  77.9893770  48.7015130  10.7335290  78.7906500  49.0227180  11.1470690
  77.4745590  48.3410710  11.4555200  86.8258400  44.8095000  10.6810700
  86.2196560  44.8326600   9.9406450  86.5212510  44.0778040  11.2177950
  88.2558770  48.5375290   9.2920110  89.2080520  48.4533310   9.2420350
  88.1086990  49.2017000   9.9653900  75.7091580  41.1888590   9.6771340
  76.2130600  40.6095870  10.2487570  74.9699000  41.4728820  10.2147710
  82.7629520  42.5959580   9.2106860  81.9975190  43.1644580   9.1261530
  82.9445480  42.3035790   8.3175090  89.9052870  44.3264910   9.7681880
  90.6462340  44.6640670   9.2649340  89.1425550  44.4956970   9.2151650
  77.7414660  39.3318180  10.5721410  77.7820000  39.0332050  11.4806640
  78.5960160  39.7325790  10.4128930  79.6820470  37.9110280   8.5395900
  79.1516930  37.4201230   7.9119240  80.3508540  38.3394480   8.0053830
  88.5798530  42.3779740   8.3037090  88.9939550  42.5324820   9.1527510
  87.6449530  42.5034960   8.4662870  89.0520700  39.7175900  10.3076240
  89.6341470  38.9628220  10.2196720  89.2282470  40.2483340   9.5307720
  80.1692770  34.8772650   8.6193190  80.0749640  34.2593400   7.8944060
  79.5890160  35.6038940   8.3923100  82.9354210  33.4345890   5.6520580
  82.4871510  33.4570150   4.8066130  82.3019410  33.0364910   6.2490880
  83.3413760  42.3300220   6.2733020  83.7601870  43.1732950   6.1009260
  82.4222390  42.4672260   6.0439800  85.6777660  40.0616400   7.6570860
  85.7973870  39.4657540   8.3965700  86.5371660  40.0986090   7.2372160
  88.0165560  40.6153590   6.2333370  87.4900780  41.1396210   5.6298510
  88.3596900  41.2480980   6.8643100  81.1921180  48.6353230   7.3890750
  80.6542270  49.3599290   7.0699450  81.4455140  48.1583570   6.5988090
  82.4446430  36.6037750   8.9146680  83.0346120  36.2953600   9.6024500
  81.6266670  36.1317500   9.0706580  87.2639860  36.2203560   9.1479700
  86.5755380  35.5585100   9.0829690  87.9845880  35.7741830   9.5928160
  84.0483390  49.8704440   7.6477400  83.9742090  50.7739580   7.9549770
  83.1462230  49.5516340   7.6199470  75.9400890  48.0649620   3.6892650
  75.5031880  48.2450420   4.5216800  76.5078570  48.8224240   3.5474370
  90.2614710  44.2918600   6.0746120  89.4474550  44.7215760   6.3371910
  90.6688910  44.9037010   5.4615170  76.8101250  40.9622420   4.5884870
  77.1774290  40.8749820   5.4680890  76.2412070  40.1988970   4.4891730
  76.3617250  37.8731510   8.4943290  75.4673300  37.8398270   8.8337000
  76.9014800  38.0718300   9.2594540  90.0493180  34.6563230  10.3795040
  90.9263360  34.6646630  10.7629040  90.0614020  33.9194070   9.7687390
  76.8656960  32.1479840   2.8426510  77.5133150  31.5977220   2.4021670
  77.2858800  32.4022990   3.6642320  90.7609300  32.3421200   6.1996150
  91.3981520  32.9555340   6.5655340  90.9084190  32.3781860   5.2545380
  76.6188960  32.3035510   5.5851830  76.2703780  32.7599330   6.3510010
  76.2876660  31.4092640   5.6674260  78.2253330  45.4755110   9.7505020
  78.1822960  45.1048020  10.6319480  78.3564340  46.4132680   9.8906840
  81.9259360  47.0314700   5.3514740  81.6850720  47.2989260   4.4645260
  82.8662000  47.2020430   5.4065600  84.1313780  33.4947390   9.1071250
  84.0702670  34.0869220   9.8566660  85.0714160  33.3873350   8.9621510
  86.7688340  33.1517450   8.7463540  87.3828750  33.4696740   8.0844620
  87.3137900  32.6666040   9.3659400  77.2909600  31.8311710   8.8602600
  77.8392590  31.6499760   8.0968710  77.3564910  31.0405820   9.3958910
  78.0641360  48.4217360   6.8702800  77.4701680  48.2902060   7.6092840
  78.0565200  47.5855500   6.4044900  87.5096380  31.7149590   5.0732830
  86.6356220  32.0484700   4.8705760  87.4007130  31.2422770   5.8984700
  88.4168360  33.9220460   6.4574550  88.0881720  33.1072220   6.0776280
  89.3650660  33.8790270   6.3340240  90.8702970  49.6932500   3.4312120
  90.4105940  50.4448310   3.0570140  90.2415430  48.9738970   3.3726920
  77.6953590  45.7875740   5.8210840  76.9687650  45.1681030   5.7536790
  77.7562740  46.1816350   4.9508920  81.2998690  48.0020740   2.6060250
  81.8163710  47.3908100   2.0808510  81.9496070  48.5049520   3.0971260
  84.0394190  48.8929230   3.4329230  84.3272000  48.6383530   2.5562240
  84.5517410  48.3406590   4.0234800  85.2571200  32.6319430   4.0125740
  84.4742990  33.1064930   4.2922500  84.9634130  31.7274260   3.9038920
  84.1066550  49.8145330  10.7997430  85.0333860  49.5789600  10.8433390
  84.0916980  50.6417330  10.3183460  81.2930160  32.4790080  10.5639310
  81.0114430  32.9823680   9.8000130  81.6749860  31.6811830  10.1981440
  87.8945620  31.8943660  11.1419780  87.7811070  32.2138270  12.0371300
  88.7115360  32.2956170  10.8457060  90.6744110  49.0415190  10.6238470
  91.4669430  48.5464420  10.4164430  90.9677260  49.7205330  11.2314080
  86.8003770  21.1392640  75.3771970  86.7197820  20.2247250  75.1063680
  86.3868190  21.6359710  74.6711680  88.9529240  27.3231850  76.0380370
  88.4910770  26.5519090  76.3667540  89.7654790  27.3497920  76.5432820
  77.3579590  18.1893360  71.9199390  76.4696290  18.5309330  71.8179270
  77.6420780  17.9893680  71.0280220  85.1792550  29.6089860  75.6584360
  84.5603990  30.0647360  75.0878800  86.0344330  29.7641320  75.2574060
  79.5340980  16.7724860  72.9537770  79.6407730  17.6728590  73.2606530
  78.6233340  16.7242830  72.6632420  89.1860090  15.8949670  74.4248670
  90.0069710  15.4046240  74.4674150  89.2194170  16.4847330  75.1780510
  86.0455900  24.4929100  73.0516270  85.4273170  24.9578550  72.4878990
  86.5579150  25.1856580  73.4685780  75.4139100  25.1785630  70.4255900
  75.0367080  25.6672730  69.6940800  75.6712170  25.8510910  71.0562430
  83.0228030  13.5802020  75.8841410  83.3303010  13.0248910  75.1676910
  82.0928730  13.7146480  75.7014400  89.8688510  26.0185530  73.2639040
  89.7584840  25.0759860  73.3888460  89.8656760  26.3801170  74.1501800
  85.4108790  21.6450850  72.6201530  84.4838070  21.5788230  72.8490000
  85.5633610  22.5830980  72.5056770  85.3977870  17.9167850  69.6168690
  84.4581540  18.0781810  69.7021150  85.7161130  18.6353530  69.0704680
  89.4406080  23.2071150  73.1236780  88.8218500  22.8690700  72.4763080
  89.4230530  22.5630910  73.8315970  81.0165430  22.1715590  75.4021260
  80.6122430  21.4592840  74.9067160  81.1028550  21.8268830  76.2909300
  87.6170780  22.4457960  70.1309530  88.0564060  21.6080390  69.9847350
  88.3299200  23.0787360  70.2173670  85.7266160  27.3854030  74.0990770
  86.1662070  28.1278360  73.6846160  85.6653050  27.6280600  75.0229730
  77.7170060  21.0660570  72.9027910  77.5967660  21.7922660  72.2909180
  77.4070950  20.2963480  72.4255820  76.6003060  25.9375900  75.1202730
  76.1931140  26.0790490  74.2656330  77.4916070  25.6536060  74.9173940
  88.3936340  30.3723150  71.4553780  88.2337480  30.0826090  72.3535610
  88.2283050  29.5963280  70.9199010  80.8724720  30.1521680  73.2325400
  80.6967200  29.2357220  73.0193200  80.0180460  30.5108970  73.4723200
  88.0962470  27.8810710  70.0151780  87.4027630  27.8788000  69.3554060
  88.8385330  27.4570030  69.5845950  87.6612400  29.5073420  74.0900270
  88.1169350  28.7262800  74.4038890  88.0004920  30.2180240  74.6341450
  80.1833720  14.4095640  76.2851580  79.7401870  15.1905180  75.9536100
  80.7418710  14.7325530  76.9922520  83.2992540  14.0306340  71.1657410
  82.6746720  14.0266210  71.8910720  83.2122660  13.1637300  70.7693380
  79.9747940  19.5329210  74.0132830  79.7488860  19.3166380  74.9179450
  79.1940470  19.9657670  73.6678800  87.2045700  19.5392580  72.6123480
  86.6054590  20.2628380  72.4287100  87.7525310  19.4769360  71.8299930
  85.8110570  18.1756120  74.6426760  86.2040140  18.4928320  73.8295450
  86.1727420  17.2968000  74.7571280  75.0344970  18.7077040  68.0759680
  74.9519640  19.6507800  68.2174670  74.6828030  18.5651950  67.1972030
  82.8343100  17.4416070  77.1430030  82.8379160  17.0006020  76.2934570
  83.7294220  17.7633400  77.2501850  78.6845480  17.3242560  76.1024240
  78.3445530  17.8017790  76.8591290  77.9222800  16.8707680  75.7425340
  82.8963250  18.4428150  70.1336790  83.0176070  18.4014630  71.0822610
  82.5111760  19.3052300  69.9783520  81.9084750  20.7529290  69.5320090
  81.3401650  20.3047540  68.9056000  82.6173750  21.1122070  68.9985240
  75.9991560  16.2461540  75.0188910  75.7138480  15.8817210  75.8567530
  75.9370420  15.5142000  74.4052050  79.4532230  24.7487480  71.8046500
  78.6794490  24.2085100  71.6445220  80.1826860  24.2294090  71.4664260
  85.6730150  15.1390800  71.7402280  84.8594760  14.6403970  71.6647590
  85.4792100  15.9789050  71.3238630  88.3878540  19.5110450  70.0364440
  89.2758160  19.8227680  69.8615780  88.3583630  18.6382700  69.6445020
  79.4969630  24.4167860  75.4425310  80.0148300  23.6136120  75.3882200
  79.0453650  24.3547000  76.2842140  84.3839130  25.6834140  70.7152610
  84.7254830  26.4276370  70.2195930  83.5551840  25.9965260  71.0777440
  90.6592810  20.8222290  69.5044300  90.5756530  21.2536510  68.6540740
  91.3787000  21.2820640  69.9371120  87.2666540  25.0049980  76.0798120
  87.6190360  24.4078110  75.4199490  86.3828870  24.6794210  76.2506370
  83.3529820  25.7647670  73.4868530  84.0400950  26.3116880  73.8676120
  82.5662240  26.3088400  73.5218140  75.4922220  21.3820490  68.9785610
  76.3617070  21.6645290  69.2621530  75.0012540  22.1956360  68.8634420
  82.6557030  22.7693700  73.0993890  83.1119810  23.5798950  73.3254080
  82.3045240  22.4516840  73.9312380  78.5568810  13.1131350  73.5716410
  78.4283440  13.1049250  74.5201330  77.7330830  13.4514440  73.2207420
  90.0777440  26.5681010  68.7702780  89.8515020  25.8511450  69.3627420
  89.6873640  26.3193450  67.9324530  75.8593470  30.5947870  69.5447240
  76.2191110  31.1937210  68.8904510  75.7185810  31.1407760  70.3182270
  89.6593690  24.4852950  70.4316940  89.3715390  24.9465640  71.2194820
  90.4545860  24.0250720  70.7001160  81.8762090  27.9779070  70.3620910
  81.8672190  28.7108760  69.7465420  80.9560450  27.7310650  70.4547870
  77.4768730  23.1993960  71.1067670  76.8696680  23.9392860  71.1162970
  77.9518080  23.2893320  70.2805870  90.4163550  16.3201720  71.5912120
  89.7876710  16.4247390  70.8770350  89.9215470  16.5398500  72.3806000
  84.8621690  28.0407310  69.0246100  84.9633670  27.8371300  68.0948080
  83.9623430  27.7865590  69.2293880  82.3847580  18.5987670  73.0070000
  81.6763730  19.0674010  73.4483610  82.6692060  17.9409680  73.6415190
  86.4163010  15.3238330  74.4465790  86.2930790  15.3424460  73.4975300
  87.3647570  15.3717270  74.5664190  83.5039800  30.5593630  73.7193770
  83.7581300  30.5215020  72.7973140  82.5552280  30.4326960  73.7122020
  80.5882600  16.9072750  70.3820710  81.4373130  17.3442900  70.3160900
  80.2213870  17.2193010  71.2092770  89.5092380  21.4785510  75.2952280
  88.5682520  21.4935740  75.4699970  89.8236450  20.6921470  75.7412580
  79.4874020  23.1605110  68.8556240  80.2537290  23.0486470  69.4181670
  79.5648710  22.4643080  68.2033010  78.1820780  20.5930180  69.5389130
  78.2624370  19.6457690  69.6506530  79.0740530  20.9237060  69.6449790
  78.9835490  30.7425570  76.6423670  79.7197970  30.1941030  76.9132240
  79.3676410  31.6081580  76.5029660  75.8680970  26.8099140  72.5165180
  74.9420750  27.0520280  72.5070590  76.3337400  27.6373400  72.3949930
  82.0937800  29.9155880  68.4649240  82.8866410  30.2044710  68.0131030
  81.5742150  29.4848050  67.7861720  91.1467970  29.1426010  69.8885980
  90.8609480  28.7291150  69.0740160  90.9487520  30.0713720  69.7686500
  82.6115200  25.1359290  68.3291590  82.5065840  24.5211640  69.0552970
  82.4439420  24.6125180  67.5454600  85.8517930  24.1979320  68.9333580
  85.3028030  24.6448620  69.5776320  86.4737190  23.6928570  69.4571250
  81.5193050  23.1570240  70.8298880  81.9409470  22.9910110  71.6730270
  81.6443890  22.3470470  70.3354020  84.0320690  22.1807850  68.0775980
  84.5526350  21.4656870  67.7117130  84.6789090  22.8193720  68.3776490
  80.4151950  19.2303470  67.7757040  80.2141010  18.3670830  68.1370380
  80.2444000  19.1436830  66.8378640  87.8940260  14.0411700  70.3043920
  88.1742550  13.1979600  70.6603340  87.1205990  14.2734810  70.8182670
  79.2134750  16.3304090  67.7634920  79.5160650  16.3371520  66.8554070
  79.9529340  15.9801950  68.2602580  82.4319680  15.2738710  68.7491120
  82.0841680  14.5962700  68.1693570  82.6332450  14.8128220  69.5634510
  84.5968720  30.2619460  70.3677720  85.4919510  30.6004430  70.3896480
  84.6286350  29.5398870  69.7402000  78.2364880  25.6346510  68.5964720
  78.6739750  26.1776180  69.2522300  78.7212610  24.8093460  68.6061060
  75.4510680  28.4235540  76.0484980  75.7813690  27.5556600  75.8163620
  75.8801680  28.6294060  76.8789940  80.0472600  26.7544550  73.7086950
  79.7468140  26.6309520  74.6090860  79.9410090  25.8953140  73.3002680
  75.7725320  21.8026360  75.1455490  75.1174160  21.5338000  74.5015190
  76.6103270  21.6930840  74.6957470  88.7215760  16.5967650  69.3673980
  89.1400640  16.4098630  68.5270640  88.4151820  15.7446700  69.6776910
  74.9863400  19.0125290  71.0880820  74.0827480  19.2755490  70.9132480
  75.4704020  19.2836460  70.3080780  77.5290610  18.0690830  68.9975200
  78.2382310  17.6474050  68.5122480  76.8130550  18.1366060  68.3658550
  77.1764770  14.1230160  68.0377850  77.8992900  14.6639100  68.3559070
  77.4489290  13.8493580  67.1619390  90.9856420  18.9922630  72.3049430
  91.4815540  18.7593500  73.0898310  90.7872490  18.1534470  71.8887070
  90.3190760  30.2693710  74.6988350  90.9149830  29.9478280  74.0222770
  90.5768910  29.7965530  75.4901620  89.8092270  14.5599040  77.1548790
  90.2500360  14.5044140  76.3070390  89.5399860  15.4757050  77.2258970
  75.9783590  30.3306640  74.1281560  75.8105630  29.6977320  74.8263450
  75.1118100  30.5366040  73.7775750  76.6011610  14.1623420  71.6313420
  77.3590970  14.2752300  71.0577450  76.1388780  14.9992620  71.5856850
  83.1425420  16.2762690  74.6215730  82.3299930  15.9019580  74.2811610
  83.6467060  15.5207770  74.9236920  87.6450400  12.9405140  75.8598800
  88.2479770  13.5125350  76.3347320  86.9043390  13.5044580  75.6372700
  90.7885000  13.3426700  71.1339080  90.9835630  14.2410150  71.4006510
  90.0014870  13.1113780  71.6272030  77.5846290  29.0239870  71.5731700
  77.0593910  29.4047900  70.8693660  77.5090870  29.6490640  72.2941410
  78.9736760  14.6887470  70.1715390  79.5029520  13.9017270  70.0423340
  79.6065080  15.3678660  70.4050920  81.1674600  14.4262610  73.2260780
  80.5377340  13.7249920  73.3930910  80.6279740  15.1866740  73.0093940
  80.1839260  30.9722250  70.4480950  80.9158080  30.6881530  69.9004840
  80.4432930  30.7335530  71.3380330  79.3454050  27.0886980  70.4527280
  78.7162930  27.5572080  71.0013110  79.4601880  26.2436200  70.8873470
  86.8003770  21.1392640  56.6028480  86.7197820  20.2247250  56.3320190
  86.3868190  21.6359710  55.8968190  84.9321810  22.9171660  58.4837750
  84.1563910  22.4372100  58.7736320  85.5834740  22.2377310  58.3093910
  78.9487640  23.2291470  59.3613510  78.1172520  22.9740180  59.7610020
  79.5568620  23.3002240  60.0971430  88.9529240  27.3231850  57.2636880
  88.4910770  26.5519090  57.5924050  89.7654790  27.3497920  57.7689330
  78.9288900  27.2631560  59.5571530  79.2316940  26.3729300  59.3781750
  79.6732490  27.8201780  59.3293780  77.3579590  18.1893360  53.1455900
  76.4696290  18.5309330  53.0435780  77.6420780  17.9893680  52.2536730
  75.3212600  20.7899010  59.0295600  75.8928710  20.0221210  59.0299240
  75.3214140  21.0887770  58.1202210  85.1792550  29.6089860  56.8840870
  84.5603990  30.0647360  56.3135310  86.0344330  29.7641320  56.4830570
  84.3730800  25.5928850  58.4907910  84.3039080  24.6518790  58.3297040
  85.1350660  25.6830260  59.0630480  76.5637470  16.1983370  60.8164530
  76.3840310  15.3009120  61.0967290  76.1617550  16.7455240  61.4911480
  85.4035970  18.3999230  58.7176840  85.7800790  17.5271110  58.6050510
  85.3055480  18.7357930  57.8267280  79.5340980  16.7724860  54.1794280
  79.6407730  17.6728590  54.4863040  78.6233340  16.7242830  53.8888930
  89.1860090  15.8949670  55.6505180  90.0069710  15.4046240  55.6930660
  89.2194170  16.4847330  56.4037020  77.1824140  18.6943870  59.4246870
  77.8634250  18.9582240  60.0434270  76.8672190  17.8544740  59.7584880
  81.3748710  19.7411230  58.5119460  81.8826930  20.2392200  59.1524480
  81.9061950  18.9646430  58.3358820  79.6584810  14.3809790  62.7782880
  79.6603250  14.8982180  61.9728780  78.8289120  13.9039970  62.7552810
  86.0455900  24.4929100  54.2772780  85.4273170  24.9578550  53.7135500
  86.5579150  25.1856580  54.6942290  80.9087660  24.0204970  60.9556380
  80.5757040  24.6473890  61.5977450  81.0854340  24.5466850  60.1758050
  89.4221570  17.8350050  58.4232720  88.7177140  18.1234940  59.0035830
  89.7833730  18.6450160  58.0632280  79.3400140  16.0919750  60.7853330
  79.6816950  16.9361800  60.4907200  78.4015950  16.2403490  60.9018670
  80.1206760  25.9885770  62.7705560  80.7380760  26.6636850  62.4890010
  79.2599880  26.3973750  62.6793060  75.4139100  25.1785630  51.6512410
  75.0367080  25.6672730  50.9197310  75.6712170  25.8510910  52.2818940
  83.0228030  13.5802020  57.1097920  83.3303010  13.0248910  56.3933420
  82.0928730  13.7146480  56.9270910  88.5743090  29.2969310  59.4005380
  88.5870250  28.8931600  58.5327640  88.0218310  30.0716600  59.2966810
  89.8688510  26.0185530  54.4895550  89.7584840  25.0759860  54.6144970
  89.8656760  26.3801170  55.3758310  87.9728530  24.1999150  60.7287990
  88.3897320  23.9859260  59.8941450  88.6968350  24.4571940  61.2996610
  85.4108790  21.6450850  53.8458040  84.4838070  21.5788230  54.0746510
  85.5633610  22.5830980  53.7313280  85.3977870  17.9167850  50.8425200
  84.4581540  18.0781810  50.9277660  85.7161130  18.6353530  50.2961190
  89.4406080  23.2071150  54.3493290  88.8218500  22.8690700  53.7019590
  89.4230530  22.5630910  55.0572480  88.8832640  19.3855690  61.7659100
  88.4703820  20.2109400  62.0199090  88.1508590  18.8000730  61.5735460
  81.0165430  22.1715590  56.6277770  80.6122430  21.4592840  56.1323670
  81.1028550  21.8268830  57.5165810  81.4847130  25.8583150  58.7916980
  81.1875420  25.2528620  58.1124760  82.4346950  25.8960460  58.6806340
  79.7294050  18.9458800  60.4076810  80.2808640  19.0554140  59.6330060
  80.2437560  19.3196400  61.1232040  89.5732740  29.4315020  62.4540080
  89.0963300  30.2387210  62.2612690  88.8894530  28.7793350  62.6066290
  80.5765560  25.5964840  65.4424780  79.6794090  25.8204810  65.6898180
  80.6018430  25.7199780  64.4936180  87.6170780  22.4457960  51.3566040
  88.0564060  21.6080390  51.2103860  88.3299200  23.0787360  51.4430180
  79.4036780  22.4678160  64.0182150  79.2644550  23.3400960  64.3869550
  78.5218140  22.1250970  63.8730090  85.7266160  27.3854030  55.3247280
  86.1662070  28.1278360  54.9102670  85.6653050  27.6280600  56.2486240
  81.2017130  28.4099860  66.2267300  81.1732560  28.8142810  65.3595730
  81.0382100  27.4810220  66.0638900  77.7170060  21.0660570  54.1284420
  77.5967660  21.7922660  53.5165690  77.4070950  20.2963480  53.6512330
  75.3555430  24.2375710  59.9353060  75.4335850  24.3724480  58.9908780
  75.9697110  23.5291600  60.1281180  76.6003060  25.9375900  56.3459240
  76.1931140  26.0790490  55.4912840  77.4916070  25.6536060  56.1430450
  86.4181940  30.0867810  63.2526290  86.9326610  29.9975820  64.0548720
  85.5751020  30.4327510  63.5454200  88.3936340  30.3723150  52.6810290
  88.2337480  30.0826090  53.5792120  88.2283050  29.5963280  52.1455520
  80.8724720  30.1521680  54.4581910  80.6967200  29.2357220  54.2449710
  80.0180460  30.5108970  54.6979710  88.0962470  27.8810710  51.2408290
  87.4027630  27.8788000  50.5810570  88.8385330  27.4570030  50.8102460
  87.6612400  29.5073420  55.3156780  88.1169350  28.7262800  55.6295400
  88.0004920  30.2180240  55.8597960  75.4114950  25.2789880  62.4747520
  75.5745990  24.8095240  61.6566890  75.8767400  24.7713440  63.1396360
  80.1833720  14.4095640  57.5108090  79.7401870  15.1905180  57.1792610
  80.7418710  14.7325530  58.2179030  84.4703530  17.2764160  63.1143410
  84.0082900  17.4847180  63.9263350  84.0681640  16.4623510  62.8114080
  89.4708040  18.4973110  64.2440070  88.6201630  18.1978860  64.5649140
  89.3109830  18.7415120  63.3323890  86.5657750  19.9974860  66.3438860
  86.8911160  19.1638610  66.0041090  87.3538080  20.5203380  66.4917190
  83.2992540  14.0306340  52.3913920  82.6746720  14.0266210  53.1167230
  83.2122660  13.1637300  51.9949890  82.2209620  14.9542970  59.3697690
  82.5181950  15.8605800  59.2889710  82.7695180  14.4661750  58.7557260
  79.9747940  19.5329210  55.2389340  79.7488860  19.3166380  56.1435960
  79.1940470  19.9657670  54.8935310  87.2045700  19.5392580  53.8379990
  86.6054590  20.2628380  53.6543610  87.7525310  19.4769360  53.0556440
  82.4147150  20.4314790  65.9049610  82.3190750  19.4909520  65.7550010
  83.2579130  20.6529860  65.5097680  85.8110570  18.1756120  55.8683270
  86.2040140  18.4928320  55.0551960  86.1727420  17.2968000  55.9827790
  77.5457690  16.8428460  64.0583390  77.1521080  17.6903670  64.2656170
  76.8576090  16.2054830  64.2492030  84.1202740  16.9263430  67.1280130
  83.4301060  16.7335630  67.7626220  84.8635040  17.2098070  67.6604430
  74.8474740  14.7656920  58.0913470  74.5587790  15.3359780  58.8038450
  75.5920500  14.2861370  58.4544700  75.0344970  18.7077040  49.3016190
  74.9519640  19.6507800  49.4431180  74.6828030  18.5651950  48.4228540
  86.3965710  20.7661870  59.9634050  85.6646830  21.2748680  60.3124150
  85.9990050  19.9491850  59.6622830  82.8343100  17.4416070  58.3686540
  82.8379160  17.0006020  57.5191080  83.7294220  17.7633400  58.4758360
  78.6845480  17.3242560  57.3280750  78.3445530  17.8017790  58.0847800
  77.9222800  16.8707680  56.9681850  82.8963250  18.4428150  51.3593300
  83.0176070  18.4014630  52.3079120  82.5111760  19.3052300  51.2040030
  86.8591620  16.2195550  59.3756990  86.8764360  16.6704200  60.2198840
  86.6107200  15.3201190  59.5890430  81.9084750  20.7529290  50.7576600
  81.3401650  20.3047540  50.1312510  82.6173750  21.1122070  50.2241750
  90.2862370  13.6327730  65.2143370  90.6108140  12.9017390  65.7401350
  90.3218880  13.3141370  64.3124360  76.9853930  24.6541310  64.6343330
  76.6008720  24.0134980  65.2326290  77.2966120  25.3577430  65.2038060
  83.1351070  21.5017850  60.1151950  83.5021200  21.0276420  60.8613290
  82.9456130  22.3759420  60.4560290  75.9991560  16.2461540  56.2445420
  75.7138480  15.8817210  57.0824040  75.9370420  15.5142000  55.6308560
  80.9250440  20.5426490  62.4336160  80.6207510  21.4218470  62.6586520
  81.8796900  20.6026280  62.4693600  79.4532230  24.7487480  53.0303010
  78.6794490  24.2085100  52.8701730  80.1826860  24.2294090  52.6920770
  90.2120210  23.7452840  58.8229400  90.9319330  24.2408130  58.4325510
  90.0102030  23.0670730  58.1783270  85.6730150  15.1390800  52.9658790
  84.8594760  14.6403970  52.8904100  85.4792100  15.9789050  52.5495140
  85.5939010  23.8161900  64.7098400  85.5276320  22.8957570  64.4555990
  84.9644150  23.9137340  65.4243040  88.3878540  19.5110450  51.2620950
  89.2758160  19.8227680  51.0872290  88.3583630  18.6382700  50.8701530
  79.4969630  24.4167860  56.6681820  80.0148300  23.6136120  56.6138710
  79.0453650  24.3547000  57.5098650  84.3839130  25.6834140  51.9409120
  84.7254830  26.4276370  51.4452440  83.5551840  25.9965260  52.3033950
  76.9814170  21.3829230  63.5807520  76.6229110  22.0483080  64.1680860
  76.6868730  20.5512780  63.9520140  80.1827290  21.8413470  66.4647070
  79.8827430  21.9870650  65.5674890  80.9538530  21.2818760  66.3720460
  85.5255740  26.6382470  64.4602200  85.5400280  25.7063430  64.2421110
  84.8180840  26.7242230  65.0991970  90.6592810  20.8222290  50.7300810
  90.5756530  21.2536510  49.8797250  91.3787000  21.2820640  51.1627630
  87.2666540  25.0049980  57.3054630  87.6190360  24.4078110  56.6456000
  86.3828870  24.6794210  57.4762880  83.3529820  25.7647670  54.7125040
  84.0400950  26.3116880  55.0932630  82.5662240  26.3088400  54.7474650
  75.4922220  21.3820490  50.2042120  76.3617070  21.6645290  50.4878040
  75.0012540  22.1956360  50.0890930  82.6557030  22.7693700  54.3250400
  83.1119810  23.5798950  54.5510590  82.3045240  22.4516840  55.1568890
  84.9589640  28.2800040  61.5542700  85.6031860  28.4859420  62.2316120
  85.3219080  27.5188440  61.1013550  78.5568810  13.1131350  54.7972920
  78.4283440  13.1049250  55.7457840  77.7330830  13.4514440  54.4463930
  86.2321720  26.2832390  60.2720150  86.8743950  25.5825550  60.3852320
  86.7571070  27.0630830  60.0917040  90.0777440  26.5681010  49.9959290
  89.8515020  25.8511450  50.5883930  89.6873640  26.3193450  49.1581040
  88.0059340  27.0827290  63.4756210  88.3415580  27.6693980  64.1534130
  87.0859680  26.9520000  63.7054000  75.8593470  30.5947870  50.7703750
  76.2191110  31.1937210  50.1161020  75.7185810  31.1407760  51.5438780
  75.5562740  14.8722470  64.2579620  74.8421260  15.0719390  64.8632230
  75.9757780  14.0962040  64.6294420  89.6593690  24.4852950  51.6573450
  89.3715390  24.9465640  52.4451330  90.4545860  24.0250720  51.9257670
  75.8435330  28.8602730  65.2446150  75.9526450  27.9197470  65.1041540
  75.1915890  29.1257480  64.5959880  83.8347920  27.1318620  66.6444270
  83.5144790  26.4127860  67.1889960  83.1606280  27.8073690  66.7180330
  81.8762090  27.9779070  51.5877420  81.8672190  28.7108760  50.9721930
  80.9560450  27.7310650  51.6804380  77.4768730  23.1993960  52.3324180
  76.8696680  23.9392860  52.3419480  77.9518080  23.2893320  51.5062380
  87.0501520  17.3644780  62.0081070  87.4182340  16.5439990  62.3360640
  86.1899720  17.4246670  62.4236720  90.4163550  16.3201720  52.8168630
  89.7876710  16.4247390  52.1026860  89.9215470  16.5398500  53.6062510
  84.8621690  28.0407310  50.2502610  84.9633670  27.8371300  49.3204590
  83.9623430  27.7865590  50.4550390  82.3847580  18.5987670  54.2326510
  81.6763730  19.0674010  54.6740120  82.6692060  17.9409680  54.8671700
  84.0103510  20.0184370  62.2319040  84.5088760  20.4930190  62.8970890
  84.1526460  19.0947890  62.4389070  86.4163010  15.3238330  55.6722300
  86.2930790  15.3424460  54.7231810  87.3647570  15.3717270  55.7920700
  83.5039800  30.5593630  54.9450280  83.7581300  30.5215020  54.0229650
  82.5552280  30.4326960  54.9378530  80.5882600  16.9072750  51.6077220
  81.4373130  17.3442900  51.5417410  80.2213870  17.2193010  52.4349280
  89.5092380  21.4785510  56.5208790  88.5682520  21.4935740  56.6956480
  89.8236450  20.6921470  56.9669090  79.4874020  23.1605110  50.0812750
  80.2537290  23.0486470  50.6438180  79.5648710  22.4643080  49.4289520
  78.1820780  20.5930180  50.7645640  78.2624370  19.6457690  50.8763040
  79.0740530  20.9237060  50.8706300  78.9835490  30.7425570  57.8680180
  79.7197970  30.1941030  58.1388750  79.3676410  31.6081580  57.7286170
  75.8680970  26.8099140  53.7421690  74.9420750  27.0520280  53.7327100
  76.3337400  27.6373400  53.6206440  77.9893770  29.9271640  67.0565760
  78.7906500  30.2483690  67.4701160  77.4745590  29.5667220  67.7785670
  82.0937800  29.9155880  49.6905750  82.8866410  30.2044710  49.2387540
  81.5742150  29.4848050  49.0118230  86.8258400  26.0351510  67.0041170
  86.2196560  26.0583110  66.2636920  86.5212510  25.3034550  67.5408420
  88.2558770  29.7631800  65.6150580  89.2080520  29.6789820  65.5650820
  88.1086990  30.4273510  66.2884370  91.1467970  29.1426010  51.1142490
  90.8609480  28.7291150  50.2996670  90.9487520  30.0713720  50.9943010
  75.7091580  22.4145100  66.0001810  76.2130600  21.8352380  66.5718040
  74.9699000  22.6985330  66.5378180  82.6115200  25.1359290  49.5548100
  82.5065840  24.5211640  50.2809480  82.4439420  24.6125180  48.7711110
  82.7629520  23.8216090  65.5337330  81.9975190  24.3901090  65.4492000
  82.9445480  23.5292300  64.6405560  85.8517930  24.1979320  50.1590090
  85.3028030  24.6448620  50.8032830  86.4737190  23.6928570  50.6827760
  89.9052870  25.5521420  66.0912350  90.6462340  25.8897180  65.5879810
  89.1425550  25.7213480  65.5382120  77.7414660  20.5574690  66.8951880
  77.7820000  20.2588560  67.8037110  78.5960160  20.9582300  66.7359400
  81.5193050  23.1570240  52.0555390  81.9409470  22.9910110  52.8986780
  81.6443890  22.3470470  51.5610530  79.6820470  19.1366790  64.8626370
  79.1516930  18.6457740  64.2349710  80.3508540  19.5650990  64.3284300
  84.0320690  22.1807850  49.3032490  84.5526350  21.4656870  48.9373640
  84.6789090  22.8193720  49.6033000  88.5798530  23.6036250  64.6267560
  88.9939550  23.7581330  65.4757980  87.6449530  23.7291470  64.7893340
  89.0520700  20.9432410  66.6306710  89.6341470  20.1884730  66.5427190
  89.2282470  21.4739850  65.8538190  80.1692770  16.1029160  64.9423660
  80.0749640  15.4849910  64.2174530  79.5890160  16.8295450  64.7153570
  82.9354210  14.6602400  61.9751050  82.4871510  14.6826660  61.1296600
  82.3019410  14.2621420  62.5721350  83.3413760  23.5556730  62.5963490
  83.7601870  24.3989460  62.4239730  82.4222390  23.6928770  62.3670270
  85.6777660  21.2872910  63.9801330  85.7973870  20.6914050  64.7196170
  86.5371660  21.3242600  63.5602630  88.0165560  21.8410100  62.5563840
  87.4900780  22.3652720  61.9528980  88.3596900  22.4737490  63.1873570
  80.4151950  19.2303470  49.0013550  80.2141010  18.3670830  49.3626890
  80.2444000  19.1436830  48.0635150  81.1921180  29.8609740  63.7121220
  80.6542270  30.5855800  63.3929920  81.4455140  29.3840080  62.9218560
  82.4446430  17.8294260  65.2377150  83.0346120  17.5210110  65.9254970
  81.6266670  17.3574010  65.3937050  87.2639860  17.4460070  65.4710170
  86.5755380  16.7841610  65.4060160  87.9845880  16.9998340  65.9158630
  87.8940260  14.0411700  51.5300430  88.1742550  13.1979600  51.8859850
  87.1205990  14.2734810  52.0439180  79.2134750  16.3304090  48.9891430
  79.5160650  16.3371520  48.0810580  79.9529340  15.9801950  49.4859090
  84.0483390  31.0960950  63.9707870  83.9742090  31.9996090  64.2780240
  83.1462230  30.7772850  63.9429940  82.4319680  15.2738710  49.9747630
  82.0841680  14.5962700  49.3950080  82.6332450  14.8128220  50.7891020
  84.5968720  30.2619460  51.5934230  85.4919510  30.6004430  51.6152990
  84.6286350  29.5398870  50.9658510  78.2364880  25.6346510  49.8221230
  78.6739750  26.1776180  50.4778810  78.7212610  24.8093460  49.8317570
  75.4510680  28.4235540  57.2741490  75.7813690  27.5556600  57.0420130
  75.8801680  28.6294060  58.1046450  80.0472600  26.7544550  54.9343460
  79.7468140  26.6309520  55.8347370  79.9410090  25.8953140  54.5259190
  75.9400890  29.2906130  60.0123120  75.5031880  29.4706930  60.8447270
  76.5078570  30.0480750  59.8704840  75.7725320  21.8026360  56.3712000
  75.1174160  21.5338000  55.7271700  76.6103270  21.6930840  55.9213980
  90.2614710  25.5175110  62.3976590  89.4474550  25.9472270  62.6602380
  90.6688910  26.1293520  61.7845640  88.7215760  16.5967650  50.5930490
  89.1400640  16.4098630  49.7527150  88.4151820  15.7446700  50.9033420
  76.8101250  22.1878930  60.9115340  77.1774290  22.1006330  61.7911360
  76.2412070  21.4245480  60.8122200  76.3617250  19.0988020  64.8173760
  75.4673300  19.0654780  65.1567470  76.9014800  19.2974810  65.5825010
  90.0493180  15.8819740  66.7025510  90.9263360  15.8903140  67.0859510
  90.0614020  15.1450580  66.0917860  74.9863400  19.0125290  52.3137330
  74.0827480  19.2755490  52.1388990  75.4704020  19.2836460  51.5337290
  77.5290610  18.0690830  50.2231710  78.2382310  17.6474050  49.7378990
  76.8130550  18.1366060  49.5915060  77.1764770  14.1230160  49.2634360
  77.8992900  14.6639100  49.5815580  77.4489290  13.8493580  48.3875900
  90.9856420  18.9922630  53.5305940  91.4815540  18.7593500  54.3154820
  90.7872490  18.1534470  53.1143580  76.8656960  13.3736350  59.1656980
  77.5133150  12.8233730  58.7252140  77.2858800  13.6279500  59.9872790
  90.7609300  13.5677710  62.5226620  91.3981520  14.1811850  62.8885810
  90.9084190  13.6038370  61.5775850  90.3190760  30.2693710  55.9244860
  90.9149830  29.9478280  55.2479280  90.5768910  29.7965530  56.7158130
  76.6188960  13.5292020  61.9082300  76.2703780  13.9855840  62.6740480
  76.2876660  12.6349150  61.9904730  78.2253330  26.7011620  66.0735490
  78.1822960  26.3304530  66.9549950  78.3564340  27.6389190  66.2137310
  81.9259360  28.2571210  61.6745210  81.6850720  28.5245770  60.7875730
  82.8662000  28.4276940  61.7296070  84.1313780  14.7203900  65.4301720
  84.0702670  15.3125730  66.1797130  85.0714160  14.6129860  65.2851980
  86.7688340  14.3773960  65.0694010  87.3828750  14.6953250  64.4075090
  87.3137900  13.8922550  65.6889870  77.2909600  13.0568220  65.1833070
  77.8392590  12.8756270  64.4199180  77.3564910  12.2662330  65.7189380
  78.0641360  29.6473870  63.1933270  77.4701680  29.5158570  63.9323310
  78.0565200  28.8112010  62.7275370  87.5096380  12.9406100  61.3963300
  86.6356220  13.2741210  61.1936230  87.4007130  12.4679280  62.2215170
  88.4168360  15.1476970  62.7805020  88.0881720  14.3328730  62.4006750
  89.3650660  15.1046780  62.6570710  90.8702970  30.9189010  59.7542590
  90.4105940  31.6704820  59.3800610  90.2415430  30.1995480  59.6957390
  77.6953590  27.0132250  62.1441310  76.9687650  26.3937540  62.0767260
  77.7562740  27.4072860  61.2739390  81.2998690  29.2277250  58.9290720
  81.8163710  28.6164610  58.4038980  81.9496070  29.7306030  59.4201730
  84.0394190  30.1185740  59.7559700  84.3272000  29.8640040  58.8792710
  84.5517410  29.5663100  60.3465270  85.2571200  13.8575940  60.3356210
  84.4742990  14.3321440  60.6152970  84.9634130  12.9530770  60.2269390
  89.8092270  14.5599040  58.3805300  90.2500360  14.5044140  57.5326900
  89.5399860  15.4757050  58.4515480  75.9783590  30.3306640  55.3538070
  75.8105630  29.6977320  56.0519960  75.1118100  30.5366040  55.0032260
  76.6011610  14.1623420  52.8569930  77.3590970  14.2752300  52.2833960
  76.1388780  14.9992620  52.8113360  83.1425420  16.2762690  55.8472240
  82.3299930  15.9019580  55.5068120  83.6467060  15.5207770  56.1493430
  87.6450400  12.9405140  57.0855310  88.2479770  13.5125350  57.5603830
  86.9043390  13.5044580  56.8629210  90.7885000  13.3426700  52.3595590
  90.9835630  14.2410150  52.6263020  90.0014870  13.1113780  52.8528540
  77.5846290  29.0239870  52.7988210  77.0593910  29.4047900  52.0950170
  77.5090870  29.6490640  53.5197920  78.9736760  14.6887470  51.3971900
  79.5029520  13.9017270  51.2679850  79.6065080  15.3678660  51.6307430
  81.1674600  14.4262610  54.4517290  80.5377340  13.7249920  54.6187420
  80.6279740  15.1866740  54.2350450  84.1066550  31.0401840  67.1227900
  85.0333860  30.8046110  67.1663860  84.0916980  31.8673840  66.6413930
  81.2930160  13.7046590  66.8869780  81.0114430  14.2080190  66.1230600
  81.6749860  12.9068340  66.5211910  80.1839260  30.9722250  51.6737460
  80.9158080  30.6881530  51.1261350  80.4432930  30.7335530  52.5636840
  79.3454050  27.0886980  51.6783790  78.7162930  27.5572080  52.2269620
  79.4601880  26.2436200  52.1129980  87.8945620  13.1200170  67.4650250
  87.7811070  13.4394780  68.3601770  88.7115360  13.5212680  67.1687530
  90.6744110  30.2671700  66.9468940  91.4669430  29.7720930  66.7394900
  90.9677260  30.9461840  67.5544550  86.8003770  21.1392640  37.8284990
  86.7197820  20.2247250  37.5576700  86.3868190  21.6359710  37.1224700
  84.9321810  22.9171660  39.7094260  84.1563910  22.4372100  39.9992830
  85.5834740  22.2377310  39.5350420  78.9487640  23.2291470  40.5870020
  78.1172520  22.9740180  40.9866530  79.5568620  23.3002240  41.3227940
  88.9529240  27.3231850  38.4893390  88.4910770  26.5519090  38.8180560
  89.7654790  27.3497920  38.9945840  78.9288900  27.2631560  40.7828040
  79.2316940  26.3729300  40.6038260  79.6732490  27.8201780  40.5550290
  77.3579590  18.1893360  34.3712410  76.4696290  18.5309330  34.2692290
  77.6420780  17.9893680  33.4793240  75.3212600  20.7899010  40.2552110
  75.8928710  20.0221210  40.2555750  75.3214140  21.0887770  39.3458720
  85.1792550  29.6089860  38.1097380  84.5603990  30.0647360  37.5391820
  86.0344330  29.7641320  37.7087080  84.3730800  25.5928850  39.7164420
  84.3039080  24.6518790  39.5553550  85.1350660  25.6830260  40.2886990
  76.5637470  16.1983370  42.0421040  76.3840310  15.3009120  42.3223800
  76.1617550  16.7455240  42.7167990  85.4035970  18.3999230  39.9433350
  85.7800790  17.5271110  39.8307020  85.3055480  18.7357930  39.0523790
  79.5340980  16.7724860  35.4050790  79.6407730  17.6728590  35.7119550
  78.6233340  16.7242830  35.1145440  89.1860090  15.8949670  36.8761690
  90.0069710  15.4046240  36.9187170  89.2194170  16.4847330  37.6293530
  77.1824140  18.6943870  40.6503380  77.8634250  18.9582240  41.2690780
  76.8672190  17.8544740  40.9841390  81.3748710  19.7411230  39.7375970
  81.8826930  20.2392200  40.3780990  81.9061950  18.9646430  39.5615330
  79.6584810  14.3809790  44.0039390  79.6603250  14.8982180  43.1985290
  78.8289120  13.9039970  43.9809320  86.0455900  24.4929100  35.5029290
  85.4273170  24.9578550  34.9392010  86.5579150  25.1856580  35.9198800
  80.9087660  24.0204970  42.1812890  80.5757040  24.6473890  42.8233960
  81.0854340  24.5466850  41.4014560  89.4221570  17.8350050  39.6489230
  88.7177140  18.1234940  40.2292340  89.7833730  18.6450160  39.2888790
  79.3400140  16.0919750  42.0109840  79.6816950  16.9361800  41.7163710
  78.4015950  16.2403490  42.1275180  80.1206760  25.9885770  43.9962070
  80.7380760  26.6636850  43.7146520  79.2599880  26.3973750  43.9049570
  75.4139100  25.1785630  32.8768920  75.0367080  25.6672730  32.1453820
  75.6712170  25.8510910  33.5075450  83.0228030  13.5802020  38.3354430
  83.3303010  13.0248910  37.6189930  82.0928730  13.7146480  38.1527420
  88.5743090  29.2969310  40.6261890  88.5870250  28.8931600  39.7584150
  88.0218310  30.0716600  40.5223320  89.8688510  26.0185530  35.7152060
  89.7584840  25.0759860  35.8401480  89.8656760  26.3801170  36.6014820
  87.9728530  24.1999150  41.9544500  88.3897320  23.9859260  41.1197960
  88.6968350  24.4571940  42.5253120  85.4108790  21.6450850  35.0714550
  84.4838070  21.5788230  35.3003020  85.5633610  22.5830980  34.9569790
  85.3977870  17.9167850  32.0681710  84.4581540  18.0781810  32.1534170
  85.7161130  18.6353530  31.5217700  89.4406080  23.2071150  35.5749800
  88.8218500  22.8690700  34.9276100  89.4230530  22.5630910  36.2828990
  88.8832640  19.3855690  42.9915610  88.4703820  20.2109400  43.2455600
  88.1508590  18.8000730  42.7991970  81.0165430  22.1715590  37.8534280
  80.6122430  21.4592840  37.3580180  81.1028550  21.8268830  38.7422320
  81.4847130  25.8583150  40.0173490  81.1875420  25.2528620  39.3381270
  82.4346950  25.8960460  39.9062850  79.7294050  18.9458800  41.6333320
  80.2808640  19.0554140  40.8586570  80.2437560  19.3196400  42.3488550
  89.5732740  29.4315020  43.6796590  89.0963300  30.2387210  43.4869200
  88.8894530  28.7793350  43.8322800  80.5765560  25.5964840  46.6681290
  79.6794090  25.8204810  46.9154690  80.6018430  25.7199780  45.7192690
  87.6170780  22.4457960  32.5822550  88.0564060  21.6080390  32.4360370
  88.3299200  23.0787360  32.6686690  79.4036780  22.4678160  45.2438660
  79.2644550  23.3400960  45.6126060  78.5218140  22.1250970  45.0986600
  85.7266160  27.3854030  36.5503790  86.1662070  28.1278360  36.1359180
  85.6653050  27.6280600  37.4742750  81.2017130  28.4099860  47.4523810
  81.1732560  28.8142810  46.5852240  81.0382100  27.4810220  47.2895410
  77.7170060  21.0660570  35.3540930  77.5967660  21.7922660  34.7422200
  77.4070950  20.2963480  34.8768840  75.3555430  24.2375710  41.1609570
  75.4335850  24.3724480  40.2165290  75.9697110  23.5291600  41.3537690
  76.6003060  25.9375900  37.5715750  76.1931140  26.0790490  36.7169350
  77.4916070  25.6536060  37.3686960  86.4181940  30.0867810  44.4782800
  86.9326610  29.9975820  45.2805230  85.5751020  30.4327510  44.7710710
  88.3936340  30.3723150  33.9066800  88.2337480  30.0826090  34.8048630
  88.2283050  29.5963280  33.3712030  80.8724720  30.1521680  35.6838420
  80.6967200  29.2357220  35.4706220  80.0180460  30.5108970  35.9236220
  88.0962470  27.8810710  32.4664800  87.4027630  27.8788000  31.8067080
  88.8385330  27.4570030  32.0358970  87.6612400  29.5073420  36.5413290
  88.1169350  28.7262800  36.8551910  88.0004920  30.2180240  37.0854470
  75.4114950  25.2789880  43.7004030  75.5745990  24.8095240  42.8823400
  75.8767400  24.7713440  44.3652870  80.1833720  14.4095640  38.7364600
  79.7401870  15.1905180  38.4049120  80.7418710  14.7325530  39.4435540
  84.4703530  17.2764160  44.3399920  84.0082900  17.4847180  45.1519860
  84.0681640  16.4623510  44.0370590  89.4708040  18.4973110  45.4696580
  88.6201630  18.1978860  45.7905650  89.3109830  18.7415120  44.5580400
  86.5657750  19.9974860  47.5695370  86.8911160  19.1638610  47.2297600
  87.3538080  20.5203380  47.7173700  83.2992540  14.0306340  33.6170430
  82.6746720  14.0266210  34.3423740  83.2122660  13.1637300  33.2206400
  82.2209620  14.9542970  40.5954200  82.5181950  15.8605800  40.5146220
  82.7695180  14.4661750  39.9813770  79.9747940  19.5329210  36.4645850
  79.7488860  19.3166380  37.3692470  79.1940470  19.9657670  36.1191820
  87.2045700  19.5392580  35.0636500  86.6054590  20.2628380  34.8800120
  87.7525310  19.4769360  34.2812950  82.4147150  20.4314790  47.1306120
  82.3190750  19.4909520  46.9806520  83.2579130  20.6529860  46.7354190
  85.8110570  18.1756120  37.0939780  86.2040140  18.4928320  36.2808470
  86.1727420  17.2968000  37.2084300  77.5457690  16.8428460  45.2839900
  77.1521080  17.6903670  45.4912680  76.8576090  16.2054830  45.4748540
  84.1202740  16.9263430  48.3536640  83.4301060  16.7335630  48.9882730
  84.8635040  17.2098070  48.8860940  74.8474740  14.7656920  39.3169980
  74.5587790  15.3359780  40.0294960  75.5920500  14.2861370  39.6801210
  75.0344970  18.7077040  30.5272700  74.9519640  19.6507800  30.6687690
  74.6828030  18.5651950  29.6485050  86.3965710  20.7661870  41.1890560
  85.6646830  21.2748680  41.5380660  85.9990050  19.9491850  40.8879340
  82.8343100  17.4416070  39.5943050  82.8379160  17.0006020  38.7447590
  83.7294220  17.7633400  39.7014870  78.6845480  17.3242560  38.5537260
  78.3445530  17.8017790  39.3104310  77.9222800  16.8707680  38.1938360
  82.8963250  18.4428150  32.5849810  83.0176070  18.4014630  33.5335630
  82.5111760  19.3052300  32.4296540  86.8591620  16.2195550  40.6013500
  86.8764360  16.6704200  41.4455350  86.6107200  15.3201190  40.8146940
  81.9084750  20.7529290  31.9833110  81.3401650  20.3047540  31.3569020
  82.6173750  21.1122070  31.4498260  90.2862370  13.6327730  46.4399880
  90.6108140  12.9017390  46.9657860  90.3218880  13.3141370  45.5380870
  76.9853930  24.6541310  45.8599840  76.6008720  24.0134980  46.4582800
  77.2966120  25.3577430  46.4294570  83.1351070  21.5017850  41.3408460
  83.5021200  21.0276420  42.0869800  82.9456130  22.3759420  41.6816800
  75.9991560  16.2461540  37.4701930  75.7138480  15.8817210  38.3080550
  75.9370420  15.5142000  36.8565070  80.9250440  20.5426490  43.6592670
  80.6207510  21.4218470  43.8843030  81.8796900  20.6026280  43.6950110
  79.4532230  24.7487480  34.2559520  78.6794490  24.2085100  34.0958240
  80.1826860  24.2294090  33.9177280  90.2120210  23.7452840  40.0485910
  90.9319330  24.2408130  39.6582020  90.0102030  23.0670730  39.4039780
  85.6730150  15.1390800  34.1915300  84.8594760  14.6403970  34.1160610
  85.4792100  15.9789050  33.7751650  85.5939010  23.8161900  45.9354910
  85.5276320  22.8957570  45.6812500  84.9644150  23.9137340  46.6499550
  88.3878540  19.5110450  32.4877460  89.2758160  19.8227680  32.3128800
  88.3583630  18.6382700  32.0958040  79.4969630  24.4167860  37.8938330
  80.0148300  23.6136120  37.8395220  79.0453650  24.3547000  38.7355160
  84.3839130  25.6834140  33.1665630  84.7254830  26.4276370  32.6708950
  83.5551840  25.9965260  33.5290460  76.9814170  21.3829230  44.8064030
  76.6229110  22.0483080  45.3937370  76.6868730  20.5512780  45.1776650
  80.1827290  21.8413470  47.6903580  79.8827430  21.9870650  46.7931400
  80.9538530  21.2818760  47.5976970  85.5255740  26.6382470  45.6858710
  85.5400280  25.7063430  45.4677620  84.8180840  26.7242230  46.3248480
  90.6592810  20.8222290  31.9557320  90.5756530  21.2536510  31.1053760
  91.3787000  21.2820640  32.3884140  87.2666540  25.0049980  38.5311140
  87.6190360  24.4078110  37.8712510  86.3828870  24.6794210  38.7019390
  83.3529820  25.7647670  35.9381550  84.0400950  26.3116880  36.3189140
  82.5662240  26.3088400  35.9731160  75.4922220  21.3820490  31.4298630
  76.3617070  21.6645290  31.7134550  75.0012540  22.1956360  31.3147440
  82.6557030  22.7693700  35.5506910  83.1119810  23.5798950  35.7767100
  82.3045240  22.4516840  36.3825400  84.9589640  28.2800040  42.7799210
  85.6031860  28.4859420  43.4572630  85.3219080  27.5188440  42.3270060
  78.5568810  13.1131350  36.0229430  78.4283440  13.1049250  36.9714350
  77.7330830  13.4514440  35.6720440  86.2321720  26.2832390  41.4976660
  86.8743950  25.5825550  41.6108830  86.7571070  27.0630830  41.3173550
  90.0777440  26.5681010  31.2215800  89.8515020  25.8511450  31.8140440
  89.6873640  26.3193450  30.3837550  88.0059340  27.0827290  44.7012720
  88.3415580  27.6693980  45.3790640  87.0859680  26.9520000  44.9310510
  75.8593470  30.5947870  31.9960260  76.2191110  31.1937210  31.3417530
  75.7185810  31.1407760  32.7695290  75.5562740  14.8722470  45.4836130
  74.8421260  15.0719390  46.0888740  75.9757780  14.0962040  45.8550930
  89.6593690  24.4852950  32.8829960  89.3715390  24.9465640  33.6707840
  90.4545860  24.0250720  33.1514180  75.8435330  28.8602730  46.4702660
  75.9526450  27.9197470  46.3298050  75.1915890  29.1257480  45.8216390
  83.8347920  27.1318620  47.8700780  83.5144790  26.4127860  48.4146470
  83.1606280  27.8073690  47.9436840  81.8762090  27.9779070  32.8133930
  81.8672190  28.7108760  32.1978440  80.9560450  27.7310650  32.9060890
  77.4768730  23.1993960  33.5580690  76.8696680  23.9392860  33.5675990
  77.9518080  23.2893320  32.7318890  87.0501520  17.3644780  43.2337580
  87.4182340  16.5439990  43.5617150  86.1899720  17.4246670  43.6493230
  90.4163550  16.3201720  34.0425140  89.7876710  16.4247390  33.3283370
  89.9215470  16.5398500  34.8319020  84.8621690  28.0407310  31.4759120
  84.9633670  27.8371300  30.5461100  83.9623430  27.7865590  31.6806900
  82.3847580  18.5987670  35.4583020  81.6763730  19.0674010  35.8996630
  82.6692060  17.9409680  36.0928210  84.0103510  20.0184370  43.4575550
  84.5088760  20.4930190  44.1227400  84.1526460  19.0947890  43.6645580
  86.4163010  15.3238330  36.8978810  86.2930790  15.3424460  35.9488320
  87.3647570  15.3717270  37.0177210  83.5039800  30.5593630  36.1706790
  83.7581300  30.5215020  35.2486160  82.5552280  30.4326960  36.1635040
  80.5882600  16.9072750  32.8333730  81.4373130  17.3442900  32.7673920
  80.2213870  17.2193010  33.6605790  89.5092380  21.4785510  37.7465300
  88.5682520  21.4935740  37.9212990  89.8236450  20.6921470  38.1925600
  79.4874020  23.1605110  31.3069260  80.2537290  23.0486470  31.8694690
  79.5648710  22.4643080  30.6546030  78.1820780  20.5930180  31.9902150
  78.2624370  19.6457690  32.1019550  79.0740530  20.9237060  32.0962810
  78.9835490  30.7425570  39.0936690  79.7197970  30.1941030  39.3645260
  79.3676410  31.6081580  38.9542680  75.8680970  26.8099140  34.9678200
  74.9420750  27.0520280  34.9583610  76.3337400  27.6373400  34.8462950
  77.9893770  29.9271640  48.2822270  78.7906500  30.2483690  48.6957670
  77.4745590  29.5667220  49.0042180  82.0937800  29.9155880  30.9162260
  82.8866410  30.2044710  30.4644050  81.5742150  29.4848050  30.2374740
  86.8258400  26.0351510  48.2297680  86.2196560  26.0583110  47.4893430
  86.5212510  25.3034550  48.7664930  88.2558770  29.7631800  46.8407090
  89.2080520  29.6789820  46.7907330  88.1086990  30.4273510  47.5140880
  91.1467970  29.1426010  32.3399000  90.8609480  28.7291150  31.5253180
  90.9487520  30.0713720  32.2199520  75.7091580  22.4145100  47.2258320
  76.2130600  21.8352380  47.7974550  74.9699000  22.6985330  47.7634690
  82.6115200  25.1359290  30.7804610  82.5065840  24.5211640  31.5065990
  82.4439420  24.6125180  29.9967620  82.7629520  23.8216090  46.7593840
  81.9975190  24.3901090  46.6748510  82.9445480  23.5292300  45.8662070
  85.8517930  24.1979320  31.3846600  85.3028030  24.6448620  32.0289340
  86.4737190  23.6928570  31.9084270  89.9052870  25.5521420  47.3168860
  90.6462340  25.8897180  46.8136320  89.1425550  25.7213480  46.7638630
  77.7414660  20.5574690  48.1208390  77.7820000  20.2588560  49.0293620
  78.5960160  20.9582300  47.9615910  81.5193050  23.1570240  33.2811900
  81.9409470  22.9910110  34.1243290  81.6443890  22.3470470  32.7867040
  79.6820470  19.1366790  46.0882880  79.1516930  18.6457740  45.4606220
  80.3508540  19.5650990  45.5540810  84.0320690  22.1807850  30.5289000
  84.5526350  21.4656870  30.1630150  84.6789090  22.8193720  30.8289510
  88.5798530  23.6036250  45.8524070  88.9939550  23.7581330  46.7014490
  87.6449530  23.7291470  46.0149850  89.0520700  20.9432410  47.8563220
  89.6341470  20.1884730  47.7683700  89.2282470  21.4739850  47.0794700
  80.1692770  16.1029160  46.1680170  80.0749640  15.4849910  45.4431040
  79.5890160  16.8295450  45.9410080  82.9354210  14.6602400  43.2007560
  82.4871510  14.6826660  42.3553110  82.3019410  14.2621420  43.7977860
  83.3413760  23.5556730  43.8220000  83.7601870  24.3989460  43.6496240
  82.4222390  23.6928770  43.5926780  85.6777660  21.2872910  45.2057840
  85.7973870  20.6914050  45.9452680  86.5371660  21.3242600  44.7859140
  88.0165560  21.8410100  43.7820350  87.4900780  22.3652720  43.1785490
  88.3596900  22.4737490  44.4130080  80.4151950  19.2303470  30.2270060
  80.2141010  18.3670830  30.5883400  80.2444000  19.1436830  29.2891660
  81.1921180  29.8609740  44.9377730  80.6542270  30.5855800  44.6186430
  81.4455140  29.3840080  44.1475070  82.4446430  17.8294260  46.4633660
  83.0346120  17.5210110  47.1511480  81.6266670  17.3574010  46.6193560
  87.2639860  17.4460070  46.6966680  86.5755380  16.7841610  46.6316670
  87.9845880  16.9998340  47.1415140  87.8940260  14.0411700  32.7556940
  88.1742550  13.1979600  33.1116360  87.1205990  14.2734810  33.2695690
  79.2134750  16.3304090  30.2147940  79.5160650  16.3371520  29.3067090
  79.9529340  15.9801950  30.7115600  84.0483390  31.0960950  45.1964380
  83.9742090  31.9996090  45.5036750  83.1462230  30.7772850  45.1686450
  82.4319680  15.2738710  31.2004140  82.0841680  14.5962700  30.6206590
  82.6332450  14.8128220  32.0147530  84.5968720  30.2619460  32.8190740
  85.4919510  30.6004430  32.8409500  84.6286350  29.5398870  32.1915020
  78.2364880  25.6346510  31.0477740  78.6739750  26.1776180  31.7035320
  78.7212610  24.8093460  31.0574080  75.4510680  28.4235540  38.4998000
  75.7813690  27.5556600  38.2676640  75.8801680  28.6294060  39.3302960
  80.0472600  26.7544550  36.1599970  79.7468140  26.6309520  37.0603880
  79.9410090  25.8953140  35.7515700  75.9400890  29.2906130  41.2379630
  75.5031880  29.4706930  42.0703780  76.5078570  30.0480750  41.0961350
  75.7725320  21.8026360  37.5968510  75.1174160  21.5338000  36.9528210
  76.6103270  21.6930840  37.1470490  90.2614710  25.5175110  43.6233100
  89.4474550  25.9472270  43.8858890  90.6688910  26.1293520  43.0102150
  88.7215760  16.5967650  31.8187000  89.1400640  16.4098630  30.9783660
  88.4151820  15.7446700  32.1289930  76.8101250  22.1878930  42.1371850
  77.1774290  22.1006330  43.0167870  76.2412070  21.4245480  42.0378710
  76.3617250  19.0988020  46.0430270  75.4673300  19.0654780  46.3823980
  76.9014800  19.2974810  46.8081520  90.0493180  15.8819740  47.9282020
  90.9263360  15.8903140  48.3116020  90.0614020  15.1450580  47.3174370
  74.9863400  19.0125290  33.5393840  74.0827480  19.2755490  33.3645500
  75.4704020  19.2836460  32.7593800  77.5290610  18.0690830  31.4488220
  78.2382310  17.6474050  30.9635500  76.8130550  18.1366060  30.8171570
  77.1764770  14.1230160  30.4890870  77.8992900  14.6639100  30.8072090
  77.4489290  13.8493580  29.6132410  90.9856420  18.9922630  34.7562450
  91.4815540  18.7593500  35.5411330  90.7872490  18.1534470  34.3400090
  76.8656960  13.3736350  40.3913490  77.5133150  12.8233730  39.9508650
  77.2858800  13.6279500  41.2129300  90.7609300  13.5677710  43.7483130
  91.3981520  14.1811850  44.1142320  90.9084190  13.6038370  42.8032360
  90.3190760  30.2693710  37.1501370  90.9149830  29.9478280  36.4735790
  90.5768910  29.7965530  37.9414640  76.6188960  13.5292020  43.1338810
  76.2703780  13.9855840  43.8996990  76.2876660  12.6349150  43.2161240
  78.2253330  26.7011620  47.2992000  78.1822960  26.3304530  48.1806460
  78.3564340  27.6389190  47.4393820  81.9259360  28.2571210  42.9001720
  81.6850720  28.5245770  42.0132240  82.8662000  28.4276940  42.9552580
  84.1313780  14.7203900  46.6558230  84.0702670  15.3125730  47.4053640
  85.0714160  14.6129860  46.5108490  86.7688340  14.3773960  46.2950520
  87.3828750  14.6953250  45.6331600  87.3137900  13.8922550  46.9146380
  77.2909600  13.0568220  46.4089580  77.8392590  12.8756270  45.6455690
  77.3564910  12.2662330  46.9445890  78.0641360  29.6473870  44.4189780
  77.4701680  29.5158570  45.1579820  78.0565200  28.8112010  43.9531880
  87.5096380  12.9406100  42.6219810  86.6356220  13.2741210  42.4192740
  87.4007130  12.4679280  43.4471680  88.4168360  15.1476970  44.0061530
  88.0881720  14.3328730  43.6263260  89.3650660  15.1046780  43.8827220
  90.8702970  30.9189010  40.9799100  90.4105940  31.6704820  40.6057120
  90.2415430  30.1995480  40.9213900  77.6953590  27.0132250  43.3697820
  76.9687650  26.3937540  43.3023770  77.7562740  27.4072860  42.4995900
  81.2998690  29.2277250  40.1547230  81.8163710  28.6164610  39.6295490
  81.9496070  29.7306030  40.6458240  84.0394190  30.1185740  40.9816210
  84.3272000  29.8640040  40.1049220  84.5517410  29.5663100  41.5721780
  85.2571200  13.8575940  41.5612720  84.4742990  14.3321440  41.8409480
  84.9634130  12.9530770  41.4525900  89.8092270  14.5599040  39.6061810
  90.2500360  14.5044140  38.7583410  89.5399860  15.4757050  39.6771990
  75.9783590  30.3306640  36.5794580  75.8105630  29.6977320  37.2776470
  75.1118100  30.5366040  36.2288770  76.6011610  14.1623420  34.0826440
  77.3590970  14.2752300  33.5090470  76.1388780  14.9992620  34.0369870
  83.1425420  16.2762690  37.0728750  82.3299930  15.9019580  36.7324630
  83.6467060  15.5207770  37.3749940  87.6450400  12.9405140  38.3111820
  88.2479770  13.5125350  38.7860340  86.9043390  13.5044580  38.0885720
  90.7885000  13.3426700  33.5852100  90.9835630  14.2410150  33.8519530
  90.0014870  13.1113780  34.0785050  77.5846290  29.0239870  34.0244720
  77.0593910  29.4047900  33.3206680  77.5090870  29.6490640  34.7454430
  78.9736760  14.6887470  32.6228410  79.5029520  13.9017270  32.4936360
  79.6065080  15.3678660  32.8563940  81.1674600  14.4262610  35.6773800
  80.5377340  13.7249920  35.8443930  80.6279740  15.1866740  35.4606960
  84.1066550  31.0401840  48.3484410  85.0333860  30.8046110  48.3920370
  84.0916980  31.8673840  47.8670440  81.2930160  13.7046590  48.1126290
  81.0114430  14.2080190  47.3487110  81.6749860  12.9068340  47.7468420
  80.1839260  30.9722250  32.8993970  80.9158080  30.6881530  32.3517860
  80.4432930  30.7335530  33.7893350  79.3454050  27.0886980  32.9040300
  78.7162930  27.5572080  33.4526130  79.4601880  26.2436200  33.3386490
  87.8945620  13.1200170  48.6906760  87.7811070  13.4394780  49.5858280
  88.7115360  13.5212680  48.3944040  90.6744110  30.2671700  48.1725450
  91.4669430  29.7720930  47.9651410  90.9677260  30.9461840  48.7801060
  86.8003770  21.1392640  19.0541500  86.7197820  20.2247250  18.7833210
  86.3868190  21.6359710  18.3481210  84.9321810  22.9171660  20.9350770
  84.1563910  22.4372100  21.2249340  85.5834740  22.2377310  20.7606930
  78.9487640  23.2291470  21.8126530  78.1172520  22.9740180  22.2123040
  79.5568620  23.3002240  22.5484450  88.9529240  27.3231850  19.7149900
  88.4910770  26.5519090  20.0437070  89.7654790  27.3497920  20.2202350
  78.9288900  27.2631560  22.0084550  79.2316940  26.3729300  21.8294770
  79.6732490  27.8201780  21.7806800  77.3579590  18.1893360  15.5968920
  76.4696290  18.5309330  15.4948800  77.6420780  17.9893680  14.7049750
  75.3212600  20.7899010  21.4808620  75.8928710  20.0221210  21.4812260
  75.3214140  21.0887770  20.5715230  85.1792550  29.6089860  19.3353890
  84.5603990  30.0647360  18.7648330  86.0344330  29.7641320  18.9343590
  84.3730800  25.5928850  20.9420930  84.3039080  24.6518790  20.7810060
  85.1350660  25.6830260  21.5143500  76.5637470  16.1983370  23.2677550
  76.3840310  15.3009120  23.5480310  76.1617550  16.7455240  23.9424500
  85.4035970  18.3999230  21.1689860  85.7800790  17.5271110  21.0563530
  85.3055480  18.7357930  20.2780300  79.5340980  16.7724860  16.6307300
  79.6407730  17.6728590  16.9376060  78.6233340  16.7242830  16.3401950
  89.1860090  15.8949670  18.1018200  90.0069710  15.4046240  18.1443680
  89.2194170  16.4847330  18.8550040  77.1824140  18.6943870  21.8759890
  77.8634250  18.9582240  22.4947290  76.8672190  17.8544740  22.2097900
  81.3748710  19.7411230  20.9632480  81.8826930  20.2392200  21.6037500
  81.9061950  18.9646430  20.7871840  79.6584810  14.3809790  25.2295900
  79.6603250  14.8982180  24.4241800  78.8289120  13.9039970  25.2065830
  86.0455900  24.4929100  16.7285800  85.4273170  24.9578550  16.1648520
  86.5579150  25.1856580  17.1455310  80.9087660  24.0204970  23.4069400
  80.5757040  24.6473890  24.0490470  81.0854340  24.5466850  22.6271070
  89.4221570  17.8350050  20.8745740  88.7177140  18.1234940  21.4548850
  89.7833730  18.6450160  20.5145300  79.3400140  16.0919750  23.2366350
  79.6816950  16.9361800  22.9420220  78.4015950  16.2403490  23.3531690
  80.1206760  25.9885770  25.2218580  80.7380760  26.6636850  24.9403030
  79.2599880  26.3973750  25.1306080  75.4139100  25.1785630  14.1025430
  75.0367080  25.6672730  13.3710330  75.6712170  25.8510910  14.7331960
  83.0228030  13.5802020  19.5610940  83.3303010  13.0248910  18.8446440
  82.0928730  13.7146480  19.3783930  88.5743090  29.2969310  21.8518400
  88.5870250  28.8931600  20.9840660  88.0218310  30.0716600  21.7479830
  89.8688510  26.0185530  16.9408570  89.7584840  25.0759860  17.0657990
  89.8656760  26.3801170  17.8271330  87.9728530  24.1999150  23.1801010
  88.3897320  23.9859260  22.3454470  88.6968350  24.4571940  23.7509630
  85.4108790  21.6450850  16.2971060  84.4838070  21.5788230  16.5259530
  85.5633610  22.5830980  16.1826300  85.3977870  17.9167850  13.2938220
  84.4581540  18.0781810  13.3790680  85.7161130  18.6353530  12.7474210
  89.4406080  23.2071150  16.8006310  88.8218500  22.8690700  16.1532610
  89.4230530  22.5630910  17.5085500  88.8832640  19.3855690  24.2172120
  88.4703820  20.2109400  24.4712110  88.1508590  18.8000730  24.0248480
  81.0165430  22.1715590  19.0790790  80.6122430  21.4592840  18.5836690
  81.1028550  21.8268830  19.9678830  81.4847130  25.8583150  21.2430000
  81.1875420  25.2528620  20.5637780  82.4346950  25.8960460  21.1319360
  79.7294050  18.9458800  22.8589830  80.2808640  19.0554140  22.0843080
  80.2437560  19.3196400  23.5745060  89.5732740  29.4315020  24.9053100
  89.0963300  30.2387210  24.7125710  88.8894530  28.7793350  25.0579310
  80.5765560  25.5964840  27.8937800  79.6794090  25.8204810  28.1411200
  80.6018430  25.7199780  26.9449200  87.6170780  22.4457960  13.8079060
  88.0564060  21.6080390  13.6616880  88.3299200  23.0787360  13.8943200
  79.4036780  22.4678160  26.4695170  79.2644550  23.3400960  26.8382570
  78.5218140  22.1250970  26.3243110  85.7266160  27.3854030  17.7760300
  86.1662070  28.1278360  17.3615690  85.6653050  27.6280600  18.6999260
  81.2017130  28.4099860  28.6780320  81.1732560  28.8142810  27.8108750
  81.0382100  27.4810220  28.5151920  77.7170060  21.0660570  16.5797440
  77.5967660  21.7922660  15.9678710  77.4070950  20.2963480  16.1025350
  75.3555430  24.2375710  22.3866080  75.4335850  24.3724480  21.4421800
  75.9697110  23.5291600  22.5794200  76.6003060  25.9375900  18.7972260
  76.1931140  26.0790490  17.9425860  77.4916070  25.6536060  18.5943470
  86.4181940  30.0867810  25.7039310  86.9326610  29.9975820  26.5061740
  85.5751020  30.4327510  25.9967220  88.3936340  30.3723150  15.1323310
  88.2337480  30.0826090  16.0305140  88.2283050  29.5963280  14.5968540
  80.8724720  30.1521680  16.9094930  80.6967200  29.2357220  16.6962730
  80.0180460  30.5108970  17.1492730  88.0962470  27.8810710  13.6921310
  87.4027630  27.8788000  13.0323590  88.8385330  27.4570030  13.2615480
  87.6612400  29.5073420  17.7669800  88.1169350  28.7262800  18.0808420
  88.0004920  30.2180240  18.3110980  75.4114950  25.2789880  24.9260540
  75.5745990  24.8095240  24.1079910  75.8767400  24.7713440  25.5909380
  80.1833720  14.4095640  19.9621110  79.7401870  15.1905180  19.6305630
  80.7418710  14.7325530  20.6692050  84.4703530  17.2764160  25.5656430
  84.0082900  17.4847180  26.3776370  84.0681640  16.4623510  25.2627100
  89.4708040  18.4973110  26.6953090  88.6201630  18.1978860  27.0162160
  89.3109830  18.7415120  25.7836910  86.5657750  19.9974860  28.7951880
  86.8911160  19.1638610  28.4554110  87.3538080  20.5203380  28.9430210
  83.2992540  14.0306340  14.8426940  82.6746720  14.0266210  15.5680250
  83.2122660  13.1637300  14.4462910  82.2209620  14.9542970  21.8210710
  82.5181950  15.8605800  21.7402730  82.7695180  14.4661750  21.2070280
  79.9747940  19.5329210  17.6902360  79.7488860  19.3166380  18.5948980
  79.1940470  19.9657670  17.3448330  87.2045700  19.5392580  16.2893010
  86.6054590  20.2628380  16.1056630  87.7525310  19.4769360  15.5069460
  82.4147150  20.4314790  28.3562630  82.3190750  19.4909520  28.2063030
  83.2579130  20.6529860  27.9610700  85.8110570  18.1756120  18.3196290
  86.2040140  18.4928320  17.5064980  86.1727420  17.2968000  18.4340810
  77.5457690  16.8428460  26.5096410  77.1521080  17.6903670  26.7169190
  76.8576090  16.2054830  26.7005050  84.1202740  16.9263430  29.5793150
  83.4301060  16.7335630  30.2139240  84.8635040  17.2098070  30.1117450
  74.8474740  14.7656920  20.5426490  74.5587790  15.3359780  21.2551470
  75.5920500  14.2861370  20.9057720  75.0344970  18.7077040  11.7529210
  74.9519640  19.6507800  11.8944200  74.6828030  18.5651950  10.8741560
  86.3965710  20.7661870  22.4147070  85.6646830  21.2748680  22.7637170
  85.9990050  19.9491850  22.1135850  82.8343100  17.4416070  20.8199560
  82.8379160  17.0006020  19.9704100  83.7294220  17.7633400  20.9271380
  78.6845480  17.3242560  19.7793770  78.3445530  17.8017790  20.5360820
  77.9222800  16.8707680  19.4194870  82.8963250  18.4428150  13.8106320
  83.0176070  18.4014630  14.7592140  82.5111760  19.3052300  13.6553050
  86.8591620  16.2195550  21.8270010  86.8764360  16.6704200  22.6711860
  86.6107200  15.3201190  22.0403450  81.9084750  20.7529290  13.2089620
  81.3401650  20.3047540  12.5825530  82.6173750  21.1122070  12.6754770
  90.2862370  13.6327730  27.6656390  90.6108140  12.9017390  28.1914370
  90.3218880  13.3141370  26.7637380  76.9853930  24.6541310  27.0856350
  76.6008720  24.0134980  27.6839310  77.2966120  25.3577430  27.6551080
  83.1351070  21.5017850  22.5664970  83.5021200  21.0276420  23.3126310
  82.9456130  22.3759420  22.9073310  75.9991560  16.2461540  18.6958440
  75.7138480  15.8817210  19.5337060  75.9370420  15.5142000  18.0821580
  80.9250440  20.5426490  24.8849180  80.6207510  21.4218470  25.1099540
  81.8796900  20.6026280  24.9206620  79.4532230  24.7487480  15.4816030
  78.6794490  24.2085100  15.3214750  80.1826860  24.2294090  15.1433790
  90.2120210  23.7452840  21.2742420  90.9319330  24.2408130  20.8838530
  90.0102030  23.0670730  20.6296290  85.6730150  15.1390800  15.4171810
  84.8594760  14.6403970  15.3417120  85.4792100  15.9789050  15.0008160
  85.5939010  23.8161900  27.1611420  85.5276320  22.8957570  26.9069010
  84.9644150  23.9137340  27.8756060  88.3878540  19.5110450  13.7133970
  89.2758160  19.8227680  13.5385310  88.3583630  18.6382700  13.3214550
  79.4969630  24.4167860  19.1194840  80.0148300  23.6136120  19.0651730
  79.0453650  24.3547000  19.9611670  84.3839130  25.6834140  14.3922140
  84.7254830  26.4276370  13.8965460  83.5551840  25.9965260  14.7546970
  76.9814170  21.3829230  26.0320540  76.6229110  22.0483080  26.6193880
  76.6868730  20.5512780  26.4033160  80.1827290  21.8413470  28.9160090
  79.8827430  21.9870650  28.0187910  80.9538530  21.2818760  28.8233480
  85.5255740  26.6382470  26.9115220  85.5400280  25.7063430  26.6934130
  84.8180840  26.7242230  27.5504990  90.6592810  20.8222290  13.1813830
  90.5756530  21.2536510  12.3310270  91.3787000  21.2820640  13.6140650
  87.2666540  25.0049980  19.7567650  87.6190360  24.4078110  19.0969020
  86.3828870  24.6794210  19.9275900  83.3529820  25.7647670  17.1638060
  84.0400950  26.3116880  17.5445650  82.5662240  26.3088400  17.1987670
  75.4922220  21.3820490  12.6555140  76.3617070  21.6645290  12.9391060
  75.0012540  22.1956360  12.5403950  82.6557030  22.7693700  16.7763420
  83.1119810  23.5798950  17.0023610  82.3045240  22.4516840  17.6081910
  84.9589640  28.2800040  24.0055720  85.6031860  28.4859420  24.6829140
  85.3219080  27.5188440  23.5526570  78.5568810  13.1131350  17.2485940
  78.4283440  13.1049250  18.1970860  77.7330830  13.4514440  16.8976950
  86.2321720  26.2832390  22.7233170  86.8743950  25.5825550  22.8365340
  86.7571070  27.0630830  22.5430060  90.0777440  26.5681010  12.4472310
  89.8515020  25.8511450  13.0396950  89.6873640  26.3193450  11.6094060
  88.0059340  27.0827290  25.9269230  88.3415580  27.6693980  26.6047150
  87.0859680  26.9520000  26.1567020  75.8593470  30.5947870  13.2216770
  76.2191110  31.1937210  12.5674040  75.7185810  31.1407760  13.9951800
  75.5562740  14.8722470  26.7092640  74.8421260  15.0719390  27.3145250
  75.9757780  14.0962040  27.0807440  89.6593690  24.4852950  14.1086470
  89.3715390  24.9465640  14.8964350  90.4545860  24.0250720  14.3770690
  75.8435330  28.8602730  27.6959170  75.9526450  27.9197470  27.5554560
  75.1915890  29.1257480  27.0472900  83.8347920  27.1318620  29.0957290
  83.5144790  26.4127860  29.6402980  83.1606280  27.8073690  29.1693350
  81.8762090  27.9779070  14.0390440  81.8672190  28.7108760  13.4234950
  80.9560450  27.7310650  14.1317400  77.4768730  23.1993960  14.7837200
  76.8696680  23.9392860  14.7932500  77.9518080  23.2893320  13.9575400
  87.0501520  17.3644780  24.4594090  87.4182340  16.5439990  24.7873660
  86.1899720  17.4246670  24.8749740  90.4163550  16.3201720  15.2681650
  89.7876710  16.4247390  14.5539880  89.9215470  16.5398500  16.0575530
  84.8621690  28.0407310  12.7015630  84.9633670  27.8371300  11.7717610
  83.9623430  27.7865590  12.9063410  82.3847580  18.5987670  16.6839530
  81.6763730  19.0674010  17.1253140  82.6692060  17.9409680  17.3184720
  84.0103510  20.0184370  24.6832060  84.5088760  20.4930190  25.3483910
  84.1526460  19.0947890  24.8902090  86.4163010  15.3238330  18.1235320
  86.2930790  15.3424460  17.1744830  87.3647570  15.3717270  18.2433720
  83.5039800  30.5593630  17.3963300  83.7581300  30.5215020  16.4742670
  82.5552280  30.4326960  17.3891550  80.5882600  16.9072750  14.0590240
  81.4373130  17.3442900  13.9930430  80.2213870  17.2193010  14.8862300
  89.5092380  21.4785510  18.9721810  88.5682520  21.4935740  19.1469500
  89.8236450  20.6921470  19.4182110  79.4874020  23.1605110  12.5325770
  80.2537290  23.0486470  13.0951200  79.5648710  22.4643080  11.8802540
  78.1820780  20.5930180  13.2158660  78.2624370  19.6457690  13.3276060
  79.0740530  20.9237060  13.3219320  78.9835490  30.7425570  20.3193200
  79.7197970  30.1941030  20.5901770  79.3676410  31.6081580  20.1799190
  75.8680970  26.8099140  16.1934710  74.9420750  27.0520280  16.1840120
  76.3337400  27.6373400  16.0719460  77.9893770  29.9271640  29.5078780
  78.7906500  30.2483690  29.9214180  77.4745590  29.5667220  30.2298690
  82.0937800  29.9155880  12.1418770  82.8866410  30.2044710  11.6900560
  81.5742150  29.4848050  11.4631250  86.8258400  26.0351510  29.4554190
  86.2196560  26.0583110  28.7149940  86.5212510  25.3034550  29.9921440
  88.2558770  29.7631800  28.0663600  89.2080520  29.6789820  28.0163840
  88.1086990  30.4273510  28.7397390  91.1467970  29.1426010  13.5655510
  90.8609480  28.7291150  12.7509690  90.9487520  30.0713720  13.4456030
  75.7091580  22.4145100  28.4514830  76.2130600  21.8352380  29.0231060
  74.9699000  22.6985330  28.9891200  82.6115200  25.1359290  12.0061120
  82.5065840  24.5211640  12.7322500  82.4439420  24.6125180  11.2224130
  82.7629520  23.8216090  27.9850350  81.9975190  24.3901090  27.9005020
  82.9445480  23.5292300  27.0918580  85.8517930  24.1979320  12.6103110
  85.3028030  24.6448620  13.2545850  86.4737190  23.6928570  13.1340780
  89.9052870  25.5521420  28.5425370  90.6462340  25.8897180  28.0392830
  89.1425550  25.7213480  27.9895140  77.7414660  20.5574690  29.3464900
  77.7820000  20.2588560  30.2550130  78.5960160  20.9582300  29.1872420
  81.5193050  23.1570240  14.5068410  81.9409470  22.9910110  15.3499800
  81.6443890  22.3470470  14.0123550  79.6820470  19.1366790  27.3139390
  79.1516930  18.6457740  26.6862730  80.3508540  19.5650990  26.7797320
  84.0320690  22.1807850  11.7545510  84.5526350  21.4656870  11.3886660
  84.6789090  22.8193720  12.0546020  88.5798530  23.6036250  27.0780580
  88.9939550  23.7581330  27.9271000  87.6449530  23.7291470  27.2406360
  89.0520700  20.9432410  29.0819730  89.6341470  20.1884730  28.9940210
  89.2282470  21.4739850  28.3051210  80.1692770  16.1029160  27.3936680
  80.0749640  15.4849910  26.6687550  79.5890160  16.8295450  27.1666590
  82.9354210  14.6602400  24.4264070  82.4871510  14.6826660  23.5809620
  82.3019410  14.2621420  25.0234370  83.3413760  23.5556730  25.0476510
  83.7601870  24.3989460  24.8752750  82.4222390  23.6928770  24.8183290
  85.6777660  21.2872910  26.4314350  85.7973870  20.6914050  27.1709190
  86.5371660  21.3242600  26.0115650  88.0165560  21.8410100  25.0076860
  87.4900780  22.3652720  24.4042000  88.3596900  22.4737490  25.6386590
  80.4151950  19.2303470  11.4526570  80.2141010  18.3670830  11.8139910
  80.2444000  19.1436830  10.5148170  81.1921180  29.8609740  26.1634240
  80.6542270  30.5855800  25.8442940  81.4455140  29.3840080  25.3731580
  82.4446430  17.8294260  27.6890170  83.0346120  17.5210110  28.3767990
  81.6266670  17.3574010  27.8450070  87.2639860  17.4460070  27.9223190
  86.5755380  16.7841610  27.8573180  87.9845880  16.9998340  28.3671650
  87.8940260  14.0411700  13.9813450  88.1742550  13.1979600  14.3372870
  87.1205990  14.2734810  14.4952200  79.2134750  16.3304090  11.4404450
  79.5160650  16.3371520  10.5323600  79.9529340  15.9801950  11.9372110
  84.0483390  31.0960950  26.4220890  83.9742090  31.9996090  26.7293260
  83.1462230  30.7772850  26.3942960  82.4319680  15.2738710  12.4260650
  82.0841680  14.5962700  11.8463100  82.6332450  14.8128220  13.2404040
  84.5968720  30.2619460  14.0447250  85.4919510  30.6004430  14.0666010
  84.6286350  29.5398870  13.4171530  78.2364880  25.6346510  12.2734250
  78.6739750  26.1776180  12.9291830  78.7212610  24.8093460  12.2830590
  75.4510680  28.4235540  19.7254510  75.7813690  27.5556600  19.4933150
  75.8801680  28.6294060  20.5559470  80.0472600  26.7544550  17.3856480
  79.7468140  26.6309520  18.2860390  79.9410090  25.8953140  16.9772210
  75.9400890  29.2906130  22.4636140  75.5031880  29.4706930  23.2960290
  76.5078570  30.0480750  22.3217860  75.7725320  21.8026360  18.8225020
  75.1174160  21.5338000  18.1784720  76.6103270  21.6930840  18.3727000
  90.2614710  25.5175110  24.8489610  89.4474550  25.9472270  25.1115400
  90.6688910  26.1293520  24.2358660  88.7215760  16.5967650  13.0443510
  89.1400640  16.4098630  12.2040170  88.4151820  15.7446700  13.3546440
  76.8101250  22.1878930  23.3628360  77.1774290  22.1006330  24.2424380
  76.2412070  21.4245480  23.2635220  76.3617250  19.0988020  27.2686780
  75.4673300  19.0654780  27.6080490  76.9014800  19.2974810  28.0338030
  90.0493180  15.8819740  29.1538530  90.9263360  15.8903140  29.5372530
  90.0614020  15.1450580  28.5430880  74.9863400  19.0125290  14.7650350
  74.0827480  19.2755490  14.5902010  75.4704020  19.2836460  13.9850310
  77.5290610  18.0690830  12.6744730  78.2382310  17.6474050  12.1892010
  76.8130550  18.1366060  12.0428080  77.1764770  14.1230160  11.7147380
  77.8992900  14.6639100  12.0328600  77.4489290  13.8493580  10.8388920
  90.9856420  18.9922630  15.9818960  91.4815540  18.7593500  16.7667840
  90.7872490  18.1534470  15.5656600  76.8656960  13.3736350  21.6170000
  77.5133150  12.8233730  21.1765160  77.2858800  13.6279500  22.4385810
  90.7609300  13.5677710  24.9739640  91.3981520  14.1811850  25.3398830
  90.9084190  13.6038370  24.0288870  90.3190760  30.2693710  18.3757880
  90.9149830  29.9478280  17.6992300  90.5768910  29.7965530  19.1671150
  76.6188960  13.5292020  24.3595320  76.2703780  13.9855840  25.1253500
  76.2876660  12.6349150  24.4417750  78.2253330  26.7011620  28.5248510
  78.1822960  26.3304530  29.4062970  78.3564340  27.6389190  28.6650330
  81.9259360  28.2571210  24.1258230  81.6850720  28.5245770  23.2388750
  82.8662000  28.4276940  24.1809090  84.1313780  14.7203900  27.8814740
  84.0702670  15.3125730  28.6310150  85.0714160  14.6129860  27.7365000
  86.7688340  14.3773960  27.5207030  87.3828750  14.6953250  26.8588110
  87.3137900  13.8922550  28.1402890  77.2909600  13.0568220  27.6346090
  77.8392590  12.8756270  26.8712200  77.3564910  12.2662330  28.1702400
  78.0641360  29.6473870  25.6446290  77.4701680  29.5158570  26.3836330
  78.0565200  28.8112010  25.1788390  87.5096380  12.9406100  23.8476320
  86.6356220  13.2741210  23.6449250  87.4007130  12.4679280  24.6728190
  88.4168360  15.1476970  25.2318040  88.0881720  14.3328730  24.8519770
  89.3650660  15.1046780  25.1083730  90.8702970  30.9189010  22.2055610
  90.4105940  31.6704820  21.8313630  90.2415430  30.1995480  22.1470410
  77.6953590  27.0132250  24.5954330  76.9687650  26.3937540  24.5280280
  77.7562740  27.4072860  23.7252410  81.2998690  29.2277250  21.3803740
  81.8163710  28.6164610  20.8552000  81.9496070  29.7306030  21.8714750
  84.0394190  30.1185740  22.2072720  84.3272000  29.8640040  21.3305730
  84.5517410  29.5663100  22.7978290  85.2571200  13.8575940  22.7869230
  84.4742990  14.3321440  23.0665990  84.9634130  12.9530770  22.6782410
  89.8092270  14.5599040  20.8318320  90.2500360  14.5044140  19.9839920
  89.5399860  15.4757050  20.9028500  75.9783590  30.3306640  17.8051090
  75.8105630  29.6977320  18.5032980  75.1118100  30.5366040  17.4545280
  76.6011610  14.1623420  15.3082950  77.3590970  14.2752300  14.7346980
  76.1388780  14.9992620  15.2626380  83.1425420  16.2762690  18.2985260
  82.3299930  15.9019580  17.9581140  83.6467060  15.5207770  18.6006450
  87.6450400  12.9405140  19.5368330  88.2479770  13.5125350  20.0116850
  86.9043390  13.5044580  19.3142230  90.7885000  13.3426700  14.8108610
  90.9835630  14.2410150  15.0776040  90.0014870  13.1113780  15.3041560
  77.5846290  29.0239870  15.2501230  77.0593910  29.4047900  14.5463190
  77.5090870  29.6490640  15.9710940  78.9736760  14.6887470  13.8484920
  79.5029520  13.9017270  13.7192870  79.6065080  15.3678660  14.0820450
  81.1674600  14.4262610  16.9030310  80.5377340  13.7249920  17.0700440
  80.6279740  15.1866740  16.6863470  84.1066550  31.0401840  29.5740920
  85.0333860  30.8046110  29.6176880  84.0916980  31.8673840  29.0926950
  81.2930160  13.7046590  29.3382800  81.0114430  14.2080190  28.5743620
  81.6749860  12.9068340  28.9724930  80.1839260  30.9722250  14.1250480
  80.9158080  30.6881530  13.5774370  80.4432930  30.7335530  15.0149860
  79.3454050  27.0886980  14.1296810  78.7162930  27.5572080  14.6782640
  79.4601880  26.2436200  14.5643000  87.8945620  13.1200170  29.9163270
  87.7811070  13.4394780  30.8114790  88.7115360  13.5212680  29.6200550
  90.6744110  30.2671700  29.3981960  91.4669430  29.7720930  29.1907920
  90.9677260  30.9461840  30.0057570  84.9321810  22.9171660   2.1607280
  84.1563910  22.4372100   2.4505850  85.5834740  22.2377310   1.9863440
  78.9487640  23.2291470   3.0383040  78.1172520  22.9740180   3.4379550
  79.5568620  23.3002240   3.7740960  78.9288900  27.2631560   3.2341060
  79.2316940  26.3729300   3.0551280  79.6732490  27.8201780   3.0063310
  75.3212600  20.7899010   2.7065130  75.8928710  20.0221210   2.7068770
  75.3214140  21.0887770   1.7971740  84.3730800  25.5928850   2.1677440
  84.3039080  24.6518790   2.0066570  85.1350660  25.6830260   2.7400010
  76.5637470  16.1983370   4.4934060  76.3840310  15.3009120   4.7736820
  76.1617550  16.7455240   5.1681010  85.4035970  18.3999230   2.3946370
  85.7800790  17.5271110   2.2820040  85.3055480  18.7357930   1.5036810
  77.1824140  18.6943870   3.1016400  77.8634250  18.9582240   3.7203800
  76.8672190  17.8544740   3.4354410  81.3748710  19.7411230   2.1888990
  81.8826930  20.2392200   2.8294010  81.9061950  18.9646430   2.0128350
  79.6584810  14.3809790   6.4552410  79.6603250  14.8982180   5.6498310
  78.8289120  13.9039970   6.4322340  80.9087660  24.0204970   4.6325910
  80.5757040  24.6473890   5.2746980  81.0854340  24.5466850   3.8527580
  89.4221570  17.8350050   2.1002250  88.7177140  18.1234940   2.6805360
  89.7833730  18.6450160   1.7401810  79.3400140  16.0919750   4.4622860
  79.6816950  16.9361800   4.1676730  78.4015950  16.2403490   4.5788200
  80.1206760  25.9885770   6.4475090  80.7380760  26.6636850   6.1659540
  79.2599880  26.3973750   6.3562590  88.5743090  29.2969310   3.0774910
  88.5870250  28.8931600   2.2097170  88.0218310  30.0716600   2.9736340
  87.9728530  24.1999150   4.4057520  88.3897320  23.9859260   3.5710980
  88.6968350  24.4571940   4.9766140  88.8832640  19.3855690   5.4428630
  88.4703820  20.2109400   5.6968620  88.1508590  18.8000730   5.2504990
  81.4847130  25.8583150   2.4686510  81.1875420  25.2528620   1.7894290
  82.4346950  25.8960460   2.3575870  79.7294050  18.9458800   4.0846340
  80.2808640  19.0554140   3.3099590  80.2437560  19.3196400   4.8001570
  89.5732740  29.4315020   6.1309610  89.0963300  30.2387210   5.9382220
  88.8894530  28.7793350   6.2835820  80.5765560  25.5964840   9.1194310
  79.6794090  25.8204810   9.3667710  80.6018430  25.7199780   8.1705710
  79.4036780  22.4678160   7.6951680  79.2644550  23.3400960   8.0639080
  78.5218140  22.1250970   7.5499620  81.2017130  28.4099860   9.9036830
  81.1732560  28.8142810   9.0365260  81.0382100  27.4810220   9.7408430
  75.3555430  24.2375710   3.6122590  75.4335850  24.3724480   2.6678310
  75.9697110  23.5291600   3.8050710  86.4181940  30.0867810   6.9295820
  86.9326610  29.9975820   7.7318250  85.5751020  30.4327510   7.2223730
  75.4114950  25.2789880   6.1517050  75.5745990  24.8095240   5.3336420
  75.8767400  24.7713440   6.8165890  84.4703530  17.2764160   6.7912940
  84.0082900  17.4847180   7.6032880  84.0681640  16.4623510   6.4883610
  89.4708040  18.4973110   7.9209600  88.6201630  18.1978860   8.2418670
  89.3109830  18.7415120   7.0093420  86.5657750  19.9974860  10.0208390
  86.8911160  19.1638610   9.6810620  87.3538080  20.5203380  10.1686720
  82.2209620  14.9542970   3.0467220  82.5181950  15.8605800   2.9659240
  82.7695180  14.4661750   2.4326790  82.4147150  20.4314790   9.5819140
  82.3190750  19.4909520   9.4319540  83.2579130  20.6529860   9.1867210
  77.5457690  16.8428460   7.7352920  77.1521080  17.6903670   7.9425700
  76.8576090  16.2054830   7.9261560  84.1202740  16.9263430  10.8049660
  83.4301060  16.7335630  11.4395750  84.8635040  17.2098070  11.3373960
  74.8474740  14.7656920   1.7683000  74.5587790  15.3359780   2.4807980
  75.5920500  14.2861370   2.1314230  86.3965710  20.7661870   3.6403580
  85.6646830  21.2748680   3.9893680  85.9990050  19.9491850   3.3392360
  86.8591620  16.2195550   3.0526520  86.8764360  16.6704200   3.8968370
  86.6107200  15.3201190   3.2659960  90.2862370  13.6327730   8.8912900
  90.6108140  12.9017390   9.4170880  90.3218880  13.3141370   7.9893890
  76.9853930  24.6541310   8.3112860  76.6008720  24.0134980   8.9095820
  77.2966120  25.3577430   8.8807590  83.1351070  21.5017850   3.7921480
  83.5021200  21.0276420   4.5382820  82.9456130  22.3759420   4.1329820
  80.9250440  20.5426490   6.1105690  80.6207510  21.4218470   6.3356050
  81.8796900  20.6026280   6.1463130  90.2120210  23.7452840   2.4998930
  90.9319330  24.2408130   2.1095040  90.0102030  23.0670730   1.8552800
  85.5939010  23.8161900   8.3867930  85.5276320  22.8957570   8.1325520
  84.9644150  23.9137340   9.1012570  76.9814170  21.3829230   7.2577050
  76.6229110  22.0483080   7.8450390  76.6868730  20.5512780   7.6289670
  80.1827290  21.8413470  10.1416600  79.8827430  21.9870650   9.2444420
  80.9538530  21.2818760  10.0489990  85.5255740  26.6382470   8.1371730
  85.5400280  25.7063430   7.9190640  84.8180840  26.7242230   8.7761500
  84.9589640  28.2800040   5.2312230  85.6031860  28.4859420   5.9085650
  85.3219080  27.5188440   4.7783080  86.2321720  26.2832390   3.9489680
  86.8743950  25.5825550   4.0621850  86.7571070  27.0630830   3.7686570
  88.0059340  27.0827290   7.1525740  88.3415580  27.6693980   7.8303660
  87.0859680  26.9520000   7.3823530  75.5562740  14.8722470   7.9349150
  74.8421260  15.0719390   8.5401760  75.9757780  14.0962040   8.3063950
  75.8435330  28.8602730   8.9215680  75.9526450  27.9197470   8.7811070
  75.1915890  29.1257480   8.2729410  83.8347920  27.1318620  10.3213800
  83.5144790  26.4127860  10.8659490  83.1606280  27.8073690  10.3949860
  87.0501520  17.3644780   5.6850600  87.4182340  16.5439990   6.0130170
  86.1899720  17.4246670   6.1006250  84.0103510  20.0184370   5.9088570
  84.5088760  20.4930190   6.5740420  84.1526460  19.0947890   6.1158600
  77.9893770  29.9271640  10.7335290  78.7906500  30.2483690  11.1470690
  77.4745590  29.5667220  11.4555200  86.8258400  26.0351510  10.6810700
  86.2196560  26.0583110   9.9406450  86.5212510  25.3034550  11.2177950
  88.2558770  29.7631800   9.2920110  89.2080520  29.6789820   9.2420350
  88.1086990  30.4273510   9.9653900  75.7091580  22.4145100   9.6771340
  76.2130600  21.8352380  10.2487570  74.9699000  22.6985330  10.2147710
  82.7629520  23.8216090   9.2106860  81.9975190  24.3901090   9.1261530
  82.9445480  23.5292300   8.3175090  89.9052870  25.5521420   9.7681880
  90.6462340  25.8897180   9.2649340  89.1425550  25.7213480   9.2151650
  77.7414660  20.5574690  10.5721410  77.7820000  20.2588560  11.4806640
  78.5960160  20.9582300  10.4128930  79.6820470  19.1366790   8.5395900
  79.1516930  18.6457740   7.9119240  80.3508540  19.5650990   8.0053830
  88.5798530  23.6036250   8.3037090  88.9939550  23.7581330   9.1527510
  87.6449530  23.7291470   8.4662870  89.0520700  20.9432410  10.3076240
  89.6341470  20.1884730  10.2196720  89.2282470  21.4739850   9.5307720
  80.1692770  16.1029160   8.6193190  80.0749640  15.4849910   7.8944060
  79.5890160  16.8295450   8.3923100  82.9354210  14.6602400   5.6520580
  82.4871510  14.6826660   4.8066130  82.3019410  14.2621420   6.2490880
  83.3413760  23.5556730   6.2733020  83.7601870  24.3989460   6.1009260
  82.4222390  23.6928770   6.0439800  85.6777660  21.2872910   7.6570860
  85.7973870  20.6914050   8.3965700  86.5371660  21.3242600   7.2372160
  88.0165560  21.8410100   6.2333370  87.4900780  22.3652720   5.6298510
  88.3596900  22.4737490   6.8643100  81.1921180  29.8609740   7.3890750
  80.6542270  30.5855800   7.0699450  81.4455140  29.3840080   6.5988090
  82.4446430  17.8294260   8.9146680  83.0346120  17.5210110   9.6024500
  81.6266670  17.3574010   9.0706580  87.2639860  17.4460070   9.1479700
  86.5755380  16.7841610   9.0829690  87.9845880  16.9998340   9.5928160
  84.0483390  31.0960950   7.6477400  83.9742090  31.9996090   7.9549770
  83.1462230  30.7772850   7.6199470  75.9400890  29.2906130   3.6892650
  75.5031880  29.4706930   4.5216800  76.5078570  30.0480750   3.5474370
  90.2614710  25.5175110   6.0746120  89.4474550  25.9472270   6.3371910
  90.6688910  26.1293520   5.4615170  76.8101250  22.1878930   4.5884870
  77.1774290  22.1006330   5.4680890  76.2412070  21.4245480   4.4891730
  76.3617250  19.0988020   8.4943290  75.4673300  19.0654780   8.8337000
  76.9014800  19.2974810   9.2594540  90.0493180  15.8819740  10.3795040
  90.9263360  15.8903140  10.7629040  90.0614020  15.1450580   9.7687390
  76.8656960  13.3736350   2.8426510  77.5133150  12.8233730   2.4021670
  77.2858800  13.6279500   3.6642320  90.7609300  13.5677710   6.1996150
  91.3981520  14.1811850   6.5655340  90.9084190  13.6038370   5.2545380
  76.6188960  13.5292020   5.5851830  76.2703780  13.9855840   6.3510010
  76.2876660  12.6349150   5.6674260  78.2253330  26.7011620   9.7505020
  78.1822960  26.3304530  10.6319480  78.3564340  27.6389190   9.8906840
  81.9259360  28.2571210   5.3514740  81.6850720  28.5245770   4.4645260
  82.8662000  28.4276940   5.4065600  84.1313780  14.7203900   9.1071250
  84.0702670  15.3125730   9.8566660  85.0714160  14.6129860   8.9621510
  86.7688340  14.3773960   8.7463540  87.3828750  14.6953250   8.0844620
  87.3137900  13.8922550   9.3659400  77.2909600  13.0568220   8.8602600
  77.8392590  12.8756270   8.0968710  77.3564910  12.2662330   9.3958910
  78.0641360  29.6473870   6.8702800  77.4701680  29.5158570   7.6092840
  78.0565200  28.8112010   6.4044900  87.5096380  12.9406100   5.0732830
  86.6356220  13.2741210   4.8705760  87.4007130  12.4679280   5.8984700
  88.4168360  15.1476970   6.4574550  88.0881720  14.3328730   6.0776280
  89.3650660  15.1046780   6.3340240  90.8702970  30.9189010   3.4312120
  90.4105940  31.6704820   3.0570140  90.2415430  30.1995480   3.3726920
  77.6953590  27.0132250   5.8210840  76.9687650  26.3937540   5.7536790
  77.7562740  27.4072860   4.9508920  81.2998690  29.2277250   2.6060250
  81.8163710  28.6164610   2.0808510  81.9496070  29.7306030   3.0971260
  84.0394190  30.1185740   3.4329230  84.3272000  29.8640040   2.5562240
  84.5517410  29.5663100   4.0234800  85.2571200  13.8575940   4.0125740
  84.4742990  14.3321440   4.2922500  84.9634130  12.9530770   3.9038920
  84.1066550  31.0401840  10.7997430  85.0333860  30.8046110  10.8433390
  84.0916980  31.8673840  10.3183460  81.2930160  13.7046590  10.5639310
  81.0114430  14.2080190   9.8000130  81.6749860  12.9068340  10.1981440
  87.8945620  13.1200170  11.1419780  87.7811070  13.4394780  12.0371300
  88.7115360  13.5212680  10.8457060  90.6744110  30.2671700  10.6238470
  91.4669430  29.7720930  10.4164430  90.9677260  30.9461840  11.2314080
  88.9529240   8.5488360  76.0380370  88.4910770   7.7775600  76.3667540
  89.7654790   8.5754430  76.5432820  85.1792550  10.8346370  75.6584360
  84.5603990  11.2903870  75.0878800  86.0344330  10.9897830  75.2574060
  86.0455900   5.7185610  73.0516270  85.4273170   6.1835060  72.4878990
  86.5579150   6.4113090  73.4685780  75.4139100   6.4042140  70.4255900
  75.0367080   6.8929240  69.6940800  75.6712170   7.0767420  71.0562430
  89.8688510   7.2442040  73.2639040  89.7584840   6.3016370  73.3888460
  89.8656760   7.6057680  74.1501800  85.4108790   2.8707360  72.6201530
  84.4838070   2.8044740  72.8490000  85.5633610   3.8087490  72.5056770
  89.4406080   4.4327660  73.1236780  88.8218500   4.0947210  72.4763080
  89.4230530   3.7887420  73.8315970  81.0165430   3.3972100  75.4021260
  80.6122430   2.6849350  74.9067160  81.1028550   3.0525340  76.2909300
  87.6170780   3.6714470  70.1309530  88.0564060   2.8336900  69.9847350
  88.3299200   4.3043870  70.2173670  85.7266160   8.6110540  74.0990770
  86.1662070   9.3534870  73.6846160  85.6653050   8.8537110  75.0229730
  77.7170060   2.2917080  72.9027910  77.5967660   3.0179170  72.2909180
  77.4070950   1.5219990  72.4255820  76.6003060   7.1632410  75.1202730
  76.1931140   7.3047000  74.2656330  77.4916070   6.8792570  74.9173940
  88.3936340  11.5979660  71.4553780  88.2337480  11.3082600  72.3535610
  88.2283050  10.8219790  70.9199010  80.8724720  11.3778190  73.2325400
  80.6967200  10.4613730  73.0193200  80.0180460  11.7365480  73.4723200
  88.0962470   9.1067220  70.0151780  87.4027630   9.1044510  69.3554060
  88.8385330   8.6826540  69.5845950  87.6612400  10.7329930  74.0900270
  88.1169350   9.9519310  74.4038890  88.0004920  11.4436750  74.6341450
  81.9084750   1.9785800  69.5320090  81.3401650   1.5304050  68.9056000
  82.6173750   2.3378580  68.9985240  79.4532230   5.9743990  71.8046500
  78.6794490   5.4341610  71.6445220  80.1826860   5.4550600  71.4664260
  79.4969630   5.6424370  75.4425310  80.0148300   4.8392630  75.3882200
  79.0453650   5.5803510  76.2842140  84.3839130   6.9090650  70.7152610
  84.7254830   7.6532880  70.2195930  83.5551840   7.2221770  71.0777440
  90.6592810   2.0478800  69.5044300  90.5756530   2.4793020  68.6540740
  91.3787000   2.5077150  69.9371120  87.2666540   6.2306490  76.0798120
  87.6190360   5.6334620  75.4199490  86.3828870   5.9050720  76.2506370
  83.3529820   6.9904180  73.4868530  84.0400950   7.5373390  73.8676120
  82.5662240   7.5344910  73.5218140  75.4922220   2.6077000  68.9785610
  76.3617070   2.8901800  69.2621530  75.0012540   3.4212870  68.8634420
  82.6557030   3.9950210  73.0993890  83.1119810   4.8055460  73.3254080
  82.3045240   3.6773350  73.9312380  90.0777440   7.7937520  68.7702780
  89.8515020   7.0767960  69.3627420  89.6873640   7.5449960  67.9324530
  75.8593470  11.8204380  69.5447240  76.2191110  12.4193720  68.8904510
  75.7185810  12.3664270  70.3182270  89.6593690   5.7109460  70.4316940
  89.3715390   6.1722150  71.2194820  90.4545860   5.2507230  70.7001160
  81.8762090   9.2035580  70.3620910  81.8672190   9.9365270  69.7465420
  80.9560450   8.9567160  70.4547870  77.4768730   4.4250470  71.1067670
  76.8696680   5.1649370  71.1162970  77.9518080   4.5149830  70.2805870
  84.8621690   9.2663820  69.0246100  84.9633670   9.0627810  68.0948080
  83.9623430   9.0122100  69.2293880  83.5039800  11.7850140  73.7193770
  83.7581300  11.7471530  72.7973140  82.5552280  11.6583470  73.7122020
  89.5092380   2.7042020  75.2952280  88.5682520   2.7192250  75.4699970
  89.8236450   1.9177980  75.7412580  79.4874020   4.3861620  68.8556240
  80.2537290   4.2742980  69.4181670  79.5648710   3.6899590  68.2033010
  78.9835490  11.9682080  76.6423670  79.7197970  11.4197540  76.9132240
  79.3676410  12.8338090  76.5029660  75.8680970   8.0355650  72.5165180
  74.9420750   8.2776790  72.5070590  76.3337400   8.8629910  72.3949930
  82.0937800  11.1412390  68.4649240  82.8866410  11.4301220  68.0131030
  81.5742150  10.7104560  67.7861720  91.1467970  10.3682520  69.8885980
  90.8609480   9.9547660  69.0740160  90.9487520  11.2970230  69.7686500
  82.6115200   6.3615800  68.3291590  82.5065840   5.7468150  69.0552970
  82.4439420   5.8381690  67.5454600  85.8517930   5.4235830  68.9333580
  85.3028030   5.8705130  69.5776320  86.4737190   4.9185080  69.4571250
  81.5193050   4.3826750  70.8298880  81.9409470   4.2166620  71.6730270
  81.6443890   3.5726980  70.3354020  84.0320690   3.4064360  68.0775980
  84.5526350   2.6913380  67.7117130  84.6789090   4.0450230  68.3776490
  84.5968720  11.4875970  70.3677720  85.4919510  11.8260940  70.3896480
  84.6286350  10.7655380  69.7402000  78.2364880   6.8603020  68.5964720
  78.6739750   7.4032690  69.2522300  78.7212610   6.0349970  68.6061060
  75.4510680   9.6492050  76.0484980  75.7813690   8.7813110  75.8163620
  75.8801680   9.8550570  76.8789940  80.0472600   7.9801060  73.7086950
  79.7468140   7.8566030  74.6090860  79.9410090   7.1209650  73.3002680
  75.7725320   3.0282870  75.1455490  75.1174160   2.7594510  74.5015190
  76.6103270   2.9187350  74.6957470  90.3190760  11.4950220  74.6988350
  90.9149830  11.1734790  74.0222770  90.5768910  11.0222040  75.4901620
  75.9783590  11.5563150  74.1281560  75.8105630  10.9233830  74.8263450
  75.1118100  11.7622550  73.7775750  77.5846290  10.2496380  71.5731700
  77.0593910  10.6304410  70.8693660  77.5090870  10.8747150  72.2941410
  80.1839260  12.1978760  70.4480950  80.9158080  11.9138040  69.9004840
  80.4432930  11.9592040  71.3380330  79.3454050   8.3143490  70.4527280
  78.7162930   8.7828590  71.0013110  79.4601880   7.4692710  70.8873470
  84.9321810   4.1428170  58.4837750  84.1563910   3.6628610  58.7736320
  85.5834740   3.4633820  58.3093910  78.9487640   4.4547980  59.3613510
  78.1172520   4.1996690  59.7610020  79.5568620   4.5258750  60.0971430
  88.9529240   8.5488360  57.2636880  88.4910770   7.7775600  57.5924050
  89.7654790   8.5754430  57.7689330  78.9288900   8.4888070  59.5571530
  79.2316940   7.5985810  59.3781750  79.6732490   9.0458290  59.3293780
  85.1792550  10.8346370  56.8840870  84.5603990  11.2903870  56.3135310
  86.0344330  10.9897830  56.4830570  84.3730800   6.8185360  58.4907910
  84.3039080   5.8775300  58.3297040  85.1350660   6.9086770  59.0630480
  86.0455900   5.7185610  54.2772780  85.4273170   6.1835060  53.7135500
  86.5579150   6.4113090  54.6942290  80.9087660   5.2461480  60.9556380
  80.5757040   5.8730400  61.5977450  81.0854340   5.7723360  60.1758050
  80.1206760   7.2142280  62.7705560  80.7380760   7.8893360  62.4890010
  79.2599880   7.6230260  62.6793060  75.4139100   6.4042140  51.6512410
  75.0367080   6.8929240  50.9197310  75.6712170   7.0767420  52.2818940
  88.5743090  10.5225820  59.4005380  88.5870250  10.1188110  58.5327640
  88.0218310  11.2973110  59.2966810  89.8688510   7.2442040  54.4895550
  89.7584840   6.3016370  54.6144970  89.8656760   7.6057680  55.3758310
  87.9728530   5.4255660  60.7287990  88.3897320   5.2115770  59.8941450
  88.6968350   5.6828450  61.2996610  85.4108790   2.8707360  53.8458040
  84.4838070   2.8044740  54.0746510  85.5633610   3.8087490  53.7313280
  89.4406080   4.4327660  54.3493290  88.8218500   4.0947210  53.7019590
  89.4230530   3.7887420  55.0572480  81.0165430   3.3972100  56.6277770
  80.6122430   2.6849350  56.1323670  81.1028550   3.0525340  57.5165810
  81.4847130   7.0839660  58.7916980  81.1875420   6.4785130  58.1124760
  82.4346950   7.1216970  58.6806340  89.5732740  10.6571530  62.4540080
  89.0963300  11.4643720  62.2612690  88.8894530  10.0049860  62.6066290
  80.5765560   6.8221350  65.4424780  79.6794090   7.0461320  65.6898180
  80.6018430   6.9456290  64.4936180  87.6170780   3.6714470  51.3566040
  88.0564060   2.8336900  51.2103860  88.3299200   4.3043870  51.4430180
  79.4036780   3.6934670  64.0182150  79.2644550   4.5657470  64.3869550
  78.5218140   3.3507480  63.8730090  85.7266160   8.6110540  55.3247280
  86.1662070   9.3534870  54.9102670  85.6653050   8.8537110  56.2486240
  81.2017130   9.6356370  66.2267300  81.1732560  10.0399320  65.3595730
  81.0382100   8.7066730  66.0638900  77.7170060   2.2917080  54.1284420
  77.5967660   3.0179170  53.5165690  77.4070950   1.5219990  53.6512330
  75.3555430   5.4632220  59.9353060  75.4335850   5.5980990  58.9908780
  75.9697110   4.7548110  60.1281180  76.6003060   7.1632410  56.3459240
  76.1931140   7.3047000  55.4912840  77.4916070   6.8792570  56.1430450
  86.4181940  11.3124320  63.2526290  86.9326610  11.2232330  64.0548720
  85.5751020  11.6584020  63.5454200  88.3936340  11.5979660  52.6810290
  88.2337480  11.3082600  53.5792120  88.2283050  10.8219790  52.1455520
  80.8724720  11.3778190  54.4581910  80.6967200  10.4613730  54.2449710
  80.0180460  11.7365480  54.6979710  88.0962470   9.1067220  51.2408290
  87.4027630   9.1044510  50.5810570  88.8385330   8.6826540  50.8102460
  87.6612400  10.7329930  55.3156780  88.1169350   9.9519310  55.6295400
  88.0004920  11.4436750  55.8597960  75.4114950   6.5046390  62.4747520
  75.5745990   6.0351750  61.6566890  75.8767400   5.9969950  63.1396360
  81.9084750   1.9785800  50.7576600  81.3401650   1.5304050  50.1312510
  82.6173750   2.3378580  50.2241750  76.9853930   5.8797820  64.6343330
  76.6008720   5.2391490  65.2326290  77.2966120   6.5833940  65.2038060
  83.1351070   2.7274360  60.1151950  83.5021200   2.2532930  60.8613290
  82.9456130   3.6015930  60.4560290  80.9250440   1.7683000  62.4336160
  80.6207510   2.6474980  62.6586520  81.8796900   1.8282790  62.4693600
  79.4532230   5.9743990  53.0303010  78.6794490   5.4341610  52.8701730
  80.1826860   5.4550600  52.6920770  90.2120210   4.9709350  58.8229400
  90.9319330   5.4664640  58.4325510  90.0102030   4.2927240  58.1783270
  85.5939010   5.0418410  64.7098400  85.5276320   4.1214080  64.4555990
  84.9644150   5.1393850  65.4243040  79.4969630   5.6424370  56.6681820
  80.0148300   4.8392630  56.6138710  79.0453650   5.5803510  57.5098650
  84.3839130   6.9090650  51.9409120  84.7254830   7.6532880  51.4452440
  83.5551840   7.2221770  52.3033950  76.9814170   2.6085740  63.5807520
  76.6229110   3.2739590  64.1680860  76.6868730   1.7769290  63.9520140
  80.1827290   3.0669980  66.4647070  79.8827430   3.2127160  65.5674890
  80.9538530   2.5075270  66.3720460  85.5255740   7.8638980  64.4602200
  85.5400280   6.9319940  64.2421110  84.8180840   7.9498740  65.0991970
  90.6592810   2.0478800  50.7300810  90.5756530   2.4793020  49.8797250
  91.3787000   2.5077150  51.1627630  87.2666540   6.2306490  57.3054630
  87.6190360   5.6334620  56.6456000  86.3828870   5.9050720  57.4762880
  83.3529820   6.9904180  54.7125040  84.0400950   7.5373390  55.0932630
  82.5662240   7.5344910  54.7474650  75.4922220   2.6077000  50.2042120
  76.3617070   2.8901800  50.4878040  75.0012540   3.4212870  50.0890930
  82.6557030   3.9950210  54.3250400  83.1119810   4.8055460  54.5510590
  82.3045240   3.6773350  55.1568890  84.9589640   9.5056550  61.5542700
  85.6031860   9.7115930  62.2316120  85.3219080   8.7444950  61.1013550
  86.2321720   7.5088900  60.2720150  86.8743950   6.8082060  60.3852320
  86.7571070   8.2887340  60.0917040  90.0777440   7.7937520  49.9959290
  89.8515020   7.0767960  50.5883930  89.6873640   7.5449960  49.1581040
  88.0059340   8.3083800  63.4756210  88.3415580   8.8950490  64.1534130
  87.0859680   8.1776510  63.7054000  75.8593470  11.8204380  50.7703750
  76.2191110  12.4193720  50.1161020  75.7185810  12.3664270  51.5438780
  89.6593690   5.7109460  51.6573450  89.3715390   6.1722150  52.4451330
  90.4545860   5.2507230  51.9257670  75.8435330  10.0859240  65.2446150
  75.9526450   9.1453980  65.1041540  75.1915890  10.3513990  64.5959880
  83.8347920   8.3575130  66.6444270  83.5144790   7.6384370  67.1889960
  83.1606280   9.0330200  66.7180330  81.8762090   9.2035580  51.5877420
  81.8672190   9.9365270  50.9721930  80.9560450   8.9567160  51.6804380
  77.4768730   4.4250470  52.3324180  76.8696680   5.1649370  52.3419480
  77.9518080   4.5149830  51.5062380  84.8621690   9.2663820  50.2502610
  84.9633670   9.0627810  49.3204590  83.9623430   9.0122100  50.4550390
  83.5039800  11.7850140  54.9450280  83.7581300  11.7471530  54.0229650
  82.5552280  11.6583470  54.9378530  89.5092380   2.7042020  56.5208790
  88.5682520   2.7192250  56.6956480  89.8236450   1.9177980  56.9669090
  79.4874020   4.3861620  50.0812750  80.2537290   4.2742980  50.6438180
  79.5648710   3.6899590  49.4289520  78.9835490  11.9682080  57.8680180
  79.7197970  11.4197540  58.1388750  79.3676410  12.8338090  57.7286170
  75.8680970   8.0355650  53.7421690  74.9420750   8.2776790  53.7327100
  76.3337400   8.8629910  53.6206440  77.9893770  11.1528150  67.0565760
  78.7906500  11.4740200  67.4701160  77.4745590  10.7923730  67.7785670
  82.0937800  11.1412390  49.6905750  82.8866410  11.4301220  49.2387540
  81.5742150  10.7104560  49.0118230  86.8258400   7.2608020  67.0041170
  86.2196560   7.2839620  66.2636920  86.5212510   6.5291060  67.5408420
  88.2558770  10.9888310  65.6150580  89.2080520  10.9046330  65.5650820
  88.1086990  11.6530020  66.2884370  91.1467970  10.3682520  51.1142490
  90.8609480   9.9547660  50.2996670  90.9487520  11.2970230  50.9943010
  75.7091580   3.6401610  66.0001810  76.2130600   3.0608890  66.5718040
  74.9699000   3.9241840  66.5378180  82.6115200   6.3615800  49.5548100
  82.5065840   5.7468150  50.2809480  82.4439420   5.8381690  48.7711110
  82.7629520   5.0472600  65.5337330  81.9975190   5.6157600  65.4492000
  82.9445480   4.7548810  64.6405560  85.8517930   5.4235830  50.1590090
  85.3028030   5.8705130  50.8032830  86.4737190   4.9185080  50.6827760
  89.9052870   6.7777930  66.0912350  90.6462340   7.1153690  65.5879810
  89.1425550   6.9469990  65.5382120  77.7414660   1.7831200  66.8951880
  77.7820000   1.4845070  67.8037110  78.5960160   2.1838810  66.7359400
  81.5193050   4.3826750  52.0555390  81.9409470   4.2166620  52.8986780
  81.6443890   3.5726980  51.5610530  84.0320690   3.4064360  49.3032490
  84.5526350   2.6913380  48.9373640  84.6789090   4.0450230  49.6033000
  88.5798530   4.8292760  64.6267560  88.9939550   4.9837840  65.4757980
  87.6449530   4.9547980  64.7893340  83.3413760   4.7813240  62.5963490
  83.7601870   5.6245970  62.4239730  82.4222390   4.9185280  62.3670270
  85.6777660   2.5129420  63.9801330  85.7973870   1.9170560  64.7196170
  86.5371660   2.5499110  63.5602630  88.0165560   3.0666610  62.5563840
  87.4900780   3.5909230  61.9528980  88.3596900   3.6994000  63.1873570
  81.1921180  11.0866250  63.7121220  80.6542270  11.8112310  63.3929920
  81.4455140  10.6096590  62.9218560  84.0483390  12.3217460  63.9707870
  83.9742090  13.2252600  64.2780240  83.1462230  12.0029360  63.9429940
  84.5968720  11.4875970  51.5934230  85.4919510  11.8260940  51.6152990
  84.6286350  10.7655380  50.9658510  78.2364880   6.8603020  49.8221230
  78.6739750   7.4032690  50.4778810  78.7212610   6.0349970  49.8317570
  75.4510680   9.6492050  57.2741490  75.7813690   8.7813110  57.0420130
  75.8801680   9.8550570  58.1046450  80.0472600   7.9801060  54.9343460
  79.7468140   7.8566030  55.8347370  79.9410090   7.1209650  54.5259190
  75.9400890  10.5162640  60.0123120  75.5031880  10.6963440  60.8447270
  76.5078570  11.2737260  59.8704840  75.7725320   3.0282870  56.3712000
  75.1174160   2.7594510  55.7271700  76.6103270   2.9187350  55.9213980
  90.2614710   6.7431620  62.3976590  89.4474550   7.1728780  62.6602380
  90.6688910   7.3550030  61.7845640  76.8101250   3.4135440  60.9115340
  77.1774290   3.3262840  61.7911360  76.2412070   2.6501990  60.8122200
  90.3190760  11.4950220  55.9244860  90.9149830  11.1734790  55.2479280
  90.5768910  11.0222040  56.7158130  78.2253330   7.9268130  66.0735490
  78.1822960   7.5561040  66.9549950  78.3564340   8.8645700  66.2137310
  81.9259360   9.4827720  61.6745210  81.6850720   9.7502280  60.7875730
  82.8662000   9.6533450  61.7296070  78.0641360  10.8730380  63.1933270
  77.4701680  10.7415080  63.9323310  78.0565200  10.0368520  62.7275370
  90.8702970  12.1445520  59.7542590  90.4105940  12.8961330  59.3800610
  90.2415430  11.4251990  59.6957390  77.6953590   8.2388760  62.1441310
  76.9687650   7.6194050  62.0767260  77.7562740   8.6329370  61.2739390
  81.2998690  10.4533760  58.9290720  81.8163710   9.8421120  58.4038980
  81.9496070  10.9562540  59.4201730  84.0394190  11.3442250  59.7559700
  84.3272000  11.0896550  58.8792710  84.5517410  10.7919610  60.3465270
  75.9783590  11.5563150  55.3538070  75.8105630  10.9233830  56.0519960
  75.1118100  11.7622550  55.0032260  77.5846290  10.2496380  52.7988210
  77.0593910  10.6304410  52.0950170  77.5090870  10.8747150  53.5197920
  84.1066550  12.2658350  67.1227900  85.0333860  12.0302620  67.1663860
  84.0916980  13.0930350  66.6413930  80.1839260  12.1978760  51.6737460
  80.9158080  11.9138040  51.1261350  80.4432930  11.9592040  52.5636840
  79.3454050   8.3143490  51.6783790  78.7162930   8.7828590  52.2269620
  79.4601880   7.4692710  52.1129980  90.6744110  11.4928210  66.9468940
  91.4669430  10.9977440  66.7394900  90.9677260  12.1718350  67.5544550
  84.9321810   4.1428170  39.7094260  84.1563910   3.6628610  39.9992830
  85.5834740   3.4633820  39.5350420  78.9487640   4.4547980  40.5870020
  78.1172520   4.1996690  40.9866530  79.5568620   4.5258750  41.3227940
  88.9529240   8.5488360  38.4893390  88.4910770   7.7775600  38.8180560
  89.7654790   8.5754430  38.9945840  78.9288900   8.4888070  40.7828040
  79.2316940   7.5985810  40.6038260  79.6732490   9.0458290  40.5550290
  85.1792550  10.8346370  38.1097380  84.5603990  11.2903870  37.5391820
  86.0344330  10.9897830  37.7087080  84.3730800   6.8185360  39.7164420
  84.3039080   5.8775300  39.5553550  85.1350660   6.9086770  40.2886990
  86.0455900   5.7185610  35.5029290  85.4273170   6.1835060  34.9392010
  86.5579150   6.4113090  35.9198800  80.9087660   5.2461480  42.1812890
  80.5757040   5.8730400  42.8233960  81.0854340   5.7723360  41.4014560
  80.1206760   7.2142280  43.9962070  80.7380760   7.8893360  43.7146520
  79.2599880   7.6230260  43.9049570  75.4139100   6.4042140  32.8768920
  75.0367080   6.8929240  32.1453820  75.6712170   7.0767420  33.5075450
  88.5743090  10.5225820  40.6261890  88.5870250  10.1188110  39.7584150
  88.0218310  11.2973110  40.5223320  89.8688510   7.2442040  35.7152060
  89.7584840   6.3016370  35.8401480  89.8656760   7.6057680  36.6014820
  87.9728530   5.4255660  41.9544500  88.3897320   5.2115770  41.1197960
  88.6968350   5.6828450  42.5253120  85.4108790   2.8707360  35.0714550
  84.4838070   2.8044740  35.3003020  85.5633610   3.8087490  34.9569790
  89.4406080   4.4327660  35.5749800  88.8218500   4.0947210  34.9276100
  89.4230530   3.7887420  36.2828990  81.0165430   3.3972100  37.8534280
  80.6122430   2.6849350  37.3580180  81.1028550   3.0525340  38.7422320
  81.4847130   7.0839660  40.0173490  81.1875420   6.4785130  39.3381270
  82.4346950   7.1216970  39.9062850  89.5732740  10.6571530  43.6796590
  89.0963300  11.4643720  43.4869200  88.8894530  10.0049860  43.8322800
  80.5765560   6.8221350  46.6681290  79.6794090   7.0461320  46.9154690
  80.6018430   6.9456290  45.7192690  87.6170780   3.6714470  32.5822550
  88.0564060   2.8336900  32.4360370  88.3299200   4.3043870  32.6686690
  79.4036780   3.6934670  45.2438660  79.2644550   4.5657470  45.6126060
  78.5218140   3.3507480  45.0986600  85.7266160   8.6110540  36.5503790
  86.1662070   9.3534870  36.1359180  85.6653050   8.8537110  37.4742750
  81.2017130   9.6356370  47.4523810  81.1732560  10.0399320  46.5852240
  81.0382100   8.7066730  47.2895410  77.7170060   2.2917080  35.3540930
  77.5967660   3.0179170  34.7422200  77.4070950   1.5219990  34.8768840
  75.3555430   5.4632220  41.1609570  75.4335850   5.5980990  40.2165290
  75.9697110   4.7548110  41.3537690  76.6003060   7.1632410  37.5715750
  76.1931140   7.3047000  36.7169350  77.4916070   6.8792570  37.3686960
  86.4181940  11.3124320  44.4782800  86.9326610  11.2232330  45.2805230
  85.5751020  11.6584020  44.7710710  88.3936340  11.5979660  33.9066800
  88.2337480  11.3082600  34.8048630  88.2283050  10.8219790  33.3712030
  80.8724720  11.3778190  35.6838420  80.6967200  10.4613730  35.4706220
  80.0180460  11.7365480  35.9236220  88.0962470   9.1067220  32.4664800
  87.4027630   9.1044510  31.8067080  88.8385330   8.6826540  32.0358970
  87.6612400  10.7329930  36.5413290  88.1169350   9.9519310  36.8551910
  88.0004920  11.4436750  37.0854470  75.4114950   6.5046390  43.7004030
  75.5745990   6.0351750  42.8823400  75.8767400   5.9969950  44.3652870
  81.9084750   1.9785800  31.9833110  81.3401650   1.5304050  31.3569020
  82.6173750   2.3378580  31.4498260  76.9853930   5.8797820  45.8599840
  76.6008720   5.2391490  46.4582800  77.2966120   6.5833940  46.4294570
  83.1351070   2.7274360  41.3408460  83.5021200   2.2532930  42.0869800
  82.9456130   3.6015930  41.6816800  80.9250440   1.7683000  43.6592670
  80.6207510   2.6474980  43.8843030  81.8796900   1.8282790  43.6950110
  79.4532230   5.9743990  34.2559520  78.6794490   5.4341610  34.0958240
  80.1826860   5.4550600  33.9177280  90.2120210   4.9709350  40.0485910
  90.9319330   5.4664640  39.6582020  90.0102030   4.2927240  39.4039780
  85.5939010   5.0418410  45.9354910  85.5276320   4.1214080  45.6812500
  84.9644150   5.1393850  46.6499550  79.4969630   5.6424370  37.8938330
  80.0148300   4.8392630  37.8395220  79.0453650   5.5803510  38.7355160
  84.3839130   6.9090650  33.1665630  84.7254830   7.6532880  32.6708950
  83.5551840   7.2221770  33.5290460  76.9814170   2.6085740  44.8064030
  76.6229110   3.2739590  45.3937370  76.6868730   1.7769290  45.1776650
  80.1827290   3.0669980  47.6903580  79.8827430   3.2127160  46.7931400
  80.9538530   2.5075270  47.5976970  85.5255740   7.8638980  45.6858710
  85.5400280   6.9319940  45.4677620  84.8180840   7.9498740  46.3248480
  90.6592810   2.0478800  31.9557320  90.5756530   2.4793020  31.1053760
  91.3787000   2.5077150  32.3884140  87.2666540   6.2306490  38.5311140
  87.6190360   5.6334620  37.8712510  86.3828870   5.9050720  38.7019390
  83.3529820   6.9904180  35.9381550  84.0400950   7.5373390  36.3189140
  82.5662240   7.5344910  35.9731160  75.4922220   2.6077000  31.4298630
  76.3617070   2.8901800  31.7134550  75.0012540   3.4212870  31.3147440
  82.6557030   3.9950210  35.5506910  83.1119810   4.8055460  35.7767100
  82.3045240   3.6773350  36.3825400  84.9589640   9.5056550  42.7799210
  85.6031860   9.7115930  43.4572630  85.3219080   8.7444950  42.3270060
  86.2321720   7.5088900  41.4976660  86.8743950   6.8082060  41.6108830
  86.7571070   8.2887340  41.3173550  90.0777440   7.7937520  31.2215800
  89.8515020   7.0767960  31.8140440  89.6873640   7.5449960  30.3837550
  88.0059340   8.3083800  44.7012720  88.3415580   8.8950490  45.3790640
  87.0859680   8.1776510  44.9310510  75.8593470  11.8204380  31.9960260
  76.2191110  12.4193720  31.3417530  75.7185810  12.3664270  32.7695290
  89.6593690   5.7109460  32.8829960  89.3715390   6.1722150  33.6707840
  90.4545860   5.2507230  33.1514180  75.8435330  10.0859240  46.4702660
  75.9526450   9.1453980  46.3298050  75.1915890  10.3513990  45.8216390
  83.8347920   8.3575130  47.8700780  83.5144790   7.6384370  48.4146470
  83.1606280   9.0330200  47.9436840  81.8762090   9.2035580  32.8133930
  81.8672190   9.9365270  32.1978440  80.9560450   8.9567160  32.9060890
  77.4768730   4.4250470  33.5580690  76.8696680   5.1649370  33.5675990
  77.9518080   4.5149830  32.7318890  84.8621690   9.2663820  31.4759120
  84.9633670   9.0627810  30.5461100  83.9623430   9.0122100  31.6806900
  83.5039800  11.7850140  36.1706790  83.7581300  11.7471530  35.2486160
  82.5552280  11.6583470  36.1635040  89.5092380   2.7042020  37.7465300
  88.5682520   2.7192250  37.9212990  89.8236450   1.9177980  38.1925600
  79.4874020   4.3861620  31.3069260  80.2537290   4.2742980  31.8694690
  79.5648710   3.6899590  30.6546030  78.9835490  11.9682080  39.0936690
  79.7197970  11.4197540  39.3645260  79.3676410  12.8338090  38.9542680
  75.8680970   8.0355650  34.9678200  74.9420750   8.2776790  34.9583610
  76.3337400   8.8629910  34.8462950  77.9893770  11.1528150  48.2822270
  78.7906500  11.4740200  48.6957670  77.4745590  10.7923730  49.0042180
  82.0937800  11.1412390  30.9162260  82.8866410  11.4301220  30.4644050
  81.5742150  10.7104560  30.2374740  86.8258400   7.2608020  48.2297680
  86.2196560   7.2839620  47.4893430  86.5212510   6.5291060  48.7664930
  88.2558770  10.9888310  46.8407090  89.2080520  10.9046330  46.7907330
  88.1086990  11.6530020  47.5140880  91.1467970  10.3682520  32.3399000
  90.8609480   9.9547660  31.5253180  90.9487520  11.2970230  32.2199520
  75.7091580   3.6401610  47.2258320  76.2130600   3.0608890  47.7974550
  74.9699000   3.9241840  47.7634690  82.6115200   6.3615800  30.7804610
  82.5065840   5.7468150  31.5065990  82.4439420   5.8381690  29.9967620
  82.7629520   5.0472600  46.7593840  81.9975190   5.6157600  46.6748510
  82.9445480   4.7548810  45.8662070  85.8517930   5.4235830  31.3846600
  85.3028030   5.8705130  32.0289340  86.4737190   4.9185080  31.9084270
  89.9052870   6.7777930  47.3168860  90.6462340   7.1153690  46.8136320
  89.1425550   6.9469990  46.7638630  77.7414660   1.7831200  48.1208390
  77.7820000   1.4845070  49.0293620  78.5960160   2.1838810  47.9615910
  81.5193050   4.3826750  33.2811900  81.9409470   4.2166620  34.1243290
  81.6443890   3.5726980  32.7867040  84.0320690   3.4064360  30.5289000
  84.5526350   2.6913380  30.1630150  84.6789090   4.0450230  30.8289510
  88.5798530   4.8292760  45.8524070  88.9939550   4.9837840  46.7014490
  87.6449530   4.9547980  46.0149850  83.3413760   4.7813240  43.8220000
  83.7601870   5.6245970  43.6496240  82.4222390   4.9185280  43.5926780
  85.6777660   2.5129420  45.2057840  85.7973870   1.9170560  45.9452680
  86.5371660   2.5499110  44.7859140  88.0165560   3.0666610  43.7820350
  87.4900780   3.5909230  43.1785490  88.3596900   3.6994000  44.4130080
  81.1921180  11.0866250  44.9377730  80.6542270  11.8112310  44.6186430
  81.4455140  10.6096590  44.1475070  84.0483390  12.3217460  45.1964380
  83.9742090  13.2252600  45.5036750  83.1462230  12.0029360  45.1686450
  84.5968720  11.4875970  32.8190740  85.4919510  11.8260940  32.8409500
  84.6286350  10.7655380  32.1915020  78.2364880   6.8603020  31.0477740
  78.6739750   7.4032690  31.7035320  78.7212610   6.0349970  31.0574080
  75.4510680   9.6492050  38.4998000  75.7813690   8.7813110  38.2676640
  75.8801680   9.8550570  39.3302960  80.0472600   7.9801060  36.1599970
  79.7468140   7.8566030  37.0603880  79.9410090   7.1209650  35.7515700
  75.9400890  10.5162640  41.2379630  75.5031880  10.6963440  42.0703780
  76.5078570  11.2737260  41.0961350  75.7725320   3.0282870  37.5968510
  75.1174160   2.7594510  36.9528210  76.6103270   2.9187350  37.1470490
  90.2614710   6.7431620  43.6233100  89.4474550   7.1728780  43.8858890
  90.6688910   7.3550030  43.0102150  76.8101250   3.4135440  42.1371850
  77.1774290   3.3262840  43.0167870  76.2412070   2.6501990  42.0378710
  90.3190760  11.4950220  37.1501370  90.9149830  11.1734790  36.4735790
  90.5768910  11.0222040  37.9414640  78.2253330   7.9268130  47.2992000
  78.1822960   7.5561040  48.1806460  78.3564340   8.8645700  47.4393820
  81.9259360   9.4827720  42.9001720  81.6850720   9.7502280  42.0132240
  82.8662000   9.6533450  42.9552580  78.0641360  10.8730380  44.4189780
  77.4701680  10.7415080  45.1579820  78.0565200  10.0368520  43.9531880
  90.8702970  12.1445520  40.9799100  90.4105940  12.8961330  40.6057120
  90.2415430  11.4251990  40.9213900  77.6953590   8.2388760  43.3697820
  76.9687650   7.6194050  43.3023770  77.7562740   8.6329370  42.4995900
  81.2998690  10.4533760  40.1547230  81.8163710   9.8421120  39.6295490
  81.9496070  10.9562540  40.6458240  84.0394190  11.3442250  40.9816210
  84.3272000  11.0896550  40.1049220  84.5517410  10.7919610  41.5721780
  75.9783590  11.5563150  36.5794580  75.8105630  10.9233830  37.2776470
  75.1118100  11.7622550  36.2288770  77.5846290  10.2496380  34.0244720
  77.0593910  10.6304410  33.3206680  77.5090870  10.8747150  34.7454430
  84.1066550  12.2658350  48.3484410  85.0333860  12.0302620  48.3920370
  84.0916980  13.0930350  47.8670440  80.1839260  12.1978760  32.8993970
  80.9158080  11.9138040  32.3517860  80.4432930  11.9592040  33.7893350
  79.3454050   8.3143490  32.9040300  78.7162930   8.7828590  33.4526130
  79.4601880   7.4692710  33.3386490  90.6744110  11.4928210  48.1725450
  91.4669430  10.9977440  47.9651410  90.9677260  12.1718350  48.7801060
  84.9321810   4.1428170  20.9350770  84.1563910   3.6628610  21.2249340
  85.5834740   3.4633820  20.7606930  78.9487640   4.4547980  21.8126530
  78.1172520   4.1996690  22.2123040  79.5568620   4.5258750  22.5484450
  88.9529240   8.5488360  19.7149900  88.4910770   7.7775600  20.0437070
  89.7654790   8.5754430  20.2202350  78.9288900   8.4888070  22.0084550
  79.2316940   7.5985810  21.8294770  79.6732490   9.0458290  21.7806800
  85.1792550  10.8346370  19.3353890  84.5603990  11.2903870  18.7648330
  86.0344330  10.9897830  18.9343590  84.3730800   6.8185360  20.9420930
  84.3039080   5.8775300  20.7810060  85.1350660   6.9086770  21.5143500
  86.0455900   5.7185610  16.7285800  85.4273170   6.1835060  16.1648520
  86.5579150   6.4113090  17.1455310  80.9087660   5.2461480  23.4069400
  80.5757040   5.8730400  24.0490470  81.0854340   5.7723360  22.6271070
  80.1206760   7.2142280  25.2218580  80.7380760   7.8893360  24.9403030
  79.2599880   7.6230260  25.1306080  75.4139100   6.4042140  14.1025430
  75.0367080   6.8929240  13.3710330  75.6712170   7.0767420  14.7331960
  88.5743090  10.5225820  21.8518400  88.5870250  10.1188110  20.9840660
  88.0218310  11.2973110  21.7479830  89.8688510   7.2442040  16.9408570
  89.7584840   6.3016370  17.0657990  89.8656760   7.6057680  17.8271330
  87.9728530   5.4255660  23.1801010  88.3897320   5.2115770  22.3454470
  88.6968350   5.6828450  23.7509630  85.4108790   2.8707360  16.2971060
  84.4838070   2.8044740  16.5259530  85.5633610   3.8087490  16.1826300
  89.4406080   4.4327660  16.8006310  88.8218500   4.0947210  16.1532610
  89.4230530   3.7887420  17.5085500  81.0165430   3.3972100  19.0790790
  80.6122430   2.6849350  18.5836690  81.1028550   3.0525340  19.9678830
  81.4847130   7.0839660  21.2430000  81.1875420   6.4785130  20.5637780
  82.4346950   7.1216970  21.1319360  89.5732740  10.6571530  24.9053100
  89.0963300  11.4643720  24.7125710  88.8894530  10.0049860  25.0579310
  80.5765560   6.8221350  27.8937800  79.6794090   7.0461320  28.1411200
  80.6018430   6.9456290  26.9449200  87.6170780   3.6714470  13.8079060
  88.0564060   2.8336900  13.6616880  88.3299200   4.3043870  13.8943200
  79.4036780   3.6934670  26.4695170  79.2644550   4.5657470  26.8382570
  78.5218140   3.3507480  26.3243110  85.7266160   8.6110540  17.7760300
  86.1662070   9.3534870  17.3615690  85.6653050   8.8537110  18.6999260
  81.2017130   9.6356370  28.6780320  81.1732560  10.0399320  27.8108750
  81.0382100   8.7066730  28.5151920  77.7170060   2.2917080  16.5797440
  77.5967660   3.0179170  15.9678710  77.4070950   1.5219990  16.1025350
  75.3555430   5.4632220  22.3866080  75.4335850   5.5980990  21.4421800
  75.9697110   4.7548110  22.5794200  76.6003060   7.1632410  18.7972260
  76.1931140   7.3047000  17.9425860  77.4916070   6.8792570  18.5943470
  86.4181940  11.3124320  25.7039310  86.9326610  11.2232330  26.5061740
  85.5751020  11.6584020  25.9967220  88.3936340  11.5979660  15.1323310
  88.2337480  11.3082600  16.0305140  88.2283050  10.8219790  14.5968540
  80.8724720  11.3778190  16.9094930  80.6967200  10.4613730  16.6962730
  80.0180460  11.7365480  17.1492730  88.0962470   9.1067220  13.6921310
  87.4027630   9.1044510  13.0323590  88.8385330   8.6826540  13.2615480
  87.6612400  10.7329930  17.7669800  88.1169350   9.9519310  18.0808420
  88.0004920  11.4436750  18.3110980  75.4114950   6.5046390  24.9260540
  75.5745990   6.0351750  24.1079910  75.8767400   5.9969950  25.5909380
  81.9084750   1.9785800  13.2089620  81.3401650   1.5304050  12.5825530
  82.6173750   2.3378580  12.6754770  76.9853930   5.8797820  27.0856350
  76.6008720   5.2391490  27.6839310  77.2966120   6.5833940  27.6551080
  83.1351070   2.7274360  22.5664970  83.5021200   2.2532930  23.3126310
  82.9456130   3.6015930  22.9073310  80.9250440   1.7683000  24.8849180
  80.6207510   2.6474980  25.1099540  81.8796900   1.8282790  24.9206620
  79.4532230   5.9743990  15.4816030  78.6794490   5.4341610  15.3214750
  80.1826860   5.4550600  15.1433790  90.2120210   4.9709350  21.2742420
  90.9319330   5.4664640  20.8838530  90.0102030   4.2927240  20.6296290
  85.5939010   5.0418410  27.1611420  85.5276320   4.1214080  26.9069010
  84.9644150   5.1393850  27.8756060  79.4969630   5.6424370  19.1194840
  80.0148300   4.8392630  19.0651730  79.0453650   5.5803510  19.9611670
  84.3839130   6.9090650  14.3922140  84.7254830   7.6532880  13.8965460
  83.5551840   7.2221770  14.7546970  76.9814170   2.6085740  26.0320540
  76.6229110   3.2739590  26.6193880  76.6868730   1.7769290  26.4033160
  80.1827290   3.0669980  28.9160090  79.8827430   3.2127160  28.0187910
  80.9538530   2.5075270  28.8233480  85.5255740   7.8638980  26.9115220
  85.5400280   6.9319940  26.6934130  84.8180840   7.9498740  27.5504990
  90.6592810   2.0478800  13.1813830  90.5756530   2.4793020  12.3310270
  91.3787000   2.5077150  13.6140650  87.2666540   6.2306490  19.7567650
  87.6190360   5.6334620  19.0969020  86.3828870   5.9050720  19.9275900
  83.3529820   6.9904180  17.1638060  84.0400950   7.5373390  17.5445650
  82.5662240   7.5344910  17.1987670  75.4922220   2.6077000  12.6555140
  76.3617070   2.8901800  12.9391060  75.0012540   3.4212870  12.5403950
  82.6557030   3.9950210  16.7763420  83.1119810   4.8055460  17.0023610
  82.3045240   3.6773350  17.6081910  84.9589640   9.5056550  24.0055720
  85.6031860   9.7115930  24.6829140  85.3219080   8.7444950  23.5526570
  86.2321720   7.5088900  22.7233170  86.8743950   6.8082060  22.8365340
  86.7571070   8.2887340  22.5430060  90.0777440   7.7937520  12.4472310
  89.8515020   7.0767960  13.0396950  89.6873640   7.5449960  11.6094060
  88.0059340   8.3083800  25.9269230  88.3415580   8.8950490  26.6047150
  87.0859680   8.1776510  26.1567020  75.8593470  11.8204380  13.2216770
  76.2191110  12.4193720  12.5674040  75.7185810  12.3664270  13.9951800
  89.6593690   5.7109460  14.1086470  89.3715390   6.1722150  14.8964350
  90.4545860   5.2507230  14.3770690  75.8435330  10.0859240  27.6959170
  75.9526450   9.1453980  27.5554560  75.1915890  10.3513990  27.0472900
  83.8347920   8.3575130  29.0957290  83.5144790   7.6384370  29.6402980
  83.1606280   9.0330200  29.1693350  81.8762090   9.2035580  14.0390440
  81.8672190   9.9365270  13.4234950  80.9560450   8.9567160  14.1317400
  77.4768730   4.4250470  14.7837200  76.8696680   5.1649370  14.7932500
  77.9518080   4.5149830  13.9575400  84.8621690   9.2663820  12.7015630
  84.9633670   9.0627810  11.7717610  83.9623430   9.0122100  12.9063410
  83.5039800  11.7850140  17.3963300  83.7581300  11.7471530  16.4742670
  82.5552280  11.6583470  17.3891550  89.5092380   2.7042020  18.9721810
  88.5682520   2.7192250  19.1469500  89.8236450   1.9177980  19.4182110
  79.4874020   4.3861620  12.5325770  80.2537290   4.2742980  13.0951200
  79.5648710   3.6899590  11.8802540  78.9835490  11.9682080  20.3193200
  79.7197970  11.4197540  20.5901770  79.3676410  12.8338090  20.1799190
  75.8680970   8.0355650  16.1934710  74.9420750   8.2776790  16.1840120
  76.3337400   8.8629910  16.0719460  77.9893770  11.1528150  29.5078780
  78.7906500  11.4740200  29.9214180  77.4745590  10.7923730  30.2298690
  82.0937800  11.1412390  12.1418770  82.8866410  11.4301220  11.6900560
  81.5742150  10.7104560  11.4631250  86.8258400   7.2608020  29.4554190
  86.2196560   7.2839620  28.7149940  86.5212510   6.5291060  29.9921440
  88.2558770  10.9888310  28.0663600  89.2080520  10.9046330  28.0163840
  88.1086990  11.6530020  28.7397390  91.1467970  10.3682520  13.5655510
  90.8609480   9.9547660  12.7509690  90.9487520  11.2970230  13.4456030
  75.7091580   3.6401610  28.4514830  76.2130600   3.0608890  29.0231060
  74.9699000   3.9241840  28.9891200  82.6115200   6.3615800  12.0061120
  82.5065840   5.7468150  12.7322500  82.4439420   5.8381690  11.2224130
  82.7629520   5.0472600  27.9850350  81.9975190   5.6157600  27.9005020
  82.9445480   4.7548810  27.0918580  85.8517930   5.4235830  12.6103110
  85.3028030   5.8705130  13.2545850  86.4737190   4.9185080  13.1340780
  89.9052870   6.7777930  28.5425370  90.6462340   7.1153690  28.0392830
  89.1425550   6.9469990  27.9895140  77.7414660   1.7831200  29.3464900
  77.7820000   1.4845070  30.2550130  78.5960160   2.1838810  29.1872420
  81.5193050   4.3826750  14.5068410  81.9409470   4.2166620  15.3499800
  81.6443890   3.5726980  14.0123550  84.0320690   3.4064360  11.7545510
  84.5526350   2.6913380  11.3886660  84.6789090   4.0450230  12.0546020
  88.5798530   4.8292760  27.0780580  88.9939550   4.9837840  27.9271000
  87.6449530   4.9547980  27.2406360  83.3413760   4.7813240  25.0476510
  83.7601870   5.6245970  24.8752750  82.4222390   4.9185280  24.8183290
  85.6777660   2.5129420  26.4314350  85.7973870   1.9170560  27.1709190
  86.5371660   2.5499110  26.0115650  88.0165560   3.0666610  25.0076860
  87.4900780   3.5909230  24.4042000  88.3596900   3.6994000  25.6386590
  81.1921180  11.0866250  26.1634240  80.6542270  11.8112310  25.8442940
  81.4455140  10.6096590  25.3731580  84.0483390  12.3217460  26.4220890
  83.9742090  13.2252600  26.7293260  83.1462230  12.0029360  26.3942960
  84.5968720  11.4875970  14.0447250  85.4919510  11.8260940  14.0666010
  84.6286350  10.7655380  13.4171530  78.2364880   6.8603020  12.2734250
  78.6739750   7.4032690  12.9291830  78.7212610   6.0349970  12.2830590
  75.4510680   9.6492050  19.7254510  75.7813690   8.7813110  19.4933150
  75.8801680   9.8550570  20.5559470  80.0472600   7.9801060  17.3856480
  79.7468140   7.8566030  18.2860390  79.9410090   7.1209650  16.9772210
  75.9400890  10.5162640  22.4636140  75.5031880  10.6963440  23.2960290
  76.5078570  11.2737260  22.3217860  75.7725320   3.0282870  18.8225020
  75.1174160   2.7594510  18.1784720  76.6103270   2.9187350  18.3727000
  90.2614710   6.7431620  24.8489610  89.4474550   7.1728780  25.1115400
  90.6688910   7.3550030  24.2358660  76.8101250   3.4135440  23.3628360
  77.1774290   3.3262840  24.2424380  76.2412070   2.6501990  23.2635220
  90.3190760  11.4950220  18.3757880  90.9149830  11.1734790  17.6992300
  90.5768910  11.0222040  19.1671150  78.2253330   7.9268130  28.5248510
  78.1822960   7.5561040  29.4062970  78.3564340   8.8645700  28.6650330
  81.9259360   9.4827720  24.1258230  81.6850720   9.7502280  23.2388750
  82.8662000   9.6533450  24.1809090  78.0641360  10.8730380  25.6446290
  77.4701680  10.7415080  26.3836330  78.0565200  10.0368520  25.1788390
  90.8702970  12.1445520  22.2055610  90.4105940  12.8961330  21.8313630
  90.2415430  11.4251990  22.1470410  77.6953590   8.2388760  24.5954330
  76.9687650   7.6194050  24.5280280  77.7562740   8.6329370  23.7252410
  81.2998690  10.4533760  21.3803740  81.8163710   9.8421120  20.8552000
  81.9496070  10.9562540  21.8714750  84.0394190  11.3442250  22.2072720
  84.3272000  11.0896550  21.3305730  84.5517410  10.7919610  22.7978290
  75.9783590  11.5563150  17.8051090  75.8105630  10.9233830  18.5032980
  75.1118100  11.7622550  17.4545280  77.5846290  10.2496380  15.2501230
  77.0593910  10.6304410  14.5463190  77.5090870  10.8747150  15.9710940
  84.1066550  12.2658350  29.5740920  85.0333860  12.0302620  29.6176880
  84.0916980  13.0930350  29.0926950  80.1839260  12.1978760  14.1250480
  80.9158080  11.9138040  13.5774370  80.4432930  11.9592040  15.0149860
  79.3454050   8.3143490  14.1296810  78.7162930   8.7828590  14.6782640
  79.4601880   7.4692710  14.5643000  90.6744110  11.4928210  29.3981960
  91.4669430  10.9977440  29.1907920  90.9677260  12.1718350  30.0057570
  84.9321810   4.1428170   2.1607280  84.1563910   3.6628610   2.4505850
  85.5834740   3.4633820   1.9863440  78.9487640   4.4547980   3.0383040
  78.1172520   4.1996690   3.4379550  79.5568620   4.5258750   3.7740960
  78.9288900   8.4888070   3.2341060  79.2316940   7.5985810   3.0551280
  79.6732490   9.0458290   3.0063310  84.3730800   6.8185360   2.1677440
  84.3039080   5.8775300   2.0066570  85.1350660   6.9086770   2.7400010
  80.9087660   5.2461480   4.6325910  80.5757040   5.8730400   5.2746980
  81.0854340   5.7723360   3.8527580  80.1206760   7.2142280   6.4475090
  80.7380760   7.8893360   6.1659540  79.2599880   7.6230260   6.3562590
  88.5743090  10.5225820   3.0774910  88.5870250  10.1188110   2.2097170
  88.0218310  11.2973110   2.9736340  87.9728530   5.4255660   4.4057520
  88.3897320   5.2115770   3.5710980  88.6968350   5.6828450   4.9766140
  81.4847130   7.0839660   2.4686510  81.1875420   6.4785130   1.7894290
  82.4346950   7.1216970   2.3575870  89.5732740  10.6571530   6.1309610
  89.0963300  11.4643720   5.9382220  88.8894530  10.0049860   6.2835820
  80.5765560   6.8221350   9.1194310  79.6794090   7.0461320   9.3667710
  80.6018430   6.9456290   8.1705710  79.4036780   3.6934670   7.6951680
  79.2644550   4.5657470   8.0639080  78.5218140   3.3507480   7.5499620
  81.2017130   9.6356370   9.9036830  81.1732560  10.0399320   9.0365260
  81.0382100   8.7066730   9.7408430  75.3555430   5.4632220   3.6122590
  75.4335850   5.5980990   2.6678310  75.9697110   4.7548110   3.8050710
  86.4181940  11.3124320   6.9295820  86.9326610  11.2232330   7.7318250
  85.5751020  11.6584020   7.2223730  75.4114950   6.5046390   6.1517050
  75.5745990   6.0351750   5.3336420  75.8767400   5.9969950   6.8165890
  76.9853930   5.8797820   8.3112860  76.6008720   5.2391490   8.9095820
  77.2966120   6.5833940   8.8807590  83.1351070   2.7274360   3.7921480
  83.5021200   2.2532930   4.5382820  82.9456130   3.6015930   4.1329820
  80.9250440   1.7683000   6.1105690  80.6207510   2.6474980   6.3356050
  81.8796900   1.8282790   6.1463130  90.2120210   4.9709350   2.4998930
  90.9319330   5.4664640   2.1095040  90.0102030   4.2927240   1.8552800
  85.5939010   5.0418410   8.3867930  85.5276320   4.1214080   8.1325520
  84.9644150   5.1393850   9.1012570  76.9814170   2.6085740   7.2577050
  76.6229110   3.2739590   7.8450390  76.6868730   1.7769290   7.6289670
  80.1827290   3.0669980  10.1416600  79.8827430   3.2127160   9.2444420
  80.9538530   2.5075270  10.0489990  85.5255740   7.8638980   8.1371730
  85.5400280   6.9319940   7.9190640  84.8180840   7.9498740   8.7761500
  84.9589640   9.5056550   5.2312230  85.6031860   9.7115930   5.9085650
  85.3219080   8.7444950   4.7783080  86.2321720   7.5088900   3.9489680
  86.8743950   6.8082060   4.0621850  86.7571070   8.2887340   3.7686570
  88.0059340   8.3083800   7.1525740  88.3415580   8.8950490   7.8303660
  87.0859680   8.1776510   7.3823530  75.8435330  10.0859240   8.9215680
  75.9526450   9.1453980   8.7811070  75.1915890  10.3513990   8.2729410
  83.8347920   8.3575130  10.3213800  83.5144790   7.6384370  10.8659490
  83.1606280   9.0330200  10.3949860  77.9893770  11.1528150  10.7335290
  78.7906500  11.4740200  11.1470690  77.4745590  10.7923730  11.4555200
  86.8258400   7.2608020  10.6810700  86.2196560   7.2839620   9.9406450
  86.5212510   6.5291060  11.2177950  88.2558770  10.9888310   9.2920110
  89.2080520  10.9046330   9.2420350  88.1086990  11.6530020   9.9653900
  75.7091580   3.6401610   9.6771340  76.2130600   3.0608890  10.2487570
  74.9699000   3.9241840  10.2147710  82.7629520   5.0472600   9.2106860
  81.9975190   5.6157600   9.1261530  82.9445480   4.7548810   8.3175090
  89.9052870   6.7777930   9.7681880  90.6462340   7.1153690   9.2649340
  89.1425550   6.9469990   9.2151650  77.7414660   1.7831200  10.5721410
  77.7820000   1.4845070  11.4806640  78.5960160   2.1838810  10.4128930
  88.5798530   4.8292760   8.3037090  88.9939550   4.9837840   9.1527510
  87.6449530   4.9547980   8.4662870  83.3413760   4.7813240   6.2733020
  83.7601870   5.6245970   6.1009260  82.4222390   4.9185280   6.0439800
  85.6777660   2.5129420   7.6570860  85.7973870   1.9170560   8.3965700
  86.5371660   2.5499110   7.2372160  88.0165560   3.0666610   6.2333370
  87.4900780   3.5909230   5.6298510  88.3596900   3.6994000   6.8643100
  81.1921180  11.0866250   7.3890750  80.6542270  11.8112310   7.0699450
  81.4455140  10.6096590   6.5988090  84.0483390  12.3217460   7.6477400
  83.9742090  13.2252600   7.9549770  83.1462230  12.0029360   7.6199470
  75.9400890  10.5162640   3.6892650  75.5031880  10.6963440   4.5216800
  76.5078570  11.2737260   3.5474370  90.2614710   6.7431620   6.0746120
  89.4474550   7.1728780   6.3371910  90.6688910   7.3550030   5.4615170
  76.8101250   3.4135440   4.5884870  77.1774290   3.3262840   5.4680890
  76.2412070   2.6501990   4.4891730  78.2253330   7.9268130   9.7505020
  78.1822960   7.5561040  10.6319480  78.3564340   8.8645700   9.8906840
  81.9259360   9.4827720   5.3514740  81.6850720   9.7502280   4.4645260
  82.8662000   9.6533450   5.4065600  78.0641360  10.8730380   6.8702800
  77.4701680  10.7415080   7.6092840  78.0565200  10.0368520   6.4044900
  90.8702970  12.1445520   3.4312120  90.4105940  12.8961330   3.0570140
  90.2415430  11.4251990   3.3726920  77.6953590   8.2388760   5.8210840
  76.9687650   7.6194050   5.7536790  77.7562740   8.6329370   4.9508920
  81.2998690  10.4533760   2.6060250  81.8163710   9.8421120   2.0808510
  81.9496070  10.9562540   3.0971260  84.0394190  11.3442250   3.4329230
  84.3272000  11.0896550   2.5562240  84.5517410  10.7919610   4.0234800
  84.1066550  12.2658350  10.7997430  85.0333860  12.0302620  10.8433390
  84.0916980  13.0930350  10.3183460  90.6744110  11.4928210  10.6238470
  91.4669430  10.9977440  10.4164430  90.9677260  12.1718350  11.2314080
  68.0260280  96.2366600  75.3771970  67.9454330  95.3221210  75.1063680
  67.6124700  96.7333670  74.6711680  58.5836100  93.2867320  71.9199390
  57.6952800  93.6283290  71.8179270  58.8677290  93.0867640  71.0280220
  60.7597490  91.8698820  72.9537770  60.8664240  92.7702550  73.2606530
  59.8489850  91.8216790  72.6632420  70.4116600  90.9923630  74.4248670
  71.2326220  90.5020200  74.4674150  70.4450680  91.5821290  75.1780510
  64.2484540  88.6775980  75.8841410  64.5559520  88.1222870  75.1676910
  63.3185240  88.8120440  75.7014400  66.6365300  96.7424810  72.6201530
  65.7094580  96.6762190  72.8490000  66.7890120  97.6804940  72.5056770
  66.6234380  93.0141810  69.6168690  65.6838050  93.1755770  69.7021150
  66.9417640  93.7327490  69.0704680  70.6662590  98.3045110  73.1236780
  70.0475010  97.9664660  72.4763080  70.6487040  97.6604870  73.8315970
  62.2421940  97.2689550  75.4021260  61.8378940  96.5566800  74.9067160
  62.3285060  96.9242790  76.2909300  68.8427290  97.5431920  70.1309530
  69.2820570  96.7054350  69.9847350  69.5555710  98.1761320  70.2173670
  72.4244430  88.7974730  68.4450570  72.1117090  88.8901560  69.3449640
  73.1856900  89.3755760  68.3948000  58.9426570  96.1634530  72.9027910
  58.8224170  96.8896620  72.2909180  58.6327460  95.3937440  72.4255820
  61.4090230  89.5069600  76.2851580  60.9658380  90.2879140  75.9536100
  61.9675220  89.8299490  76.9922520  64.5249050  89.1280300  71.1657410
  63.9003230  89.1240170  71.8910720  64.4379170  88.2611260  70.7693380
  61.2004450  94.6303170  74.0132830  60.9745370  94.4140340  74.9179450
  60.4196980  95.0631630  73.6678800  68.4302210  94.6366540  72.6123480
  67.8311100  95.3602340  72.4287100  68.9781820  94.5743320  71.8299930
  67.0367080  93.2730080  74.6426760  67.4296650  93.5902280  73.8295450
  67.3983930  92.3941960  74.7571280  56.2601480  93.8051000  68.0759680
  56.1776150  94.7481760  68.2174670  55.9084540  93.6625910  67.1972030
  64.0599610  92.5390030  77.1430030  64.0635670  92.0979980  76.2934570
  64.9550730  92.8607360  77.2501850  59.9101990  92.4216520  76.1024240
  59.5702040  92.8991750  76.8591290  59.1479310  91.9681640  75.7425340
  64.1219760  93.5402110  70.1336790  64.2432580  93.4988590  71.0822610
  63.7368270  94.4026260  69.9783520  63.1341260  95.8503250  69.5320090
  62.5658160  95.4021500  68.9056000  63.8430260  96.2096030  68.9985240
  57.2248070  91.3435500  75.0188910  56.9394990  90.9791170  75.8567530
  57.1626930  90.6115960  74.4052050  66.8986660  90.2364760  71.7402280
  66.0851270  89.7377930  71.6647590  66.7048610  91.0763010  71.3238630
  69.6135050  94.6084410  70.0364440  70.5014670  94.9201640  69.8615780
  69.5840140  93.7356660  69.6445020  71.8849320  95.9196250  69.5044300
  71.8013040  96.3510470  68.6540740  72.6043510  96.3794600  69.9371120
  56.7178730  96.4794450  68.9785610  57.5873580  96.7619250  69.2621530
  56.2269050  97.2930320  68.8634420  63.8813540  97.8667660  73.0993890
  64.3376320  98.6772910  73.3254080  63.5301750  97.5490800  73.9312380
  59.7825320  88.2105310  73.5716410  59.6539950  88.2023210  74.5201330
  58.9587340  88.5488400  73.2207420  71.6420060  91.4175680  71.5912120
  71.0133220  91.5221350  70.8770350  71.1471980  91.6372460  72.3806000
  63.6104090  93.6961630  73.0070000  62.9020240  94.1647970  73.4483610
  63.8948570  93.0383640  73.6415190  67.6419520  90.4212290  74.4465790
  67.5187300  90.4398420  73.4975300  68.5904080  90.4691230  74.5664190
  61.8139110  92.0046710  70.3820710  62.6629640  92.4416860  70.3160900
  61.4470380  92.3166970  71.2092770  70.7348890  96.5759470  75.2952280
  69.7939030  96.5909700  75.4699970  71.0492960  95.7895430  75.7412580
  60.7130530  98.2579070  68.8556240  61.4793800  98.1460430  69.4181670
  60.7905220  97.5617040  68.2033010  59.4077290  95.6904140  69.5389130
  59.4880880  94.7431650  69.6506530  60.2997040  96.0211020  69.6449790
  62.7449560  98.2544200  70.8298880  63.1665980  98.0884070  71.6730270
  62.8700400  97.4444430  70.3354020  65.2577200  97.2781810  68.0775980
  65.7782860  96.5630830  67.7117130  65.9045600  97.9167680  68.3776490
  61.6408460  94.3277430  67.7757040  61.4397520  93.4644790  68.1370380
  61.4700510  94.2410790  66.8378640  69.1196770  89.1385660  70.3043920
  69.3999060  88.2953560  70.6603340  68.3462500  89.3708770  70.8182670
  60.4391260  91.4278050  67.7634920  60.7417160  91.4345480  66.8554070
  61.1785850  91.0775910  68.2602580  63.6576190  90.3712670  68.7491120
  63.3098190  89.6936660  68.1693570  63.8588960  89.9102180  69.5634510
  56.9981830  96.9000320  75.1455490  56.3430670  96.6311960  74.5015190
  57.8359780  96.7904800  74.6957470  69.9472270  91.6941610  69.3673980
  70.3657150  91.5072590  68.5270640  69.6408330  90.8420660  69.6776910
  73.4462000  96.6065750  73.0649780  73.0705600  95.8393680  72.6331070
  72.7165120  96.9888450  73.5524710  56.2119910  94.1099250  71.0880820
  55.3083990  94.3729450  70.9132480  56.6960530  94.3810420  70.3080780
  72.7212960  94.8323240  76.3657020  73.2450440  94.3385890  75.7347190
  73.3072380  94.9673600  77.1104590  58.7547120  93.1664790  68.9975200
  59.4638820  92.7448010  68.5122480  58.0387060  93.2340020  68.3658550
  58.4021280  89.2204120  68.0377850  59.1249410  89.7613060  68.3559070
  58.6745800  88.9467540  67.1619390  72.2112930  94.0896590  72.3049430
  72.7072050  93.8567460  73.0898310  72.0129000  93.2508430  71.8887070
  73.6400090  92.7257540  74.8387110  73.5299370  92.5713580  75.7769380
  74.4007680  92.1978480  74.5962520  74.5290360  90.5565460  68.0793250
  75.4539670  90.4246640  67.8711540  74.5066150  90.6358280  69.0329700
  74.6028850  91.3276120  70.7049960  73.8080350  91.2621240  71.2342870
  74.8072130  92.2626760  70.6935310  71.0348780  89.6573000  77.1548790
  71.4756870  89.6018100  76.3070390  70.7656370  90.5731010  77.2258970
  72.8987350  89.2888240  75.1657610  72.8375750  88.3449460  75.0188630
  73.6779380  89.3968330  75.7111070  57.8268120  89.2597380  71.6313420
  58.5847480  89.3726260  71.0577450  57.3645290  90.0966580  71.5856850
  64.3681930  91.3736650  74.6215730  63.5556440  90.9993540  74.2811610
  64.8723570  90.6181730  74.9236920  68.8706910  88.0379100  75.8598800
  69.4736280  88.6099310  76.3347320  68.1299900  88.6018540  75.6372700
  72.0141510  88.4400660  71.1339080  72.2092140  89.3384110  71.4006510
  71.2271380  88.2087740  71.6272030  60.1993270  89.7861430  70.1715390
  60.7286030  88.9991230  70.0423340  60.8321590  90.4652620  70.4050920
  62.3931110  89.5236570  73.2260780  61.7633850  88.8223880  73.3930910
  61.8536250  90.2840700  73.0093940  68.0260280  96.2366600  56.6028480
  67.9454330  95.3221210  56.3320190  67.6124700  96.7333670  55.8968190
  66.1578320  98.0145620  58.4837750  65.3820420  97.5346060  58.7736320
  66.8091250  97.3351270  58.3093910  60.1744150  98.3265430  59.3613510
  59.3429030  98.0714140  59.7610020  60.7825130  98.3976200  60.0971430
  58.5836100  93.2867320  53.1455900  57.6952800  93.6283290  53.0435780
  58.8677290  93.0867640  52.2536730  56.5469110  95.8872970  59.0295600
  57.1185220  95.1195170  59.0299240  56.5470650  96.1861730  58.1202210
  57.7893980  91.2957330  60.8164530  57.6096820  90.3983080  61.0967290
  57.3874060  91.8429200  61.4911480  66.6292480  93.4973190  58.7176840
  67.0057300  92.6245070  58.6050510  66.5311990  93.8331890  57.8267280
  60.7597490  91.8698820  54.1794280  60.8664240  92.7702550  54.4863040
  59.8489850  91.8216790  53.8888930  70.4116600  90.9923630  55.6505180
  71.2326220  90.5020200  55.6930660  70.4450680  91.5821290  56.4037020
  58.4080650  93.7917830  59.4246870  59.0890760  94.0556200  60.0434270
  58.0928700  92.9518700  59.7584880  62.6005220  94.8385190  58.5119460
  63.1083440  95.3366160  59.1524480  63.1318460  94.0620390  58.3358820
  74.7016150  93.0090380  62.2148810  73.9968320  93.3972090  61.6963920
  74.9674070  93.7040670  62.8169740  60.8841320  89.4783750  62.7782880
  60.8859760  89.9956140  61.9728780  60.0545630  89.0013930  62.7552810
  70.6478080  92.9324010  58.4232720  69.9433650  93.2208900  59.0035830
  71.0090240  93.7424120  58.0632280  60.5656650  91.1893710  60.7853330
  60.9073460  92.0335760  60.4907200  59.6272460  91.3377450  60.9018670
  73.7165000  92.3778800  58.8141930  72.7689910  92.4117780  58.9457360
  74.0414990  93.1917750  59.1991290  64.2484540  88.6775980  57.1097920
  64.5559520  88.1222870  56.3933420  63.3185240  88.8120440  56.9270910
  66.6365300  96.7424810  53.8458040  65.7094580  96.6762190  54.0746510
  66.7890120  97.6804940  53.7313280  66.6234380  93.0141810  50.8425200
  65.6838050  93.1755770  50.9277660  66.9417640  93.7327490  50.2961190
  73.1447140  97.6960330  60.8204230  72.3165770  97.7653420  60.3454360
  73.7397620  98.2814640  60.3520060  70.6662590  98.3045110  54.3493290
  70.0475010  97.9664660  53.7019590  70.6487040  97.6604870  55.0572480
  70.1089150  94.4829650  61.7659100  69.6960330  95.3083360  62.0199090
  69.3765100  93.8974690  61.5735460  62.2421940  97.2689550  56.6277770
  61.8378940  96.5566800  56.1323670  62.3285060  96.9242790  57.5165810
  60.9550560  94.0432760  60.4076810  61.5065150  94.1528100  59.6330060
  61.4694070  94.4170360  61.1232040  68.8427290  97.5431920  51.3566040
  69.2820570  96.7054350  51.2103860  69.5555710  98.1761320  51.4430180
  60.6293290  97.5652120  64.0182150  60.4901060  98.4374920  64.3869550
  59.7474650  97.2224930  63.8730090  72.4244430  88.7974730  49.6707080
  72.1117090  88.8901560  50.5706150  73.1856900  89.3755760  49.6204510
  58.9426570  96.1634530  54.1284420  58.8224170  96.8896620  53.5165690
  58.6327460  95.3937440  53.6512330  73.6345720  93.5346230  65.6481220
  73.0189990  94.0425900  65.1196680  73.3142140  92.6344560  65.5907160
  61.4090230  89.5069600  57.5108090  60.9658380  90.2879140  57.1792610
  61.9675220  89.8299490  58.2179030  65.6960040  92.3738120  63.1143410
  65.2339410  92.5821140  63.9263350  65.2938150  91.5597470  62.8114080
  70.6964550  93.5947070  64.2440070  69.8458140  93.2952820  64.5649140
  70.5366340  93.8389080  63.3323890  67.7914260  95.0948820  66.3438860
  68.1167670  94.2612570  66.0041090  68.5794590  95.6177340  66.4917190
  64.5249050  89.1280300  52.3913920  63.9003230  89.1240170  53.1167230
  64.4379170  88.2611260  51.9949890  63.4466130  90.0516930  59.3697690
  63.7438460  90.9579760  59.2889710  63.9951690  89.5635710  58.7557260
  61.2004450  94.6303170  55.2389340  60.9745370  94.4140340  56.1435960
  60.4196980  95.0631630  54.8935310  68.4302210  94.6366540  53.8379990
  67.8311100  95.3602340  53.6543610  68.9781820  94.5743320  53.0556440
  63.6403660  95.5288750  65.9049610  63.5447260  94.5883480  65.7550010
  64.4835640  95.7503820  65.5097680  67.0367080  93.2730080  55.8683270
  67.4296650  93.5902280  55.0551960  67.3983930  92.3941960  55.9827790
  58.7714200  91.9402420  64.0583390  58.3777590  92.7877630  64.2656170
  58.0832600  91.3028790  64.2492030  65.3459250  92.0237390  67.1280130
  64.6557570  91.8309590  67.7626220  66.0891550  92.3072030  67.6604430
  56.0731250  89.8630880  58.0913470  55.7844300  90.4333740  58.8038450
  56.8177010  89.3835330  58.4544700  56.2601480  93.8051000  49.3016190
  56.1776150  94.7481760  49.4431180  55.9084540  93.6625910  48.4228540
  67.6222220  95.8635830  59.9634050  66.8903340  96.3722640  60.3124150
  67.2246560  95.0465810  59.6622830  64.0599610  92.5390030  58.3686540
  64.0635670  92.0979980  57.5191080  64.9550730  92.8607360  58.4758360
  59.9101990  92.4216520  57.3280750  59.5702040  92.8991750  58.0847800
  59.1479310  91.9681640  56.9681850  64.1219760  93.5402110  51.3593300
  64.2432580  93.4988590  52.3079120  63.7368270  94.4026260  51.2040030
  68.0848130  91.3169510  59.3756990  68.1020870  91.7678160  60.2198840
  67.8363710  90.4175150  59.5890430  63.1341260  95.8503250  50.7576600
  62.5658160  95.4021500  50.1312510  63.8430260  96.2096030  50.2241750
  71.5118880  88.7301690  65.2143370  71.8364650  87.9991350  65.7401350
  71.5475390  88.4115330  64.3124360  64.3607580  96.5991810  60.1151950
  64.7277710  96.1250380  60.8613290  64.1712640  97.4733380  60.4560290
  57.2248070  91.3435500  56.2445420  56.9394990  90.9791170  57.0824040
  57.1626930  90.6115960  55.6308560  62.1506950  95.6400450  62.4336160
  61.8464020  96.5192430  62.6586520  63.1053410  95.7000240  62.4693600
  66.8986660  90.2364760  52.9658790  66.0851270  89.7377930  52.8904100
  66.7048610  91.0763010  52.5495140  69.6135050  94.6084410  51.2620950
  70.5014670  94.9201640  51.0872290  69.5840140  93.7356660  50.8701530
  58.2070680  96.4803190  63.5807520  57.8485620  97.1457040  64.1680860
  57.9125240  95.6486740  63.9520140  61.4083800  96.9387430  66.4647070
  61.1083940  97.0844610  65.5674890  62.1795040  96.3792720  66.3720460
  71.8849320  95.9196250  50.7300810  71.8013040  96.3510470  49.8797250
  72.6043510  96.3794600  51.1627630  56.7178730  96.4794450  50.2042120
  57.5873580  96.7619250  50.4878040  56.2269050  97.2930320  50.0890930
  63.8813540  97.8667660  54.3250400  64.3376320  98.6772910  54.5510590
  63.5301750  97.5490800  55.1568890  59.7825320  88.2105310  54.7972920
  59.6539950  88.2023210  55.7457840  58.9587340  88.5488400  54.4463930
  56.7819250  89.9696430  64.2579620  56.0677770  90.1693350  64.8632230
  57.2014290  89.1936000  64.6294420  68.2758030  92.4618740  62.0081070
  68.6438850  91.6413950  62.3360640  67.4156230  92.5220630  62.4236720
  71.6420060  91.4175680  52.8168630  71.0133220  91.5221350  52.1026860
  71.1471980  91.6372460  53.6062510  63.6104090  93.6961630  54.2326510
  62.9020240  94.1647970  54.6740120  63.8948570  93.0383640  54.8671700
  65.2360020  95.1158330  62.2319040  65.7345270  95.5904150  62.8970890
  65.3782970  94.1921850  62.4389070  67.6419520  90.4212290  55.6722300
  67.5187300  90.4398420  54.7231810  68.5904080  90.4691230  55.7920700
  61.8139110  92.0046710  51.6077220  62.6629640  92.4416860  51.5417410
  61.4470380  92.3166970  52.4349280  72.4426880  91.3326290  63.0747430
  71.9400480  92.0731690  63.4141240  73.2583540  91.7210290  62.7584220
  70.7348890  96.5759470  56.5208790  69.7939030  96.5909700  56.6956480
  71.0492960  95.7895430  56.9669090  60.7130530  98.2579070  50.0812750
  61.4793800  98.1460430  50.6438180  60.7905220  97.5617040  49.4289520
  59.4077290  95.6904140  50.7645640  59.4880880  94.7431650  50.8763040
  60.2997040  96.0211020  50.8706300  56.9348090  97.5119060  66.0001810
  57.4387110  96.9326340  66.5718040  56.1955510  97.7959290  66.5378180
  58.9671170  95.6548650  66.8951880  59.0076510  95.3562520  67.8037110
  59.8216670  96.0556260  66.7359400  62.7449560  98.2544200  52.0555390
  63.1665980  98.0884070  52.8986780  62.8700400  97.4444430  51.5610530
  60.9076980  94.2340750  64.8626370  60.3773440  93.7431700  64.2349710
  61.5765050  94.6624950  64.3284300  65.2577200  97.2781810  49.3032490
  65.7782860  96.5630830  48.9373640  65.9045600  97.9167680  49.6033000
  70.2777210  96.0406370  66.6306710  70.8597980  95.2858690  66.5427190
  70.4538980  96.5713810  65.8538190  61.3949280  91.2003120  64.9423660
  61.3006150  90.5823870  64.2174530  60.8146670  91.9269410  64.7153570
  64.1610720  89.7576360  61.9751050  63.7128020  89.7800620  61.1296600
  63.5275920  89.3595380  62.5721350  66.9034170  96.3846870  63.9801330
  67.0230380  95.7888010  64.7196170  67.7628170  96.4216560  63.5602630
  69.2422070  96.9384060  62.5563840  68.7157290  97.4626680  61.9528980
  69.5853410  97.5711450  63.1873570  61.6408460  94.3277430  49.0013550
  61.4397520  93.4644790  49.3626890  61.4700510  94.2410790  48.0635150
  63.6702940  92.9268220  65.2377150  64.2602630  92.6184070  65.9254970
  62.8523180  92.4547970  65.3937050  68.4896370  92.5434030  65.4710170
  67.8011890  91.8815570  65.4060160  69.2102390  92.0972300  65.9158630
  69.1196770  89.1385660  51.5300430  69.3999060  88.2953560  51.8859850
  68.3462500  89.3708770  52.0439180  60.4391260  91.4278050  48.9891430
  60.7417160  91.4345480  48.0810580  61.1785850  91.0775910  49.4859090
  63.6576190  90.3712670  49.9747630  63.3098190  89.6936660  49.3950080
  63.8588960  89.9102180  50.7891020  56.9981830  96.9000320  56.3712000
  56.3430670  96.6311960  55.7271700  57.8359780  96.7904800  55.9213980
  69.9472270  91.6941610  50.5930490  70.3657150  91.5072590  49.7527150
  69.6408330  90.8420660  50.9033420  73.4462000  96.6065750  54.2906290
  73.0705600  95.8393680  53.8587580  72.7165120  96.9888450  54.7781220
  58.0357760  97.2852890  60.9115340  58.4030800  97.1980290  61.7911360
  57.4668580  96.5219440  60.8122200  72.8361620  95.7537270  63.9245810
  72.6047710  95.5250020  63.0243760  73.0966170  96.6736820  63.8790700
  57.5873760  94.1961980  64.8173760  56.6929810  94.1628740  65.1567470
  58.1271310  94.3948770  65.5825010  71.2749690  90.9793700  66.7025510
  72.1519870  90.9877100  67.0859510  71.2870530  90.2424540  66.0917860
  56.2119910  94.1099250  52.3137330  55.3083990  94.3729450  52.1388990
  56.6960530  94.3810420  51.5337290  72.7212960  94.8323240  57.5913530
  73.2450440  94.3385890  56.9603700  73.3072380  94.9673600  58.3361100
  72.9002680  94.9163110  61.1133080  71.9505390  94.8826650  61.2278070
  73.0815690  95.8263220  60.8782850  58.7547120  93.1664790  50.2231710
  59.4638820  92.7448010  49.7378990  58.0387060  93.2340020  49.5915060
  58.4021280  89.2204120  49.2634360  59.1249410  89.7613060  49.5815580
  58.6745800  88.9467540  48.3875900  72.2112930  94.0896590  53.5305940
  72.7072050  93.8567460  54.3154820  72.0129000  93.2508430  53.1143580
  58.0913470  88.4710310  59.1656980  58.7389660  87.9207690  58.7252140
  58.5115310  88.7253460  59.9872790  73.6400090  92.7257540  56.0643620
  73.5299370  92.5713580  57.0025890  74.4007680  92.1978480  55.8219030
  71.9865810  88.6651670  62.5226620  72.6238030  89.2785810  62.8885810
  72.1340700  88.7012330  61.5775850  74.5290360  90.5565460  49.3049760
  75.4539670  90.4246640  49.0968050  74.5066150  90.6358280  50.2586210
  74.6028850  91.3276120  51.9306470  73.8080350  91.2621240  52.4599380
  74.8072130  92.2626760  51.9191820  57.8445470  88.6265980  61.9082300
  57.4960290  89.0829800  62.6740480  57.5133170  87.7323110  61.9904730
  65.3570290  89.8177860  65.4301720  65.2959180  90.4099690  66.1797130
  66.2970670  89.7103820  65.2851980  67.9944850  89.4747920  65.0694010
  68.6085260  89.7927210  64.4075090  68.5394410  88.9896510  65.6889870
  58.5166110  88.1542180  65.1833070  59.0649100  87.9730230  64.4199180
  58.5821420  87.3636290  65.7189380  68.7352890  88.0380060  61.3963300
  67.8612730  88.3715170  61.1936230  68.6263640  87.5653240  62.2215170
  69.6424870  90.2450930  62.7805020  69.3138230  89.4302690  62.4006750
  70.5907170  90.2020740  62.6570710  66.4827710  88.9549900  60.3356210
  65.6999500  89.4295400  60.6152970  66.1890640  88.0504730  60.2269390
  71.0348780  89.6573000  58.3805300  71.4756870  89.6018100  57.5326900
  70.7656370  90.5731010  58.4515480  72.8987350  89.2888240  56.3914120
  72.8375750  88.3449460  56.2445140  73.6779380  89.3968330  56.9367580
  57.8268120  89.2597380  52.8569930  58.5847480  89.3726260  52.2833960
  57.3645290  90.0966580  52.8113360  64.3681930  91.3736650  55.8472240
  63.5556440  90.9993540  55.5068120  64.8723570  90.6181730  56.1493430
  68.8706910  88.0379100  57.0855310  69.4736280  88.6099310  57.5603830
  68.1299900  88.6018540  56.8629210  72.0141510  88.4400660  52.3595590
  72.2092140  89.3384110  52.6263020  71.2271380  88.2087740  52.8528540
  60.1993270  89.7861430  51.3971900  60.7286030  88.9991230  51.2679850
  60.8321590  90.4652620  51.6307430  62.3931110  89.5236570  54.4517290
  61.7633850  88.8223880  54.6187420  61.8536250  90.2840700  54.2350450
  62.5186670  88.8020550  66.8869780  62.2370940  89.3054150  66.1230600
  62.9006370  88.0042300  66.5211910  69.1202130  88.2174130  67.4650250
  69.0067580  88.5368740  68.3601770  69.9371870  88.6186640  67.1687530
  68.0260280  96.2366600  37.8284990  67.9454330  95.3221210  37.5576700
  67.6124700  96.7333670  37.1224700  66.1578320  98.0145620  39.7094260
  65.3820420  97.5346060  39.9992830  66.8091250  97.3351270  39.5350420
  60.1744150  98.3265430  40.5870020  59.3429030  98.0714140  40.9866530
  60.7825130  98.3976200  41.3227940  58.5836100  93.2867320  34.3712410
  57.6952800  93.6283290  34.2692290  58.8677290  93.0867640  33.4793240
  56.5469110  95.8872970  40.2552110  57.1185220  95.1195170  40.2555750
  56.5470650  96.1861730  39.3458720  57.7893980  91.2957330  42.0421040
  57.6096820  90.3983080  42.3223800  57.3874060  91.8429200  42.7167990
  66.6292480  93.4973190  39.9433350  67.0057300  92.6245070  39.8307020
  66.5311990  93.8331890  39.0523790  60.7597490  91.8698820  35.4050790
  60.8664240  92.7702550  35.7119550  59.8489850  91.8216790  35.1145440
  70.4116600  90.9923630  36.8761690  71.2326220  90.5020200  36.9187170
  70.4450680  91.5821290  37.6293530  58.4080650  93.7917830  40.6503380
  59.0890760  94.0556200  41.2690780  58.0928700  92.9518700  40.9841390
  62.6005220  94.8385190  39.7375970  63.1083440  95.3366160  40.3780990
  63.1318460  94.0620390  39.5615330  74.7016150  93.0090380  43.4405320
  73.9968320  93.3972090  42.9220430  74.9674070  93.7040670  44.0426250
  60.8841320  89.4783750  44.0039390  60.8859760  89.9956140  43.1985290
  60.0545630  89.0013930  43.9809320  70.6478080  92.9324010  39.6489230
  69.9433650  93.2208900  40.2292340  71.0090240  93.7424120  39.2888790
  60.5656650  91.1893710  42.0109840  60.9073460  92.0335760  41.7163710
  59.6272460  91.3377450  42.1275180  73.7165000  92.3778800  40.0398440
  72.7689910  92.4117780  40.1713870  74.0414990  93.1917750  40.4247800
  64.2484540  88.6775980  38.3354430  64.5559520  88.1222870  37.6189930
  63.3185240  88.8120440  38.1527420  66.6365300  96.7424810  35.0714550
  65.7094580  96.6762190  35.3003020  66.7890120  97.6804940  34.9569790
  66.6234380  93.0141810  32.0681710  65.6838050  93.1755770  32.1534170
  66.9417640  93.7327490  31.5217700  73.1447140  97.6960330  42.0460740
  72.3165770  97.7653420  41.5710870  73.7397620  98.2814640  41.5776570
  70.6662590  98.3045110  35.5749800  70.0475010  97.9664660  34.9276100
  70.6487040  97.6604870  36.2828990  70.1089150  94.4829650  42.9915610
  69.6960330  95.3083360  43.2455600  69.3765100  93.8974690  42.7991970
  62.2421940  97.2689550  37.8534280  61.8378940  96.5566800  37.3580180
  62.3285060  96.9242790  38.7422320  60.9550560  94.0432760  41.6333320
  61.5065150  94.1528100  40.8586570  61.4694070  94.4170360  42.3488550
  68.8427290  97.5431920  32.5822550  69.2820570  96.7054350  32.4360370
  69.5555710  98.1761320  32.6686690  60.6293290  97.5652120  45.2438660
  60.4901060  98.4374920  45.6126060  59.7474650  97.2224930  45.0986600
  72.4244430  88.7974730  30.8963590  72.1117090  88.8901560  31.7962660
  73.1856900  89.3755760  30.8461020  58.9426570  96.1634530  35.3540930
  58.8224170  96.8896620  34.7422200  58.6327460  95.3937440  34.8768840
  73.6345720  93.5346230  46.8737730  73.0189990  94.0425900  46.3453190
  73.3142140  92.6344560  46.8163670  61.4090230  89.5069600  38.7364600
  60.9658380  90.2879140  38.4049120  61.9675220  89.8299490  39.4435540
  65.6960040  92.3738120  44.3399920  65.2339410  92.5821140  45.1519860
  65.2938150  91.5597470  44.0370590  70.6964550  93.5947070  45.4696580
  69.8458140  93.2952820  45.7905650  70.5366340  93.8389080  44.5580400
  67.7914260  95.0948820  47.5695370  68.1167670  94.2612570  47.2297600
  68.5794590  95.6177340  47.7173700  64.5249050  89.1280300  33.6170430
  63.9003230  89.1240170  34.3423740  64.4379170  88.2611260  33.2206400
  63.4466130  90.0516930  40.5954200  63.7438460  90.9579760  40.5146220
  63.9951690  89.5635710  39.9813770  61.2004450  94.6303170  36.4645850
  60.9745370  94.4140340  37.3692470  60.4196980  95.0631630  36.1191820
  68.4302210  94.6366540  35.0636500  67.8311100  95.3602340  34.8800120
  68.9781820  94.5743320  34.2812950  63.6403660  95.5288750  47.1306120
  63.5447260  94.5883480  46.9806520  64.4835640  95.7503820  46.7354190
  67.0367080  93.2730080  37.0939780  67.4296650  93.5902280  36.2808470
  67.3983930  92.3941960  37.2084300  58.7714200  91.9402420  45.2839900
  58.3777590  92.7877630  45.4912680  58.0832600  91.3028790  45.4748540
  65.3459250  92.0237390  48.3536640  64.6557570  91.8309590  48.9882730
  66.0891550  92.3072030  48.8860940  56.0731250  89.8630880  39.3169980
  55.7844300  90.4333740  40.0294960  56.8177010  89.3835330  39.6801210
  56.2601480  93.8051000  30.5272700  56.1776150  94.7481760  30.6687690
  55.9084540  93.6625910  29.6485050  67.6222220  95.8635830  41.1890560
  66.8903340  96.3722640  41.5380660  67.2246560  95.0465810  40.8879340
  64.0599610  92.5390030  39.5943050  64.0635670  92.0979980  38.7447590
  64.9550730  92.8607360  39.7014870  59.9101990  92.4216520  38.5537260
  59.5702040  92.8991750  39.3104310  59.1479310  91.9681640  38.1938360
  64.1219760  93.5402110  32.5849810  64.2432580  93.4988590  33.5335630
  63.7368270  94.4026260  32.4296540  68.0848130  91.3169510  40.6013500
  68.1020870  91.7678160  41.4455350  67.8363710  90.4175150  40.8146940
  63.1341260  95.8503250  31.9833110  62.5658160  95.4021500  31.3569020
  63.8430260  96.2096030  31.4498260  71.5118880  88.7301690  46.4399880
  71.8364650  87.9991350  46.9657860  71.5475390  88.4115330  45.5380870
  64.3607580  96.5991810  41.3408460  64.7277710  96.1250380  42.0869800
  64.1712640  97.4733380  41.6816800  57.2248070  91.3435500  37.4701930
  56.9394990  90.9791170  38.3080550  57.1626930  90.6115960  36.8565070
  62.1506950  95.6400450  43.6592670  61.8464020  96.5192430  43.8843030
  63.1053410  95.7000240  43.6950110  66.8986660  90.2364760  34.1915300
  66.0851270  89.7377930  34.1160610  66.7048610  91.0763010  33.7751650
  69.6135050  94.6084410  32.4877460  70.5014670  94.9201640  32.3128800
  69.5840140  93.7356660  32.0958040  58.2070680  96.4803190  44.8064030
  57.8485620  97.1457040  45.3937370  57.9125240  95.6486740  45.1776650
  61.4083800  96.9387430  47.6903580  61.1083940  97.0844610  46.7931400
  62.1795040  96.3792720  47.5976970  71.8849320  95.9196250  31.9557320
  71.8013040  96.3510470  31.1053760  72.6043510  96.3794600  32.3884140
  56.7178730  96.4794450  31.4298630  57.5873580  96.7619250  31.7134550
  56.2269050  97.2930320  31.3147440  63.8813540  97.8667660  35.5506910
  64.3376320  98.6772910  35.7767100  63.5301750  97.5490800  36.3825400
  59.7825320  88.2105310  36.0229430  59.6539950  88.2023210  36.9714350
  58.9587340  88.5488400  35.6720440  56.7819250  89.9696430  45.4836130
  56.0677770  90.1693350  46.0888740  57.2014290  89.1936000  45.8550930
  68.2758030  92.4618740  43.2337580  68.6438850  91.6413950  43.5617150
  67.4156230  92.5220630  43.6493230  71.6420060  91.4175680  34.0425140
  71.0133220  91.5221350  33.3283370  71.1471980  91.6372460  34.8319020
  63.6104090  93.6961630  35.4583020  62.9020240  94.1647970  35.8996630
  63.8948570  93.0383640  36.0928210  65.2360020  95.1158330  43.4575550
  65.7345270  95.5904150  44.1227400  65.3782970  94.1921850  43.6645580
  67.6419520  90.4212290  36.8978810  67.5187300  90.4398420  35.9488320
  68.5904080  90.4691230  37.0177210  61.8139110  92.0046710  32.8333730
  62.6629640  92.4416860  32.7673920  61.4470380  92.3166970  33.6605790
  72.4426880  91.3326290  44.3003940  71.9400480  92.0731690  44.6397750
  73.2583540  91.7210290  43.9840730  70.7348890  96.5759470  37.7465300
  69.7939030  96.5909700  37.9212990  71.0492960  95.7895430  38.1925600
  60.7130530  98.2579070  31.3069260  61.4793800  98.1460430  31.8694690
  60.7905220  97.5617040  30.6546030  59.4077290  95.6904140  31.9902150
  59.4880880  94.7431650  32.1019550  60.2997040  96.0211020  32.0962810
  56.9348090  97.5119060  47.2258320  57.4387110  96.9326340  47.7974550
  56.1955510  97.7959290  47.7634690  58.9671170  95.6548650  48.1208390
  59.0076510  95.3562520  49.0293620  59.8216670  96.0556260  47.9615910
  62.7449560  98.2544200  33.2811900  63.1665980  98.0884070  34.1243290
  62.8700400  97.4444430  32.7867040  60.9076980  94.2340750  46.0882880
  60.3773440  93.7431700  45.4606220  61.5765050  94.6624950  45.5540810
  65.2577200  97.2781810  30.5289000  65.7782860  96.5630830  30.1630150
  65.9045600  97.9167680  30.8289510  70.2777210  96.0406370  47.8563220
  70.8597980  95.2858690  47.7683700  70.4538980  96.5713810  47.0794700
  61.3949280  91.2003120  46.1680170  61.3006150  90.5823870  45.4431040
  60.8146670  91.9269410  45.9410080  64.1610720  89.7576360  43.2007560
  63.7128020  89.7800620  42.3553110  63.5275920  89.3595380  43.7977860
  66.9034170  96.3846870  45.2057840  67.0230380  95.7888010  45.9452680
  67.7628170  96.4216560  44.7859140  69.2422070  96.9384060  43.7820350
  68.7157290  97.4626680  43.1785490  69.5853410  97.5711450  44.4130080
  61.6408460  94.3277430  30.2270060  61.4397520  93.4644790  30.5883400
  61.4700510  94.2410790  29.2891660  63.6702940  92.9268220  46.4633660
  64.2602630  92.6184070  47.1511480  62.8523180  92.4547970  46.6193560
  68.4896370  92.5434030  46.6966680  67.8011890  91.8815570  46.6316670
  69.2102390  92.0972300  47.1415140  69.1196770  89.1385660  32.7556940
  69.3999060  88.2953560  33.1116360  68.3462500  89.3708770  33.2695690
  60.4391260  91.4278050  30.2147940  60.7417160  91.4345480  29.3067090
  61.1785850  91.0775910  30.7115600  63.6576190  90.3712670  31.2004140
  63.3098190  89.6936660  30.6206590  63.8588960  89.9102180  32.0147530
  56.9981830  96.9000320  37.5968510  56.3430670  96.6311960  36.9528210
  57.8359780  96.7904800  37.1470490  69.9472270  91.6941610  31.8187000
  70.3657150  91.5072590  30.9783660  69.6408330  90.8420660  32.1289930
  73.4462000  96.6065750  35.5162800  73.0705600  95.8393680  35.0844090
  72.7165120  96.9888450  36.0037730  58.0357760  97.2852890  42.1371850
  58.4030800  97.1980290  43.0167870  57.4668580  96.5219440  42.0378710
  72.8361620  95.7537270  45.1502320  72.6047710  95.5250020  44.2500270
  73.0966170  96.6736820  45.1047210  57.5873760  94.1961980  46.0430270
  56.6929810  94.1628740  46.3823980  58.1271310  94.3948770  46.8081520
  71.2749690  90.9793700  47.9282020  72.1519870  90.9877100  48.3116020
  71.2870530  90.2424540  47.3174370  56.2119910  94.1099250  33.5393840
  55.3083990  94.3729450  33.3645500  56.6960530  94.3810420  32.7593800
  72.7212960  94.8323240  38.8170040  73.2450440  94.3385890  38.1860210
  73.3072380  94.9673600  39.5617610  72.9002680  94.9163110  42.3389590
  71.9505390  94.8826650  42.4534580  73.0815690  95.8263220  42.1039360
  58.7547120  93.1664790  31.4488220  59.4638820  92.7448010  30.9635500
  58.0387060  93.2340020  30.8171570  58.4021280  89.2204120  30.4890870
  59.1249410  89.7613060  30.8072090  58.6745800  88.9467540  29.6132410
  72.2112930  94.0896590  34.7562450  72.7072050  93.8567460  35.5411330
  72.0129000  93.2508430  34.3400090  58.0913470  88.4710310  40.3913490
  58.7389660  87.9207690  39.9508650  58.5115310  88.7253460  41.2129300
  73.6400090  92.7257540  37.2900130  73.5299370  92.5713580  38.2282400
  74.4007680  92.1978480  37.0475540  71.9865810  88.6651670  43.7483130
  72.6238030  89.2785810  44.1142320  72.1340700  88.7012330  42.8032360
  74.5290360  90.5565460  30.5306270  75.4539670  90.4246640  30.3224560
  74.5066150  90.6358280  31.4842720  74.6028850  91.3276120  33.1562980
  73.8080350  91.2621240  33.6855890  74.8072130  92.2626760  33.1448330
  57.8445470  88.6265980  43.1338810  57.4960290  89.0829800  43.8996990
  57.5133170  87.7323110  43.2161240  65.3570290  89.8177860  46.6558230
  65.2959180  90.4099690  47.4053640  66.2970670  89.7103820  46.5108490
  67.9944850  89.4747920  46.2950520  68.6085260  89.7927210  45.6331600
  68.5394410  88.9896510  46.9146380  58.5166110  88.1542180  46.4089580
  59.0649100  87.9730230  45.6455690  58.5821420  87.3636290  46.9445890
  68.7352890  88.0380060  42.6219810  67.8612730  88.3715170  42.4192740
  68.6263640  87.5653240  43.4471680  69.6424870  90.2450930  44.0061530
  69.3138230  89.4302690  43.6263260  70.5907170  90.2020740  43.8827220
  66.4827710  88.9549900  41.5612720  65.6999500  89.4295400  41.8409480
  66.1890640  88.0504730  41.4525900  71.0348780  89.6573000  39.6061810
  71.4756870  89.6018100  38.7583410  70.7656370  90.5731010  39.6771990
  72.8987350  89.2888240  37.6170630  72.8375750  88.3449460  37.4701650
  73.6779380  89.3968330  38.1624090  57.8268120  89.2597380  34.0826440
  58.5847480  89.3726260  33.5090470  57.3645290  90.0966580  34.0369870
  64.3681930  91.3736650  37.0728750  63.5556440  90.9993540  36.7324630
  64.8723570  90.6181730  37.3749940  68.8706910  88.0379100  38.3111820
  69.4736280  88.6099310  38.7860340  68.1299900  88.6018540  38.0885720
  72.0141510  88.4400660  33.5852100  72.2092140  89.3384110  33.8519530
  71.2271380  88.2087740  34.0785050  60.1993270  89.7861430  32.6228410
  60.7286030  88.9991230  32.4936360  60.8321590  90.4652620  32.8563940
  62.3931110  89.5236570  35.6773800  61.7633850  88.8223880  35.8443930
  61.8536250  90.2840700  35.4606960  62.5186670  88.8020550  48.1126290
  62.2370940  89.3054150  47.3487110  62.9006370  88.0042300  47.7468420
  69.1202130  88.2174130  48.6906760  69.0067580  88.5368740  49.5858280
  69.9371870  88.6186640  48.3944040  68.0260280  96.2366600  19.0541500
  67.9454330  95.3221210  18.7833210  67.6124700  96.7333670  18.3481210
  66.1578320  98.0145620  20.9350770  65.3820420  97.5346060  21.2249340
  66.8091250  97.3351270  20.7606930  60.1744150  98.3265430  21.8126530
  59.3429030  98.0714140  22.2123040  60.7825130  98.3976200  22.5484450
  58.5836100  93.2867320  15.5968920  57.6952800  93.6283290  15.4948800
  58.8677290  93.0867640  14.7049750  56.5469110  95.8872970  21.4808620
  57.1185220  95.1195170  21.4812260  56.5470650  96.1861730  20.5715230
  57.7893980  91.2957330  23.2677550  57.6096820  90.3983080  23.5480310
  57.3874060  91.8429200  23.9424500  66.6292480  93.4973190  21.1689860
  67.0057300  92.6245070  21.0563530  66.5311990  93.8331890  20.2780300
  60.7597490  91.8698820  16.6307300  60.8664240  92.7702550  16.9376060
  59.8489850  91.8216790  16.3401950  70.4116600  90.9923630  18.1018200
  71.2326220  90.5020200  18.1443680  70.4450680  91.5821290  18.8550040
  58.4080650  93.7917830  21.8759890  59.0890760  94.0556200  22.4947290
  58.0928700  92.9518700  22.2097900  62.6005220  94.8385190  20.9632480
  63.1083440  95.3366160  21.6037500  63.1318460  94.0620390  20.7871840
  74.7016150  93.0090380  24.6661830  73.9968320  93.3972090  24.1476940
  74.9674070  93.7040670  25.2682760  60.8841320  89.4783750  25.2295900
  60.8859760  89.9956140  24.4241800  60.0545630  89.0013930  25.2065830
  70.6478080  92.9324010  20.8745740  69.9433650  93.2208900  21.4548850
  71.0090240  93.7424120  20.5145300  60.5656650  91.1893710  23.2366350
  60.9073460  92.0335760  22.9420220  59.6272460  91.3377450  23.3531690
  73.7165000  92.3778800  21.2654950  72.7689910  92.4117780  21.3970380
  74.0414990  93.1917750  21.6504310  64.2484540  88.6775980  19.5610940
  64.5559520  88.1222870  18.8446440  63.3185240  88.8120440  19.3783930
  66.6365300  96.7424810  16.2971060  65.7094580  96.6762190  16.5259530
  66.7890120  97.6804940  16.1826300  66.6234380  93.0141810  13.2938220
  65.6838050  93.1755770  13.3790680  66.9417640  93.7327490  12.7474210
  73.1447140  97.6960330  23.2717250  72.3165770  97.7653420  22.7967380
  73.7397620  98.2814640  22.8033080  70.6662590  98.3045110  16.8006310
  70.0475010  97.9664660  16.1532610  70.6487040  97.6604870  17.5085500
  70.1089150  94.4829650  24.2172120  69.6960330  95.3083360  24.4712110
  69.3765100  93.8974690  24.0248480  62.2421940  97.2689550  19.0790790
  61.8378940  96.5566800  18.5836690  62.3285060  96.9242790  19.9678830
  60.9550560  94.0432760  22.8589830  61.5065150  94.1528100  22.0843080
  61.4694070  94.4170360  23.5745060  68.8427290  97.5431920  13.8079060
  69.2820570  96.7054350  13.6616880  69.5555710  98.1761320  13.8943200
  60.6293290  97.5652120  26.4695170  60.4901060  98.4374920  26.8382570
  59.7474650  97.2224930  26.3243110  72.4244430  88.7974730  12.1220100
  72.1117090  88.8901560  13.0219170  73.1856900  89.3755760  12.0717530
  58.9426570  96.1634530  16.5797440  58.8224170  96.8896620  15.9678710
  58.6327460  95.3937440  16.1025350  73.6345720  93.5346230  28.0994240
  73.0189990  94.0425900  27.5709700  73.3142140  92.6344560  28.0420180
  61.4090230  89.5069600  19.9621110  60.9658380  90.2879140  19.6305630
  61.9675220  89.8299490  20.6692050  65.6960040  92.3738120  25.5656430
  65.2339410  92.5821140  26.3776370  65.2938150  91.5597470  25.2627100
  70.6964550  93.5947070  26.6953090  69.8458140  93.2952820  27.0162160
  70.5366340  93.8389080  25.7836910  67.7914260  95.0948820  28.7951880
  68.1167670  94.2612570  28.4554110  68.5794590  95.6177340  28.9430210
  64.5249050  89.1280300  14.8426940  63.9003230  89.1240170  15.5680250
  64.4379170  88.2611260  14.4462910  63.4466130  90.0516930  21.8210710
  63.7438460  90.9579760  21.7402730  63.9951690  89.5635710  21.2070280
  61.2004450  94.6303170  17.6902360  60.9745370  94.4140340  18.5948980
  60.4196980  95.0631630  17.3448330  68.4302210  94.6366540  16.2893010
  67.8311100  95.3602340  16.1056630  68.9781820  94.5743320  15.5069460
  63.6403660  95.5288750  28.3562630  63.5447260  94.5883480  28.2063030
  64.4835640  95.7503820  27.9610700  67.0367080  93.2730080  18.3196290
  67.4296650  93.5902280  17.5064980  67.3983930  92.3941960  18.4340810
  58.7714200  91.9402420  26.5096410  58.3777590  92.7877630  26.7169190
  58.0832600  91.3028790  26.7005050  65.3459250  92.0237390  29.5793150
  64.6557570  91.8309590  30.2139240  66.0891550  92.3072030  30.1117450
  56.0731250  89.8630880  20.5426490  55.7844300  90.4333740  21.2551470
  56.8177010  89.3835330  20.9057720  56.2601480  93.8051000  11.7529210
  56.1776150  94.7481760  11.8944200  55.9084540  93.6625910  10.8741560
  67.6222220  95.8635830  22.4147070  66.8903340  96.3722640  22.7637170
  67.2246560  95.0465810  22.1135850  64.0599610  92.5390030  20.8199560
  64.0635670  92.0979980  19.9704100  64.9550730  92.8607360  20.9271380
  59.9101990  92.4216520  19.7793770  59.5702040  92.8991750  20.5360820
  59.1479310  91.9681640  19.4194870  64.1219760  93.5402110  13.8106320
  64.2432580  93.4988590  14.7592140  63.7368270  94.4026260  13.6553050
  68.0848130  91.3169510  21.8270010  68.1020870  91.7678160  22.6711860
  67.8363710  90.4175150  22.0403450  63.1341260  95.8503250  13.2089620
  62.5658160  95.4021500  12.5825530  63.8430260  96.2096030  12.6754770
  71.5118880  88.7301690  27.6656390  71.8364650  87.9991350  28.1914370
  71.5475390  88.4115330  26.7637380  64.3607580  96.5991810  22.5664970
  64.7277710  96.1250380  23.3126310  64.1712640  97.4733380  22.9073310
  57.2248070  91.3435500  18.6958440  56.9394990  90.9791170  19.5337060
  57.1626930  90.6115960  18.0821580  62.1506950  95.6400450  24.8849180
  61.8464020  96.5192430  25.1099540  63.1053410  95.7000240  24.9206620
  66.8986660  90.2364760  15.4171810  66.0851270  89.7377930  15.3417120
  66.7048610  91.0763010  15.0008160  69.6135050  94.6084410  13.7133970
  70.5014670  94.9201640  13.5385310  69.5840140  93.7356660  13.3214550
  58.2070680  96.4803190  26.0320540  57.8485620  97.1457040  26.6193880
  57.9125240  95.6486740  26.4033160  61.4083800  96.9387430  28.9160090
  61.1083940  97.0844610  28.0187910  62.1795040  96.3792720  28.8233480
  71.8849320  95.9196250  13.1813830  71.8013040  96.3510470  12.3310270
  72.6043510  96.3794600  13.6140650  56.7178730  96.4794450  12.6555140
  57.5873580  96.7619250  12.9391060  56.2269050  97.2930320  12.5403950
  63.8813540  97.8667660  16.7763420  64.3376320  98.6772910  17.0023610
  63.5301750  97.5490800  17.6081910  59.7825320  88.2105310  17.2485940
  59.6539950  88.2023210  18.1970860  58.9587340  88.5488400  16.8976950
  56.7819250  89.9696430  26.7092640  56.0677770  90.1693350  27.3145250
  57.2014290  89.1936000  27.0807440  68.2758030  92.4618740  24.4594090
  68.6438850  91.6413950  24.7873660  67.4156230  92.5220630  24.8749740
  71.6420060  91.4175680  15.2681650  71.0133220  91.5221350  14.5539880
  71.1471980  91.6372460  16.0575530  63.6104090  93.6961630  16.6839530
  62.9020240  94.1647970  17.1253140  63.8948570  93.0383640  17.3184720
  65.2360020  95.1158330  24.6832060  65.7345270  95.5904150  25.3483910
  65.3782970  94.1921850  24.8902090  67.6419520  90.4212290  18.1235320
  67.5187300  90.4398420  17.1744830  68.5904080  90.4691230  18.2433720
  61.8139110  92.0046710  14.0590240  62.6629640  92.4416860  13.9930430
  61.4470380  92.3166970  14.8862300  72.4426880  91.3326290  25.5260450
  71.9400480  92.0731690  25.8654260  73.2583540  91.7210290  25.2097240
  70.7348890  96.5759470  18.9721810  69.7939030  96.5909700  19.1469500
  71.0492960  95.7895430  19.4182110  60.7130530  98.2579070  12.5325770
  61.4793800  98.1460430  13.0951200  60.7905220  97.5617040  11.8802540
  59.4077290  95.6904140  13.2158660  59.4880880  94.7431650  13.3276060
  60.2997040  96.0211020  13.3219320  56.9348090  97.5119060  28.4514830
  57.4387110  96.9326340  29.0231060  56.1955510  97.7959290  28.9891200
  58.9671170  95.6548650  29.3464900  59.0076510  95.3562520  30.2550130
  59.8216670  96.0556260  29.1872420  62.7449560  98.2544200  14.5068410
  63.1665980  98.0884070  15.3499800  62.8700400  97.4444430  14.0123550
  60.9076980  94.2340750  27.3139390  60.3773440  93.7431700  26.6862730
  61.5765050  94.6624950  26.7797320  65.2577200  97.2781810  11.7545510
  65.7782860  96.5630830  11.3886660  65.9045600  97.9167680  12.0546020
  70.2777210  96.0406370  29.0819730  70.8597980  95.2858690  28.9940210
  70.4538980  96.5713810  28.3051210  61.3949280  91.2003120  27.3936680
  61.3006150  90.5823870  26.6687550  60.8146670  91.9269410  27.1666590
  64.1610720  89.7576360  24.4264070  63.7128020  89.7800620  23.5809620
  63.5275920  89.3595380  25.0234370  66.9034170  96.3846870  26.4314350
  67.0230380  95.7888010  27.1709190  67.7628170  96.4216560  26.0115650
  69.2422070  96.9384060  25.0076860  68.7157290  97.4626680  24.4042000
  69.5853410  97.5711450  25.6386590  61.6408460  94.3277430  11.4526570
  61.4397520  93.4644790  11.8139910  61.4700510  94.2410790  10.5148170
  63.6702940  92.9268220  27.6890170  64.2602630  92.6184070  28.3767990
  62.8523180  92.4547970  27.8450070  68.4896370  92.5434030  27.9223190
  67.8011890  91.8815570  27.8573180  69.2102390  92.0972300  28.3671650
  69.1196770  89.1385660  13.9813450  69.3999060  88.2953560  14.3372870
  68.3462500  89.3708770  14.4952200  60.4391260  91.4278050  11.4404450
  60.7417160  91.4345480  10.5323600  61.1785850  91.0775910  11.9372110
  63.6576190  90.3712670  12.4260650  63.3098190  89.6936660  11.8463100
  63.8588960  89.9102180  13.2404040  56.9981830  96.9000320  18.8225020
  56.3430670  96.6311960  18.1784720  57.8359780  96.7904800  18.3727000
  69.9472270  91.6941610  13.0443510  70.3657150  91.5072590  12.2040170
  69.6408330  90.8420660  13.3546440  73.4462000  96.6065750  16.7419310
  73.0705600  95.8393680  16.3100600  72.7165120  96.9888450  17.2294240
  58.0357760  97.2852890  23.3628360  58.4030800  97.1980290  24.2424380
  57.4668580  96.5219440  23.2635220  72.8361620  95.7537270  26.3758830
  72.6047710  95.5250020  25.4756780  73.0966170  96.6736820  26.3303720
  57.5873760  94.1961980  27.2686780  56.6929810  94.1628740  27.6080490
  58.1271310  94.3948770  28.0338030  71.2749690  90.9793700  29.1538530
  72.1519870  90.9877100  29.5372530  71.2870530  90.2424540  28.5430880
  56.2119910  94.1099250  14.7650350  55.3083990  94.3729450  14.5902010
  56.6960530  94.3810420  13.9850310  72.7212960  94.8323240  20.0426550
  73.2450440  94.3385890  19.4116720  73.3072380  94.9673600  20.7874120
  72.9002680  94.9163110  23.5646100  71.9505390  94.8826650  23.6791090
  73.0815690  95.8263220  23.3295870  58.7547120  93.1664790  12.6744730
  59.4638820  92.7448010  12.1892010  58.0387060  93.2340020  12.0428080
  58.4021280  89.2204120  11.7147380  59.1249410  89.7613060  12.0328600
  58.6745800  88.9467540  10.8388920  72.2112930  94.0896590  15.9818960
  72.7072050  93.8567460  16.7667840  72.0129000  93.2508430  15.5656600
  58.0913470  88.4710310  21.6170000  58.7389660  87.9207690  21.1765160
  58.5115310  88.7253460  22.4385810  73.6400090  92.7257540  18.5156640
  73.5299370  92.5713580  19.4538910  74.4007680  92.1978480  18.2732050
  71.9865810  88.6651670  24.9739640  72.6238030  89.2785810  25.3398830
  72.1340700  88.7012330  24.0288870  74.5290360  90.5565460  11.7562780
  75.4539670  90.4246640  11.5481070  74.5066150  90.6358280  12.7099230
  74.6028850  91.3276120  14.3819490  73.8080350  91.2621240  14.9112400
  74.8072130  92.2626760  14.3704840  57.8445470  88.6265980  24.3595320
  57.4960290  89.0829800  25.1253500  57.5133170  87.7323110  24.4417750
  65.3570290  89.8177860  27.8814740  65.2959180  90.4099690  28.6310150
  66.2970670  89.7103820  27.7365000  67.9944850  89.4747920  27.5207030
  68.6085260  89.7927210  26.8588110  68.5394410  88.9896510  28.1402890
  58.5166110  88.1542180  27.6346090  59.0649100  87.9730230  26.8712200
  58.5821420  87.3636290  28.1702400  68.7352890  88.0380060  23.8476320
  67.8612730  88.3715170  23.6449250  68.6263640  87.5653240  24.6728190
  69.6424870  90.2450930  25.2318040  69.3138230  89.4302690  24.8519770
  70.5907170  90.2020740  25.1083730  66.4827710  88.9549900  22.7869230
  65.6999500  89.4295400  23.0665990  66.1890640  88.0504730  22.6782410
  71.0348780  89.6573000  20.8318320  71.4756870  89.6018100  19.9839920
  70.7656370  90.5731010  20.9028500  72.8987350  89.2888240  18.8427140
  72.8375750  88.3449460  18.6958160  73.6779380  89.3968330  19.3880600
  57.8268120  89.2597380  15.3082950  58.5847480  89.3726260  14.7346980
  57.3645290  90.0966580  15.2626380  64.3681930  91.3736650  18.2985260
  63.5556440  90.9993540  17.9581140  64.8723570  90.6181730  18.6006450
  68.8706910  88.0379100  19.5368330  69.4736280  88.6099310  20.0116850
  68.1299900  88.6018540  19.3142230  72.0141510  88.4400660  14.8108610
  72.2092140  89.3384110  15.0776040  71.2271380  88.2087740  15.3041560
  60.1993270  89.7861430  13.8484920  60.7286030  88.9991230  13.7192870
  60.8321590  90.4652620  14.0820450  62.3931110  89.5236570  16.9030310
  61.7633850  88.8223880  17.0700440  61.8536250  90.2840700  16.6863470
  62.5186670  88.8020550  29.3382800  62.2370940  89.3054150  28.5743620
  62.9006370  88.0042300  28.9724930  69.1202130  88.2174130  29.9163270
  69.0067580  88.5368740  30.8114790  69.9371870  88.6186640  29.6200550
  66.1578320  98.0145620   2.1607280  65.3820420  97.5346060   2.4505850
  66.8091250  97.3351270   1.9863440  60.1744150  98.3265430   3.0383040
  59.3429030  98.0714140   3.4379550  60.7825130  98.3976200   3.7740960
  56.5469110  95.8872970   2.7065130  57.1185220  95.1195170   2.7068770
  56.5470650  96.1861730   1.7971740  57.7893980  91.2957330   4.4934060
  57.6096820  90.3983080   4.7736820  57.3874060  91.8429200   5.1681010
  66.6292480  93.4973190   2.3946370  67.0057300  92.6245070   2.2820040
  66.5311990  93.8331890   1.5036810  58.4080650  93.7917830   3.1016400
  59.0890760  94.0556200   3.7203800  58.0928700  92.9518700   3.4354410
  62.6005220  94.8385190   2.1888990  63.1083440  95.3366160   2.8294010
  63.1318460  94.0620390   2.0128350  74.7016150  93.0090380   5.8918340
  73.9968320  93.3972090   5.3733450  74.9674070  93.7040670   6.4939270
  60.8841320  89.4783750   6.4552410  60.8859760  89.9956140   5.6498310
  60.0545630  89.0013930   6.4322340  70.6478080  92.9324010   2.1002250
  69.9433650  93.2208900   2.6805360  71.0090240  93.7424120   1.7401810
  60.5656650  91.1893710   4.4622860  60.9073460  92.0335760   4.1676730
  59.6272460  91.3377450   4.5788200  73.7165000  92.3778800   2.4911460
  72.7689910  92.4117780   2.6226890  74.0414990  93.1917750   2.8760820
  73.1447140  97.6960330   4.4973760  72.3165770  97.7653420   4.0223890
  73.7397620  98.2814640   4.0289590  70.1089150  94.4829650   5.4428630
  69.6960330  95.3083360   5.6968620  69.3765100  93.8974690   5.2504990
  60.9550560  94.0432760   4.0846340  61.5065150  94.1528100   3.3099590
  61.4694070  94.4170360   4.8001570  60.6293290  97.5652120   7.6951680
  60.4901060  98.4374920   8.0639080  59.7474650  97.2224930   7.5499620
  73.6345720  93.5346230   9.3250750  73.0189990  94.0425900   8.7966210
  73.3142140  92.6344560   9.2676690  65.6960040  92.3738120   6.7912940
  65.2339410  92.5821140   7.6032880  65.2938150  91.5597470   6.4883610
  70.6964550  93.5947070   7.9209600  69.8458140  93.2952820   8.2418670
  70.5366340  93.8389080   7.0093420  67.7914260  95.0948820  10.0208390
  68.1167670  94.2612570   9.6810620  68.5794590  95.6177340  10.1686720
  63.4466130  90.0516930   3.0467220  63.7438460  90.9579760   2.9659240
  63.9951690  89.5635710   2.4326790  63.6403660  95.5288750   9.5819140
  63.5447260  94.5883480   9.4319540  64.4835640  95.7503820   9.1867210
  58.7714200  91.9402420   7.7352920  58.3777590  92.7877630   7.9425700
  58.0832600  91.3028790   7.9261560  65.3459250  92.0237390  10.8049660
  64.6557570  91.8309590  11.4395750  66.0891550  92.3072030  11.3373960
  56.0731250  89.8630880   1.7683000  55.7844300  90.4333740   2.4807980
  56.8177010  89.3835330   2.1314230  67.6222220  95.8635830   3.6403580
  66.8903340  96.3722640   3.9893680  67.2246560  95.0465810   3.3392360
  68.0848130  91.3169510   3.0526520  68.1020870  91.7678160   3.8968370
  67.8363710  90.4175150   3.2659960  71.5118880  88.7301690   8.8912900
  71.8364650  87.9991350   9.4170880  71.5475390  88.4115330   7.9893890
  64.3607580  96.5991810   3.7921480  64.7277710  96.1250380   4.5382820
  64.1712640  97.4733380   4.1329820  62.1506950  95.6400450   6.1105690
  61.8464020  96.5192430   6.3356050  63.1053410  95.7000240   6.1463130
  58.2070680  96.4803190   7.2577050  57.8485620  97.1457040   7.8450390
  57.9125240  95.6486740   7.6289670  61.4083800  96.9387430  10.1416600
  61.1083940  97.0844610   9.2444420  62.1795040  96.3792720  10.0489990
  56.7819250  89.9696430   7.9349150  56.0677770  90.1693350   8.5401760
  57.2014290  89.1936000   8.3063950  68.2758030  92.4618740   5.6850600
  68.6438850  91.6413950   6.0130170  67.4156230  92.5220630   6.1006250
  65.2360020  95.1158330   5.9088570  65.7345270  95.5904150   6.5740420
  65.3782970  94.1921850   6.1158600  72.4426880  91.3326290   6.7516960
  71.9400480  92.0731690   7.0910770  73.2583540  91.7210290   6.4353750
  56.9348090  97.5119060   9.6771340  57.4387110  96.9326340  10.2487570
  56.1955510  97.7959290  10.2147710  58.9671170  95.6548650  10.5721410
  59.0076510  95.3562520  11.4806640  59.8216670  96.0556260  10.4128930
  60.9076980  94.2340750   8.5395900  60.3773440  93.7431700   7.9119240
  61.5765050  94.6624950   8.0053830  70.2777210  96.0406370  10.3076240
  70.8597980  95.2858690  10.2196720  70.4538980  96.5713810   9.5307720
  61.3949280  91.2003120   8.6193190  61.3006150  90.5823870   7.8944060
  60.8146670  91.9269410   8.3923100  64.1610720  89.7576360   5.6520580
  63.7128020  89.7800620   4.8066130  63.5275920  89.3595380   6.2490880
  66.9034170  96.3846870   7.6570860  67.0230380  95.7888010   8.3965700
  67.7628170  96.4216560   7.2372160  69.2422070  96.9384060   6.2333370
  68.7157290  97.4626680   5.6298510  69.5853410  97.5711450   6.8643100
  63.6702940  92.9268220   8.9146680  64.2602630  92.6184070   9.6024500
  62.8523180  92.4547970   9.0706580  68.4896370  92.5434030   9.1479700
  67.8011890  91.8815570   9.0829690  69.2102390  92.0972300   9.5928160
  58.0357760  97.2852890   4.5884870  58.4030800  97.1980290   5.4680890
  57.4668580  96.5219440   4.4891730  72.8361620  95.7537270   7.6015340
  72.6047710  95.5250020   6.7013290  73.0966170  96.6736820   7.5560230
  57.5873760  94.1961980   8.4943290  56.6929810  94.1628740   8.8337000
  58.1271310  94.3948770   9.2594540  71.2749690  90.9793700  10.3795040
  72.1519870  90.9877100  10.7629040  71.2870530  90.2424540   9.7687390
  72.9002680  94.9163110   4.7902610  71.9505390  94.8826650   4.9047600
  73.0815690  95.8263220   4.5552380  58.0913470  88.4710310   2.8426510
  58.7389660  87.9207690   2.4021670  58.5115310  88.7253460   3.6642320
  71.9865810  88.6651670   6.1996150  72.6238030  89.2785810   6.5655340
  72.1340700  88.7012330   5.2545380  57.8445470  88.6265980   5.5851830
  57.4960290  89.0829800   6.3510010  57.5133170  87.7323110   5.6674260
  65.3570290  89.8177860   9.1071250  65.2959180  90.4099690   9.8566660
  66.2970670  89.7103820   8.9621510  67.9944850  89.4747920   8.7463540
  68.6085260  89.7927210   8.0844620  68.5394410  88.9896510   9.3659400
  58.5166110  88.1542180   8.8602600  59.0649100  87.9730230   8.0968710
  58.5821420  87.3636290   9.3958910  68.7352890  88.0380060   5.0732830
  67.8612730  88.3715170   4.8705760  68.6263640  87.5653240   5.8984700
  69.6424870  90.2450930   6.4574550  69.3138230  89.4302690   6.0776280
  70.5907170  90.2020740   6.3340240  66.4827710  88.9549900   4.0125740
  65.6999500  89.4295400   4.2922500  66.1890640  88.0504730   3.9038920
  62.5186670  88.8020550  10.5639310  62.2370940  89.3054150   9.8000130
  62.9006370  88.0042300  10.1981440  69.1202130  88.2174130  11.1419780
  69.0067580  88.5368740  12.0371300  69.9371870  88.6186640  10.8457060
  68.0260280  77.4623110  75.3771970  67.9454330  76.5477720  75.1063680
  67.6124700  77.9590180  74.6711680  70.1785750  83.6462320  76.0380370
  69.7167280  82.8749560  76.3667540  70.9911300  83.6728390  76.5432820
  58.5836100  74.5123830  71.9199390  57.6952800  74.8539800  71.8179270
  58.8677290  74.3124150  71.0280220  66.4049060  85.9320330  75.6584360
  65.7860500  86.3877830  75.0878800  67.2600840  86.0871790  75.2574060
  60.7597490  73.0955330  72.9537770  60.8664240  73.9959060  73.2606530
  59.8489850  73.0473300  72.6632420  70.4116600  72.2180140  74.4248670
  71.2326220  71.7276710  74.4674150  70.4450680  72.8077800  75.1780510
  67.2712410  80.8159570  73.0516270  66.6529680  81.2809020  72.4878990
  67.7835660  81.5087050  73.4685780  56.6395610  81.5016100  70.4255900
  56.2623590  81.9903200  69.6940800  56.8968680  82.1741380  71.0562430
  64.2484540  69.9032490  75.8841410  64.5559520  69.3479380  75.1676910
  63.3185240  70.0376950  75.7014400  71.0945020  82.3416000  73.2639040
  70.9841350  81.3990330  73.3888460  71.0913270  82.7031640  74.1501800
  66.6365300  77.9681320  72.6201530  65.7094580  77.9018700  72.8490000
  66.7890120  78.9061450  72.5056770  66.6234380  74.2398320  69.6168690
  65.6838050  74.4012280  69.7021150  66.9417640  74.9584000  69.0704680
  70.6662590  79.5301620  73.1236780  70.0475010  79.1921170  72.4763080
  70.6487040  78.8861380  73.8315970  62.2421940  78.4946060  75.4021260
  61.8378940  77.7823310  74.9067160  62.3285060  78.1499300  76.2909300
  68.8427290  78.7688430  70.1309530  69.2820570  77.9310860  69.9847350
  69.5555710  79.4017830  70.2173670  66.9522670  83.7084500  74.0990770
  67.3918580  84.4508830  73.6846160  66.8909560  83.9511070  75.0229730
  72.4244430  70.0231240  68.4450570  72.1117090  70.1158070  69.3449640
  73.1856900  70.6012270  68.3948000  58.9426570  77.3891040  72.9027910
  58.8224170  78.1153130  72.2909180  58.6327460  76.6193950  72.4255820
  57.8259570  82.2606370  75.1202730  57.4187650  82.4020960  74.2656330
  58.7172580  81.9766530  74.9173940  69.6192850  86.6953620  71.4553780
  69.4593990  86.4056560  72.3535610  69.4539560  85.9193750  70.9199010
  62.0981230  86.4752150  73.2325400  61.9223710  85.5587690  73.0193200
  61.2436970  86.8339440  73.4723200  69.3218980  84.2041180  70.0151780
  68.6284140  84.2018470  69.3554060  70.0641840  83.7800500  69.5845950
  68.8868910  85.8303890  74.0900270  69.3425860  85.0493270  74.4038890
  69.2261430  86.5410710  74.6341450  61.4090230  70.7326110  76.2851580
  60.9658380  71.5135650  75.9536100  61.9675220  71.0556000  76.9922520
  64.5249050  70.3536810  71.1657410  63.9003230  70.3496680  71.8910720
  64.4379170  69.4867770  70.7693380  61.2004450  75.8559680  74.0132830
  60.9745370  75.6396850  74.9179450  60.4196980  76.2888140  73.6678800
  68.4302210  75.8623050  72.6123480  67.8311100  76.5858850  72.4287100
  68.9781820  75.7999830  71.8299930  67.0367080  74.4986590  74.6426760
  67.4296650  74.8158790  73.8295450  67.3983930  73.6198470  74.7571280
  56.2601480  75.0307510  68.0759680  56.1776150  75.9738270  68.2174670
  55.9084540  74.8882420  67.1972030  64.0599610  73.7646540  77.1430030
  64.0635670  73.3236490  76.2934570  64.9550730  74.0863870  77.2501850
  59.9101990  73.6473030  76.1024240  59.5702040  74.1248260  76.8591290
  59.1479310  73.1938150  75.7425340  64.1219760  74.7658620  70.1336790
  64.2432580  74.7245100  71.0822610  63.7368270  75.6282770  69.9783520
  63.1341260  77.0759760  69.5320090  62.5658160  76.6278010  68.9056000
  63.8430260  77.4352540  68.9985240  57.2248070  72.5692010  75.0188910
  56.9394990  72.2047680  75.8567530  57.1626930  71.8372470  74.4052050
  60.6788740  81.0717950  71.8046500  59.9051000  80.5315570  71.6445220
  61.4083370  80.5524560  71.4664260  66.8986660  71.4621270  71.7402280
  66.0851270  70.9634440  71.6647590  66.7048610  72.3019520  71.3238630
  69.6135050  75.8340920  70.0364440  70.5014670  76.1458150  69.8615780
  69.5840140  74.9613170  69.6445020  60.7226140  80.7398330  75.4425310
  61.2404810  79.9366590  75.3882200  60.2710160  80.6777470  76.2842140
  65.6095640  82.0064610  70.7152610  65.9511340  82.7506840  70.2195930
  64.7808350  82.3195730  71.0777440  71.8849320  77.1452760  69.5044300
  71.8013040  77.5766980  68.6540740  72.6043510  77.6051110  69.9371120
  72.9136570  83.9995020  72.2326430  72.2712730  83.3450640  72.5070150
  72.5267230  84.4050110  71.4567100  68.4923050  81.3280450  76.0798120
  68.8446870  80.7308580  75.4199490  67.6085380  81.0024680  76.2506370
  64.5786330  82.0878140  73.4868530  65.2657460  82.6347350  73.8676120
  63.7918750  82.6318870  73.5218140  56.7178730  77.7050960  68.9785610
  57.5873580  77.9875760  69.2621530  56.2269050  78.5186830  68.8634420
  63.8813540  79.0924170  73.0993890  64.3376320  79.9029420  73.3254080
  63.5301750  78.7747310  73.9312380  59.7825320  69.4361820  73.5716410
  59.6539950  69.4279720  74.5201330  58.9587340  69.7744910  73.2207420
  71.3033950  82.8911480  68.7702780  71.0771530  82.1741920  69.3627420
  70.9130150  82.6423920  67.9324530  57.0849980  86.9178340  69.5447240
  57.4447620  87.5167680  68.8904510  56.9442320  87.4638230  70.3182270
  70.8850200  80.8083420  70.4316940  70.5971900  81.2696110  71.2194820
  71.6802370  80.3481190  70.7001160  63.1018600  84.3009540  70.3620910
  63.0928700  85.0339230  69.7465420  62.1816960  84.0541120  70.4547870
  58.7025240  79.5224430  71.1067670  58.0953190  80.2623330  71.1162970
  59.1774590  79.6123790  70.2805870  71.6420060  72.6432190  71.5912120
  71.0133220  72.7477860  70.8770350  71.1471980  72.8628970  72.3806000
  66.0878200  84.3637780  69.0246100  66.1890180  84.1601770  68.0948080
  65.1879940  84.1096060  69.2293880  63.6104090  74.9218140  73.0070000
  62.9020240  75.3904480  73.4483610  63.8948570  74.2640150  73.6415190
  67.6419520  71.6468800  74.4465790  67.5187300  71.6654930  73.4975300
  68.5904080  71.6947740  74.5664190  64.7296310  86.8824100  73.7193770
  64.9837810  86.8445490  72.7973140  63.7808790  86.7557430  73.7122020
  61.8139110  73.2303220  70.3820710  62.6629640  73.6673370  70.3160900
  61.4470380  73.5423480  71.2092770  70.7348890  77.8015980  75.2952280
  69.7939030  77.8166210  75.4699970  71.0492960  77.0151940  75.7412580
  60.7130530  79.4835580  68.8556240  61.4793800  79.3716940  69.4181670
  60.7905220  78.7873550  68.2033010  59.4077290  76.9160650  69.5389130
  59.4880880  75.9688160  69.6506530  60.2997040  77.2467530  69.6449790
  60.2092000  87.0656040  76.6423670  60.9454480  86.5171500  76.9132240
  60.5932920  87.9312050  76.5029660  57.0937480  83.1329610  72.5165180
  56.1677260  83.3750750  72.5070590  57.5593910  83.9603870  72.3949930
  63.3194310  86.2386350  68.4649240  64.1122920  86.5275180  68.0131030
  62.7998660  85.8078520  67.7861720  72.3724480  85.4656480  69.8885980
  72.0865990  85.0521620  69.0740160  72.1744030  86.3944190  69.7686500
  63.8371710  81.4589760  68.3291590  63.7322350  80.8442110  69.0552970
  63.6695930  80.9355650  67.5454600  67.0774440  80.5209790  68.9333580
  66.5284540  80.9679090  69.5776320  67.6993700  80.0159040  69.4571250
  62.7449560  79.4800710  70.8298880  63.1665980  79.3140580  71.6730270
  62.8700400  78.6700940  70.3354020  65.2577200  78.5038320  68.0775980
  65.7782860  77.7887340  67.7117130  65.9045600  79.1424190  68.3776490
  61.6408460  75.5533940  67.7757040  61.4397520  74.6901300  68.1370380
  61.4700510  75.4667300  66.8378640  69.1196770  70.3642170  70.3043920
  69.3999060  69.5210070  70.6603340  68.3462500  70.5965280  70.8182670
  60.4391260  72.6534560  67.7634920  60.7417160  72.6601990  66.8554070
  61.1785850  72.3032420  68.2602580  63.6576190  71.5969180  68.7491120
  63.3098190  70.9193170  68.1693570  63.8588960  71.1358690  69.5634510
  65.8225230  86.5849930  70.3677720  66.7176020  86.9234900  70.3896480
  65.8542860  85.8629340  69.7402000  59.4621390  81.9576980  68.5964720
  59.8996260  82.5006650  69.2522300  59.9469120  81.1323930  68.6061060
  56.6767190  84.7466010  76.0484980  57.0070200  83.8787070  75.8163620
  57.1058190  84.9524530  76.8789940  61.2729110  83.0775020  73.7086950
  60.9724650  82.9539990  74.6090860  61.1666600  82.2183610  73.3002680
  74.0421030  82.8571420  68.4113630  73.2113990  82.9248070  68.8820860
  74.2192860  83.7475540  68.1080490  73.4977490  79.6018900  70.9147830
  74.2596400  80.1715550  71.0207520  73.5131860  79.0346100  71.6856140
  56.9981830  78.1256830  75.1455490  56.3430670  77.8568470  74.5015190
  57.8359780  78.0161310  74.6957470  74.5037460  80.4569000  75.7589760
  74.8746290  79.6736320  75.3525730  75.1439390  81.1458100  75.5807060
  73.5496660  79.8953270  68.0720350  73.8245500  80.8032150  67.9439570
  73.3607400  79.8315800  69.0082340  69.9472270  72.9198120  69.3673980
  70.3657150  72.7329100  68.5270640  69.6408330  72.0677170  69.6776910
  73.4462000  77.8322260  73.0649780  73.0705600  77.0650190  72.6331070
  72.7165120  78.2144960  73.5524710  56.2119910  75.3355760  71.0880820
  55.3083990  75.5985960  70.9132480  56.6960530  75.6066930  70.3080780
  72.7212960  76.0579750  76.3657020  73.2450440  75.5642400  75.7347190
  73.3072380  76.1930110  77.1104590  58.7547120  74.3921300  68.9975200
  59.4638820  73.9704520  68.5122480  58.0387060  74.4596530  68.3658550
  58.4021280  70.4460630  68.0377850  59.1249410  70.9869570  68.3559070
  58.6745800  70.1724050  67.1619390  72.2112930  75.3153100  72.3049430
  72.7072050  75.0823970  73.0898310  72.0129000  74.4764940  71.8887070
  73.6400090  73.9514050  74.8387110  73.5299370  73.7970090  75.7769380
  74.4007680  73.4234990  74.5962520  74.5290360  71.7821970  68.0793250
  75.4539670  71.6503150  67.8711540  74.5066150  71.8614790  69.0329700
  74.6028850  72.5532630  70.7049960  73.8080350  72.4877750  71.2342870
  74.8072130  73.4883270  70.6935310  71.5447270  86.5924180  74.6988350
  72.1406340  86.2708750  74.0222770  71.8025420  86.1196000  75.4901620
  71.0348780  70.8829510  77.1548790  71.4756870  70.8274610  76.3070390
  70.7656370  71.7987520  77.2258970  72.8987350  70.5144750  75.1657610
  72.8375750  69.5705970  75.0188630  73.6779380  70.6224840  75.7111070
  57.2040100  86.6537110  74.1281560  57.0362140  86.0207790  74.8263450
  56.3374610  86.8596510  73.7775750  57.8268120  70.4853890  71.6313420
  58.5847480  70.5982770  71.0577450  57.3645290  71.3223090  71.5856850
  64.3681930  72.5993160  74.6215730  63.5556440  72.2250050  74.2811610
  64.8723570  71.8438240  74.9236920  68.8706910  69.2635610  75.8598800
  69.4736280  69.8355820  76.3347320  68.1299900  69.8275050  75.6372700
  72.0141510  69.6657170  71.1339080  72.2092140  70.5640620  71.4006510
  71.2271380  69.4344250  71.6272030  58.8102800  85.3470340  71.5731700
  58.2850420  85.7278370  70.8693660  58.7347380  85.9721110  72.2941410
  60.1993270  71.0117940  70.1715390  60.7286030  70.2247740  70.0423340
  60.8321590  71.6909130  70.4050920  62.3931110  70.7493080  73.2260780
  61.7633850  70.0480390  73.3930910  61.8536250  71.5097210  73.0093940
  73.5668120  86.9057880  72.8945640  73.7420310  86.2195620  72.2506560
  72.8689690  87.4304930  72.5022310  61.4095770  87.2952720  70.4480950
  62.1414590  87.0112000  69.9004840  61.6689440  87.0566000  71.3380330
  60.5710560  83.4117450  70.4527280  59.9419440  83.8802550  71.0013110
  60.6858390  82.5666670  70.8873470  68.0260280  77.4623110  56.6028480
  67.9454330  76.5477720  56.3320190  67.6124700  77.9590180  55.8968190
  66.1578320  79.2402130  58.4837750  65.3820420  78.7602570  58.7736320
  66.8091250  78.5607780  58.3093910  60.1744150  79.5521940  59.3613510
  59.3429030  79.2970650  59.7610020  60.7825130  79.6232710  60.0971430
  70.1785750  83.6462320  57.2636880  69.7167280  82.8749560  57.5924050
  70.9911300  83.6728390  57.7689330  60.1545410  83.5862030  59.5571530
  60.4573450  82.6959770  59.3781750  60.8989000  84.1432250  59.3293780
  56.5469110  77.1129480  59.0295600  57.1185220  76.3451680  59.0299240
  56.5470650  77.4118240  58.1202210  66.4049060  85.9320330  56.8840870
  65.7860500  86.3877830  56.3135310  67.2600840  86.0871790  56.4830570
  65.5987310  81.9159320  58.4907910  65.5295590  80.9749260  58.3297040
  66.3607170  82.0060730  59.0630480  57.7893980  72.5213840  60.8164530
  57.6096820  71.6239590  61.0967290  57.3874060  73.0685710  61.4911480
  66.6292480  74.7229700  58.7176840  67.0057300  73.8501580  58.6050510
  66.5311990  75.0588400  57.8267280  70.4116600  72.2180140  55.6505180
  71.2326220  71.7276710  55.6930660  70.4450680  72.8077800  56.4037020
  58.4080650  75.0174340  59.4246870  59.0890760  75.2812710  60.0434270
  58.0928700  74.1775210  59.7584880  62.6005220  76.0641700  58.5119460
  63.1083440  76.5622670  59.1524480  63.1318460  75.2876900  58.3358820
  74.7016150  74.2346890  62.2148810  73.9968320  74.6228600  61.6963920
  74.9674070  74.9297180  62.8169740  60.8841320  70.7040260  62.7782880
  60.8859760  71.2212650  61.9728780  60.0545630  70.2270440  62.7552810
  67.2712410  80.8159570  54.2772780  66.6529680  81.2809020  53.7135500
  67.7835660  81.5087050  54.6942290  62.1344170  80.3435440  60.9556380
  61.8013550  80.9704360  61.5977450  62.3110850  80.8697320  60.1758050
  70.6478080  74.1580520  58.4232720  69.9433650  74.4465410  59.0035830
  71.0090240  74.9680630  58.0632280  60.5656650  72.4150220  60.7853330
  60.9073460  73.2592270  60.4907200  59.6272460  72.5633960  60.9018670
  61.3463270  82.3116240  62.7705560  61.9637270  82.9867320  62.4890010
  60.4856390  82.7204220  62.6793060  56.6395610  81.5016100  51.6512410
  56.2623590  81.9903200  50.9197310  56.8968680  82.1741380  52.2818940
  72.2640860  83.7755650  60.6860200  71.5804380  84.4454760  60.6776870
  72.8035150  83.9736300  59.9205060  73.7165000  73.6035310  58.8141930
  72.7689910  73.6374290  58.9457360  74.0414990  74.4174260  59.1991290
  64.2484540  69.9032490  57.1097920  64.5559520  69.3479380  56.3933420
  63.3185240  70.0376950  56.9270910  69.7999600  85.6199780  59.4005380
  69.8126760  85.2162070  58.5327640  69.2474820  86.3947070  59.2966810
  71.0945020  82.3416000  54.4895550  70.9841350  81.3990330  54.6144970
  71.0913270  82.7031640  55.3758310  69.1985040  80.5229620  60.7287990
  69.6153830  80.3089730  59.8941450  69.9224860  80.7802410  61.2996610
  66.6365300  77.9681320  53.8458040  65.7094580  77.9018700  54.0746510
  66.7890120  78.9061450  53.7313280  73.1447140  78.9216840  60.8204230
  72.3165770  78.9909930  60.3454360  73.7397620  79.5071150  60.3520060
  70.6662590  79.5301620  54.3493290  70.0475010  79.1921170  53.7019590
  70.6487040  78.8861380  55.0572480  70.1089150  75.7086160  61.7659100
  69.6960330  76.5339870  62.0199090  69.3765100  75.1231200  61.5735460
  62.2421940  78.4946060  56.6277770  61.8378940  77.7823310  56.1323670
  62.3285060  78.1499300  57.5165810  62.7103640  82.1813620  58.7916980
  62.4131930  81.5759090  58.1124760  63.6603460  82.2190930  58.6806340
  60.9550560  75.2689270  60.4076810  61.5065150  75.3784610  59.6330060
  61.4694070  75.6426870  61.1232040  70.7989250  85.7545490  62.4540080
  70.3219810  86.5617680  62.2612690  70.1151040  85.1023820  62.6066290
  61.8022070  81.9195310  65.4424780  60.9050600  82.1435280  65.6898180
  61.8274940  82.0430250  64.4936180  68.8427290  78.7688430  51.3566040
  69.2820570  77.9310860  51.2103860  69.5555710  79.4017830  51.4430180
  60.6293290  78.7908630  64.0182150  60.4901060  79.6631430  64.3869550
  59.7474650  78.4481440  63.8730090  66.9522670  83.7084500  55.3247280
  67.3918580  84.4508830  54.9102670  66.8909560  83.9511070  56.2486240
  62.4273640  84.7330330  66.2267300  62.3989070  85.1373280  65.3595730
  62.2638610  83.8040690  66.0638900  72.4244430  70.0231240  49.6707080
  72.1117090  70.1158070  50.5706150  73.1856900  70.6012270  49.6204510
  74.3788460  85.5157430  67.5231470  74.8548180  85.9940320  68.2020550
  74.9995620  85.4474920  66.7976970  56.5811940  80.5606180  59.9353060
  56.6592360  80.6954950  58.9908780  57.1953620  79.8522070  60.1281180
  57.8259570  82.2606370  56.3459240  57.4187650  82.4020960  55.4912840
  58.7172580  81.9766530  56.1430450  73.7821710  82.7070280  64.6831480
  73.9084770  82.4682160  63.7648660  73.8243090  81.8754820  65.1553560
  67.6438450  86.4098280  63.2526290  68.1583120  86.3206290  64.0548720
  66.8007530  86.7557980  63.5454200  69.6192850  86.6953620  52.6810290
  69.4593990  86.4056560  53.5792120  69.4539560  85.9193750  52.1455520
  62.0981230  86.4752150  54.4581910  61.9223710  85.5587690  54.2449710
  61.2436970  86.8339440  54.6979710  69.3218980  84.2041180  51.2408290
  68.6284140  84.2018470  50.5810570  70.0641840  83.7800500  50.8102460
  68.8868910  85.8303890  55.3156780  69.3425860  85.0493270  55.6295400
  69.2261430  86.5410710  55.8597960  73.6345720  74.7602740  65.6481220
  73.0189990  75.2682410  65.1196680  73.3142140  73.8601070  65.5907160
  56.6371460  81.6020350  62.4747520  56.8002500  81.1325710  61.6566890
  57.1023910  81.0943910  63.1396360  61.4090230  70.7326110  57.5108090
  60.9658380  71.5135650  57.1792610  61.9675220  71.0556000  58.2179030
  65.6960040  73.5994630  63.1143410  65.2339410  73.8077650  63.9263350
  65.2938150  72.7853980  62.8114080  70.6964550  74.8203580  64.2440070
  69.8458140  74.5209330  64.5649140  70.5366340  75.0645590  63.3323890
  67.7914260  76.3205330  66.3438860  68.1167670  75.4869080  66.0041090
  68.5794590  76.8433850  66.4917190  63.4466130  71.2773440  59.3697690
  63.7438460  72.1836270  59.2889710  63.9951690  70.7892220  58.7557260
  68.4302210  75.8623050  53.8379990  67.8311100  76.5858850  53.6543610
  68.9781820  75.7999830  53.0556440  63.6403660  76.7545260  65.9049610
  63.5447260  75.8139990  65.7550010  64.4835640  76.9760330  65.5097680
  67.0367080  74.4986590  55.8683270  67.4296650  74.8158790  55.0551960
  67.3983930  73.6198470  55.9827790  58.7714200  73.1658930  64.0583390
  58.3777590  74.0134140  64.2656170  58.0832600  72.5285300  64.2492030
  65.3459250  73.2493900  67.1280130  64.6557570  73.0566100  67.7626220
  66.0891550  73.5328540  67.6604430  56.0731250  71.0887390  58.0913470
  55.7844300  71.6590250  58.8038450  56.8177010  70.6091840  58.4544700
  67.6222220  77.0892340  59.9634050  66.8903340  77.5979150  60.3124150
  67.2246560  76.2722320  59.6622830  64.0599610  73.7646540  58.3686540
  64.0635670  73.3236490  57.5191080  64.9550730  74.0863870  58.4758360
  59.9101990  73.6473030  57.3280750  59.5702040  74.1248260  58.0847800
  59.1479310  73.1938150  56.9681850  68.0848130  72.5426020  59.3756990
  68.1020870  72.9934670  60.2198840  67.8363710  71.6431660  59.5890430
  71.5118880  69.9558200  65.2143370  71.8364650  69.2247860  65.7401350
  71.5475390  69.6371840  64.3124360  58.2110440  80.9771780  64.6343330
  57.8265230  80.3365450  65.2326290  58.5222630  81.6807900  65.2038060
  64.3607580  77.8248320  60.1151950  64.7277710  77.3506890  60.8613290
  64.1712640  78.6989890  60.4560290  62.1506950  76.8656960  62.4336160
  61.8464020  77.7448940  62.6586520  63.1053410  76.9256750  62.4693600
  60.6788740  81.0717950  53.0303010  59.9051000  80.5315570  52.8701730
  61.4083370  80.5524560  52.6920770  71.4376720  80.0683310  58.8229400
  72.1575840  80.5638600  58.4325510  71.2358540  79.3901200  58.1783270
  66.8195520  80.1392370  64.7098400  66.7532830  79.2188040  64.4555990
  66.1900660  80.2367810  65.4243040  69.6135050  75.8340920  51.2620950
  70.5014670  76.1458150  51.0872290  69.5840140  74.9613170  50.8701530
  60.7226140  80.7398330  56.6681820  61.2404810  79.9366590  56.6138710
  60.2710160  80.6777470  57.5098650  65.6095640  82.0064610  51.9409120
  65.9511340  82.7506840  51.4452440  64.7808350  82.3195730  52.3033950
  58.2070680  77.7059700  63.5807520  57.8485620  78.3713550  64.1680860
  57.9125240  76.8743250  63.9520140  61.4083800  78.1643940  66.4647070
  61.1083940  78.3101120  65.5674890  62.1795040  77.6049230  66.3720460
  66.7512250  82.9612940  64.4602200  66.7656790  82.0293900  64.2421110
  66.0437350  83.0472700  65.0991970  71.8849320  77.1452760  50.7300810
  71.8013040  77.5766980  49.8797250  72.6043510  77.6051110  51.1627630
  72.9623460  79.6020280  63.8070780  72.2371650  80.1949060  63.6100170
  73.4898920  79.5943820  63.0084150  72.9136570  83.9995020  53.4582940
  72.2712730  83.3450640  53.7326660  72.5267230  84.4050110  52.6823610
  68.4923050  81.3280450  57.3054630  68.8446870  80.7308580  56.6456000
  67.6085380  81.0024680  57.4762880  64.5786330  82.0878140  54.7125040
  65.2657460  82.6347350  55.0932630  63.7918750  82.6318870  54.7474650
  63.8813540  79.0924170  54.3250400  64.3376320  79.9029420  54.5510590
  63.5301750  78.7747310  55.1568890  66.1846150  84.6030510  61.5542700
  66.8288370  84.8089890  62.2316120  66.5475590  83.8418910  61.1013550
  67.4578230  82.6062860  60.2720150  68.1000460  81.9056020  60.3852320
  67.9827580  83.3861300  60.0917040  71.3033950  82.8911480  49.9959290
  71.0771530  82.1741920  50.5883930  70.9130150  82.6423920  49.1581040
  69.2315850  83.4057760  63.4756210  69.5672090  83.9924450  64.1534130
  68.3116190  83.2750470  63.7054000  57.0849980  86.9178340  50.7703750
  57.4447620  87.5167680  50.1161020  56.9442320  87.4638230  51.5438780
  56.7819250  71.1952940  64.2579620  56.0677770  71.3949860  64.8632230
  57.2014290  70.4192510  64.6294420  70.8850200  80.8083420  51.6573450
  70.5971900  81.2696110  52.4451330  71.6802370  80.3481190  51.9257670
  57.0691840  85.1833200  65.2446150  57.1782960  84.2427940  65.1041540
  56.4172400  85.4487950  64.5959880  65.0604430  83.4549090  66.6444270
  64.7401300  82.7358330  67.1889960  64.3862790  84.1304160  66.7180330
  63.1018600  84.3009540  51.5877420  63.0928700  85.0339230  50.9721930
  62.1816960  84.0541120  51.6804380  58.7025240  79.5224430  52.3324180
  58.0953190  80.2623330  52.3419480  59.1774590  79.6123790  51.5062380
  68.2758030  73.6875250  62.0081070  68.6438850  72.8670460  62.3360640
  67.4156230  73.7477140  62.4236720  71.6420060  72.6432190  52.8168630
  71.0133220  72.7477860  52.1026860  71.1471980  72.8628970  53.6062510
  66.0878200  84.3637780  50.2502610  66.1890180  84.1601770  49.3204590
  65.1879940  84.1096060  50.4550390  65.2360020  76.3414840  62.2319040
  65.7345270  76.8160660  62.8970890  65.3782970  75.4178360  62.4389070
  64.7296310  86.8824100  54.9450280  64.9837810  86.8445490  54.0229650
  63.7808790  86.7557430  54.9378530  72.4426880  72.5582800  63.0747430
  71.9400480  73.2988200  63.4141240  73.2583540  72.9466800  62.7584220
  70.7348890  77.8015980  56.5208790  69.7939030  77.8166210  56.6956480
  71.0492960  77.0151940  56.9669090  60.7130530  79.4835580  50.0812750
  61.4793800  79.3716940  50.6438180  60.7905220  78.7873550  49.4289520
  72.7374470  84.9724830  58.1963050  72.8621890  85.7956000  58.6686860
  73.6040030  84.7615560  57.8487200  60.2092000  87.0656040  57.8680180
  60.9454480  86.5171500  58.1388750  60.5932920  87.9312050  57.7286170
  57.0937480  83.1329610  53.7421690  56.1677260  83.3750750  53.7327100
  57.5593910  83.9603870  53.6206440  59.2150280  86.2502110  67.0565760
  60.0163010  86.5714160  67.4701160  58.7002100  85.8897690  67.7785670
  63.3194310  86.2386350  49.6905750  64.1122920  86.5275180  49.2387540
  62.7998660  85.8078520  49.0118230  68.0514910  82.3581980  67.0041170
  67.4453070  82.3813580  66.2636920  67.7469020  81.6265020  67.5408420
  69.4815280  86.0862270  65.6150580  70.4337030  86.0020290  65.5650820
  69.3343500  86.7503980  66.2884370  72.3724480  85.4656480  51.1142490
  72.0865990  85.0521620  50.2996670  72.1744030  86.3944190  50.9943010
  56.9348090  78.7375570  66.0001810  57.4387110  78.1582850  66.5718040
  56.1955510  79.0215800  66.5378180  63.8371710  81.4589760  49.5548100
  63.7322350  80.8442110  50.2809480  63.6695930  80.9355650  48.7711110
  63.9886030  80.1446560  65.5337330  63.2231700  80.7131560  65.4492000
  64.1701990  79.8522770  64.6405560  67.0774440  80.5209790  50.1590090
  66.5284540  80.9679090  50.8032830  67.6993700  80.0159040  50.6827760
  71.1309380  81.8751890  66.0912350  71.8718850  82.2127650  65.5879810
  70.3682060  82.0443950  65.5382120  58.9671170  76.8805160  66.8951880
  59.0076510  76.5819030  67.8037110  59.8216670  77.2812770  66.7359400
  62.7449560  79.4800710  52.0555390  63.1665980  79.3140580  52.8986780
  62.8700400  78.6700940  51.5610530  60.9076980  75.4597260  64.8626370
  60.3773440  74.9688210  64.2349710  61.5765050  75.8881460  64.3284300
  65.2577200  78.5038320  49.3032490  65.7782860  77.7887340  48.9373640
  65.9045600  79.1424190  49.6033000  69.8055040  79.9266720  64.6267560
  70.2196060  80.0811800  65.4757980  68.8706040  80.0521940  64.7893340
  70.2777210  77.2662880  66.6306710  70.8597980  76.5115200  66.5427190
  70.4538980  77.7970320  65.8538190  61.3949280  72.4259630  64.9423660
  61.3006150  71.8080380  64.2174530  60.8146670  73.1525920  64.7153570
  64.1610720  70.9832870  61.9751050  63.7128020  71.0057130  61.1296600
  63.5275920  70.5851890  62.5721350  64.5670270  79.8787200  62.5963490
  64.9858380  80.7219930  62.4239730  63.6478900  80.0159240  62.3670270
  66.9034170  77.6103380  63.9801330  67.0230380  77.0144520  64.7196170
  67.7628170  77.6473070  63.5602630  69.2422070  78.1640570  62.5563840
  68.7157290  78.6883190  61.9528980  69.5853410  78.7967960  63.1873570
  62.4177690  86.1840210  63.7121220  61.8798780  86.9086270  63.3929920
  62.6711650  85.7070550  62.9218560  63.6702940  74.1524730  65.2377150
  64.2602630  73.8440580  65.9254970  62.8523180  73.6804480  65.3937050
  68.4896370  73.7690540  65.4710170  67.8011890  73.1072080  65.4060160
  69.2102390  73.3228810  65.9158630  65.2739900  87.4191420  63.9707870
  65.1998600  88.3226560  64.2780240  64.3718740  87.1003320  63.9429940
  65.8225230  86.5849930  51.5934230  66.7176020  86.9234900  51.6152990
  65.8542860  85.8629340  50.9658510  59.4621390  81.9576980  49.8221230
  59.8996260  82.5006650  50.4778810  59.9469120  81.1323930  49.8317570
  56.6767190  84.7466010  57.2741490  57.0070200  83.8787070  57.0420130
  57.1058190  84.9524530  58.1046450  61.2729110  83.0775020  54.9343460
  60.9724650  82.9539990  55.8347370  61.1666600  82.2183610  54.5259190
  57.1657400  85.6136600  60.0123120  56.7288390  85.7937400  60.8447270
  57.7335080  86.3711220  59.8704840  72.8019580  85.1153600  64.3000430
  72.2021570  85.1746160  63.5564350  72.9313480  84.1758580  64.4297280
  74.0421030  82.8571420  49.6370140  73.2113990  82.9248070  50.1077370
  74.2192860  83.7475540  49.3337000  73.4977490  79.6018900  52.1404340
  74.2596400  80.1715550  52.2464030  73.5131860  79.0346100  52.9112650
  56.9981830  78.1256830  56.3712000  56.3430670  77.8568470  55.7271700
  57.8359780  78.0161310  55.9213980  74.5037460  80.4569000  56.9846270
  74.8746290  79.6736320  56.5782240  75.1439390  81.1458100  56.8063570
  71.4871220  81.8405580  62.3976590  70.6731060  82.2702740  62.6602380
  71.8945420  82.4523990  61.7845640  73.5496660  79.8953270  49.2976860
  73.8245500  80.8032150  49.1696080  73.3607400  79.8315800  50.2338850
  69.9472270  72.9198120  50.5930490  70.3657150  72.7329100  49.7527150
  69.6408330  72.0677170  50.9033420  73.4462000  77.8322260  54.2906290
  73.0705600  77.0650190  53.8587580  72.7165120  78.2144960  54.7781220
  58.0357760  78.5109400  60.9115340  58.4030800  78.4236800  61.7911360
  57.4668580  77.7475950  60.8122200  72.8361620  76.9793780  63.9245810
  72.6047710  76.7506530  63.0243760  73.0966170  77.8993330  63.8790700
  57.5873760  75.4218490  64.8173760  56.6929810  75.3885250  65.1567470
  58.1271310  75.6205280  65.5825010  71.2749690  72.2050210  66.7025510
  72.1519870  72.2133610  67.0859510  71.2870530  71.4681050  66.0917860
  72.7212960  76.0579750  57.5913530  73.2450440  75.5642400  56.9603700
  73.3072380  76.1930110  58.3361100  72.9002680  76.1419620  61.1133080
  71.9505390  76.1083160  61.2278070  73.0815690  77.0519730  60.8782850
  72.2112930  75.3153100  53.5305940  72.7072050  75.0823970  54.3154820
  72.0129000  74.4764940  53.1143580  58.0913470  69.6966820  59.1656980
  58.7389660  69.1464200  58.7252140  58.5115310  69.9509970  59.9872790
  73.6400090  73.9514050  56.0643620  73.5299370  73.7970090  57.0025890
  74.4007680  73.4234990  55.8219030  71.9865810  69.8908180  62.5226620
  72.6238030  70.5042320  62.8885810  72.1340700  69.9268840  61.5775850
  74.5290360  71.7821970  49.3049760  75.4539670  71.6503150  49.0968050
  74.5066150  71.8614790  50.2586210  74.6028850  72.5532630  51.9306470
  73.8080350  72.4877750  52.4599380  74.8072130  73.4883270  51.9191820
  71.5447270  86.5924180  55.9244860  72.1406340  86.2708750  55.2479280
  71.8025420  86.1196000  56.7158130  57.8445470  69.8522490  61.9082300
  57.4960290  70.3086310  62.6740480  57.5133170  68.9579620  61.9904730
  59.4509840  83.0242090  66.0735490  59.4079470  82.6535000  66.9549950
  59.5820850  83.9619660  66.2137310  63.1515870  84.5801680  61.6745210
  62.9107230  84.8476240  60.7875730  64.0918510  84.7507410  61.7296070
  65.3570290  71.0434370  65.4301720  65.2959180  71.6356200  66.1797130
  66.2970670  70.9360330  65.2851980  67.9944850  70.7004430  65.0694010
  68.6085260  71.0183720  64.4075090  68.5394410  70.2153020  65.6889870
  74.4120030  86.5996060  62.4755850  73.9178310  86.9964930  61.7582980
  73.8033320  85.9745270  62.8693130  58.5166110  69.3798690  65.1833070
  59.0649100  69.1986740  64.4199180  58.5821420  68.5892800  65.7189380
  59.2897870  85.9704340  63.1933270  58.6958190  85.8389040  63.9323310
  59.2821710  85.1342480  62.7275370  68.7352890  69.2636570  61.3963300
  67.8612730  69.5971680  61.1936230  68.6263640  68.7909750  62.2215170
  69.6424870  71.4707440  62.7805020  69.3138230  70.6559200  62.4006750
  70.5907170  71.4277250  62.6570710  72.0959480  87.2419480  59.7542590
  71.6362450  87.9935290  59.3800610  71.4671940  86.5225950  59.6957390
  58.9210100  83.3362720  62.1441310  58.1944160  82.7168010  62.0767260
  58.9819250  83.7303330  61.2739390  62.5255200  85.5507720  58.9290720
  63.0420220  84.9395080  58.4038980  63.1752580  86.0536500  59.4201730
  65.2650700  86.4416210  59.7559700  65.5528510  86.1870510  58.8792710
  65.7773920  85.8893570  60.3465270  66.4827710  70.1806410  60.3356210
  65.6999500  70.6551910  60.6152970  66.1890640  69.2761240  60.2269390
  71.0348780  70.8829510  58.3805300  71.4756870  70.8274610  57.5326900
  70.7656370  71.7987520  58.4515480  72.8987350  70.5144750  56.3914120
  72.8375750  69.5705970  56.2445140  73.6779380  70.6224840  56.9367580
  57.2040100  86.6537110  55.3538070  57.0362140  86.0207790  56.0519960
  56.3374610  86.8596510  55.0032260  68.8706910  69.2635610  57.0855310
  69.4736280  69.8355820  57.5603830  68.1299900  69.8275050  56.8629210
  58.8102800  85.3470340  52.7988210  58.2850420  85.7278370  52.0950170
  58.7347380  85.9721110  53.5197920  65.3323060  87.3632310  67.1227900
  66.2590370  87.1276580  67.1663860  65.3173490  88.1904310  66.6413930
  73.5668120  86.9057880  54.1202150  73.7420310  86.2195620  53.4763070
  72.8689690  87.4304930  53.7278820  62.5186670  70.0277060  66.8869780
  62.2370940  70.5310660  66.1230600  62.9006370  69.2298810  66.5211910
  61.4095770  87.2952720  51.6737460  62.1414590  87.0112000  51.1261350
  61.6689440  87.0566000  52.5636840  60.5710560  83.4117450  51.6783790
  59.9419440  83.8802550  52.2269620  60.6858390  82.5666670  52.1129980
  69.1202130  69.4430640  67.4650250  69.0067580  69.7625250  68.3601770
  69.9371870  69.8443150  67.1687530  71.9000620  86.5902170  66.9468940
  72.6925940  86.0951400  66.7394900  72.1933770  87.2692310  67.5544550
  68.0260280  77.4623110  37.8284990  67.9454330  76.5477720  37.5576700
  67.6124700  77.9590180  37.1224700  66.1578320  79.2402130  39.7094260
  65.3820420  78.7602570  39.9992830  66.8091250  78.5607780  39.5350420
  60.1744150  79.5521940  40.5870020  59.3429030  79.2970650  40.9866530
  60.7825130  79.6232710  41.3227940  70.1785750  83.6462320  38.4893390
  69.7167280  82.8749560  38.8180560  70.9911300  83.6728390  38.9945840
  60.1545410  83.5862030  40.7828040  60.4573450  82.6959770  40.6038260
  60.8989000  84.1432250  40.5550290  66.4049060  85.9320330  38.1097380
  65.7860500  86.3877830  37.5391820  67.2600840  86.0871790  37.7087080
  65.5987310  81.9159320  39.7164420  65.5295590  80.9749260  39.5553550
  66.3607170  82.0060730  40.2886990  70.4116600  72.2180140  36.8761690
  71.2326220  71.7276710  36.9187170  70.4450680  72.8077800  37.6293530
  74.7016150  74.2346890  43.4405320  73.9968320  74.6228600  42.9220430
  74.9674070  74.9297180  44.0426250  67.2712410  80.8159570  35.5029290
  66.6529680  81.2809020  34.9392010  67.7835660  81.5087050  35.9198800
  62.1344170  80.3435440  42.1812890  61.8013550  80.9704360  42.8233960
  62.3110850  80.8697320  41.4014560  70.6478080  74.1580520  39.6489230
  69.9433650  74.4465410  40.2292340  71.0090240  74.9680630  39.2888790
  61.3463270  82.3116240  43.9962070  61.9637270  82.9867320  43.7146520
  60.4856390  82.7204220  43.9049570  56.6395610  81.5016100  32.8768920
  56.2623590  81.9903200  32.1453820  56.8968680  82.1741380  33.5075450
  72.2640860  83.7755650  41.9116710  71.5804380  84.4454760  41.9033380
  72.8035150  83.9736300  41.1461570  73.7165000  73.6035310  40.0398440
  72.7689910  73.6374290  40.1713870  74.0414990  74.4174260  40.4247800
  69.7999600  85.6199780  40.6261890  69.8126760  85.2162070  39.7584150
  69.2474820  86.3947070  40.5223320  71.0945020  82.3416000  35.7152060
  70.9841350  81.3990330  35.8401480  71.0913270  82.7031640  36.6014820
  69.1985040  80.5229620  41.9544500  69.6153830  80.3089730  41.1197960
  69.9224860  80.7802410  42.5253120  66.6365300  77.9681320  35.0714550
  65.7094580  77.9018700  35.3003020  66.7890120  78.9061450  34.9569790
  73.1447140  78.9216840  42.0460740  72.3165770  78.9909930  41.5710870
  73.7397620  79.5071150  41.5776570  70.6662590  79.5301620  35.5749800
  70.0475010  79.1921170  34.9276100  70.6487040  78.8861380  36.2828990
  70.1089150  75.7086160  42.9915610  69.6960330  76.5339870  43.2455600
  69.3765100  75.1231200  42.7991970  62.2421940  78.4946060  37.8534280
  61.8378940  77.7823310  37.3580180  62.3285060  78.1499300  38.7422320
  62.7103640  82.1813620  40.0173490  62.4131930  81.5759090  39.3381270
  63.6603460  82.2190930  39.9062850  70.7989250  85.7545490  43.6796590
  70.3219810  86.5617680  43.4869200  70.1151040  85.1023820  43.8322800
  61.8022070  81.9195310  46.6681290  60.9050600  82.1435280  46.9154690
  61.8274940  82.0430250  45.7192690  68.8427290  78.7688430  32.5822550
  69.2820570  77.9310860  32.4360370  69.5555710  79.4017830  32.6686690
  60.6293290  78.7908630  45.2438660  60.4901060  79.6631430  45.6126060
  59.7474650  78.4481440  45.0986600  66.9522670  83.7084500  36.5503790
  67.3918580  84.4508830  36.1359180  66.8909560  83.9511070  37.4742750
  62.4273640  84.7330330  47.4523810  62.3989070  85.1373280  46.5852240
  62.2638610  83.8040690  47.2895410  72.4244430  70.0231240  30.8963590
  72.1117090  70.1158070  31.7962660  73.1856900  70.6012270  30.8461020
  74.3788460  85.5157430  48.7487980  74.8548180  85.9940320  49.4277060
  74.9995620  85.4474920  48.0233480  56.5811940  80.5606180  41.1609570
  56.6592360  80.6954950  40.2165290  57.1953620  79.8522070  41.3537690
  57.8259570  82.2606370  37.5715750  57.4187650  82.4020960  36.7169350
  58.7172580  81.9766530  37.3686960  73.7821710  82.7070280  45.9087990
  73.9084770  82.4682160  44.9905170  73.8243090  81.8754820  46.3810070
  67.6438450  86.4098280  44.4782800  68.1583120  86.3206290  45.2805230
  66.8007530  86.7557980  44.7710710  69.6192850  86.6953620  33.9066800
  69.4593990  86.4056560  34.8048630  69.4539560  85.9193750  33.3712030
  62.0981230  86.4752150  35.6838420  61.9223710  85.5587690  35.4706220
  61.2436970  86.8339440  35.9236220  69.3218980  84.2041180  32.4664800
  68.6284140  84.2018470  31.8067080  70.0641840  83.7800500  32.0358970
  68.8868910  85.8303890  36.5413290  69.3425860  85.0493270  36.8551910
  69.2261430  86.5410710  37.0854470  73.6345720  74.7602740  46.8737730
  73.0189990  75.2682410  46.3453190  73.3142140  73.8601070  46.8163670
  56.6371460  81.6020350  43.7004030  56.8002500  81.1325710  42.8823400
  57.1023910  81.0943910  44.3652870  70.6964550  74.8203580  45.4696580
  69.8458140  74.5209330  45.7905650  70.5366340  75.0645590  44.5580400
  67.7914260  76.3205330  47.5695370  68.1167670  75.4869080  47.2297600
  68.5794590  76.8433850  47.7173700  68.4302210  75.8623050  35.0636500
  67.8311100  76.5858850  34.8800120  68.9781820  75.7999830  34.2812950
  67.6222220  77.0892340  41.1890560  66.8903340  77.5979150  41.5380660
  67.2246560  76.2722320  40.8879340  68.0848130  72.5426020  40.6013500
  68.1020870  72.9934670  41.4455350  67.8363710  71.6431660  40.8146940
  58.2110440  80.9771780  45.8599840  57.8265230  80.3365450  46.4582800
  58.5222630  81.6807900  46.4294570  60.6788740  81.0717950  34.2559520
  59.9051000  80.5315570  34.0958240  61.4083370  80.5524560  33.9177280
  71.4376720  80.0683310  40.0485910  72.1575840  80.5638600  39.6582020
  71.2358540  79.3901200  39.4039780  66.8195520  80.1392370  45.9354910
  66.7532830  79.2188040  45.6812500  66.1900660  80.2367810  46.6499550
  69.6135050  75.8340920  32.4877460  70.5014670  76.1458150  32.3128800
  69.5840140  74.9613170  32.0958040  60.7226140  80.7398330  37.8938330
  61.2404810  79.9366590  37.8395220  60.2710160  80.6777470  38.7355160
  65.6095640  82.0064610  33.1665630  65.9511340  82.7506840  32.6708950
  64.7808350  82.3195730  33.5290460  66.7512250  82.9612940  45.6858710
  66.7656790  82.0293900  45.4677620  66.0437350  83.0472700  46.3248480
  71.8849320  77.1452760  31.9557320  71.8013040  77.5766980  31.1053760
  72.6043510  77.6051110  32.3884140  72.9623460  79.6020280  45.0327290
  72.2371650  80.1949060  44.8356680  73.4898920  79.5943820  44.2340660
  72.9136570  83.9995020  34.6839450  72.2712730  83.3450640  34.9583170
  72.5267230  84.4050110  33.9080120  68.4923050  81.3280450  38.5311140
  68.8446870  80.7308580  37.8712510  67.6085380  81.0024680  38.7019390
  64.5786330  82.0878140  35.9381550  65.2657460  82.6347350  36.3189140
  63.7918750  82.6318870  35.9731160  63.8813540  79.0924170  35.5506910
  64.3376320  79.9029420  35.7767100  63.5301750  78.7747310  36.3825400
  66.1846150  84.6030510  42.7799210  66.8288370  84.8089890  43.4572630
  66.5475590  83.8418910  42.3270060  67.4578230  82.6062860  41.4976660
  68.1000460  81.9056020  41.6108830  67.9827580  83.3861300  41.3173550
  71.3033950  82.8911480  31.2215800  71.0771530  82.1741920  31.8140440
  70.9130150  82.6423920  30.3837550  69.2315850  83.4057760  44.7012720
  69.5672090  83.9924450  45.3790640  68.3116190  83.2750470  44.9310510
  57.0849980  86.9178340  31.9960260  57.4447620  87.5167680  31.3417530
  56.9442320  87.4638230  32.7695290  70.8850200  80.8083420  32.8829960
  70.5971900  81.2696110  33.6707840  71.6802370  80.3481190  33.1514180
  57.0691840  85.1833200  46.4702660  57.1782960  84.2427940  46.3298050
  56.4172400  85.4487950  45.8216390  65.0604430  83.4549090  47.8700780
  64.7401300  82.7358330  48.4146470  64.3862790  84.1304160  47.9436840
  63.1018600  84.3009540  32.8133930  63.0928700  85.0339230  32.1978440
  62.1816960  84.0541120  32.9060890  58.7025240  79.5224430  33.5580690
  58.0953190  80.2623330  33.5675990  59.1774590  79.6123790  32.7318890
  68.2758030  73.6875250  43.2337580  68.6438850  72.8670460  43.5617150
  67.4156230  73.7477140  43.6493230  71.6420060  72.6432190  34.0425140
  71.0133220  72.7477860  33.3283370  71.1471980  72.8628970  34.8319020
  66.0878200  84.3637780  31.4759120  66.1890180  84.1601770  30.5461100
  65.1879940  84.1096060  31.6806900  64.7296310  86.8824100  36.1706790
  64.9837810  86.8445490  35.2486160  63.7808790  86.7557430  36.1635040
  72.4426880  72.5582800  44.3003940  71.9400480  73.2988200  44.6397750
  73.2583540  72.9466800  43.9840730  70.7348890  77.8015980  37.7465300
  69.7939030  77.8166210  37.9212990  71.0492960  77.0151940  38.1925600
  60.7130530  79.4835580  31.3069260  61.4793800  79.3716940  31.8694690
  60.7905220  78.7873550  30.6546030  72.7374470  84.9724830  39.4219560
  72.8621890  85.7956000  39.8943370  73.6040030  84.7615560  39.0743710
  60.2092000  87.0656040  39.0936690  60.9454480  86.5171500  39.3645260
  60.5932920  87.9312050  38.9542680  57.0937480  83.1329610  34.9678200
  56.1677260  83.3750750  34.9583610  57.5593910  83.9603870  34.8462950
  59.2150280  86.2502110  48.2822270  60.0163010  86.5714160  48.6957670
  58.7002100  85.8897690  49.0042180  63.3194310  86.2386350  30.9162260
  64.1122920  86.5275180  30.4644050  62.7998660  85.8078520  30.2374740
  68.0514910  82.3581980  48.2297680  67.4453070  82.3813580  47.4893430
  67.7469020  81.6265020  48.7664930  69.4815280  86.0862270  46.8407090
  70.4337030  86.0020290  46.7907330  69.3343500  86.7503980  47.5140880
  72.3724480  85.4656480  32.3399000  72.0865990  85.0521620  31.5253180
  72.1744030  86.3944190  32.2199520  63.8371710  81.4589760  30.7804610
  63.7322350  80.8442110  31.5065990  63.6695930  80.9355650  29.9967620
  63.9886030  80.1446560  46.7593840  63.2231700  80.7131560  46.6748510
  64.1701990  79.8522770  45.8662070  67.0774440  80.5209790  31.3846600
  66.5284540  80.9679090  32.0289340  67.6993700  80.0159040  31.9084270
  71.1309380  81.8751890  47.3168860  71.8718850  82.2127650  46.8136320
  70.3682060  82.0443950  46.7638630  62.7449560  79.4800710  33.2811900
  63.1665980  79.3140580  34.1243290  62.8700400  78.6700940  32.7867040
  65.2577200  78.5038320  30.5289000  65.7782860  77.7887340  30.1630150
  65.9045600  79.1424190  30.8289510  69.8055040  79.9266720  45.8524070
  70.2196060  80.0811800  46.7014490  68.8706040  80.0521940  46.0149850
  70.2777210  77.2662880  47.8563220  70.8597980  76.5115200  47.7683700
  70.4538980  77.7970320  47.0794700  64.5670270  79.8787200  43.8220000
  64.9858380  80.7219930  43.6496240  63.6478900  80.0159240  43.5926780
  66.9034170  77.6103380  45.2057840  67.0230380  77.0144520  45.9452680
  67.7628170  77.6473070  44.7859140  69.2422070  78.1640570  43.7820350
  68.7157290  78.6883190  43.1785490  69.5853410  78.7967960  44.4130080
  62.4177690  86.1840210  44.9377730  61.8798780  86.9086270  44.6186430
  62.6711650  85.7070550  44.1475070  68.4896370  73.7690540  46.6966680
  67.8011890  73.1072080  46.6316670  69.2102390  73.3228810  47.1415140
  65.2739900  87.4191420  45.1964380  65.1998600  88.3226560  45.5036750
  64.3718740  87.1003320  45.1686450  65.8225230  86.5849930  32.8190740
  66.7176020  86.9234900  32.8409500  65.8542860  85.8629340  32.1915020
  59.4621390  81.9576980  31.0477740  59.8996260  82.5006650  31.7035320
  59.9469120  81.1323930  31.0574080  56.6767190  84.7466010  38.4998000
  57.0070200  83.8787070  38.2676640  57.1058190  84.9524530  39.3302960
  61.2729110  83.0775020  36.1599970  60.9724650  82.9539990  37.0603880
  61.1666600  82.2183610  35.7515700  57.1657400  85.6136600  41.2379630
  56.7288390  85.7937400  42.0703780  57.7335080  86.3711220  41.0961350
  72.8019580  85.1153600  45.5256940  72.2021570  85.1746160  44.7820860
  72.9313480  84.1758580  45.6553790  74.0421030  82.8571420  30.8626650
  73.2113990  82.9248070  31.3333880  74.2192860  83.7475540  30.5593510
  73.4977490  79.6018900  33.3660850  74.2596400  80.1715550  33.4720540
  73.5131860  79.0346100  34.1369160  74.5037460  80.4569000  38.2102780
  74.8746290  79.6736320  37.8038750  75.1439390  81.1458100  38.0320080
  71.4871220  81.8405580  43.6233100  70.6731060  82.2702740  43.8858890
  71.8945420  82.4523990  43.0102150  73.5496660  79.8953270  30.5233370
  73.8245500  80.8032150  30.3952590  73.3607400  79.8315800  31.4595360
  69.9472270  72.9198120  31.8187000  70.3657150  72.7329100  30.9783660
  69.6408330  72.0677170  32.1289930  73.4462000  77.8322260  35.5162800
  73.0705600  77.0650190  35.0844090  72.7165120  78.2144960  36.0037730
  72.8361620  76.9793780  45.1502320  72.6047710  76.7506530  44.2500270
  73.0966170  77.8993330  45.1047210  71.2749690  72.2050210  47.9282020
  72.1519870  72.2133610  48.3116020  71.2870530  71.4681050  47.3174370
  72.7212960  76.0579750  38.8170040  73.2450440  75.5642400  38.1860210
  73.3072380  76.1930110  39.5617610  72.9002680  76.1419620  42.3389590
  71.9505390  76.1083160  42.4534580  73.0815690  77.0519730  42.1039360
  72.2112930  75.3153100  34.7562450  72.7072050  75.0823970  35.5411330
  72.0129000  74.4764940  34.3400090  73.6400090  73.9514050  37.2900130
  73.5299370  73.7970090  38.2282400  74.4007680  73.4234990  37.0475540
  74.5290360  71.7821970  30.5306270  75.4539670  71.6503150  30.3224560
  74.5066150  71.8614790  31.4842720  74.6028850  72.5532630  33.1562980
  73.8080350  72.4877750  33.6855890  74.8072130  73.4883270  33.1448330
  71.5447270  86.5924180  37.1501370  72.1406340  86.2708750  36.4735790
  71.8025420  86.1196000  37.9414640  59.4509840  83.0242090  47.2992000
  59.4079470  82.6535000  48.1806460  59.5820850  83.9619660  47.4393820
  63.1515870  84.5801680  42.9001720  62.9107230  84.8476240  42.0132240
  64.0918510  84.7507410  42.9552580  74.4120030  86.5996060  43.7012360
  73.9178310  86.9964930  42.9839490  73.8033320  85.9745270  44.0949640
  59.2897870  85.9704340  44.4189780  58.6958190  85.8389040  45.1579820
  59.2821710  85.1342480  43.9531880  69.6424870  71.4707440  44.0061530
  69.3138230  70.6559200  43.6263260  70.5907170  71.4277250  43.8827220
  72.0959480  87.2419480  40.9799100  71.6362450  87.9935290  40.6057120
  71.4671940  86.5225950  40.9213900  58.9210100  83.3362720  43.3697820
  58.1944160  82.7168010  43.3023770  58.9819250  83.7303330  42.4995900
  62.5255200  85.5507720  40.1547230  63.0420220  84.9395080  39.6295490
  63.1752580  86.0536500  40.6458240  65.2650700  86.4416210  40.9816210
  65.5528510  86.1870510  40.1049220  65.7773920  85.8893570  41.5721780
  71.0348780  70.8829510  39.6061810  71.4756870  70.8274610  38.7583410
  70.7656370  71.7987520  39.6771990  72.8987350  70.5144750  37.6170630
  72.8375750  69.5705970  37.4701650  73.6779380  70.6224840  38.1624090
  57.2040100  86.6537110  36.5794580  57.0362140  86.0207790  37.2776470
  56.3374610  86.8596510  36.2288770  58.8102800  85.3470340  34.0244720
  58.2850420  85.7278370  33.3206680  58.7347380  85.9721110  34.7454430
  65.3323060  87.3632310  48.3484410  66.2590370  87.1276580  48.3920370
  65.3173490  88.1904310  47.8670440  73.5668120  86.9057880  35.3458660
  73.7420310  86.2195620  34.7019580  72.8689690  87.4304930  34.9535330
  61.4095770  87.2952720  32.8993970  62.1414590  87.0112000  32.3517860
  61.6689440  87.0566000  33.7893350  60.5710560  83.4117450  32.9040300
  59.9419440  83.8802550  33.4526130  60.6858390  82.5666670  33.3386490
  71.9000620  86.5902170  48.1725450  72.6925940  86.0951400  47.9651410
  72.1933770  87.2692310  48.7801060  68.0260280  77.4623110  19.0541500
  67.9454330  76.5477720  18.7833210  67.6124700  77.9590180  18.3481210
  66.1578320  79.2402130  20.9350770  65.3820420  78.7602570  21.2249340
  66.8091250  78.5607780  20.7606930  60.1744150  79.5521940  21.8126530
  59.3429030  79.2970650  22.2123040  60.7825130  79.6232710  22.5484450
  70.1785750  83.6462320  19.7149900  69.7167280  82.8749560  20.0437070
  70.9911300  83.6728390  20.2202350  60.1545410  83.5862030  22.0084550
  60.4573450  82.6959770  21.8294770  60.8989000  84.1432250  21.7806800
  58.5836100  74.5123830  15.5968920  57.6952800  74.8539800  15.4948800
  58.8677290  74.3124150  14.7049750  56.5469110  77.1129480  21.4808620
  57.1185220  76.3451680  21.4812260  56.5470650  77.4118240  20.5715230
  66.4049060  85.9320330  19.3353890  65.7860500  86.3877830  18.7648330
  67.2600840  86.0871790  18.9343590  65.5987310  81.9159320  20.9420930
  65.5295590  80.9749260  20.7810060  66.3607170  82.0060730  21.5143500
  57.7893980  72.5213840  23.2677550  57.6096820  71.6239590  23.5480310
  57.3874060  73.0685710  23.9424500  66.6292480  74.7229700  21.1689860
  67.0057300  73.8501580  21.0563530  66.5311990  75.0588400  20.2780300
  60.7597490  73.0955330  16.6307300  60.8664240  73.9959060  16.9376060
  59.8489850  73.0473300  16.3401950  70.4116600  72.2180140  18.1018200
  71.2326220  71.7276710  18.1443680  70.4450680  72.8077800  18.8550040
  58.4080650  75.0174340  21.8759890  59.0890760  75.2812710  22.4947290
  58.0928700  74.1775210  22.2097900  62.6005220  76.0641700  20.9632480
  63.1083440  76.5622670  21.6037500  63.1318460  75.2876900  20.7871840
  74.7016150  74.2346890  24.6661830  73.9968320  74.6228600  24.1476940
  74.9674070  74.9297180  25.2682760  67.2712410  80.8159570  16.7285800
  66.6529680  81.2809020  16.1648520  67.7835660  81.5087050  17.1455310
  62.1344170  80.3435440  23.4069400  61.8013550  80.9704360  24.0490470
  62.3110850  80.8697320  22.6271070  70.6478080  74.1580520  20.8745740
  69.9433650  74.4465410  21.4548850  71.0090240  74.9680630  20.5145300
  60.5656650  72.4150220  23.2366350  60.9073460  73.2592270  22.9420220
  59.6272460  72.5633960  23.3531690  61.3463270  82.3116240  25.2218580
  61.9637270  82.9867320  24.9403030  60.4856390  82.7204220  25.1306080
  56.6395610  81.5016100  14.1025430  56.2623590  81.9903200  13.3710330
  56.8968680  82.1741380  14.7331960  72.2640860  83.7755650  23.1373220
  71.5804380  84.4454760  23.1289890  72.8035150  83.9736300  22.3718080
  73.7165000  73.6035310  21.2654950  72.7689910  73.6374290  21.3970380
  74.0414990  74.4174260  21.6504310  64.2484540  69.9032490  19.5610940
  64.5559520  69.3479380  18.8446440  63.3185240  70.0376950  19.3783930
  69.7999600  85.6199780  21.8518400  69.8126760  85.2162070  20.9840660
  69.2474820  86.3947070  21.7479830  71.0945020  82.3416000  16.9408570
  70.9841350  81.3990330  17.0657990  71.0913270  82.7031640  17.8271330
  69.1985040  80.5229620  23.1801010  69.6153830  80.3089730  22.3454470
  69.9224860  80.7802410  23.7509630  66.6365300  77.9681320  16.2971060
  65.7094580  77.9018700  16.5259530  66.7890120  78.9061450  16.1826300
  66.6234380  74.2398320  13.2938220  65.6838050  74.4012280  13.3790680
  66.9417640  74.9584000  12.7474210  73.1447140  78.9216840  23.2717250
  72.3165770  78.9909930  22.7967380  73.7397620  79.5071150  22.8033080
  70.6662590  79.5301620  16.8006310  70.0475010  79.1921170  16.1532610
  70.6487040  78.8861380  17.5085500  70.1089150  75.7086160  24.2172120
  69.6960330  76.5339870  24.4712110  69.3765100  75.1231200  24.0248480
  62.2421940  78.4946060  19.0790790  61.8378940  77.7823310  18.5836690
  62.3285060  78.1499300  19.9678830  62.7103640  82.1813620  21.2430000
  62.4131930  81.5759090  20.5637780  63.6603460  82.2190930  21.1319360
  60.9550560  75.2689270  22.8589830  61.5065150  75.3784610  22.0843080
  61.4694070  75.6426870  23.5745060  70.7989250  85.7545490  24.9053100
  70.3219810  86.5617680  24.7125710  70.1151040  85.1023820  25.0579310
  61.8022070  81.9195310  27.8937800  60.9050600  82.1435280  28.1411200
  61.8274940  82.0430250  26.9449200  68.8427290  78.7688430  13.8079060
  69.2820570  77.9310860  13.6616880  69.5555710  79.4017830  13.8943200
  60.6293290  78.7908630  26.4695170  60.4901060  79.6631430  26.8382570
  59.7474650  78.4481440  26.3243110  66.9522670  83.7084500  17.7760300
  67.3918580  84.4508830  17.3615690  66.8909560  83.9511070  18.6999260
  62.4273640  84.7330330  28.6780320  62.3989070  85.1373280  27.8108750
  62.2638610  83.8040690  28.5151920  72.4244430  70.0231240  12.1220100
  72.1117090  70.1158070  13.0219170  73.1856900  70.6012270  12.0717530
  58.9426570  77.3891040  16.5797440  58.8224170  78.1153130  15.9678710
  58.6327460  76.6193950  16.1025350  74.3788460  85.5157430  29.9744490
  74.8548180  85.9940320  30.6533570  74.9995620  85.4474920  29.2489990
  56.5811940  80.5606180  22.3866080  56.6592360  80.6954950  21.4421800
  57.1953620  79.8522070  22.5794200  57.8259570  82.2606370  18.7972260
  57.4187650  82.4020960  17.9425860  58.7172580  81.9766530  18.5943470
  73.7821710  82.7070280  27.1344500  73.9084770  82.4682160  26.2161680
  73.8243090  81.8754820  27.6066580  67.6438450  86.4098280  25.7039310
  68.1583120  86.3206290  26.5061740  66.8007530  86.7557980  25.9967220
  69.6192850  86.6953620  15.1323310  69.4593990  86.4056560  16.0305140
  69.4539560  85.9193750  14.5968540  62.0981230  86.4752150  16.9094930
  61.9223710  85.5587690  16.6962730  61.2436970  86.8339440  17.1492730
  69.3218980  84.2041180  13.6921310  68.6284140  84.2018470  13.0323590
  70.0641840  83.7800500  13.2615480  68.8868910  85.8303890  17.7669800
  69.3425860  85.0493270  18.0808420  69.2261430  86.5410710  18.3110980
  73.6345720  74.7602740  28.0994240  73.0189990  75.2682410  27.5709700
  73.3142140  73.8601070  28.0420180  56.6371460  81.6020350  24.9260540
  56.8002500  81.1325710  24.1079910  57.1023910  81.0943910  25.5909380
  61.4090230  70.7326110  19.9621110  60.9658380  71.5135650  19.6305630
  61.9675220  71.0556000  20.6692050  70.6964550  74.8203580  26.6953090
  69.8458140  74.5209330  27.0162160  70.5366340  75.0645590  25.7836910
  67.7914260  76.3205330  28.7951880  68.1167670  75.4869080  28.4554110
  68.5794590  76.8433850  28.9430210  64.5249050  70.3536810  14.8426940
  63.9003230  70.3496680  15.5680250  64.4379170  69.4867770  14.4462910
  63.4466130  71.2773440  21.8210710  63.7438460  72.1836270  21.7402730
  63.9951690  70.7892220  21.2070280  61.2004450  75.8559680  17.6902360
  60.9745370  75.6396850  18.5948980  60.4196980  76.2888140  17.3448330
  68.4302210  75.8623050  16.2893010  67.8311100  76.5858850  16.1056630
  68.9781820  75.7999830  15.5069460  67.0367080  74.4986590  18.3196290
  67.4296650  74.8158790  17.5064980  67.3983930  73.6198470  18.4340810
  56.0731250  71.0887390  20.5426490  55.7844300  71.6590250  21.2551470
  56.8177010  70.6091840  20.9057720  56.2601480  75.0307510  11.7529210
  56.1776150  75.9738270  11.8944200  55.9084540  74.8882420  10.8741560
  67.6222220  77.0892340  22.4147070  66.8903340  77.5979150  22.7637170
  67.2246560  76.2722320  22.1135850  64.0599610  73.7646540  20.8199560
  64.0635670  73.3236490  19.9704100  64.9550730  74.0863870  20.9271380
  59.9101990  73.6473030  19.7793770  59.5702040  74.1248260  20.5360820
  59.1479310  73.1938150  19.4194870  64.1219760  74.7658620  13.8106320
  64.2432580  74.7245100  14.7592140  63.7368270  75.6282770  13.6553050
  68.0848130  72.5426020  21.8270010  68.1020870  72.9934670  22.6711860
  67.8363710  71.6431660  22.0403450  63.1341260  77.0759760  13.2089620
  62.5658160  76.6278010  12.5825530  63.8430260  77.4352540  12.6754770
  71.5118880  69.9558200  27.6656390  71.8364650  69.2247860  28.1914370
  71.5475390  69.6371840  26.7637380  58.2110440  80.9771780  27.0856350
  57.8265230  80.3365450  27.6839310  58.5222630  81.6807900  27.6551080
  64.3607580  77.8248320  22.5664970  64.7277710  77.3506890  23.3126310
  64.1712640  78.6989890  22.9073310  57.2248070  72.5692010  18.6958440
  56.9394990  72.2047680  19.5337060  57.1626930  71.8372470  18.0821580
  62.1506950  76.8656960  24.8849180  61.8464020  77.7448940  25.1099540
  63.1053410  76.9256750  24.9206620  60.6788740  81.0717950  15.4816030
  59.9051000  80.5315570  15.3214750  61.4083370  80.5524560  15.1433790
  71.4376720  80.0683310  21.2742420  72.1575840  80.5638600  20.8838530
  71.2358540  79.3901200  20.6296290  66.8986660  71.4621270  15.4171810
  66.0851270  70.9634440  15.3417120  66.7048610  72.3019520  15.0008160
  66.8195520  80.1392370  27.1611420  66.7532830  79.2188040  26.9069010
  66.1900660  80.2367810  27.8756060  69.6135050  75.8340920  13.7133970
  70.5014670  76.1458150  13.5385310  69.5840140  74.9613170  13.3214550
  60.7226140  80.7398330  19.1194840  61.2404810  79.9366590  19.0651730
  60.2710160  80.6777470  19.9611670  65.6095640  82.0064610  14.3922140
  65.9511340  82.7506840  13.8965460  64.7808350  82.3195730  14.7546970
  66.7512250  82.9612940  26.9115220  66.7656790  82.0293900  26.6934130
  66.0437350  83.0472700  27.5504990  71.8849320  77.1452760  13.1813830
  71.8013040  77.5766980  12.3310270  72.6043510  77.6051110  13.6140650
  72.9623460  79.6020280  26.2583800  72.2371650  80.1949060  26.0613190
  73.4898920  79.5943820  25.4597170  72.9136570  83.9995020  15.9095960
  72.2712730  83.3450640  16.1839680  72.5267230  84.4050110  15.1336630
  68.4923050  81.3280450  19.7567650  68.8446870  80.7308580  19.0969020
  67.6085380  81.0024680  19.9275900  64.5786330  82.0878140  17.1638060
  65.2657460  82.6347350  17.5445650  63.7918750  82.6318870  17.1987670
  56.7178730  77.7050960  12.6555140  57.5873580  77.9875760  12.9391060
  56.2269050  78.5186830  12.5403950  63.8813540  79.0924170  16.7763420
  64.3376320  79.9029420  17.0023610  63.5301750  78.7747310  17.6081910
  66.1846150  84.6030510  24.0055720  66.8288370  84.8089890  24.6829140
  66.5475590  83.8418910  23.5526570  59.7825320  69.4361820  17.2485940
  59.6539950  69.4279720  18.1970860  58.9587340  69.7744910  16.8976950
  67.4578230  82.6062860  22.7233170  68.1000460  81.9056020  22.8365340
  67.9827580  83.3861300  22.5430060  71.3033950  82.8911480  12.4472310
  71.0771530  82.1741920  13.0396950  70.9130150  82.6423920  11.6094060
  69.2315850  83.4057760  25.9269230  69.5672090  83.9924450  26.6047150
  68.3116190  83.2750470  26.1567020  57.0849980  86.9178340  13.2216770
  57.4447620  87.5167680  12.5674040  56.9442320  87.4638230  13.9951800
  70.8850200  80.8083420  14.1086470  70.5971900  81.2696110  14.8964350
  71.6802370  80.3481190  14.3770690  57.0691840  85.1833200  27.6959170
  57.1782960  84.2427940  27.5554560  56.4172400  85.4487950  27.0472900
  65.0604430  83.4549090  29.0957290  64.7401300  82.7358330  29.6402980
  64.3862790  84.1304160  29.1693350  63.1018600  84.3009540  14.0390440
  63.0928700  85.0339230  13.4234950  62.1816960  84.0541120  14.1317400
  58.7025240  79.5224430  14.7837200  58.0953190  80.2623330  14.7932500
  59.1774590  79.6123790  13.9575400  68.2758030  73.6875250  24.4594090
  68.6438850  72.8670460  24.7873660  67.4156230  73.7477140  24.8749740
  71.6420060  72.6432190  15.2681650  71.0133220  72.7477860  14.5539880
  71.1471980  72.8628970  16.0575530  66.0878200  84.3637780  12.7015630
  66.1890180  84.1601770  11.7717610  65.1879940  84.1096060  12.9063410
  63.6104090  74.9218140  16.6839530  62.9020240  75.3904480  17.1253140
  63.8948570  74.2640150  17.3184720  65.2360020  76.3414840  24.6832060
  65.7345270  76.8160660  25.3483910  65.3782970  75.4178360  24.8902090
  67.6419520  71.6468800  18.1235320  67.5187300  71.6654930  17.1744830
  68.5904080  71.6947740  18.2433720  64.7296310  86.8824100  17.3963300
  64.9837810  86.8445490  16.4742670  63.7808790  86.7557430  17.3891550
  61.8139110  73.2303220  14.0590240  62.6629640  73.6673370  13.9930430
  61.4470380  73.5423480  14.8862300  72.4426880  72.5582800  25.5260450
  71.9400480  73.2988200  25.8654260  73.2583540  72.9466800  25.2097240
  70.7348890  77.8015980  18.9721810  69.7939030  77.8166210  19.1469500
  71.0492960  77.0151940  19.4182110  60.7130530  79.4835580  12.5325770
  61.4793800  79.3716940  13.0951200  60.7905220  78.7873550  11.8802540
  59.4077290  76.9160650  13.2158660  59.4880880  75.9688160  13.3276060
  60.2997040  77.2467530  13.3219320  72.7374470  84.9724830  20.6476070
  72.8621890  85.7956000  21.1199880  73.6040030  84.7615560  20.3000220
  60.2092000  87.0656040  20.3193200  60.9454480  86.5171500  20.5901770
  60.5932920  87.9312050  20.1799190  57.0937480  83.1329610  16.1934710
  56.1677260  83.3750750  16.1840120  57.5593910  83.9603870  16.0719460
  59.2150280  86.2502110  29.5078780  60.0163010  86.5714160  29.9214180
  58.7002100  85.8897690  30.2298690  63.3194310  86.2386350  12.1418770
  64.1122920  86.5275180  11.6900560  62.7998660  85.8078520  11.4631250
  68.0514910  82.3581980  29.4554190  67.4453070  82.3813580  28.7149940
  67.7469020  81.6265020  29.9921440  69.4815280  86.0862270  28.0663600
  70.4337030  86.0020290  28.0163840  69.3343500  86.7503980  28.7397390
  72.3724480  85.4656480  13.5655510  72.0865990  85.0521620  12.7509690
  72.1744030  86.3944190  13.4456030  63.8371710  81.4589760  12.0061120
  63.7322350  80.8442110  12.7322500  63.6695930  80.9355650  11.2224130
  63.9886030  80.1446560  27.9850350  63.2231700  80.7131560  27.9005020
  64.1701990  79.8522770  27.0918580  67.0774440  80.5209790  12.6103110
  66.5284540  80.9679090  13.2545850  67.6993700  80.0159040  13.1340780
  71.1309380  81.8751890  28.5425370  71.8718850  82.2127650  28.0392830
  70.3682060  82.0443950  27.9895140  62.7449560  79.4800710  14.5068410
  63.1665980  79.3140580  15.3499800  62.8700400  78.6700940  14.0123550
  65.2577200  78.5038320  11.7545510  65.7782860  77.7887340  11.3886660
  65.9045600  79.1424190  12.0546020  69.8055040  79.9266720  27.0780580
  70.2196060  80.0811800  27.9271000  68.8706040  80.0521940  27.2406360
  70.2777210  77.2662880  29.0819730  70.8597980  76.5115200  28.9940210
  70.4538980  77.7970320  28.3051210  64.1610720  70.9832870  24.4264070
  63.7128020  71.0057130  23.5809620  63.5275920  70.5851890  25.0234370
  64.5670270  79.8787200  25.0476510  64.9858380  80.7219930  24.8752750
  63.6478900  80.0159240  24.8183290  66.9034170  77.6103380  26.4314350
  67.0230380  77.0144520  27.1709190  67.7628170  77.6473070  26.0115650
  69.2422070  78.1640570  25.0076860  68.7157290  78.6883190  24.4042000
  69.5853410  78.7967960  25.6386590  61.6408460  75.5533940  11.4526570
  61.4397520  74.6901300  11.8139910  61.4700510  75.4667300  10.5148170
  62.4177690  86.1840210  26.1634240  61.8798780  86.9086270  25.8442940
  62.6711650  85.7070550  25.3731580  68.4896370  73.7690540  27.9223190
  67.8011890  73.1072080  27.8573180  69.2102390  73.3228810  28.3671650
  69.1196770  70.3642170  13.9813450  69.3999060  69.5210070  14.3372870
  68.3462500  70.5965280  14.4952200  60.4391260  72.6534560  11.4404450
  60.7417160  72.6601990  10.5323600  61.1785850  72.3032420  11.9372110
  65.2739900  87.4191420  26.4220890  65.1998600  88.3226560  26.7293260
  64.3718740  87.1003320  26.3942960  63.6576190  71.5969180  12.4260650
  63.3098190  70.9193170  11.8463100  63.8588960  71.1358690  13.2404040
  65.8225230  86.5849930  14.0447250  66.7176020  86.9234900  14.0666010
  65.8542860  85.8629340  13.4171530  59.4621390  81.9576980  12.2734250
  59.8996260  82.5006650  12.9291830  59.9469120  81.1323930  12.2830590
  56.6767190  84.7466010  19.7254510  57.0070200  83.8787070  19.4933150
  57.1058190  84.9524530  20.5559470  61.2729110  83.0775020  17.3856480
  60.9724650  82.9539990  18.2860390  61.1666600  82.2183610  16.9772210
  57.1657400  85.6136600  22.4636140  56.7288390  85.7937400  23.2960290
  57.7335080  86.3711220  22.3217860  72.8019580  85.1153600  26.7513450
  72.2021570  85.1746160  26.0077370  72.9313480  84.1758580  26.8810300
  74.0421030  82.8571420  12.0883160  73.2113990  82.9248070  12.5590390
  74.2192860  83.7475540  11.7850020  73.4977490  79.6018900  14.5917360
  74.2596400  80.1715550  14.6977050  73.5131860  79.0346100  15.3625670
  56.9981830  78.1256830  18.8225020  56.3430670  77.8568470  18.1784720
  57.8359780  78.0161310  18.3727000  74.5037460  80.4569000  19.4359290
  74.8746290  79.6736320  19.0295260  75.1439390  81.1458100  19.2576590
  71.4871220  81.8405580  24.8489610  70.6731060  82.2702740  25.1115400
  71.8945420  82.4523990  24.2358660  73.5496660  79.8953270  11.7489880
  73.8245500  80.8032150  11.6209100  73.3607400  79.8315800  12.6851870
  69.9472270  72.9198120  13.0443510  70.3657150  72.7329100  12.2040170
  69.6408330  72.0677170  13.3546440  73.4462000  77.8322260  16.7419310
  73.0705600  77.0650190  16.3100600  72.7165120  78.2144960  17.2294240
  58.0357760  78.5109400  23.3628360  58.4030800  78.4236800  24.2424380
  57.4668580  77.7475950  23.2635220  72.8361620  76.9793780  26.3758830
  72.6047710  76.7506530  25.4756780  73.0966170  77.8993330  26.3303720
  71.2749690  72.2050210  29.1538530  72.1519870  72.2133610  29.5372530
  71.2870530  71.4681050  28.5430880  56.2119910  75.3355760  14.7650350
  55.3083990  75.5985960  14.5902010  56.6960530  75.6066930  13.9850310
  72.7212960  76.0579750  20.0426550  73.2450440  75.5642400  19.4116720
  73.3072380  76.1930110  20.7874120  72.9002680  76.1419620  23.5646100
  71.9505390  76.1083160  23.6791090  73.0815690  77.0519730  23.3295870
  58.7547120  74.3921300  12.6744730  59.4638820  73.9704520  12.1892010
  58.0387060  74.4596530  12.0428080  58.4021280  70.4460630  11.7147380
  59.1249410  70.9869570  12.0328600  58.6745800  70.1724050  10.8388920
  72.2112930  75.3153100  15.9818960  72.7072050  75.0823970  16.7667840
  72.0129000  74.4764940  15.5656600  58.0913470  69.6966820  21.6170000
  58.7389660  69.1464200  21.1765160  58.5115310  69.9509970  22.4385810
  73.6400090  73.9514050  18.5156640  73.5299370  73.7970090  19.4538910
  74.4007680  73.4234990  18.2732050  71.9865810  69.8908180  24.9739640
  72.6238030  70.5042320  25.3398830  72.1340700  69.9268840  24.0288870
  74.5290360  71.7821970  11.7562780  75.4539670  71.6503150  11.5481070
  74.5066150  71.8614790  12.7099230  74.6028850  72.5532630  14.3819490
  73.8080350  72.4877750  14.9112400  74.8072130  73.4883270  14.3704840
  71.5447270  86.5924180  18.3757880  72.1406340  86.2708750  17.6992300
  71.8025420  86.1196000  19.1671150  59.4509840  83.0242090  28.5248510
  59.4079470  82.6535000  29.4062970  59.5820850  83.9619660  28.6650330
  63.1515870  84.5801680  24.1258230  62.9107230  84.8476240  23.2388750
  64.0918510  84.7507410  24.1809090  74.4120030  86.5996060  24.9268870
  73.9178310  86.9964930  24.2096000  73.8033320  85.9745270  25.3206150
  59.2897870  85.9704340  25.6446290  58.6958190  85.8389040  26.3836330
  59.2821710  85.1342480  25.1788390  68.7352890  69.2636570  23.8476320
  67.8612730  69.5971680  23.6449250  68.6263640  68.7909750  24.6728190
  69.6424870  71.4707440  25.2318040  69.3138230  70.6559200  24.8519770
  70.5907170  71.4277250  25.1083730  72.0959480  87.2419480  22.2055610
  71.6362450  87.9935290  21.8313630  71.4671940  86.5225950  22.1470410
  58.9210100  83.3362720  24.5954330  58.1944160  82.7168010  24.5280280
  58.9819250  83.7303330  23.7252410  62.5255200  85.5507720  21.3803740
  63.0420220  84.9395080  20.8552000  63.1752580  86.0536500  21.8714750
  65.2650700  86.4416210  22.2072720  65.5528510  86.1870510  21.3305730
  65.7773920  85.8893570  22.7978290  66.4827710  70.1806410  22.7869230
  65.6999500  70.6551910  23.0665990  66.1890640  69.2761240  22.6782410
  71.0348780  70.8829510  20.8318320  71.4756870  70.8274610  19.9839920
  70.7656370  71.7987520  20.9028500  72.8987350  70.5144750  18.8427140
  72.8375750  69.5705970  18.6958160  73.6779380  70.6224840  19.3880600
  57.2040100  86.6537110  17.8051090  57.0362140  86.0207790  18.5032980
  56.3374610  86.8596510  17.4545280  57.8268120  70.4853890  15.3082950
  58.5847480  70.5982770  14.7346980  57.3645290  71.3223090  15.2626380
  64.3681930  72.5993160  18.2985260  63.5556440  72.2250050  17.9581140
  64.8723570  71.8438240  18.6006450  68.8706910  69.2635610  19.5368330
  69.4736280  69.8355820  20.0116850  68.1299900  69.8275050  19.3142230
  72.0141510  69.6657170  14.8108610  72.2092140  70.5640620  15.0776040
  71.2271380  69.4344250  15.3041560  58.8102800  85.3470340  15.2501230
  58.2850420  85.7278370  14.5463190  58.7347380  85.9721110  15.9710940
  60.1993270  71.0117940  13.8484920  60.7286030  70.2247740  13.7192870
  60.8321590  71.6909130  14.0820450  62.3931110  70.7493080  16.9030310
  61.7633850  70.0480390  17.0700440  61.8536250  71.5097210  16.6863470
  65.3323060  87.3632310  29.5740920  66.2590370  87.1276580  29.6176880
  65.3173490  88.1904310  29.0926950  73.5668120  86.9057880  16.5715170
  73.7420310  86.2195620  15.9276090  72.8689690  87.4304930  16.1791840
  61.4095770  87.2952720  14.1250480  62.1414590  87.0112000  13.5774370
  61.6689440  87.0566000  15.0149860  60.5710560  83.4117450  14.1296810
  59.9419440  83.8802550  14.6782640  60.6858390  82.5666670  14.5643000
  71.9000620  86.5902170  29.3981960  72.6925940  86.0951400  29.1907920
  72.1933770  87.2692310  30.0057570  66.1578320  79.2402130   2.1607280
  65.3820420  78.7602570   2.4505850  66.8091250  78.5607780   1.9863440
  60.1744150  79.5521940   3.0383040  59.3429030  79.2970650   3.4379550
  60.7825130  79.6232710   3.7740960  60.1545410  83.5862030   3.2341060
  60.4573450  82.6959770   3.0551280  60.8989000  84.1432250   3.0063310
  56.5469110  77.1129480   2.7065130  57.1185220  76.3451680   2.7068770
  56.5470650  77.4118240   1.7971740  65.5987310  81.9159320   2.1677440
  65.5295590  80.9749260   2.0066570  66.3607170  82.0060730   2.7400010
  57.7893980  72.5213840   4.4934060  57.6096820  71.6239590   4.7736820
  57.3874060  73.0685710   5.1681010  66.6292480  74.7229700   2.3946370
  67.0057300  73.8501580   2.2820040  66.5311990  75.0588400   1.5036810
  58.4080650  75.0174340   3.1016400  59.0890760  75.2812710   3.7203800
  58.0928700  74.1775210   3.4354410  62.6005220  76.0641700   2.1888990
  63.1083440  76.5622670   2.8294010  63.1318460  75.2876900   2.0128350
  74.7016150  74.2346890   5.8918340  73.9968320  74.6228600   5.3733450
  74.9674070  74.9297180   6.4939270  60.8841320  70.7040260   6.4552410
  60.8859760  71.2212650   5.6498310  60.0545630  70.2270440   6.4322340
  62.1344170  80.3435440   4.6325910  61.8013550  80.9704360   5.2746980
  62.3110850  80.8697320   3.8527580  70.6478080  74.1580520   2.1002250
  69.9433650  74.4465410   2.6805360  71.0090240  74.9680630   1.7401810
  60.5656650  72.4150220   4.4622860  60.9073460  73.2592270   4.1676730
  59.6272460  72.5633960   4.5788200  61.3463270  82.3116240   6.4475090
  61.9637270  82.9867320   6.1659540  60.4856390  82.7204220   6.3562590
  72.2640860  83.7755650   4.3629730  71.5804380  84.4454760   4.3546400
  72.8035150  83.9736300   3.5974590  73.7165000  73.6035310   2.4911460
  72.7689910  73.6374290   2.6226890  74.0414990  74.4174260   2.8760820
  69.7999600  85.6199780   3.0774910  69.8126760  85.2162070   2.2097170
  69.2474820  86.3947070   2.9736340  69.1985040  80.5229620   4.4057520
  69.6153830  80.3089730   3.5710980  69.9224860  80.7802410   4.9766140
  73.1447140  78.9216840   4.4973760  72.3165770  78.9909930   4.0223890
  73.7397620  79.5071150   4.0289590  70.1089150  75.7086160   5.4428630
  69.6960330  76.5339870   5.6968620  69.3765100  75.1231200   5.2504990
  62.7103640  82.1813620   2.4686510  62.4131930  81.5759090   1.7894290
  63.6603460  82.2190930   2.3575870  60.9550560  75.2689270   4.0846340
  61.5065150  75.3784610   3.3099590  61.4694070  75.6426870   4.8001570
  70.7989250  85.7545490   6.1309610  70.3219810  86.5617680   5.9382220
  70.1151040  85.1023820   6.2835820  61.8022070  81.9195310   9.1194310
  60.9050600  82.1435280   9.3667710  61.8274940  82.0430250   8.1705710
  60.6293290  78.7908630   7.6951680  60.4901060  79.6631430   8.0639080
  59.7474650  78.4481440   7.5499620  62.4273640  84.7330330   9.9036830
  62.3989070  85.1373280   9.0365260  62.2638610  83.8040690   9.7408430
  74.3788460  85.5157430  11.2001000  74.8548180  85.9940320  11.8790080
  74.9995620  85.4474920  10.4746500  56.5811940  80.5606180   3.6122590
  56.6592360  80.6954950   2.6678310  57.1953620  79.8522070   3.8050710
  73.7821710  82.7070280   8.3601010  73.9084770  82.4682160   7.4418190
  73.8243090  81.8754820   8.8323090  67.6438450  86.4098280   6.9295820
  68.1583120  86.3206290   7.7318250  66.8007530  86.7557980   7.2223730
  73.6345720  74.7602740   9.3250750  73.0189990  75.2682410   8.7966210
  73.3142140  73.8601070   9.2676690  56.6371460  81.6020350   6.1517050
  56.8002500  81.1325710   5.3336420  57.1023910  81.0943910   6.8165890
  65.6960040  73.5994630   6.7912940  65.2339410  73.8077650   7.6032880
  65.2938150  72.7853980   6.4883610  70.6964550  74.8203580   7.9209600
  69.8458140  74.5209330   8.2418670  70.5366340  75.0645590   7.0093420
  67.7914260  76.3205330  10.0208390  68.1167670  75.4869080   9.6810620
  68.5794590  76.8433850  10.1686720  63.4466130  71.2773440   3.0467220
  63.7438460  72.1836270   2.9659240  63.9951690  70.7892220   2.4326790
  63.6403660  76.7545260   9.5819140  63.5447260  75.8139990   9.4319540
  64.4835640  76.9760330   9.1867210  58.7714200  73.1658930   7.7352920
  58.3777590  74.0134140   7.9425700  58.0832600  72.5285300   7.9261560
  65.3459250  73.2493900  10.8049660  64.6557570  73.0566100  11.4395750
  66.0891550  73.5328540  11.3373960  56.0731250  71.0887390   1.7683000
  55.7844300  71.6590250   2.4807980  56.8177010  70.6091840   2.1314230
  67.6222220  77.0892340   3.6403580  66.8903340  77.5979150   3.9893680
  67.2246560  76.2722320   3.3392360  68.0848130  72.5426020   3.0526520
  68.1020870  72.9934670   3.8968370  67.8363710  71.6431660   3.2659960
  71.5118880  69.9558200   8.8912900  71.8364650  69.2247860   9.4170880
  71.5475390  69.6371840   7.9893890  58.2110440  80.9771780   8.3112860
  57.8265230  80.3365450   8.9095820  58.5222630  81.6807900   8.8807590
  64.3607580  77.8248320   3.7921480  64.7277710  77.3506890   4.5382820
  64.1712640  78.6989890   4.1329820  62.1506950  76.8656960   6.1105690
  61.8464020  77.7448940   6.3356050  63.1053410  76.9256750   6.1463130
  71.4376720  80.0683310   2.4998930  72.1575840  80.5638600   2.1095040
  71.2358540  79.3901200   1.8552800  66.8195520  80.1392370   8.3867930
  66.7532830  79.2188040   8.1325520  66.1900660  80.2367810   9.1012570
  58.2070680  77.7059700   7.2577050  57.8485620  78.3713550   7.8450390
  57.9125240  76.8743250   7.6289670  61.4083800  78.1643940  10.1416600
  61.1083940  78.3101120   9.2444420  62.1795040  77.6049230  10.0489990
  66.7512250  82.9612940   8.1371730  66.7656790  82.0293900   7.9190640
  66.0437350  83.0472700   8.7761500  72.9623460  79.6020280   7.4840310
  72.2371650  80.1949060   7.2869700  73.4898920  79.5943820   6.6853680
  66.1846150  84.6030510   5.2312230  66.8288370  84.8089890   5.9085650
  66.5475590  83.8418910   4.7783080  67.4578230  82.6062860   3.9489680
  68.1000460  81.9056020   4.0621850  67.9827580  83.3861300   3.7686570
  69.2315850  83.4057760   7.1525740  69.5672090  83.9924450   7.8303660
  68.3116190  83.2750470   7.3823530  56.7819250  71.1952940   7.9349150
  56.0677770  71.3949860   8.5401760  57.2014290  70.4192510   8.3063950
  57.0691840  85.1833200   8.9215680  57.1782960  84.2427940   8.7811070
  56.4172400  85.4487950   8.2729410  65.0604430  83.4549090  10.3213800
  64.7401300  82.7358330  10.8659490  64.3862790  84.1304160  10.3949860
  68.2758030  73.6875250   5.6850600  68.6438850  72.8670460   6.0130170
  67.4156230  73.7477140   6.1006250  65.2360020  76.3414840   5.9088570
  65.7345270  76.8160660   6.5740420  65.3782970  75.4178360   6.1158600
  72.4426880  72.5582800   6.7516960  71.9400480  73.2988200   7.0910770
  73.2583540  72.9466800   6.4353750  72.7374470  84.9724830   1.8732580
  72.8621890  85.7956000   2.3456390  73.6040030  84.7615560   1.5256730
  59.2150280  86.2502110  10.7335290  60.0163010  86.5714160  11.1470690
  58.7002100  85.8897690  11.4555200  68.0514910  82.3581980  10.6810700
  67.4453070  82.3813580   9.9406450  67.7469020  81.6265020  11.2177950
  69.4815280  86.0862270   9.2920110  70.4337030  86.0020290   9.2420350
  69.3343500  86.7503980   9.9653900  56.9348090  78.7375570   9.6771340
  57.4387110  78.1582850  10.2487570  56.1955510  79.0215800  10.2147710
  63.9886030  80.1446560   9.2106860  63.2231700  80.7131560   9.1261530
  64.1701990  79.8522770   8.3175090  71.1309380  81.8751890   9.7681880
  71.8718850  82.2127650   9.2649340  70.3682060  82.0443950   9.2151650
  58.9671170  76.8805160  10.5721410  59.0076510  76.5819030  11.4806640
  59.8216670  77.2812770  10.4128930  60.9076980  75.4597260   8.5395900
  60.3773440  74.9688210   7.9119240  61.5765050  75.8881460   8.0053830
  69.8055040  79.9266720   8.3037090  70.2196060  80.0811800   9.1527510
  68.8706040  80.0521940   8.4662870  70.2777210  77.2662880  10.3076240
  70.8597980  76.5115200  10.2196720  70.4538980  77.7970320   9.5307720
  61.3949280  72.4259630   8.6193190  61.3006150  71.8080380   7.8944060
  60.8146670  73.1525920   8.3923100  64.1610720  70.9832870   5.6520580
  63.7128020  71.0057130   4.8066130  63.5275920  70.5851890   6.2490880
  64.5670270  79.8787200   6.2733020  64.9858380  80.7219930   6.1009260
  63.6478900  80.0159240   6.0439800  66.9034170  77.6103380   7.6570860
  67.0230380  77.0144520   8.3965700  67.7628170  77.6473070   7.2372160
  69.2422070  78.1640570   6.2333370  68.7157290  78.6883190   5.6298510
  69.5853410  78.7967960   6.8643100  62.4177690  86.1840210   7.3890750
  61.8798780  86.9086270   7.0699450  62.6711650  85.7070550   6.5988090
  63.6702940  74.1524730   8.9146680  64.2602630  73.8440580   9.6024500
  62.8523180  73.6804480   9.0706580  68.4896370  73.7690540   9.1479700
  67.8011890  73.1072080   9.0829690  69.2102390  73.3228810   9.5928160
  65.2739900  87.4191420   7.6477400  65.1998600  88.3226560   7.9549770
  64.3718740  87.1003320   7.6199470  57.1657400  85.6136600   3.6892650
  56.7288390  85.7937400   4.5216800  57.7335080  86.3711220   3.5474370
  72.8019580  85.1153600   7.9769960  72.2021570  85.1746160   7.2333880
  72.9313480  84.1758580   8.1066810  71.4871220  81.8405580   6.0746120
  70.6731060  82.2702740   6.3371910  71.8945420  82.4523990   5.4615170
  58.0357760  78.5109400   4.5884870  58.4030800  78.4236800   5.4680890
  57.4668580  77.7475950   4.4891730  72.8361620  76.9793780   7.6015340
  72.6047710  76.7506530   6.7013290  73.0966170  77.8993330   7.5560230
  57.5873760  75.4218490   8.4943290  56.6929810  75.3885250   8.8337000
  58.1271310  75.6205280   9.2594540  71.2749690  72.2050210  10.3795040
  72.1519870  72.2133610  10.7629040  71.2870530  71.4681050   9.7687390
  72.9002680  76.1419620   4.7902610  71.9505390  76.1083160   4.9047600
  73.0815690  77.0519730   4.5552380  58.0913470  69.6966820   2.8426510
  58.7389660  69.1464200   2.4021670  58.5115310  69.9509970   3.6642320
  71.9865810  69.8908180   6.1996150  72.6238030  70.5042320   6.5655340
  72.1340700  69.9268840   5.2545380  57.8445470  69.8522490   5.5851830
  57.4960290  70.3086310   6.3510010  57.5133170  68.9579620   5.6674260
  59.4509840  83.0242090   9.7505020  59.4079470  82.6535000  10.6319480
  59.5820850  83.9619660   9.8906840  63.1515870  84.5801680   5.3514740
  62.9107230  84.8476240   4.4645260  64.0918510  84.7507410   5.4065600
  65.3570290  71.0434370   9.1071250  65.2959180  71.6356200   9.8566660
  66.2970670  70.9360330   8.9621510  67.9944850  70.7004430   8.7463540
  68.6085260  71.0183720   8.0844620  68.5394410  70.2153020   9.3659400
  74.4120030  86.5996060   6.1525380  73.9178310  86.9964930   5.4352510
  73.8033320  85.9745270   6.5462660  58.5166110  69.3798690   8.8602600
  59.0649100  69.1986740   8.0968710  58.5821420  68.5892800   9.3958910
  59.2897870  85.9704340   6.8702800  58.6958190  85.8389040   7.6092840
  59.2821710  85.1342480   6.4044900  68.7352890  69.2636570   5.0732830
  67.8612730  69.5971680   4.8705760  68.6263640  68.7909750   5.8984700
  69.6424870  71.4707440   6.4574550  69.3138230  70.6559200   6.0776280
  70.5907170  71.4277250   6.3340240  72.0959480  87.2419480   3.4312120
  71.6362450  87.9935290   3.0570140  71.4671940  86.5225950   3.3726920
  58.9210100  83.3362720   5.8210840  58.1944160  82.7168010   5.7536790
  58.9819250  83.7303330   4.9508920  62.5255200  85.5507720   2.6060250
  63.0420220  84.9395080   2.0808510  63.1752580  86.0536500   3.0971260
  65.2650700  86.4416210   3.4329230  65.5528510  86.1870510   2.5562240
  65.7773920  85.8893570   4.0234800  66.4827710  70.1806410   4.0125740
  65.6999500  70.6551910   4.2922500  66.1890640  69.2761240   3.9038920
  65.3323060  87.3632310  10.7997430  66.2590370  87.1276580  10.8433390
  65.3173490  88.1904310  10.3183460  62.5186670  70.0277060  10.5639310
  62.2370940  70.5310660   9.8000130  62.9006370  69.2298810  10.1981440
  69.1202130  69.4430640  11.1419780  69.0067580  69.7625250  12.0371300
  69.9371870  69.8443150  10.8457060  71.9000620  86.5902170  10.6238470
  72.6925940  86.0951400  10.4164430  72.1933770  87.2692310  11.2314080
  68.0260280  58.6879620  75.3771970  67.9454330  57.7734230  75.1063680
  67.6124700  59.1846690  74.6711680  70.1785750  64.8718830  76.0380370
  69.7167280  64.1006070  76.3667540  70.9911300  64.8984900  76.5432820
  58.5836100  55.7380340  71.9199390  57.6952800  56.0796310  71.8179270
  58.8677290  55.5380660  71.0280220  66.4049060  67.1576840  75.6584360
  65.7860500  67.6134340  75.0878800  67.2600840  67.3128300  75.2574060
  60.7597490  54.3211840  72.9537770  60.8664240  55.2215570  73.2606530
  59.8489850  54.2729810  72.6632420  70.4116600  53.4436650  74.4248670
  71.2326220  52.9533220  74.4674150  70.4450680  54.0334310  75.1780510
  67.2712410  62.0416080  73.0516270  66.6529680  62.5065530  72.4878990
  67.7835660  62.7343560  73.4685780  56.6395610  62.7272610  70.4255900
  56.2623590  63.2159710  69.6940800  56.8968680  63.3997890  71.0562430
  64.2484540  51.1289000  75.8841410  64.5559520  50.5735890  75.1676910
  63.3185240  51.2633460  75.7014400  71.0945020  63.5672510  73.2639040
  70.9841350  62.6246840  73.3888460  71.0913270  63.9288150  74.1501800
  66.6365300  59.1937830  72.6201530  65.7094580  59.1275210  72.8490000
  66.7890120  60.1317960  72.5056770  66.6234380  55.4654830  69.6168690
  65.6838050  55.6268790  69.7021150  66.9417640  56.1840510  69.0704680
  70.6662590  60.7558130  73.1236780  70.0475010  60.4177680  72.4763080
  70.6487040  60.1117890  73.8315970  62.2421940  59.7202570  75.4021260
  61.8378940  59.0079820  74.9067160  62.3285060  59.3755810  76.2909300
  68.8427290  59.9944940  70.1309530  69.2820570  59.1567370  69.9847350
  69.5555710  60.6274340  70.2173670  66.9522670  64.9341010  74.0990770
  67.3918580  65.6765340  73.6846160  66.8909560  65.1767580  75.0229730
  72.4244430  51.2487750  68.4450570  72.1117090  51.3414580  69.3449640
  73.1856900  51.8268780  68.3948000  58.9426570  58.6147550  72.9027910
  58.8224170  59.3409640  72.2909180  58.6327460  57.8450460  72.4255820
  57.8259570  63.4862880  75.1202730  57.4187650  63.6277470  74.2656330
  58.7172580  63.2023040  74.9173940  69.6192850  67.9210130  71.4553780
  69.4593990  67.6313070  72.3535610  69.4539560  67.1450260  70.9199010
  62.0981230  67.7008660  73.2325400  61.9223710  66.7844200  73.0193200
  61.2436970  68.0595950  73.4723200  69.3218980  65.4297690  70.0151780
  68.6284140  65.4274980  69.3554060  70.0641840  65.0057010  69.5845950
  68.8868910  67.0560400  74.0900270  69.3425860  66.2749780  74.4038890
  69.2261430  67.7667220  74.6341450  61.4090230  51.9582620  76.2851580
  60.9658380  52.7392160  75.9536100  61.9675220  52.2812510  76.9922520
  64.5249050  51.5793320  71.1657410  63.9003230  51.5753190  71.8910720
  64.4379170  50.7124280  70.7693380  61.2004450  57.0816190  74.0132830
  60.9745370  56.8653360  74.9179450  60.4196980  57.5144650  73.6678800
  68.4302210  57.0879560  72.6123480  67.8311100  57.8115360  72.4287100
  68.9781820  57.0256340  71.8299930  67.0367080  55.7243100  74.6426760
  67.4296650  56.0415300  73.8295450  67.3983930  54.8454980  74.7571280
  56.2601480  56.2564020  68.0759680  56.1776150  57.1994780  68.2174670
  55.9084540  56.1138930  67.1972030  64.0599610  54.9903050  77.1430030
  64.0635670  54.5493000  76.2934570  64.9550730  55.3120380  77.2501850
  59.9101990  54.8729540  76.1024240  59.5702040  55.3504770  76.8591290
  59.1479310  54.4194660  75.7425340  64.1219760  55.9915130  70.1336790
  64.2432580  55.9501610  71.0822610  63.7368270  56.8539280  69.9783520
  63.1341260  58.3016270  69.5320090  62.5658160  57.8534520  68.9056000
  63.8430260  58.6609050  68.9985240  57.2248070  53.7948520  75.0188910
  56.9394990  53.4304190  75.8567530  57.1626930  53.0628980  74.4052050
  60.6788740  62.2974460  71.8046500  59.9051000  61.7572080  71.6445220
  61.4083370  61.7781070  71.4664260  66.8986660  52.6877780  71.7402280
  66.0851270  52.1890950  71.6647590  66.7048610  53.5276030  71.3238630
  69.6135050  57.0597430  70.0364440  70.5014670  57.3714660  69.8615780
  69.5840140  56.1869680  69.6445020  60.7226140  61.9654840  75.4425310
  61.2404810  61.1623100  75.3882200  60.2710160  61.9033980  76.2842140
  65.6095640  63.2321120  70.7152610  65.9511340  63.9763350  70.2195930
  64.7808350  63.5452240  71.0777440  71.8849320  58.3709270  69.5044300
  71.8013040  58.8023490  68.6540740  72.6043510  58.8307620  69.9371120
  72.9136570  65.2251530  72.2326430  72.2712730  64.5707150  72.5070150
  72.5267230  65.6306620  71.4567100  68.4923050  62.5536960  76.0798120
  68.8446870  61.9565090  75.4199490  67.6085380  62.2281190  76.2506370
  64.5786330  63.3134650  73.4868530  65.2657460  63.8603860  73.8676120
  63.7918750  63.8575380  73.5218140  56.7178730  58.9307470  68.9785610
  57.5873580  59.2132270  69.2621530  56.2269050  59.7443340  68.8634420
  63.8813540  60.3180680  73.0993890  64.3376320  61.1285930  73.3254080
  63.5301750  60.0003820  73.9312380  59.7825320  50.6618330  73.5716410
  59.6539950  50.6536230  74.5201330  58.9587340  51.0001420  73.2207420
  71.3033950  64.1167990  68.7702780  71.0771530  63.3998430  69.3627420
  70.9130150  63.8680430  67.9324530  57.0849980  68.1434850  69.5447240
  57.4447620  68.7424190  68.8904510  56.9442320  68.6894740  70.3182270
  70.8850200  62.0339930  70.4316940  70.5971900  62.4952620  71.2194820
  71.6802370  61.5737700  70.7001160  63.1018600  65.5266050  70.3620910
  63.0928700  66.2595740  69.7465420  62.1816960  65.2797630  70.4547870
  58.7025240  60.7480940  71.1067670  58.0953190  61.4879840  71.1162970
  59.1774590  60.8380300  70.2805870  71.6420060  53.8688700  71.5912120
  71.0133220  53.9734370  70.8770350  71.1471980  54.0885480  72.3806000
  66.0878200  65.5894290  69.0246100  66.1890180  65.3858280  68.0948080
  65.1879940  65.3352570  69.2293880  63.6104090  56.1474650  73.0070000
  62.9020240  56.6160990  73.4483610  63.8948570  55.4896660  73.6415190
  67.6419520  52.8725310  74.4465790  67.5187300  52.8911440  73.4975300
  68.5904080  52.9204250  74.5664190  64.7296310  68.1080610  73.7193770
  64.9837810  68.0702000  72.7973140  63.7808790  67.9813940  73.7122020
  61.8139110  54.4559730  70.3820710  62.6629640  54.8929880  70.3160900
  61.4470380  54.7679990  71.2092770  70.7348890  59.0272490  75.2952280
  69.7939030  59.0422720  75.4699970  71.0492960  58.2408450  75.7412580
  60.7130530  60.7092090  68.8556240  61.4793800  60.5973450  69.4181670
  60.7905220  60.0130060  68.2033010  59.4077290  58.1417160  69.5389130
  59.4880880  57.1944670  69.6506530  60.2997040  58.4724040  69.6449790
  60.2092000  68.2912550  76.6423670  60.9454480  67.7428010  76.9132240
  60.5932920  69.1568560  76.5029660  57.0937480  64.3586120  72.5165180
  56.1677260  64.6007260  72.5070590  57.5593910  65.1860380  72.3949930
  63.3194310  67.4642860  68.4649240  64.1122920  67.7531690  68.0131030
  62.7998660  67.0335030  67.7861720  72.3724480  66.6912990  69.8885980
  72.0865990  66.2778130  69.0740160  72.1744030  67.6200700  69.7686500
  63.8371710  62.6846270  68.3291590  63.7322350  62.0698620  69.0552970
  63.6695930  62.1612160  67.5454600  67.0774440  61.7466300  68.9333580
  66.5284540  62.1935600  69.5776320  67.6993700  61.2415550  69.4571250
  62.7449560  60.7057220  70.8298880  63.1665980  60.5397090  71.6730270
  62.8700400  59.8957450  70.3354020  65.2577200  59.7294830  68.0775980
  65.7782860  59.0143850  67.7117130  65.9045600  60.3680700  68.3776490
  61.6408460  56.7790450  67.7757040  61.4397520  55.9157810  68.1370380
  61.4700510  56.6923810  66.8378640  69.1196770  51.5898680  70.3043920
  69.3999060  50.7466580  70.6603340  68.3462500  51.8221790  70.8182670
  60.4391260  53.8791070  67.7634920  60.7417160  53.8858500  66.8554070
  61.1785850  53.5288930  68.2602580  63.6576190  52.8225690  68.7491120
  63.3098190  52.1449680  68.1693570  63.8588960  52.3615200  69.5634510
  65.8225230  67.8106440  70.3677720  66.7176020  68.1491410  70.3896480
  65.8542860  67.0885850  69.7402000  59.4621390  63.1833490  68.5964720
  59.8996260  63.7263160  69.2522300  59.9469120  62.3580440  68.6061060
  56.6767190  65.9722520  76.0484980  57.0070200  65.1043580  75.8163620
  57.1058190  66.1781040  76.8789940  61.2729110  64.3031530  73.7086950
  60.9724650  64.1796500  74.6090860  61.1666600  63.4440120  73.3002680
  74.0421030  64.0827930  68.4113630  73.2113990  64.1504580  68.8820860
  74.2192860  64.9732050  68.1080490  73.4977490  60.8275410  70.9147830
  74.2596400  61.3972060  71.0207520  73.5131860  60.2602610  71.6856140
  56.9981830  59.3513340  75.1455490  56.3430670  59.0824980  74.5015190
  57.8359780  59.2417820  74.6957470  74.5037460  61.6825510  75.7589760
  74.8746290  60.8992830  75.3525730  75.1439390  62.3714610  75.5807060
  73.5496660  61.1209780  68.0720350  73.8245500  62.0288660  67.9439570
  73.3607400  61.0572310  69.0082340  69.9472270  54.1454630  69.3673980
  70.3657150  53.9585610  68.5270640  69.6408330  53.2933680  69.6776910
  73.4462000  59.0578770  73.0649780  73.0705600  58.2906700  72.6331070
  72.7165120  59.4401470  73.5524710  56.2119910  56.5612270  71.0880820
  55.3083990  56.8242470  70.9132480  56.6960530  56.8323440  70.3080780
  72.7212960  57.2836260  76.3657020  73.2450440  56.7898910  75.7347190
  73.3072380  57.4186620  77.1104590  58.7547120  55.6177810  68.9975200
  59.4638820  55.1961030  68.5122480  58.0387060  55.6853040  68.3658550
  58.4021280  51.6717140  68.0377850  59.1249410  52.2126080  68.3559070
  58.6745800  51.3980560  67.1619390  72.2112930  56.5409610  72.3049430
  72.7072050  56.3080480  73.0898310  72.0129000  55.7021450  71.8887070
  73.6400090  55.1770560  74.8387110  73.5299370  55.0226600  75.7769380
  74.4007680  54.6491500  74.5962520  74.5290360  53.0078480  68.0793250
  75.4539670  52.8759660  67.8711540  74.5066150  53.0871300  69.0329700
  74.6028850  53.7789140  70.7049960  73.8080350  53.7134260  71.2342870
  74.8072130  54.7139780  70.6935310  71.5447270  67.8180690  74.6988350
  72.1406340  67.4965260  74.0222770  71.8025420  67.3452510  75.4901620
  71.0348780  52.1086020  77.1548790  71.4756870  52.0531120  76.3070390
  70.7656370  53.0244030  77.2258970  72.8987350  51.7401260  75.1657610
  72.8375750  50.7962480  75.0188630  73.6779380  51.8481350  75.7111070
  57.2040100  67.8793620  74.1281560  57.0362140  67.2464300  74.8263450
  56.3374610  68.0853020  73.7775750  57.8268120  51.7110400  71.6313420
  58.5847480  51.8239280  71.0577450  57.3645290  52.5479600  71.5856850
  64.3681930  53.8249670  74.6215730  63.5556440  53.4506560  74.2811610
  64.8723570  53.0694750  74.9236920  68.8706910  50.4892120  75.8598800
  69.4736280  51.0612330  76.3347320  68.1299900  51.0531560  75.6372700
  72.0141510  50.8913680  71.1339080  72.2092140  51.7897130  71.4006510
  71.2271380  50.6600760  71.6272030  58.8102800  66.5726850  71.5731700
  58.2850420  66.9534880  70.8693660  58.7347380  67.1977620  72.2941410
  60.1993270  52.2374450  70.1715390  60.7286030  51.4504250  70.0423340
  60.8321590  52.9165640  70.4050920  62.3931110  51.9749590  73.2260780
  61.7633850  51.2736900  73.3930910  61.8536250  52.7353720  73.0093940
  73.5668120  68.1314390  72.8945640  73.7420310  67.4452130  72.2506560
  72.8689690  68.6561440  72.5022310  61.4095770  68.5209230  70.4480950
  62.1414590  68.2368510  69.9004840  61.6689440  68.2822510  71.3380330
  60.5710560  64.6373960  70.4527280  59.9419440  65.1059060  71.0013110
  60.6858390  63.7923180  70.8873470  68.0260280  58.6879620  56.6028480
  67.9454330  57.7734230  56.3320190  67.6124700  59.1846690  55.8968190
  66.1578320  60.4658640  58.4837750  65.3820420  59.9859080  58.7736320
  66.8091250  59.7864290  58.3093910  60.1744150  60.7778450  59.3613510
  59.3429030  60.5227160  59.7610020  60.7825130  60.8489220  60.0971430
  70.1785750  64.8718830  57.2636880  69.7167280  64.1006070  57.5924050
  70.9911300  64.8984900  57.7689330  60.1545410  64.8118540  59.5571530
  60.4573450  63.9216280  59.3781750  60.8989000  65.3688760  59.3293780
  58.5836100  55.7380340  53.1455900  57.6952800  56.0796310  53.0435780
  58.8677290  55.5380660  52.2536730  56.5469110  58.3385990  59.0295600
  57.1185220  57.5708190  59.0299240  56.5470650  58.6374750  58.1202210
  66.4049060  67.1576840  56.8840870  65.7860500  67.6134340  56.3135310
  67.2600840  67.3128300  56.4830570  65.5987310  63.1415830  58.4907910
  65.5295590  62.2005770  58.3297040  66.3607170  63.2317240  59.0630480
  57.7893980  53.7470350  60.8164530  57.6096820  52.8496100  61.0967290
  57.3874060  54.2942220  61.4911480  66.6292480  55.9486210  58.7176840
  67.0057300  55.0758090  58.6050510  66.5311990  56.2844910  57.8267280
  60.7597490  54.3211840  54.1794280  60.8664240  55.2215570  54.4863040
  59.8489850  54.2729810  53.8888930  70.4116600  53.4436650  55.6505180
  71.2326220  52.9533220  55.6930660  70.4450680  54.0334310  56.4037020
  58.4080650  56.2430850  59.4246870  59.0890760  56.5069220  60.0434270
  58.0928700  55.4031720  59.7584880  62.6005220  57.2898210  58.5119460
  63.1083440  57.7879180  59.1524480  63.1318460  56.5133410  58.3358820
  74.7016150  55.4603400  62.2148810  73.9968320  55.8485110  61.6963920
  74.9674070  56.1553690  62.8169740  60.8841320  51.9296770  62.7782880
  60.8859760  52.4469160  61.9728780  60.0545630  51.4526950  62.7552810
  62.1344170  61.5691950  60.9556380  61.8013550  62.1960870  61.5977450
  62.3110850  62.0953830  60.1758050  70.6478080  55.3837030  58.4232720
  69.9433650  55.6721920  59.0035830  71.0090240  56.1937140  58.0632280
  60.5656650  53.6406730  60.7853330  60.9073460  54.4848780  60.4907200
  59.6272460  53.7890470  60.9018670  61.3463270  63.5372750  62.7705560
  61.9637270  64.2123830  62.4890010  60.4856390  63.9460730  62.6793060
  72.2640860  65.0012160  60.6860200  71.5804380  65.6711270  60.6776870
  72.8035150  65.1992810  59.9205060  73.7165000  54.8291820  58.8141930
  72.7689910  54.8630800  58.9457360  74.0414990  55.6430770  59.1991290
  64.2484540  51.1289000  57.1097920  64.5559520  50.5735890  56.3933420
  63.3185240  51.2633460  56.9270910  69.7999600  66.8456290  59.4005380
  69.8126760  66.4418580  58.5327640  69.2474820  67.6203580  59.2966810
  71.0945020  63.5672510  54.4895550  70.9841350  62.6246840  54.6144970
  71.0913270  63.9288150  55.3758310  69.1985040  61.7486130  60.7287990
  69.6153830  61.5346240  59.8941450  69.9224860  62.0058920  61.2996610
  66.6365300  59.1937830  53.8458040  65.7094580  59.1275210  54.0746510
  66.7890120  60.1317960  53.7313280  66.6234380  55.4654830  50.8425200
  65.6838050  55.6268790  50.9277660  66.9417640  56.1840510  50.2961190
  73.1447140  60.1473350  60.8204230  72.3165770  60.2166440  60.3454360
  73.7397620  60.7327660  60.3520060  70.6662590  60.7558130  54.3493290
  70.0475010  60.4177680  53.7019590  70.6487040  60.1117890  55.0572480
  70.1089150  56.9342670  61.7659100  69.6960330  57.7596380  62.0199090
  69.3765100  56.3487710  61.5735460  62.2421940  59.7202570  56.6277770
  61.8378940  59.0079820  56.1323670  62.3285060  59.3755810  57.5165810
  62.7103640  63.4070130  58.7916980  62.4131930  62.8015600  58.1124760
  63.6603460  63.4447440  58.6806340  60.9550560  56.4945780  60.4076810
  61.5065150  56.6041120  59.6330060  61.4694070  56.8683380  61.1232040
  70.7989250  66.9802000  62.4540080  70.3219810  67.7874190  62.2612690
  70.1151040  66.3280330  62.6066290  61.8022070  63.1451820  65.4424780
  60.9050600  63.3691790  65.6898180  61.8274940  63.2686760  64.4936180
  68.8427290  59.9944940  51.3566040  69.2820570  59.1567370  51.2103860
  69.5555710  60.6274340  51.4430180  60.6293290  60.0165140  64.0182150
  60.4901060  60.8887940  64.3869550  59.7474650  59.6737950  63.8730090
  62.4273640  65.9586840  66.2267300  62.3989070  66.3629790  65.3595730
  62.2638610  65.0297200  66.0638900  72.4244430  51.2487750  49.6707080
  72.1117090  51.3414580  50.5706150  73.1856900  51.8268780  49.6204510
  58.9426570  58.6147550  54.1284420  58.8224170  59.3409640  53.5165690
  58.6327460  57.8450460  53.6512330  74.3788460  66.7413940  67.5231470
  74.8548180  67.2196830  68.2020550  74.9995620  66.6731430  66.7976970
  56.5811940  61.7862690  59.9353060  56.6592360  61.9211460  58.9908780
  57.1953620  61.0778580  60.1281180  73.7821710  63.9326790  64.6831480
  73.9084770  63.6938670  63.7648660  73.8243090  63.1011330  65.1553560
  67.6438450  67.6354790  63.2526290  68.1583120  67.5462800  64.0548720
  66.8007530  67.9814490  63.5454200  73.6345720  55.9859250  65.6481220
  73.0189990  56.4938920  65.1196680  73.3142140  55.0857580  65.5907160
  56.6371460  62.8276860  62.4747520  56.8002500  62.3582220  61.6566890
  57.1023910  62.3200420  63.1396360  61.4090230  51.9582620  57.5108090
  60.9658380  52.7392160  57.1792610  61.9675220  52.2812510  58.2179030
  65.6960040  54.8251140  63.1143410  65.2339410  55.0334160  63.9263350
  65.2938150  54.0110490  62.8114080  70.6964550  56.0460090  64.2440070
  69.8458140  55.7465840  64.5649140  70.5366340  56.2902100  63.3323890
  67.7914260  57.5461840  66.3438860  68.1167670  56.7125590  66.0041090
  68.5794590  58.0690360  66.4917190  64.5249050  51.5793320  52.3913920
  63.9003230  51.5753190  53.1167230  64.4379170  50.7124280  51.9949890
  63.4466130  52.5029950  59.3697690  63.7438460  53.4092780  59.2889710
  63.9951690  52.0148730  58.7557260  61.2004450  57.0816190  55.2389340
  60.9745370  56.8653360  56.1435960  60.4196980  57.5144650  54.8935310
  68.4302210  57.0879560  53.8379990  67.8311100  57.8115360  53.6543610
  68.9781820  57.0256340  53.0556440  63.6403660  57.9801770  65.9049610
  63.5447260  57.0396500  65.7550010  64.4835640  58.2016840  65.5097680
  67.0367080  55.7243100  55.8683270  67.4296650  56.0415300  55.0551960
  67.3983930  54.8454980  55.9827790  58.7714200  54.3915440  64.0583390
  58.3777590  55.2390650  64.2656170  58.0832600  53.7541810  64.2492030
  65.3459250  54.4750410  67.1280130  64.6557570  54.2822610  67.7626220
  66.0891550  54.7585050  67.6604430  56.0731250  52.3143900  58.0913470
  55.7844300  52.8846760  58.8038450  56.8177010  51.8348350  58.4544700
  56.2601480  56.2564020  49.3016190  56.1776150  57.1994780  49.4431180
  55.9084540  56.1138930  48.4228540  67.6222220  58.3148850  59.9634050
  66.8903340  58.8235660  60.3124150  67.2246560  57.4978830  59.6622830
  64.0599610  54.9903050  58.3686540  64.0635670  54.5493000  57.5191080
  64.9550730  55.3120380  58.4758360  59.9101990  54.8729540  57.3280750
  59.5702040  55.3504770  58.0847800  59.1479310  54.4194660  56.9681850
  64.1219760  55.9915130  51.3593300  64.2432580  55.9501610  52.3079120
  63.7368270  56.8539280  51.2040030  68.0848130  53.7682530  59.3756990
  68.1020870  54.2191180  60.2198840  67.8363710  52.8688170  59.5890430
  63.1341260  58.3016270  50.7576600  62.5658160  57.8534520  50.1312510
  63.8430260  58.6609050  50.2241750  71.5118880  51.1814710  65.2143370
  71.8364650  50.4504370  65.7401350  71.5475390  50.8628350  64.3124360
  58.2110440  62.2028290  64.6343330  57.8265230  61.5621960  65.2326290
  58.5222630  62.9064410  65.2038060  64.3607580  59.0504830  60.1151950
  64.7277710  58.5763400  60.8613290  64.1712640  59.9246400  60.4560290
  57.2248070  53.7948520  56.2445420  56.9394990  53.4304190  57.0824040
  57.1626930  53.0628980  55.6308560  62.1506950  58.0913470  62.4336160
  61.8464020  58.9705450  62.6586520  63.1053410  58.1513260  62.4693600
  71.4376720  61.2939820  58.8229400  72.1575840  61.7895110  58.4325510
  71.2358540  60.6157710  58.1783270  66.8986660  52.6877780  52.9658790
  66.0851270  52.1890950  52.8904100  66.7048610  53.5276030  52.5495140
  66.8195520  61.3648880  64.7098400  66.7532830  60.4444550  64.4555990
  66.1900660  61.4624320  65.4243040  69.6135050  57.0597430  51.2620950
  70.5014670  57.3714660  51.0872290  69.5840140  56.1869680  50.8701530
  60.7226140  61.9654840  56.6681820  61.2404810  61.1623100  56.6138710
  60.2710160  61.9033980  57.5098650  58.2070680  58.9316210  63.5807520
  57.8485620  59.5970060  64.1680860  57.9125240  58.0999760  63.9520140
  61.4083800  59.3900450  66.4647070  61.1083940  59.5357630  65.5674890
  62.1795040  58.8305740  66.3720460  66.7512250  64.1869450  64.4602200
  66.7656790  63.2550410  64.2421110  66.0437350  64.2729210  65.0991970
  71.8849320  58.3709270  50.7300810  71.8013040  58.8023490  49.8797250
  72.6043510  58.8307620  51.1627630  72.9623460  60.8276790  63.8070780
  72.2371650  61.4205570  63.6100170  73.4898920  60.8200330  63.0084150
  72.9136570  65.2251530  53.4582940  72.2712730  64.5707150  53.7326660
  72.5267230  65.6306620  52.6823610  68.4923050  62.5536960  57.3054630
  68.8446870  61.9565090  56.6456000  67.6085380  62.2281190  57.4762880
  56.7178730  58.9307470  50.2042120  57.5873580  59.2132270  50.4878040
  56.2269050  59.7443340  50.0890930  63.8813540  60.3180680  54.3250400
  64.3376320  61.1285930  54.5510590  63.5301750  60.0003820  55.1568890
  66.1846150  65.8287020  61.5542700  66.8288370  66.0346400  62.2316120
  66.5475590  65.0675420  61.1013550  59.7825320  50.6618330  54.7972920
  59.6539950  50.6536230  55.7457840  58.9587340  51.0001420  54.4463930
  67.4578230  63.8319370  60.2720150  68.1000460  63.1312530  60.3852320
  67.9827580  64.6117810  60.0917040  71.3033950  64.1167990  49.9959290
  71.0771530  63.3998430  50.5883930  70.9130150  63.8680430  49.1581040
  69.2315850  64.6314270  63.4756210  69.5672090  65.2180960  64.1534130
  68.3116190  64.5006980  63.7054000  56.7819250  52.4209450  64.2579620
  56.0677770  52.6206370  64.8632230  57.2014290  51.6449020  64.6294420
  70.8850200  62.0339930  51.6573450  70.5971900  62.4952620  52.4451330
  71.6802370  61.5737700  51.9257670  57.0691840  66.4089710  65.2446150
  57.1782960  65.4684450  65.1041540  56.4172400  66.6744460  64.5959880
  65.0604430  64.6805600  66.6444270  64.7401300  63.9614840  67.1889960
  64.3862790  65.3560670  66.7180330  68.2758030  54.9131760  62.0081070
  68.6438850  54.0926970  62.3360640  67.4156230  54.9733650  62.4236720
  71.6420060  53.8688700  52.8168630  71.0133220  53.9734370  52.1026860
  71.1471980  54.0885480  53.6062510  63.6104090  56.1474650  54.2326510
  62.9020240  56.6160990  54.6740120  63.8948570  55.4896660  54.8671700
  65.2360020  57.5671350  62.2319040  65.7345270  58.0417170  62.8970890
  65.3782970  56.6434870  62.4389070  67.6419520  52.8725310  55.6722300
  67.5187300  52.8911440  54.7231810  68.5904080  52.9204250  55.7920700
  61.8139110  54.4559730  51.6077220  62.6629640  54.8929880  51.5417410
  61.4470380  54.7679990  52.4349280  72.4426880  53.7839310  63.0747430
  71.9400480  54.5244710  63.4141240  73.2583540  54.1723310  62.7584220
  70.7348890  59.0272490  56.5208790  69.7939030  59.0422720  56.6956480
  71.0492960  58.2408450  56.9669090  60.7130530  60.7092090  50.0812750
  61.4793800  60.5973450  50.6438180  60.7905220  60.0130060  49.4289520
  59.4077290  58.1417160  50.7645640  59.4880880  57.1944670  50.8763040
  60.2997040  58.4724040  50.8706300  72.7374470  66.1981340  58.1963050
  72.8621890  67.0212510  58.6686860  73.6040030  65.9872070  57.8487200
  60.2092000  68.2912550  57.8680180  60.9454480  67.7428010  58.1388750
  60.5932920  69.1568560  57.7286170  59.2150280  67.4758620  67.0565760
  60.0163010  67.7970670  67.4701160  58.7002100  67.1154200  67.7785670
  68.0514910  63.5838490  67.0041170  67.4453070  63.6070090  66.2636920
  67.7469020  62.8521530  67.5408420  69.4815280  67.3118780  65.6150580
  70.4337030  67.2276800  65.5650820  69.3343500  67.9760490  66.2884370
  56.9348090  59.9632080  66.0001810  57.4387110  59.3839360  66.5718040
  56.1955510  60.2472310  66.5378180  63.9886030  61.3703070  65.5337330
  63.2231700  61.9388070  65.4492000  64.1701990  61.0779280  64.6405560
  67.0774440  61.7466300  50.1590090  66.5284540  62.1935600  50.8032830
  67.6993700  61.2415550  50.6827760  71.1309380  63.1008400  66.0912350
  71.8718850  63.4384160  65.5879810  70.3682060  63.2700460  65.5382120
  58.9671170  58.1061670  66.8951880  59.0076510  57.8075540  67.8037110
  59.8216670  58.5069280  66.7359400  62.7449560  60.7057220  52.0555390
  63.1665980  60.5397090  52.8986780  62.8700400  59.8957450  51.5610530
  60.9076980  56.6853770  64.8626370  60.3773440  56.1944720  64.2349710
  61.5765050  57.1137970  64.3284300  65.2577200  59.7294830  49.3032490
  65.7782860  59.0143850  48.9373640  65.9045600  60.3680700  49.6033000
  69.8055040  61.1523230  64.6267560  70.2196060  61.3068310  65.4757980
  68.8706040  61.2778450  64.7893340  70.2777210  58.4919390  66.6306710
  70.8597980  57.7371710  66.5427190  70.4538980  59.0226830  65.8538190
  61.3949280  53.6516140  64.9423660  61.3006150  53.0336890  64.2174530
  60.8146670  54.3782430  64.7153570  64.1610720  52.2089380  61.9751050
  63.7128020  52.2313640  61.1296600  63.5275920  51.8108400  62.5721350
  64.5670270  61.1043710  62.5963490  64.9858380  61.9476440  62.4239730
  63.6478900  61.2415750  62.3670270  66.9034170  58.8359890  63.9801330
  67.0230380  58.2401030  64.7196170  67.7628170  58.8729580  63.5602630
  69.2422070  59.3897080  62.5563840  68.7157290  59.9139700  61.9528980
  69.5853410  60.0224470  63.1873570  61.6408460  56.7790450  49.0013550
  61.4397520  55.9157810  49.3626890  61.4700510  56.6923810  48.0635150
  62.4177690  67.4096720  63.7121220  61.8798780  68.1342780  63.3929920
  62.6711650  66.9327060  62.9218560  63.6702940  55.3781240  65.2377150
  64.2602630  55.0697090  65.9254970  62.8523180  54.9060990  65.3937050
  68.4896370  54.9947050  65.4710170  67.8011890  54.3328590  65.4060160
  69.2102390  54.5485320  65.9158630  69.1196770  51.5898680  51.5300430
  69.3999060  50.7466580  51.8859850  68.3462500  51.8221790  52.0439180
  60.4391260  53.8791070  48.9891430  60.7417160  53.8858500  48.0810580
  61.1785850  53.5288930  49.4859090  65.2739900  68.6447930  63.9707870
  65.1998600  69.5483070  64.2780240  64.3718740  68.3259830  63.9429940
  63.6576190  52.8225690  49.9747630  63.3098190  52.1449680  49.3950080
  63.8588960  52.3615200  50.7891020  61.2729110  64.3031530  54.9343460
  60.9724650  64.1796500  55.8347370  61.1666600  63.4440120  54.5259190
  57.1657400  66.8393110  60.0123120  56.7288390  67.0193910  60.8447270
  57.7335080  67.5967730  59.8704840  72.8019580  66.3410110  64.3000430
  72.2021570  66.4002670  63.5564350  72.9313480  65.4015090  64.4297280
  74.0421030  64.0827930  49.6370140  73.2113990  64.1504580  50.1077370
  74.2192860  64.9732050  49.3337000  73.4977490  60.8275410  52.1404340
  74.2596400  61.3972060  52.2464030  73.5131860  60.2602610  52.9112650
  56.9981830  59.3513340  56.3712000  56.3430670  59.0824980  55.7271700
  57.8359780  59.2417820  55.9213980  74.5037460  61.6825510  56.9846270
  74.8746290  60.8992830  56.5782240  75.1439390  62.3714610  56.8063570
  71.4871220  63.0662090  62.3976590  70.6731060  63.4959250  62.6602380
  71.8945420  63.6780500  61.7845640  73.5496660  61.1209780  49.2976860
  73.8245500  62.0288660  49.1696080  73.3607400  61.0572310  50.2338850
  69.9472270  54.1454630  50.5930490  70.3657150  53.9585610  49.7527150
  69.6408330  53.2933680  50.9033420  73.4462000  59.0578770  54.2906290
  73.0705600  58.2906700  53.8587580  72.7165120  59.4401470  54.7781220
  58.0357760  59.7365910  60.9115340  58.4030800  59.6493310  61.7911360
  57.4668580  58.9732460  60.8122200  72.8361620  58.2050290  63.9245810
  72.6047710  57.9763040  63.0243760  73.0966170  59.1249840  63.8790700
  57.5873760  56.6475000  64.8173760  56.6929810  56.6141760  65.1567470
  58.1271310  56.8461790  65.5825010  71.2749690  53.4306720  66.7025510
  72.1519870  53.4390120  67.0859510  71.2870530  52.6937560  66.0917860
  56.2119910  56.5612270  52.3137330  55.3083990  56.8242470  52.1388990
  56.6960530  56.8323440  51.5337290  72.7212960  57.2836260  57.5913530
  73.2450440  56.7898910  56.9603700  73.3072380  57.4186620  58.3361100
  72.9002680  57.3676130  61.1133080  71.9505390  57.3339670  61.2278070
  73.0815690  58.2776240  60.8782850  58.7547120  55.6177810  50.2231710
  59.4638820  55.1961030  49.7378990  58.0387060  55.6853040  49.5915060
  58.4021280  51.6717140  49.2634360  59.1249410  52.2126080  49.5815580
  58.6745800  51.3980560  48.3875900  72.2112930  56.5409610  53.5305940
  72.7072050  56.3080480  54.3154820  72.0129000  55.7021450  53.1143580
  58.0913470  50.9223330  59.1656980  58.7389660  50.3720710  58.7252140
  58.5115310  51.1766480  59.9872790  73.6400090  55.1770560  56.0643620
  73.5299370  55.0226600  57.0025890  74.4007680  54.6491500  55.8219030
  71.9865810  51.1164690  62.5226620  72.6238030  51.7298830  62.8885810
  72.1340700  51.1525350  61.5775850  74.5290360  53.0078480  49.3049760
  75.4539670  52.8759660  49.0968050  74.5066150  53.0871300  50.2586210
  74.6028850  53.7789140  51.9306470  73.8080350  53.7134260  52.4599380
  74.8072130  54.7139780  51.9191820  71.5447270  67.8180690  55.9244860
  72.1406340  67.4965260  55.2479280  71.8025420  67.3452510  56.7158130
  57.8445470  51.0779000  61.9082300  57.4960290  51.5342820  62.6740480
  57.5133170  50.1836130  61.9904730  59.4509840  64.2498600  66.0735490
  59.4079470  63.8791510  66.9549950  59.5820850  65.1876170  66.2137310
  63.1515870  65.8058190  61.6745210  62.9107230  66.0732750  60.7875730
  64.0918510  65.9763920  61.7296070  65.3570290  52.2690880  65.4301720
  65.2959180  52.8612710  66.1797130  66.2970670  52.1616840  65.2851980
  67.9944850  51.9260940  65.0694010  68.6085260  52.2440230  64.4075090
  68.5394410  51.4409530  65.6889870  74.4120030  67.8252570  62.4755850
  73.9178310  68.2221440  61.7582980  73.8033320  67.2001780  62.8693130
  58.5166110  50.6055200  65.1833070  59.0649100  50.4243250  64.4199180
  58.5821420  49.8149310  65.7189380  59.2897870  67.1960850  63.1933270
  58.6958190  67.0645550  63.9323310  59.2821710  66.3598990  62.7275370
  68.7352890  50.4893080  61.3963300  67.8612730  50.8228190  61.1936230
  68.6263640  50.0166260  62.2215170  69.6424870  52.6963950  62.7805020
  69.3138230  51.8815710  62.4006750  70.5907170  52.6533760  62.6570710
  72.0959480  68.4675990  59.7542590  71.6362450  69.2191800  59.3800610
  71.4671940  67.7482460  59.6957390  58.9210100  64.5619230  62.1441310
  58.1944160  63.9424520  62.0767260  58.9819250  64.9559840  61.2739390
  62.5255200  66.7764230  58.9290720  63.0420220  66.1651590  58.4038980
  63.1752580  67.2793010  59.4201730  65.2650700  67.6672720  59.7559700
  65.5528510  67.4127020  58.8792710  65.7773920  67.1150080  60.3465270
  66.4827710  51.4062920  60.3356210  65.6999500  51.8808420  60.6152970
  66.1890640  50.5017750  60.2269390  71.0348780  52.1086020  58.3805300
  71.4756870  52.0531120  57.5326900  70.7656370  53.0244030  58.4515480
  72.8987350  51.7401260  56.3914120  72.8375750  50.7962480  56.2445140
  73.6779380  51.8481350  56.9367580  57.8268120  51.7110400  52.8569930
  58.5847480  51.8239280  52.2833960  57.3645290  52.5479600  52.8113360
  64.3681930  53.8249670  55.8472240  63.5556440  53.4506560  55.5068120
  64.8723570  53.0694750  56.1493430  68.8706910  50.4892120  57.0855310
  69.4736280  51.0612330  57.5603830  68.1299900  51.0531560  56.8629210
  72.0141510  50.8913680  52.3595590  72.2092140  51.7897130  52.6263020
  71.2271380  50.6600760  52.8528540  60.1993270  52.2374450  51.3971900
  60.7286030  51.4504250  51.2679850  60.8321590  52.9165640  51.6307430
  62.3931110  51.9749590  54.4517290  61.7633850  51.2736900  54.6187420
  61.8536250  52.7353720  54.2350450  65.3323060  68.5888820  67.1227900
  66.2590370  68.3533090  67.1663860  65.3173490  69.4160820  66.6413930
  73.5668120  68.1314390  54.1202150  73.7420310  67.4452130  53.4763070
  72.8689690  68.6561440  53.7278820  62.5186670  51.2533570  66.8869780
  62.2370940  51.7567170  66.1230600  62.9006370  50.4555320  66.5211910
  69.1202130  50.6687150  67.4650250  69.0067580  50.9881760  68.3601770
  69.9371870  51.0699660  67.1687530  71.9000620  67.8158680  66.9468940
  72.6925940  67.3207910  66.7394900  72.1933770  68.4948820  67.5544550
  68.0260280  58.6879620  37.8284990  67.9454330  57.7734230  37.5576700
  67.6124700  59.1846690  37.1224700  58.5836100  55.7380340  34.3712410
  57.6952800  56.0796310  34.2692290  58.8677290  55.5380660  33.4793240
  56.5469110  58.3385990  40.2552110  57.1185220  57.5708190  40.2555750
  56.5470650  58.6374750  39.3458720  57.7893980  53.7470350  42.0421040
  57.6096820  52.8496100  42.3223800  57.3874060  54.2942220  42.7167990
  66.6292480  55.9486210  39.9433350  67.0057300  55.0758090  39.8307020
  66.5311990  56.2844910  39.0523790  60.7597490  54.3211840  35.4050790
  60.8664240  55.2215570  35.7119550  59.8489850  54.2729810  35.1145440
  70.4116600  53.4436650  36.8761690  71.2326220  52.9533220  36.9187170
  70.4450680  54.0334310  37.6293530  58.4080650  56.2430850  40.6503380
  59.0890760  56.5069220  41.2690780  58.0928700  55.4031720  40.9841390
  62.6005220  57.2898210  39.7375970  63.1083440  57.7879180  40.3780990
  63.1318460  56.5133410  39.5615330  74.7016150  55.4603400  43.4405320
  73.9968320  55.8485110  42.9220430  74.9674070  56.1553690  44.0426250
  60.8841320  51.9296770  44.0039390  60.8859760  52.4469160  43.1985290
  60.0545630  51.4526950  43.9809320  62.1344170  61.5691950  42.1812890
  61.8013550  62.1960870  42.8233960  62.3110850  62.0953830  41.4014560
  70.6478080  55.3837030  39.6489230  69.9433650  55.6721920  40.2292340
  71.0090240  56.1937140  39.2888790  60.5656650  53.6406730  42.0109840
  60.9073460  54.4848780  41.7163710  59.6272460  53.7890470  42.1275180
  73.7165000  54.8291820  40.0398440  72.7689910  54.8630800  40.1713870
  74.0414990  55.6430770  40.4247800  64.2484540  51.1289000  38.3354430
  64.5559520  50.5735890  37.6189930  63.3185240  51.2633460  38.1527420
  69.1985040  61.7486130  41.9544500  69.6153830  61.5346240  41.1197960
  69.9224860  62.0058920  42.5253120  66.6365300  59.1937830  35.0714550
  65.7094580  59.1275210  35.3003020  66.7890120  60.1317960  34.9569790
  66.6234380  55.4654830  32.0681710  65.6838050  55.6268790  32.1534170
  66.9417640  56.1840510  31.5217700  73.1447140  60.1473350  42.0460740
  72.3165770  60.2166440  41.5710870  73.7397620  60.7327660  41.5776570
  70.6662590  60.7558130  35.5749800  70.0475010  60.4177680  34.9276100
  70.6487040  60.1117890  36.2828990  70.1089150  56.9342670  42.9915610
  69.6960330  57.7596380  43.2455600  69.3765100  56.3487710  42.7991970
  62.2421940  59.7202570  37.8534280  61.8378940  59.0079820  37.3580180
  62.3285060  59.3755810  38.7422320  60.9550560  56.4945780  41.6333320
  61.5065150  56.6041120  40.8586570  61.4694070  56.8683380  42.3488550
  61.8022070  63.1451820  46.6681290  60.9050600  63.3691790  46.9154690
  61.8274940  63.2686760  45.7192690  68.8427290  59.9944940  32.5822550
  69.2820570  59.1567370  32.4360370  69.5555710  60.6274340  32.6686690
  60.6293290  60.0165140  45.2438660  60.4901060  60.8887940  45.6126060
  59.7474650  59.6737950  45.0986600  72.4244430  51.2487750  30.8963590
  72.1117090  51.3414580  31.7962660  73.1856900  51.8268780  30.8461020
  74.3788460  66.7413940  48.7487980  74.8548180  67.2196830  49.4277060
  74.9995620  66.6731430  48.0233480  73.7821710  63.9326790  45.9087990
  73.9084770  63.6938670  44.9905170  73.8243090  63.1011330  46.3810070
  73.6345720  55.9859250  46.8737730  73.0189990  56.4938920  46.3453190
  73.3142140  55.0857580  46.8163670  61.4090230  51.9582620  38.7364600
  60.9658380  52.7392160  38.4049120  61.9675220  52.2812510  39.4435540
  65.6960040  54.8251140  44.3399920  65.2339410  55.0334160  45.1519860
  65.2938150  54.0110490  44.0370590  70.6964550  56.0460090  45.4696580
  69.8458140  55.7465840  45.7905650  70.5366340  56.2902100  44.5580400
  67.7914260  57.5461840  47.5695370  68.1167670  56.7125590  47.2297600
  68.5794590  58.0690360  47.7173700  64.5249050  51.5793320  33.6170430
  63.9003230  51.5753190  34.3423740  64.4379170  50.7124280  33.2206400
  63.4466130  52.5029950  40.5954200  63.7438460  53.4092780  40.5146220
  63.9951690  52.0148730  39.9813770  61.2004450  57.0816190  36.4645850
  60.9745370  56.8653360  37.3692470  60.4196980  57.5144650  36.1191820
  68.4302210  57.0879560  35.0636500  67.8311100  57.8115360  34.8800120
  68.9781820  57.0256340  34.2812950  63.6403660  57.9801770  47.1306120
  63.5447260  57.0396500  46.9806520  64.4835640  58.2016840  46.7354190
  67.0367080  55.7243100  37.0939780  67.4296650  56.0415300  36.2808470
  67.3983930  54.8454980  37.2084300  58.7714200  54.3915440  45.2839900
  58.3777590  55.2390650  45.4912680  58.0832600  53.7541810  45.4748540
  65.3459250  54.4750410  48.3536640  64.6557570  54.2822610  48.9882730
  66.0891550  54.7585050  48.8860940  56.0731250  52.3143900  39.3169980
  55.7844300  52.8846760  40.0294960  56.8177010  51.8348350  39.6801210
  56.2601480  56.2564020  30.5272700  56.1776150  57.1994780  30.6687690
  55.9084540  56.1138930  29.6485050  67.6222220  58.3148850  41.1890560
  66.8903340  58.8235660  41.5380660  67.2246560  57.4978830  40.8879340
  64.0599610  54.9903050  39.5943050  64.0635670  54.5493000  38.7447590
  64.9550730  55.3120380  39.7014870  59.9101990  54.8729540  38.5537260
  59.5702040  55.3504770  39.3104310  59.1479310  54.4194660  38.1938360
  64.1219760  55.9915130  32.5849810  64.2432580  55.9501610  33.5335630
  63.7368270  56.8539280  32.4296540  68.0848130  53.7682530  40.6013500
  68.1020870  54.2191180  41.4455350  67.8363710  52.8688170  40.8146940
  63.1341260  58.3016270  31.9833110  62.5658160  57.8534520  31.3569020
  63.8430260  58.6609050  31.4498260  71.5118880  51.1814710  46.4399880
  71.8364650  50.4504370  46.9657860  71.5475390  50.8628350  45.5380870
  64.3607580  59.0504830  41.3408460  64.7277710  58.5763400  42.0869800
  64.1712640  59.9246400  41.6816800  57.2248070  53.7948520  37.4701930
  56.9394990  53.4304190  38.3080550  57.1626930  53.0628980  36.8565070
  62.1506950  58.0913470  43.6592670  61.8464020  58.9705450  43.8843030
  63.1053410  58.1513260  43.6950110  71.4376720  61.2939820  40.0485910
  72.1575840  61.7895110  39.6582020  71.2358540  60.6157710  39.4039780
  66.8986660  52.6877780  34.1915300  66.0851270  52.1890950  34.1160610
  66.7048610  53.5276030  33.7751650  66.8195520  61.3648880  45.9354910
  66.7532830  60.4444550  45.6812500  66.1900660  61.4624320  46.6499550
  69.6135050  57.0597430  32.4877460  70.5014670  57.3714660  32.3128800
  69.5840140  56.1869680  32.0958040  61.4083800  59.3900450  47.6903580
  61.1083940  59.5357630  46.7931400  62.1795040  58.8305740  47.5976970
  71.8849320  58.3709270  31.9557320  71.8013040  58.8023490  31.1053760
  72.6043510  58.8307620  32.3884140  72.9623460  60.8276790  45.0327290
  72.2371650  61.4205570  44.8356680  73.4898920  60.8200330  44.2340660
  63.8813540  60.3180680  35.5506910  64.3376320  61.1285930  35.7767100
  63.5301750  60.0003820  36.3825400  59.7825320  50.6618330  36.0229430
  59.6539950  50.6536230  36.9714350  58.9587340  51.0001420  35.6720440
  56.7819250  52.4209450  45.4836130  56.0677770  52.6206370  46.0888740
  57.2014290  51.6449020  45.8550930  70.8850200  62.0339930  32.8829960
  70.5971900  62.4952620  33.6707840  71.6802370  61.5737700  33.1514180
  68.2758030  54.9131760  43.2337580  68.6438850  54.0926970  43.5617150
  67.4156230  54.9733650  43.6493230  71.6420060  53.8688700  34.0425140
  71.0133220  53.9734370  33.3283370  71.1471980  54.0885480  34.8319020
  63.6104090  56.1474650  35.4583020  62.9020240  56.6160990  35.8996630
  63.8948570  55.4896660  36.0928210  65.2360020  57.5671350  43.4575550
  65.7345270  58.0417170  44.1227400  65.3782970  56.6434870  43.6645580
  67.6419520  52.8725310  36.8978810  67.5187300  52.8911440  35.9488320
  68.5904080  52.9204250  37.0177210  61.8139110  54.4559730  32.8333730
  62.6629640  54.8929880  32.7673920  61.4470380  54.7679990  33.6605790
  72.4426880  53.7839310  44.3003940  71.9400480  54.5244710  44.6397750
  73.2583540  54.1723310  43.9840730  70.7348890  59.0272490  37.7465300
  69.7939030  59.0422720  37.9212990  71.0492960  58.2408450  38.1925600
  60.7130530  60.7092090  31.3069260  61.4793800  60.5973450  31.8694690
  60.7905220  60.0130060  30.6546030  59.4077290  58.1417160  31.9902150
  59.4880880  57.1944670  32.1019550  60.2997040  58.4724040  32.0962810
  72.7374470  66.1981340  39.4219560  72.8621890  67.0212510  39.8943370
  73.6040030  65.9872070  39.0743710  63.9886030  61.3703070  46.7593840
  63.2231700  61.9388070  46.6748510  64.1701990  61.0779280  45.8662070
  71.1309380  63.1008400  47.3168860  71.8718850  63.4384160  46.8136320
  70.3682060  63.2700460  46.7638630  58.9671170  58.1061670  48.1208390
  59.0076510  57.8075540  49.0293620  59.8216670  58.5069280  47.9615910
  62.7449560  60.7057220  33.2811900  63.1665980  60.5397090  34.1243290
  62.8700400  59.8957450  32.7867040  60.9076980  56.6853770  46.0882880
  60.3773440  56.1944720  45.4606220  61.5765050  57.1137970  45.5540810
  65.2577200  59.7294830  30.5289000  65.7782860  59.0143850  30.1630150
  65.9045600  60.3680700  30.8289510  69.8055040  61.1523230  45.8524070
  70.2196060  61.3068310  46.7014490  68.8706040  61.2778450  46.0149850
  70.2777210  58.4919390  47.8563220  70.8597980  57.7371710  47.7683700
  70.4538980  59.0226830  47.0794700  61.3949280  53.6516140  46.1680170
  61.3006150  53.0336890  45.4431040  60.8146670  54.3782430  45.9410080
  64.1610720  52.2089380  43.2007560  63.7128020  52.2313640  42.3553110
  63.5275920  51.8108400  43.7977860  66.9034170  58.8359890  45.2057840
  67.0230380  58.2401030  45.9452680  67.7628170  58.8729580  44.7859140
  69.2422070  59.3897080  43.7820350  68.7157290  59.9139700  43.1785490
  69.5853410  60.0224470  44.4130080  61.6408460  56.7790450  30.2270060
  61.4397520  55.9157810  30.5883400  61.4700510  56.6923810  29.2891660
  63.6702940  55.3781240  46.4633660  64.2602630  55.0697090  47.1511480
  62.8523180  54.9060990  46.6193560  68.4896370  54.9947050  46.6966680
  67.8011890  54.3328590  46.6316670  69.2102390  54.5485320  47.1415140
  69.1196770  51.5898680  32.7556940  69.3999060  50.7466580  33.1116360
  68.3462500  51.8221790  33.2695690  60.4391260  53.8791070  30.2147940
  60.7417160  53.8858500  29.3067090  61.1785850  53.5288930  30.7115600
  63.6576190  52.8225690  31.2004140  63.3098190  52.1449680  30.6206590
  63.8588960  52.3615200  32.0147530  72.8019580  66.3410110  45.5256940
  72.2021570  66.4002670  44.7820860  72.9313480  65.4015090  45.6553790
  74.0421030  64.0827930  30.8626650  73.2113990  64.1504580  31.3333880
  74.2192860  64.9732050  30.5593510  73.4977490  60.8275410  33.3660850
  74.2596400  61.3972060  33.4720540  73.5131860  60.2602610  34.1369160
  74.5037460  61.6825510  38.2102780  74.8746290  60.8992830  37.8038750
  75.1439390  62.3714610  38.0320080  71.4871220  63.0662090  43.6233100
  70.6731060  63.4959250  43.8858890  71.8945420  63.6780500  43.0102150
  73.5496660  61.1209780  30.5233370  73.8245500  62.0288660  30.3952590
  73.3607400  61.0572310  31.4595360  69.9472270  54.1454630  31.8187000
  70.3657150  53.9585610  30.9783660  69.6408330  53.2933680  32.1289930
  73.4462000  59.0578770  35.5162800  73.0705600  58.2906700  35.0844090
  72.7165120  59.4401470  36.0037730  72.8361620  58.2050290  45.1502320
  72.6047710  57.9763040  44.2500270  73.0966170  59.1249840  45.1047210
  57.5873760  56.6475000  46.0430270  56.6929810  56.6141760  46.3823980
  58.1271310  56.8461790  46.8081520  71.2749690  53.4306720  47.9282020
  72.1519870  53.4390120  48.3116020  71.2870530  52.6937560  47.3174370
  56.2119910  56.5612270  33.5393840  55.3083990  56.8242470  33.3645500
  56.6960530  56.8323440  32.7593800  72.7212960  57.2836260  38.8170040
  73.2450440  56.7898910  38.1860210  73.3072380  57.4186620  39.5617610
  72.9002680  57.3676130  42.3389590  71.9505390  57.3339670  42.4534580
  73.0815690  58.2776240  42.1039360  58.7547120  55.6177810  31.4488220
  59.4638820  55.1961030  30.9635500  58.0387060  55.6853040  30.8171570
  58.4021280  51.6717140  30.4890870  59.1249410  52.2126080  30.8072090
  58.6745800  51.3980560  29.6132410  72.2112930  56.5409610  34.7562450
  72.7072050  56.3080480  35.5411330  72.0129000  55.7021450  34.3400090
  58.0913470  50.9223330  40.3913490  58.7389660  50.3720710  39.9508650
  58.5115310  51.1766480  41.2129300  73.6400090  55.1770560  37.2900130
  73.5299370  55.0226600  38.2282400  74.4007680  54.6491500  37.0475540
  71.9865810  51.1164690  43.7483130  72.6238030  51.7298830  44.1142320
  72.1340700  51.1525350  42.8032360  74.5290360  53.0078480  30.5306270
  75.4539670  52.8759660  30.3224560  74.5066150  53.0871300  31.4842720
  74.6028850  53.7789140  33.1562980  73.8080350  53.7134260  33.6855890
  74.8072130  54.7139780  33.1448330  71.5447270  67.8180690  37.1501370
  72.1406340  67.4965260  36.4735790  71.8025420  67.3452510  37.9414640
  57.8445470  51.0779000  43.1338810  57.4960290  51.5342820  43.8996990
  57.5133170  50.1836130  43.2161240  65.3570290  52.2690880  46.6558230
  65.2959180  52.8612710  47.4053640  66.2970670  52.1616840  46.5108490
  67.9944850  51.9260940  46.2950520  68.6085260  52.2440230  45.6331600
  68.5394410  51.4409530  46.9146380  74.4120030  67.8252570  43.7012360
  73.9178310  68.2221440  42.9839490  73.8033320  67.2001780  44.0949640
  58.5166110  50.6055200  46.4089580  59.0649100  50.4243250  45.6455690
  58.5821420  49.8149310  46.9445890  68.7352890  50.4893080  42.6219810
  67.8612730  50.8228190  42.4192740  68.6263640  50.0166260  43.4471680
  69.6424870  52.6963950  44.0061530  69.3138230  51.8815710  43.6263260
  70.5907170  52.6533760  43.8827220  66.4827710  51.4062920  41.5612720
  65.6999500  51.8808420  41.8409480  66.1890640  50.5017750  41.4525900
  71.0348780  52.1086020  39.6061810  71.4756870  52.0531120  38.7583410
  70.7656370  53.0244030  39.6771990  72.8987350  51.7401260  37.6170630
  72.8375750  50.7962480  37.4701650  73.6779380  51.8481350  38.1624090
  57.8268120  51.7110400  34.0826440  58.5847480  51.8239280  33.5090470
  57.3645290  52.5479600  34.0369870  64.3681930  53.8249670  37.0728750
  63.5556440  53.4506560  36.7324630  64.8723570  53.0694750  37.3749940
  68.8706910  50.4892120  38.3111820  69.4736280  51.0612330  38.7860340
  68.1299900  51.0531560  38.0885720  72.0141510  50.8913680  33.5852100
  72.2092140  51.7897130  33.8519530  71.2271380  50.6600760  34.0785050
  60.1993270  52.2374450  32.6228410  60.7286030  51.4504250  32.4936360
  60.8321590  52.9165640  32.8563940  62.3931110  51.9749590  35.6773800
  61.7633850  51.2736900  35.8443930  61.8536250  52.7353720  35.4606960
  73.5668120  68.1314390  35.3458660  73.7420310  67.4452130  34.7019580
  72.8689690  68.6561440  34.9535330  62.5186670  51.2533570  48.1126290
  62.2370940  51.7567170  47.3487110  62.9006370  50.4555320  47.7468420
  69.1202130  50.6687150  48.6906760  69.0067580  50.9881760  49.5858280
  69.9371870  51.0699660  48.3944040  68.0260280  58.6879620  19.0541500
  67.9454330  57.7734230  18.7833210  67.6124700  59.1846690  18.3481210
  66.1578320  60.4658640  20.9350770  65.3820420  59.9859080  21.2249340
  66.8091250  59.7864290  20.7606930  60.1744150  60.7778450  21.8126530
  59.3429030  60.5227160  22.2123040  60.7825130  60.8489220  22.5484450
  70.1785750  64.8718830  19.7149900  69.7167280  64.1006070  20.0437070
  70.9911300  64.8984900  20.2202350  60.1545410  64.8118540  22.0084550
  60.4573450  63.9216280  21.8294770  60.8989000  65.3688760  21.7806800
  58.5836100  55.7380340  15.5968920  57.6952800  56.0796310  15.4948800
  58.8677290  55.5380660  14.7049750  56.5469110  58.3385990  21.4808620
  57.1185220  57.5708190  21.4812260  56.5470650  58.6374750  20.5715230
  66.4049060  67.1576840  19.3353890  65.7860500  67.6134340  18.7648330
  67.2600840  67.3128300  18.9343590  65.5987310  63.1415830  20.9420930
  65.5295590  62.2005770  20.7810060  66.3607170  63.2317240  21.5143500
  57.7893980  53.7470350  23.2677550  57.6096820  52.8496100  23.5480310
  57.3874060  54.2942220  23.9424500  66.6292480  55.9486210  21.1689860
  67.0057300  55.0758090  21.0563530  66.5311990  56.2844910  20.2780300
  60.7597490  54.3211840  16.6307300  60.8664240  55.2215570  16.9376060
  59.8489850  54.2729810  16.3401950  70.4116600  53.4436650  18.1018200
  71.2326220  52.9533220  18.1443680  70.4450680  54.0334310  18.8550040
  58.4080650  56.2430850  21.8759890  59.0890760  56.5069220  22.4947290
  58.0928700  55.4031720  22.2097900  62.6005220  57.2898210  20.9632480
  63.1083440  57.7879180  21.6037500  63.1318460  56.5133410  20.7871840
  74.7016150  55.4603400  24.6661830  73.9968320  55.8485110  24.1476940
  74.9674070  56.1553690  25.2682760  60.8841320  51.9296770  25.2295900
  60.8859760  52.4469160  24.4241800  60.0545630  51.4526950  25.2065830
  67.2712410  62.0416080  16.7285800  66.6529680  62.5065530  16.1648520
  67.7835660  62.7343560  17.1455310  62.1344170  61.5691950  23.4069400
  61.8013550  62.1960870  24.0490470  62.3110850  62.0953830  22.6271070
  70.6478080  55.3837030  20.8745740  69.9433650  55.6721920  21.4548850
  71.0090240  56.1937140  20.5145300  60.5656650  53.6406730  23.2366350
  60.9073460  54.4848780  22.9420220  59.6272460  53.7890470  23.3531690
  61.3463270  63.5372750  25.2218580  61.9637270  64.2123830  24.9403030
  60.4856390  63.9460730  25.1306080  56.6395610  62.7272610  14.1025430
  56.2623590  63.2159710  13.3710330  56.8968680  63.3997890  14.7331960
  72.2640860  65.0012160  23.1373220  71.5804380  65.6711270  23.1289890
  72.8035150  65.1992810  22.3718080  73.7165000  54.8291820  21.2654950
  72.7689910  54.8630800  21.3970380  74.0414990  55.6430770  21.6504310
  64.2484540  51.1289000  19.5610940  64.5559520  50.5735890  18.8446440
  63.3185240  51.2633460  19.3783930  69.7999600  66.8456290  21.8518400
  69.8126760  66.4418580  20.9840660  69.2474820  67.6203580  21.7479830
  71.0945020  63.5672510  16.9408570  70.9841350  62.6246840  17.0657990
  71.0913270  63.9288150  17.8271330  69.1985040  61.7486130  23.1801010
  69.6153830  61.5346240  22.3454470  69.9224860  62.0058920  23.7509630
  66.6365300  59.1937830  16.2971060  65.7094580  59.1275210  16.5259530
  66.7890120  60.1317960  16.1826300  66.6234380  55.4654830  13.2938220
  65.6838050  55.6268790  13.3790680  66.9417640  56.1840510  12.7474210
  73.1447140  60.1473350  23.2717250  72.3165770  60.2166440  22.7967380
  73.7397620  60.7327660  22.8033080  70.6662590  60.7558130  16.8006310
  70.0475010  60.4177680  16.1532610  70.6487040  60.1117890  17.5085500
  70.1089150  56.9342670  24.2172120  69.6960330  57.7596380  24.4712110
  69.3765100  56.3487710  24.0248480  62.2421940  59.7202570  19.0790790
  61.8378940  59.0079820  18.5836690  62.3285060  59.3755810  19.9678830
  62.7103640  63.4070130  21.2430000  62.4131930  62.8015600  20.5637780
  63.6603460  63.4447440  21.1319360  60.9550560  56.4945780  22.8589830
  61.5065150  56.6041120  22.0843080  61.4694070  56.8683380  23.5745060
  68.8427290  59.9944940  13.8079060  69.2820570  59.1567370  13.6616880
  69.5555710  60.6274340  13.8943200  60.6293290  60.0165140  26.4695170
  60.4901060  60.8887940  26.8382570  59.7474650  59.6737950  26.3243110
  66.9522670  64.9341010  17.7760300  67.3918580  65.6765340  17.3615690
  66.8909560  65.1767580  18.6999260  72.4244430  51.2487750  12.1220100
  72.1117090  51.3414580  13.0219170  73.1856900  51.8268780  12.0717530
  58.9426570  58.6147550  16.5797440  58.8224170  59.3409640  15.9678710
  58.6327460  57.8450460  16.1025350  74.3788460  66.7413940  29.9744490
  74.8548180  67.2196830  30.6533570  74.9995620  66.6731430  29.2489990
  56.5811940  61.7862690  22.3866080  56.6592360  61.9211460  21.4421800
  57.1953620  61.0778580  22.5794200  57.8259570  63.4862880  18.7972260
  57.4187650  63.6277470  17.9425860  58.7172580  63.2023040  18.5943470
  73.7821710  63.9326790  27.1344500  73.9084770  63.6938670  26.2161680
  73.8243090  63.1011330  27.6066580  69.6192850  67.9210130  15.1323310
  69.4593990  67.6313070  16.0305140  69.4539560  67.1450260  14.5968540
  62.0981230  67.7008660  16.9094930  61.9223710  66.7844200  16.6962730
  61.2436970  68.0595950  17.1492730  69.3218980  65.4297690  13.6921310
  68.6284140  65.4274980  13.0323590  70.0641840  65.0057010  13.2615480
  68.8868910  67.0560400  17.7669800  69.3425860  66.2749780  18.0808420
  69.2261430  67.7667220  18.3110980  73.6345720  55.9859250  28.0994240
  73.0189990  56.4938920  27.5709700  73.3142140  55.0857580  28.0420180
  61.4090230  51.9582620  19.9621110  60.9658380  52.7392160  19.6305630
  61.9675220  52.2812510  20.6692050  65.6960040  54.8251140  25.5656430
  65.2339410  55.0334160  26.3776370  65.2938150  54.0110490  25.2627100
  70.6964550  56.0460090  26.6953090  69.8458140  55.7465840  27.0162160
  70.5366340  56.2902100  25.7836910  67.7914260  57.5461840  28.7951880
  68.1167670  56.7125590  28.4554110  68.5794590  58.0690360  28.9430210
  64.5249050  51.5793320  14.8426940  63.9003230  51.5753190  15.5680250
  64.4379170  50.7124280  14.4462910  63.4466130  52.5029950  21.8210710
  63.7438460  53.4092780  21.7402730  63.9951690  52.0148730  21.2070280
  61.2004450  57.0816190  17.6902360  60.9745370  56.8653360  18.5948980
  60.4196980  57.5144650  17.3448330  68.4302210  57.0879560  16.2893010
  67.8311100  57.8115360  16.1056630  68.9781820  57.0256340  15.5069460
  63.6403660  57.9801770  28.3562630  63.5447260  57.0396500  28.2063030
  64.4835640  58.2016840  27.9610700  67.0367080  55.7243100  18.3196290
  67.4296650  56.0415300  17.5064980  67.3983930  54.8454980  18.4340810
  58.7714200  54.3915440  26.5096410  58.3777590  55.2390650  26.7169190
  58.0832600  53.7541810  26.7005050  65.3459250  54.4750410  29.5793150
  64.6557570  54.2822610  30.2139240  66.0891550  54.7585050  30.1117450
  56.0731250  52.3143900  20.5426490  55.7844300  52.8846760  21.2551470
  56.8177010  51.8348350  20.9057720  56.2601480  56.2564020  11.7529210
  56.1776150  57.1994780  11.8944200  55.9084540  56.1138930  10.8741560
  67.6222220  58.3148850  22.4147070  66.8903340  58.8235660  22.7637170
  67.2246560  57.4978830  22.1135850  64.0599610  54.9903050  20.8199560
  64.0635670  54.5493000  19.9704100  64.9550730  55.3120380  20.9271380
  59.9101990  54.8729540  19.7793770  59.5702040  55.3504770  20.5360820
  59.1479310  54.4194660  19.4194870  64.1219760  55.9915130  13.8106320
  64.2432580  55.9501610  14.7592140  63.7368270  56.8539280  13.6553050
  68.0848130  53.7682530  21.8270010  68.1020870  54.2191180  22.6711860
  67.8363710  52.8688170  22.0403450  63.1341260  58.3016270  13.2089620
  62.5658160  57.8534520  12.5825530  63.8430260  58.6609050  12.6754770
  71.5118880  51.1814710  27.6656390  71.8364650  50.4504370  28.1914370
  71.5475390  50.8628350  26.7637380  64.3607580  59.0504830  22.5664970
  64.7277710  58.5763400  23.3126310  64.1712640  59.9246400  22.9073310
  57.2248070  53.7948520  18.6958440  56.9394990  53.4304190  19.5337060
  57.1626930  53.0628980  18.0821580  62.1506950  58.0913470  24.8849180
  61.8464020  58.9705450  25.1099540  63.1053410  58.1513260  24.9206620
  60.6788740  62.2974460  15.4816030  59.9051000  61.7572080  15.3214750
  61.4083370  61.7781070  15.1433790  71.4376720  61.2939820  21.2742420
  72.1575840  61.7895110  20.8838530  71.2358540  60.6157710  20.6296290
  66.8986660  52.6877780  15.4171810  66.0851270  52.1890950  15.3417120
  66.7048610  53.5276030  15.0008160  69.6135050  57.0597430  13.7133970
  70.5014670  57.3714660  13.5385310  69.5840140  56.1869680  13.3214550
  60.7226140  61.9654840  19.1194840  61.2404810  61.1623100  19.0651730
  60.2710160  61.9033980  19.9611670  65.6095640  63.2321120  14.3922140
  65.9511340  63.9763350  13.8965460  64.7808350  63.5452240  14.7546970
  61.4083800  59.3900450  28.9160090  61.1083940  59.5357630  28.0187910
  62.1795040  58.8305740  28.8233480  71.8849320  58.3709270  13.1813830
  71.8013040  58.8023490  12.3310270  72.6043510  58.8307620  13.6140650
  72.9623460  60.8276790  26.2583800  72.2371650  61.4205570  26.0613190
  73.4898920  60.8200330  25.4597170  72.9136570  65.2251530  15.9095960
  72.2712730  64.5707150  16.1839680  72.5267230  65.6306620  15.1336630
  68.4923050  62.5536960  19.7567650  68.8446870  61.9565090  19.0969020
  67.6085380  62.2281190  19.9275900  64.5786330  63.3134650  17.1638060
  65.2657460  63.8603860  17.5445650  63.7918750  63.8575380  17.1987670
  56.7178730  58.9307470  12.6555140  57.5873580  59.2132270  12.9391060
  56.2269050  59.7443340  12.5403950  63.8813540  60.3180680  16.7763420
  64.3376320  61.1285930  17.0023610  63.5301750  60.0003820  17.6081910
  66.1846150  65.8287020  24.0055720  66.8288370  66.0346400  24.6829140
  66.5475590  65.0675420  23.5526570  59.7825320  50.6618330  17.2485940
  59.6539950  50.6536230  18.1970860  58.9587340  51.0001420  16.8976950
  67.4578230  63.8319370  22.7233170  68.1000460  63.1312530  22.8365340
  67.9827580  64.6117810  22.5430060  71.3033950  64.1167990  12.4472310
  71.0771530  63.3998430  13.0396950  70.9130150  63.8680430  11.6094060
  57.0849980  68.1434850  13.2216770  57.4447620  68.7424190  12.5674040
  56.9442320  68.6894740  13.9951800  56.7819250  52.4209450  26.7092640
  56.0677770  52.6206370  27.3145250  57.2014290  51.6449020  27.0807440
  70.8850200  62.0339930  14.1086470  70.5971900  62.4952620  14.8964350
  71.6802370  61.5737700  14.3770690  63.1018600  65.5266050  14.0390440
  63.0928700  66.2595740  13.4234950  62.1816960  65.2797630  14.1317400
  58.7025240  60.7480940  14.7837200  58.0953190  61.4879840  14.7932500
  59.1774590  60.8380300  13.9575400  68.2758030  54.9131760  24.4594090
  68.6438850  54.0926970  24.7873660  67.4156230  54.9733650  24.8749740
  71.6420060  53.8688700  15.2681650  71.0133220  53.9734370  14.5539880
  71.1471980  54.0885480  16.0575530  66.0878200  65.5894290  12.7015630
  66.1890180  65.3858280  11.7717610  65.1879940  65.3352570  12.9063410
  63.6104090  56.1474650  16.6839530  62.9020240  56.6160990  17.1253140
  63.8948570  55.4896660  17.3184720  65.2360020  57.5671350  24.6832060
  65.7345270  58.0417170  25.3483910  65.3782970  56.6434870  24.8902090
  67.6419520  52.8725310  18.1235320  67.5187300  52.8911440  17.1744830
  68.5904080  52.9204250  18.2433720  64.7296310  68.1080610  17.3963300
  64.9837810  68.0702000  16.4742670  63.7808790  67.9813940  17.3891550
  61.8139110  54.4559730  14.0590240  62.6629640  54.8929880  13.9930430
  61.4470380  54.7679990  14.8862300  72.4426880  53.7839310  25.5260450
  71.9400480  54.5244710  25.8654260  73.2583540  54.1723310  25.2097240
  70.7348890  59.0272490  18.9721810  69.7939030  59.0422720  19.1469500
  71.0492960  58.2408450  19.4182110  60.7130530  60.7092090  12.5325770
  61.4793800  60.5973450  13.0951200  60.7905220  60.0130060  11.8802540
  59.4077290  58.1417160  13.2158660  59.4880880  57.1944670  13.3276060
  60.2997040  58.4724040  13.3219320  72.7374470  66.1981340  20.6476070
  72.8621890  67.0212510  21.1199880  73.6040030  65.9872070  20.3000220
  60.2092000  68.2912550  20.3193200  60.9454480  67.7428010  20.5901770
  60.5932920  69.1568560  20.1799190  57.0937480  64.3586120  16.1934710
  56.1677260  64.6007260  16.1840120  57.5593910  65.1860380  16.0719460
  63.3194310  67.4642860  12.1418770  64.1122920  67.7531690  11.6900560
  62.7998660  67.0335030  11.4631250  72.3724480  66.6912990  13.5655510
  72.0865990  66.2778130  12.7509690  72.1744030  67.6200700  13.4456030
  63.8371710  62.6846270  12.0061120  63.7322350  62.0698620  12.7322500
  63.6695930  62.1612160  11.2224130  67.0774440  61.7466300  12.6103110
  66.5284540  62.1935600  13.2545850  67.6993700  61.2415550  13.1340780
  62.7449560  60.7057220  14.5068410  63.1665980  60.5397090  15.3499800
  62.8700400  59.8957450  14.0123550  60.9076980  56.6853770  27.3139390
  60.3773440  56.1944720  26.6862730  61.5765050  57.1137970  26.7797320
  65.2577200  59.7294830  11.7545510  65.7782860  59.0143850  11.3886660
  65.9045600  60.3680700  12.0546020  69.8055040  61.1523230  27.0780580
  70.2196060  61.3068310  27.9271000  68.8706040  61.2778450  27.2406360
  70.2777210  58.4919390  29.0819730  70.8597980  57.7371710  28.9940210
  70.4538980  59.0226830  28.3051210  61.3949280  53.6516140  27.3936680
  61.3006150  53.0336890  26.6687550  60.8146670  54.3782430  27.1666590
  64.1610720  52.2089380  24.4264070  63.7128020  52.2313640  23.5809620
  63.5275920  51.8108400  25.0234370  64.5670270  61.1043710  25.0476510
  64.9858380  61.9476440  24.8752750  63.6478900  61.2415750  24.8183290
  66.9034170  58.8359890  26.4314350  67.0230380  58.2401030  27.1709190
  67.7628170  58.8729580  26.0115650  69.2422070  59.3897080  25.0076860
  68.7157290  59.9139700  24.4042000  69.5853410  60.0224470  25.6386590
  61.6408460  56.7790450  11.4526570  61.4397520  55.9157810  11.8139910
  61.4700510  56.6923810  10.5148170  63.6702940  55.3781240  27.6890170
  64.2602630  55.0697090  28.3767990  62.8523180  54.9060990  27.8450070
  68.4896370  54.9947050  27.9223190  67.8011890  54.3328590  27.8573180
  69.2102390  54.5485320  28.3671650  69.1196770  51.5898680  13.9813450
  69.3999060  50.7466580  14.3372870  68.3462500  51.8221790  14.4952200
  60.4391260  53.8791070  11.4404450  60.7417160  53.8858500  10.5323600
  61.1785850  53.5288930  11.9372110  63.6576190  52.8225690  12.4260650
  63.3098190  52.1449680  11.8463100  63.8588960  52.3615200  13.2404040
  65.8225230  67.8106440  14.0447250  66.7176020  68.1491410  14.0666010
  65.8542860  67.0885850  13.4171530  59.4621390  63.1833490  12.2734250
  59.8996260  63.7263160  12.9291830  59.9469120  62.3580440  12.2830590
  56.6767190  65.9722520  19.7254510  57.0070200  65.1043580  19.4933150
  57.1058190  66.1781040  20.5559470  61.2729110  64.3031530  17.3856480
  60.9724650  64.1796500  18.2860390  61.1666600  63.4440120  16.9772210
  57.1657400  66.8393110  22.4636140  56.7288390  67.0193910  23.2960290
  57.7335080  67.5967730  22.3217860  72.8019580  66.3410110  26.7513450
  72.2021570  66.4002670  26.0077370  72.9313480  65.4015090  26.8810300
  74.0421030  64.0827930  12.0883160  73.2113990  64.1504580  12.5590390
  74.2192860  64.9732050  11.7850020  73.4977490  60.8275410  14.5917360
  74.2596400  61.3972060  14.6977050  73.5131860  60.2602610  15.3625670
  56.9981830  59.3513340  18.8225020  56.3430670  59.0824980  18.1784720
  57.8359780  59.2417820  18.3727000  74.5037460  61.6825510  19.4359290
  74.8746290  60.8992830  19.0295260  75.1439390  62.3714610  19.2576590
  71.4871220  63.0662090  24.8489610  70.6731060  63.4959250  25.1115400
  71.8945420  63.6780500  24.2358660  73.5496660  61.1209780  11.7489880
  73.8245500  62.0288660  11.6209100  73.3607400  61.0572310  12.6851870
  69.9472270  54.1454630  13.0443510  70.3657150  53.9585610  12.2040170
  69.6408330  53.2933680  13.3546440  73.4462000  59.0578770  16.7419310
  73.0705600  58.2906700  16.3100600  72.7165120  59.4401470  17.2294240
  58.0357760  59.7365910  23.3628360  58.4030800  59.6493310  24.2424380
  57.4668580  58.9732460  23.2635220  72.8361620  58.2050290  26.3758830
  72.6047710  57.9763040  25.4756780  73.0966170  59.1249840  26.3303720
  57.5873760  56.6475000  27.2686780  56.6929810  56.6141760  27.6080490
  58.1271310  56.8461790  28.0338030  71.2749690  53.4306720  29.1538530
  72.1519870  53.4390120  29.5372530  71.2870530  52.6937560  28.5430880
  56.2119910  56.5612270  14.7650350  55.3083990  56.8242470  14.5902010
  56.6960530  56.8323440  13.9850310  72.7212960  57.2836260  20.0426550
  73.2450440  56.7898910  19.4116720  73.3072380  57.4186620  20.7874120
  72.9002680  57.3676130  23.5646100  71.9505390  57.3339670  23.6791090
  73.0815690  58.2776240  23.3295870  58.7547120  55.6177810  12.6744730
  59.4638820  55.1961030  12.1892010  58.0387060  55.6853040  12.0428080
  58.4021280  51.6717140  11.7147380  59.1249410  52.2126080  12.0328600
  58.6745800  51.3980560  10.8388920  72.2112930  56.5409610  15.9818960
  72.7072050  56.3080480  16.7667840  72.0129000  55.7021450  15.5656600
  58.0913470  50.9223330  21.6170000  58.7389660  50.3720710  21.1765160
  58.5115310  51.1766480  22.4385810  73.6400090  55.1770560  18.5156640
  73.5299370  55.0226600  19.4538910  74.4007680  54.6491500  18.2732050
  71.9865810  51.1164690  24.9739640  72.6238030  51.7298830  25.3398830
  72.1340700  51.1525350  24.0288870  74.5290360  53.0078480  11.7562780
  75.4539670  52.8759660  11.5481070  74.5066150  53.0871300  12.7099230
  74.6028850  53.7789140  14.3819490  73.8080350  53.7134260  14.9112400
  74.8072130  54.7139780  14.3704840  71.5447270  67.8180690  18.3757880
  72.1406340  67.4965260  17.6992300  71.8025420  67.3452510  19.1671150
  57.8445470  51.0779000  24.3595320  57.4960290  51.5342820  25.1253500
  57.5133170  50.1836130  24.4417750  63.1515870  65.8058190  24.1258230
  62.9107230  66.0732750  23.2388750  64.0918510  65.9763920  24.1809090
  65.3570290  52.2690880  27.8814740  65.2959180  52.8612710  28.6310150
  66.2970670  52.1616840  27.7365000  67.9944850  51.9260940  27.5207030
  68.6085260  52.2440230  26.8588110  68.5394410  51.4409530  28.1402890
  74.4120030  67.8252570  24.9268870  73.9178310  68.2221440  24.2096000
  73.8033320  67.2001780  25.3206150  58.5166110  50.6055200  27.6346090
  59.0649100  50.4243250  26.8712200  58.5821420  49.8149310  28.1702400
  68.7352890  50.4893080  23.8476320  67.8612730  50.8228190  23.6449250
  68.6263640  50.0166260  24.6728190  69.6424870  52.6963950  25.2318040
  69.3138230  51.8815710  24.8519770  70.5907170  52.6533760  25.1083730
  72.0959480  68.4675990  22.2055610  71.6362450  69.2191800  21.8313630
  71.4671940  67.7482460  22.1470410  58.9210100  64.5619230  24.5954330
  58.1944160  63.9424520  24.5280280  58.9819250  64.9559840  23.7252410
  62.5255200  66.7764230  21.3803740  63.0420220  66.1651590  20.8552000
  63.1752580  67.2793010  21.8714750  65.2650700  67.6672720  22.2072720
  65.5528510  67.4127020  21.3305730  65.7773920  67.1150080  22.7978290
  66.4827710  51.4062920  22.7869230  65.6999500  51.8808420  23.0665990
  66.1890640  50.5017750  22.6782410  71.0348780  52.1086020  20.8318320
  71.4756870  52.0531120  19.9839920  70.7656370  53.0244030  20.9028500
  72.8987350  51.7401260  18.8427140  72.8375750  50.7962480  18.6958160
  73.6779380  51.8481350  19.3880600  57.2040100  67.8793620  17.8051090
  57.0362140  67.2464300  18.5032980  56.3374610  68.0853020  17.4545280
  57.8268120  51.7110400  15.3082950  58.5847480  51.8239280  14.7346980
  57.3645290  52.5479600  15.2626380  64.3681930  53.8249670  18.2985260
  63.5556440  53.4506560  17.9581140  64.8723570  53.0694750  18.6006450
  68.8706910  50.4892120  19.5368330  69.4736280  51.0612330  20.0116850
  68.1299900  51.0531560  19.3142230  72.0141510  50.8913680  14.8108610
  72.2092140  51.7897130  15.0776040  71.2271380  50.6600760  15.3041560
  58.8102800  66.5726850  15.2501230  58.2850420  66.9534880  14.5463190
  58.7347380  67.1977620  15.9710940  60.1993270  52.2374450  13.8484920
  60.7286030  51.4504250  13.7192870  60.8321590  52.9165640  14.0820450
  62.3931110  51.9749590  16.9030310  61.7633850  51.2736900  17.0700440
  61.8536250  52.7353720  16.6863470  73.5668120  68.1314390  16.5715170
  73.7420310  67.4452130  15.9276090  72.8689690  68.6561440  16.1791840
  62.5186670  51.2533570  29.3382800  62.2370940  51.7567170  28.5743620
  62.9006370  50.4555320  28.9724930  61.4095770  68.5209230  14.1250480
  62.1414590  68.2368510  13.5774370  61.6689440  68.2822510  15.0149860
  60.5710560  64.6373960  14.1296810  59.9419440  65.1059060  14.6782640
  60.6858390  63.7923180  14.5643000  69.1202130  50.6687150  29.9163270
  69.0067580  50.9881760  30.8114790  69.9371870  51.0699660  29.6200550
  66.1578320  60.4658640   2.1607280  65.3820420  59.9859080   2.4505850
  66.8091250  59.7864290   1.9863440  60.1744150  60.7778450   3.0383040
  59.3429030  60.5227160   3.4379550  60.7825130  60.8489220   3.7740960
  60.1545410  64.8118540   3.2341060  60.4573450  63.9216280   3.0551280
  60.8989000  65.3688760   3.0063310  56.5469110  58.3385990   2.7065130
  57.1185220  57.5708190   2.7068770  56.5470650  58.6374750   1.7971740
  65.5987310  63.1415830   2.1677440  65.5295590  62.2005770   2.0066570
  66.3607170  63.2317240   2.7400010  57.7893980  53.7470350   4.4934060
  57.6096820  52.8496100   4.7736820  57.3874060  54.2942220   5.1681010
  66.6292480  55.9486210   2.3946370  67.0057300  55.0758090   2.2820040
  66.5311990  56.2844910   1.5036810  58.4080650  56.2430850   3.1016400
  59.0890760  56.5069220   3.7203800  58.0928700  55.4031720   3.4354410
  62.6005220  57.2898210   2.1888990  63.1083440  57.7879180   2.8294010
  63.1318460  56.5133410   2.0128350  74.7016150  55.4603400   5.8918340
  73.9968320  55.8485110   5.3733450  74.9674070  56.1553690   6.4939270
  60.8841320  51.9296770   6.4552410  60.8859760  52.4469160   5.6498310
  60.0545630  51.4526950   6.4322340  62.1344170  61.5691950   4.6325910
  61.8013550  62.1960870   5.2746980  62.3110850  62.0953830   3.8527580
  70.6478080  55.3837030   2.1002250  69.9433650  55.6721920   2.6805360
  71.0090240  56.1937140   1.7401810  60.5656650  53.6406730   4.4622860
  60.9073460  54.4848780   4.1676730  59.6272460  53.7890470   4.5788200
  61.3463270  63.5372750   6.4475090  61.9637270  64.2123830   6.1659540
  60.4856390  63.9460730   6.3562590  72.2640860  65.0012160   4.3629730
  71.5804380  65.6711270   4.3546400  72.8035150  65.1992810   3.5974590
  73.7165000  54.8291820   2.4911460  72.7689910  54.8630800   2.6226890
  74.0414990  55.6430770   2.8760820  69.7999600  66.8456290   3.0774910
  69.8126760  66.4418580   2.2097170  69.2474820  67.6203580   2.9736340
  69.1985040  61.7486130   4.4057520  69.6153830  61.5346240   3.5710980
  69.9224860  62.0058920   4.9766140  73.1447140  60.1473350   4.4973760
  72.3165770  60.2166440   4.0223890  73.7397620  60.7327660   4.0289590
  70.1089150  56.9342670   5.4428630  69.6960330  57.7596380   5.6968620
  69.3765100  56.3487710   5.2504990  62.7103640  63.4070130   2.4686510
  62.4131930  62.8015600   1.7894290  63.6603460  63.4447440   2.3575870
  60.9550560  56.4945780   4.0846340  61.5065150  56.6041120   3.3099590
  61.4694070  56.8683380   4.8001570  70.7989250  66.9802000   6.1309610
  70.3219810  67.7874190   5.9382220  70.1151040  66.3280330   6.2835820
  61.8022070  63.1451820   9.1194310  60.9050600  63.3691790   9.3667710
  61.8274940  63.2686760   8.1705710  60.6293290  60.0165140   7.6951680
  60.4901060  60.8887940   8.0639080  59.7474650  59.6737950   7.5499620
  62.4273640  65.9586840   9.9036830  62.3989070  66.3629790   9.0365260
  62.2638610  65.0297200   9.7408430  74.3788460  66.7413940  11.2001000
  74.8548180  67.2196830  11.8790080  74.9995620  66.6731430  10.4746500
  56.5811940  61.7862690   3.6122590  56.6592360  61.9211460   2.6678310
  57.1953620  61.0778580   3.8050710  73.7821710  63.9326790   8.3601010
  73.9084770  63.6938670   7.4418190  73.8243090  63.1011330   8.8323090
  67.6438450  67.6354790   6.9295820  68.1583120  67.5462800   7.7318250
  66.8007530  67.9814490   7.2223730  73.6345720  55.9859250   9.3250750
  73.0189990  56.4938920   8.7966210  73.3142140  55.0857580   9.2676690
  56.6371460  62.8276860   6.1517050  56.8002500  62.3582220   5.3336420
  57.1023910  62.3200420   6.8165890  65.6960040  54.8251140   6.7912940
  65.2339410  55.0334160   7.6032880  65.2938150  54.0110490   6.4883610
  70.6964550  56.0460090   7.9209600  69.8458140  55.7465840   8.2418670
  70.5366340  56.2902100   7.0093420  67.7914260  57.5461840  10.0208390
  68.1167670  56.7125590   9.6810620  68.5794590  58.0690360  10.1686720
  63.4466130  52.5029950   3.0467220  63.7438460  53.4092780   2.9659240
  63.9951690  52.0148730   2.4326790  63.6403660  57.9801770   9.5819140
  63.5447260  57.0396500   9.4319540  64.4835640  58.2016840   9.1867210
  58.7714200  54.3915440   7.7352920  58.3777590  55.2390650   7.9425700
  58.0832600  53.7541810   7.9261560  65.3459250  54.4750410  10.8049660
  64.6557570  54.2822610  11.4395750  66.0891550  54.7585050  11.3373960
  56.0731250  52.3143900   1.7683000  55.7844300  52.8846760   2.4807980
  56.8177010  51.8348350   2.1314230  67.6222220  58.3148850   3.6403580
  66.8903340  58.8235660   3.9893680  67.2246560  57.4978830   3.3392360
  68.0848130  53.7682530   3.0526520  68.1020870  54.2191180   3.8968370
  67.8363710  52.8688170   3.2659960  71.5118880  51.1814710   8.8912900
  71.8364650  50.4504370   9.4170880  71.5475390  50.8628350   7.9893890
  58.2110440  62.2028290   8.3112860  57.8265230  61.5621960   8.9095820
  58.5222630  62.9064410   8.8807590  64.3607580  59.0504830   3.7921480
  64.7277710  58.5763400   4.5382820  64.1712640  59.9246400   4.1329820
  62.1506950  58.0913470   6.1105690  61.8464020  58.9705450   6.3356050
  63.1053410  58.1513260   6.1463130  71.4376720  61.2939820   2.4998930
  72.1575840  61.7895110   2.1095040  71.2358540  60.6157710   1.8552800
  66.8195520  61.3648880   8.3867930  66.7532830  60.4444550   8.1325520
  66.1900660  61.4624320   9.1012570  58.2070680  58.9316210   7.2577050
  57.8485620  59.5970060   7.8450390  57.9125240  58.0999760   7.6289670
  61.4083800  59.3900450  10.1416600  61.1083940  59.5357630   9.2444420
  62.1795040  58.8305740  10.0489990  66.7512250  64.1869450   8.1371730
  66.7656790  63.2550410   7.9190640  66.0437350  64.2729210   8.7761500
  72.9623460  60.8276790   7.4840310  72.2371650  61.4205570   7.2869700
  73.4898920  60.8200330   6.6853680  66.1846150  65.8287020   5.2312230
  66.8288370  66.0346400   5.9085650  66.5475590  65.0675420   4.7783080
  67.4578230  63.8319370   3.9489680  68.1000460  63.1312530   4.0621850
  67.9827580  64.6117810   3.7686570  69.2315850  64.6314270   7.1525740
  69.5672090  65.2180960   7.8303660  68.3116190  64.5006980   7.3823530
  56.7819250  52.4209450   7.9349150  56.0677770  52.6206370   8.5401760
  57.2014290  51.6449020   8.3063950  57.0691840  66.4089710   8.9215680
  57.1782960  65.4684450   8.7811070  56.4172400  66.6744460   8.2729410
  65.0604430  64.6805600  10.3213800  64.7401300  63.9614840  10.8659490
  64.3862790  65.3560670  10.3949860  68.2758030  54.9131760   5.6850600
  68.6438850  54.0926970   6.0130170  67.4156230  54.9733650   6.1006250
  65.2360020  57.5671350   5.9088570  65.7345270  58.0417170   6.5740420
  65.3782970  56.6434870   6.1158600  72.4426880  53.7839310   6.7516960
  71.9400480  54.5244710   7.0910770  73.2583540  54.1723310   6.4353750
  72.7374470  66.1981340   1.8732580  72.8621890  67.0212510   2.3456390
  73.6040030  65.9872070   1.5256730  59.2150280  67.4758620  10.7335290
  60.0163010  67.7970670  11.1470690  58.7002100  67.1154200  11.4555200
  68.0514910  63.5838490  10.6810700  67.4453070  63.6070090   9.9406450
  67.7469020  62.8521530  11.2177950  69.4815280  67.3118780   9.2920110
  70.4337030  67.2276800   9.2420350  69.3343500  67.9760490   9.9653900
  56.9348090  59.9632080   9.6771340  57.4387110  59.3839360  10.2487570
  56.1955510  60.2472310  10.2147710  63.9886030  61.3703070   9.2106860
  63.2231700  61.9388070   9.1261530  64.1701990  61.0779280   8.3175090
  71.1309380  63.1008400   9.7681880  71.8718850  63.4384160   9.2649340
  70.3682060  63.2700460   9.2151650  58.9671170  58.1061670  10.5721410
  59.0076510  57.8075540  11.4806640  59.8216670  58.5069280  10.4128930
  60.9076980  56.6853770   8.5395900  60.3773440  56.1944720   7.9119240
  61.5765050  57.1137970   8.0053830  69.8055040  61.1523230   8.3037090
  70.2196060  61.3068310   9.1527510  68.8706040  61.2778450   8.4662870
  70.2777210  58.4919390  10.3076240  70.8597980  57.7371710  10.2196720
  70.4538980  59.0226830   9.5307720  61.3949280  53.6516140   8.6193190
  61.3006150  53.0336890   7.8944060  60.8146670  54.3782430   8.3923100
  64.1610720  52.2089380   5.6520580  63.7128020  52.2313640   4.8066130
  63.5275920  51.8108400   6.2490880  64.5670270  61.1043710   6.2733020
  64.9858380  61.9476440   6.1009260  63.6478900  61.2415750   6.0439800
  66.9034170  58.8359890   7.6570860  67.0230380  58.2401030   8.3965700
  67.7628170  58.8729580   7.2372160  69.2422070  59.3897080   6.2333370
  68.7157290  59.9139700   5.6298510  69.5853410  60.0224470   6.8643100
  62.4177690  67.4096720   7.3890750  61.8798780  68.1342780   7.0699450
  62.6711650  66.9327060   6.5988090  63.6702940  55.3781240   8.9146680
  64.2602630  55.0697090   9.6024500  62.8523180  54.9060990   9.0706580
  68.4896370  54.9947050   9.1479700  67.8011890  54.3328590   9.0829690
  69.2102390  54.5485320   9.5928160  65.2739900  68.6447930   7.6477400
  65.1998600  69.5483070   7.9549770  64.3718740  68.3259830   7.6199470
  57.1657400  66.8393110   3.6892650  56.7288390  67.0193910   4.5216800
  57.7335080  67.5967730   3.5474370  72.8019580  66.3410110   7.9769960
  72.2021570  66.4002670   7.2333880  72.9313480  65.4015090   8.1066810
  71.4871220  63.0662090   6.0746120  70.6731060  63.4959250   6.3371910
  71.8945420  63.6780500   5.4615170  58.0357760  59.7365910   4.5884870
  58.4030800  59.6493310   5.4680890  57.4668580  58.9732460   4.4891730
  72.8361620  58.2050290   7.6015340  72.6047710  57.9763040   6.7013290
  73.0966170  59.1249840   7.5560230  57.5873760  56.6475000   8.4943290
  56.6929810  56.6141760   8.8337000  58.1271310  56.8461790   9.2594540
  71.2749690  53.4306720  10.3795040  72.1519870  53.4390120  10.7629040
  71.2870530  52.6937560   9.7687390  72.9002680  57.3676130   4.7902610
  71.9505390  57.3339670   4.9047600  73.0815690  58.2776240   4.5552380
  58.0913470  50.9223330   2.8426510  58.7389660  50.3720710   2.4021670
  58.5115310  51.1766480   3.6642320  71.9865810  51.1164690   6.1996150
  72.6238030  51.7298830   6.5655340  72.1340700  51.1525350   5.2545380
  57.8445470  51.0779000   5.5851830  57.4960290  51.5342820   6.3510010
  57.5133170  50.1836130   5.6674260  59.4509840  64.2498600   9.7505020
  59.4079470  63.8791510  10.6319480  59.5820850  65.1876170   9.8906840
  63.1515870  65.8058190   5.3514740  62.9107230  66.0732750   4.4645260
  64.0918510  65.9763920   5.4065600  65.3570290  52.2690880   9.1071250
  65.2959180  52.8612710   9.8566660  66.2970670  52.1616840   8.9621510
  67.9944850  51.9260940   8.7463540  68.6085260  52.2440230   8.0844620
  68.5394410  51.4409530   9.3659400  74.4120030  67.8252570   6.1525380
  73.9178310  68.2221440   5.4352510  73.8033320  67.2001780   6.5462660
  58.5166110  50.6055200   8.8602600  59.0649100  50.4243250   8.0968710
  58.5821420  49.8149310   9.3958910  59.2897870  67.1960850   6.8702800
  58.6958190  67.0645550   7.6092840  59.2821710  66.3598990   6.4044900
  68.7352890  50.4893080   5.0732830  67.8612730  50.8228190   4.8705760
  68.6263640  50.0166260   5.8984700  69.6424870  52.6963950   6.4574550
  69.3138230  51.8815710   6.0776280  70.5907170  52.6533760   6.3340240
  72.0959480  68.4675990   3.4312120  71.6362450  69.2191800   3.0570140
  71.4671940  67.7482460   3.3726920  58.9210100  64.5619230   5.8210840
  58.1944160  63.9424520   5.7536790  58.9819250  64.9559840   4.9508920
  62.5255200  66.7764230   2.6060250  63.0420220  66.1651590   2.0808510
  63.1752580  67.2793010   3.0971260  65.2650700  67.6672720   3.4329230
  65.5528510  67.4127020   2.5562240  65.7773920  67.1150080   4.0234800
  66.4827710  51.4062920   4.0125740  65.6999500  51.8808420   4.2922500
  66.1890640  50.5017750   3.9038920  65.3323060  68.5888820  10.7997430
  66.2590370  68.3533090  10.8433390  65.3173490  69.4160820  10.3183460
  62.5186670  51.2533570  10.5639310  62.2370940  51.7567170   9.8000130
  62.9006370  50.4555320  10.1981440  69.1202130  50.6687150  11.1419780
  69.0067580  50.9881760  12.0371300  69.9371870  51.0699660  10.8457060
  71.9000620  67.8158680  10.6238470  72.6925940  67.3207910  10.4164430
  72.1933770  68.4948820  11.2314080  68.0260280  39.9136130  75.3771970
  67.9454330  38.9990740  75.1063680  67.6124700  40.4103200  74.6711680
  70.1785750  46.0975340  76.0380370  69.7167280  45.3262580  76.3667540
  70.9911300  46.1241410  76.5432820  58.5836100  36.9636850  71.9199390
  57.6952800  37.3052820  71.8179270  58.8677290  36.7637170  71.0280220
  66.4049060  48.3833350  75.6584360  65.7860500  48.8390850  75.0878800
  67.2600840  48.5384810  75.2574060  60.7597490  35.5468350  72.9537770
  60.8664240  36.4472080  73.2606530  59.8489850  35.4986320  72.6632420
  70.4116600  34.6693160  74.4248670  71.2326220  34.1789730  74.4674150
  70.4450680  35.2590820  75.1780510  67.2712410  43.2672590  73.0516270
  66.6529680  43.7322040  72.4878990  67.7835660  43.9600070  73.4685780
  56.6395610  43.9529120  70.4255900  56.2623590  44.4416220  69.6940800
  56.8968680  44.6254400  71.0562430  64.2484540  32.3545510  75.8841410
  64.5559520  31.7992400  75.1676910  63.3185240  32.4889970  75.7014400
  71.0945020  44.7929020  73.2639040  70.9841350  43.8503350  73.3888460
  71.0913270  45.1544660  74.1501800  66.6365300  40.4194340  72.6201530
  65.7094580  40.3531720  72.8490000  66.7890120  41.3574470  72.5056770
  66.6234380  36.6911340  69.6168690  65.6838050  36.8525300  69.7021150
  66.9417640  37.4097020  69.0704680  70.6662590  41.9814640  73.1236780
  70.0475010  41.6434190  72.4763080  70.6487040  41.3374400  73.8315970
  62.2421940  40.9459080  75.4021260  61.8378940  40.2336330  74.9067160
  62.3285060  40.6012320  76.2909300  68.8427290  41.2201450  70.1309530
  69.2820570  40.3823880  69.9847350  69.5555710  41.8530850  70.2173670
  66.9522670  46.1597520  74.0990770  67.3918580  46.9021850  73.6846160
  66.8909560  46.4024090  75.0229730  72.4244430  32.4744260  68.4450570
  72.1117090  32.5671090  69.3449640  73.1856900  33.0525290  68.3948000
  58.9426570  39.8404060  72.9027910  58.8224170  40.5666150  72.2909180
  58.6327460  39.0706970  72.4255820  57.8259570  44.7119390  75.1202730
  57.4187650  44.8533980  74.2656330  58.7172580  44.4279550  74.9173940
  69.6192850  49.1466640  71.4553780  69.4593990  48.8569580  72.3535610
  69.4539560  48.3706770  70.9199010  62.0981230  48.9265170  73.2325400
  61.9223710  48.0100710  73.0193200  61.2436970  49.2852460  73.4723200
  69.3218980  46.6554200  70.0151780  68.6284140  46.6531490  69.3554060
  70.0641840  46.2313520  69.5845950  68.8868910  48.2816910  74.0900270
  69.3425860  47.5006290  74.4038890  69.2261430  48.9923730  74.6341450
  61.4090230  33.1839130  76.2851580  60.9658380  33.9648670  75.9536100
  61.9675220  33.5069020  76.9922520  64.5249050  32.8049830  71.1657410
  63.9003230  32.8009700  71.8910720  64.4379170  31.9380790  70.7693380
  61.2004450  38.3072700  74.0132830  60.9745370  38.0909870  74.9179450
  60.4196980  38.7401160  73.6678800  68.4302210  38.3136070  72.6123480
  67.8311100  39.0371870  72.4287100  68.9781820  38.2512850  71.8299930
  67.0367080  36.9499610  74.6426760  67.4296650  37.2671810  73.8295450
  67.3983930  36.0711490  74.7571280  56.2601480  37.4820530  68.0759680
  56.1776150  38.4251290  68.2174670  55.9084540  37.3395440  67.1972030
  64.0599610  36.2159560  77.1430030  64.0635670  35.7749510  76.2934570
  64.9550730  36.5376890  77.2501850  59.9101990  36.0986050  76.1024240
  59.5702040  36.5761280  76.8591290  59.1479310  35.6451170  75.7425340
  64.1219760  37.2171640  70.1336790  64.2432580  37.1758120  71.0822610
  63.7368270  38.0795790  69.9783520  63.1341260  39.5272780  69.5320090
  62.5658160  39.0791030  68.9056000  63.8430260  39.8865560  68.9985240
  57.2248070  35.0205030  75.0188910  56.9394990  34.6560700  75.8567530
  57.1626930  34.2885490  74.4052050  60.6788740  43.5230970  71.8046500
  59.9051000  42.9828590  71.6445220  61.4083370  43.0037580  71.4664260
  66.8986660  33.9134290  71.7402280  66.0851270  33.4147460  71.6647590
  66.7048610  34.7532540  71.3238630  69.6135050  38.2853940  70.0364440
  70.5014670  38.5971170  69.8615780  69.5840140  37.4126190  69.6445020
  60.7226140  43.1911350  75.4425310  61.2404810  42.3879610  75.3882200
  60.2710160  43.1290490  76.2842140  65.6095640  44.4577630  70.7152610
  65.9511340  45.2019860  70.2195930  64.7808350  44.7708750  71.0777440
  71.8849320  39.5965780  69.5044300  71.8013040  40.0280000  68.6540740
  72.6043510  40.0564130  69.9371120  72.9136570  46.4508040  72.2326430
  72.2712730  45.7963660  72.5070150  72.5267230  46.8563130  71.4567100
  68.4923050  43.7793470  76.0798120  68.8446870  43.1821600  75.4199490
  67.6085380  43.4537700  76.2506370  64.5786330  44.5391160  73.4868530
  65.2657460  45.0860370  73.8676120  63.7918750  45.0831890  73.5218140
  56.7178730  40.1563980  68.9785610  57.5873580  40.4388780  69.2621530
  56.2269050  40.9699850  68.8634420  63.8813540  41.5437190  73.0993890
  64.3376320  42.3542440  73.3254080  63.5301750  41.2260330  73.9312380
  59.7825320  31.8874840  73.5716410  59.6539950  31.8792740  74.5201330
  58.9587340  32.2257930  73.2207420  71.3033950  45.3424500  68.7702780
  71.0771530  44.6254940  69.3627420  70.9130150  45.0936940  67.9324530
  57.0849980  49.3691360  69.5447240  57.4447620  49.9680700  68.8904510
  56.9442320  49.9151250  70.3182270  70.8850200  43.2596440  70.4316940
  70.5971900  43.7209130  71.2194820  71.6802370  42.7994210  70.7001160
  63.1018600  46.7522560  70.3620910  63.0928700  47.4852250  69.7465420
  62.1816960  46.5054140  70.4547870  58.7025240  41.9737450  71.1067670
  58.0953190  42.7136350  71.1162970  59.1774590  42.0636810  70.2805870
  71.6420060  35.0945210  71.5912120  71.0133220  35.1990880  70.8770350
  71.1471980  35.3141990  72.3806000  66.0878200  46.8150800  69.0246100
  66.1890180  46.6114790  68.0948080  65.1879940  46.5609080  69.2293880
  63.6104090  37.3731160  73.0070000  62.9020240  37.8417500  73.4483610
  63.8948570  36.7153170  73.6415190  67.6419520  34.0981820  74.4465790
  67.5187300  34.1167950  73.4975300  68.5904080  34.1460760  74.5664190
  64.7296310  49.3337120  73.7193770  64.9837810  49.2958510  72.7973140
  63.7808790  49.2070450  73.7122020  61.8139110  35.6816240  70.3820710
  62.6629640  36.1186390  70.3160900  61.4470380  35.9936500  71.2092770
  70.7348890  40.2529000  75.2952280  69.7939030  40.2679230  75.4699970
  71.0492960  39.4664960  75.7412580  60.7130530  41.9348600  68.8556240
  61.4793800  41.8229960  69.4181670  60.7905220  41.2386570  68.2033010
  59.4077290  39.3673670  69.5389130  59.4880880  38.4201180  69.6506530
  60.2997040  39.6980550  69.6449790  60.2092000  49.5169060  76.6423670
  60.9454480  48.9684520  76.9132240  60.5932920  50.3825070  76.5029660
  57.0937480  45.5842630  72.5165180  56.1677260  45.8263770  72.5070590
  57.5593910  46.4116890  72.3949930  63.3194310  48.6899370  68.4649240
  64.1122920  48.9788200  68.0131030  62.7998660  48.2591540  67.7861720
  72.3724480  47.9169500  69.8885980  72.0865990  47.5034640  69.0740160
  72.1744030  48.8457210  69.7686500  63.8371710  43.9102780  68.3291590
  63.7322350  43.2955130  69.0552970  63.6695930  43.3868670  67.5454600
  67.0774440  42.9722810  68.9333580  66.5284540  43.4192110  69.5776320
  67.6993700  42.4672060  69.4571250  62.7449560  41.9313730  70.8298880
  63.1665980  41.7653600  71.6730270  62.8700400  41.1213960  70.3354020
  65.2577200  40.9551340  68.0775980  65.7782860  40.2400360  67.7117130
  65.9045600  41.5937210  68.3776490  61.6408460  38.0046960  67.7757040
  61.4397520  37.1414320  68.1370380  61.4700510  37.9180320  66.8378640
  69.1196770  32.8155190  70.3043920  69.3999060  31.9723090  70.6603340
  68.3462500  33.0478300  70.8182670  60.4391260  35.1047580  67.7634920
  60.7417160  35.1115010  66.8554070  61.1785850  34.7545440  68.2602580
  63.6576190  34.0482200  68.7491120  63.3098190  33.3706190  68.1693570
  63.8588960  33.5871710  69.5634510  65.8225230  49.0362950  70.3677720
  66.7176020  49.3747920  70.3896480  65.8542860  48.3142360  69.7402000
  59.4621390  44.4090000  68.5964720  59.8996260  44.9519670  69.2522300
  59.9469120  43.5836950  68.6061060  56.6767190  47.1979030  76.0484980
  57.0070200  46.3300090  75.8163620  57.1058190  47.4037550  76.8789940
  61.2729110  45.5288040  73.7086950  60.9724650  45.4053010  74.6090860
  61.1666600  44.6696630  73.3002680  74.0421030  45.3084440  68.4113630
  73.2113990  45.3761090  68.8820860  74.2192860  46.1988560  68.1080490
  73.4977490  42.0531920  70.9147830  74.2596400  42.6228570  71.0207520
  73.5131860  41.4859120  71.6856140  56.9981830  40.5769850  75.1455490
  56.3430670  40.3081490  74.5015190  57.8359780  40.4674330  74.6957470
  74.5037460  42.9082020  75.7589760  74.8746290  42.1249340  75.3525730
  75.1439390  43.5971120  75.5807060  73.5496660  42.3466290  68.0720350
  73.8245500  43.2545170  67.9439570  73.3607400  42.2828820  69.0082340
  69.9472270  35.3711140  69.3673980  70.3657150  35.1842120  68.5270640
  69.6408330  34.5190190  69.6776910  73.4462000  40.2835280  73.0649780
  73.0705600  39.5163210  72.6331070  72.7165120  40.6657980  73.5524710
  56.2119910  37.7868780  71.0880820  55.3083990  38.0498980  70.9132480
  56.6960530  38.0579950  70.3080780  72.7212960  38.5092770  76.3657020
  73.2450440  38.0155420  75.7347190  73.3072380  38.6443130  77.1104590
  58.7547120  36.8434320  68.9975200  59.4638820  36.4217540  68.5122480
  58.0387060  36.9109550  68.3658550  58.4021280  32.8973650  68.0377850
  59.1249410  33.4382590  68.3559070  58.6745800  32.6237070  67.1619390
  72.2112930  37.7666120  72.3049430  72.7072050  37.5336990  73.0898310
  72.0129000  36.9277960  71.8887070  73.6400090  36.4027070  74.8387110
  73.5299370  36.2483110  75.7769380  74.4007680  35.8748010  74.5962520
  74.5290360  34.2334990  68.0793250  75.4539670  34.1016170  67.8711540
  74.5066150  34.3127810  69.0329700  74.6028850  35.0045650  70.7049960
  73.8080350  34.9390770  71.2342870  74.8072130  35.9396290  70.6935310
  71.5447270  49.0437200  74.6988350  72.1406340  48.7221770  74.0222770
  71.8025420  48.5709020  75.4901620  71.0348780  33.3342530  77.1548790
  71.4756870  33.2787630  76.3070390  70.7656370  34.2500540  77.2258970
  72.8987350  32.9657770  75.1657610  72.8375750  32.0218990  75.0188630
  73.6779380  33.0737860  75.7111070  57.2040100  49.1050130  74.1281560
  57.0362140  48.4720810  74.8263450  56.3374610  49.3109530  73.7775750
  57.8268120  32.9366910  71.6313420  58.5847480  33.0495790  71.0577450
  57.3645290  33.7736110  71.5856850  64.3681930  35.0506180  74.6215730
  63.5556440  34.6763070  74.2811610  64.8723570  34.2951260  74.9236920
  68.8706910  31.7148630  75.8598800  69.4736280  32.2868840  76.3347320
  68.1299900  32.2788070  75.6372700  72.0141510  32.1170190  71.1339080
  72.2092140  33.0153640  71.4006510  71.2271380  31.8857270  71.6272030
  58.8102800  47.7983360  71.5731700  58.2850420  48.1791390  70.8693660
  58.7347380  48.4234130  72.2941410  60.1993270  33.4630960  70.1715390
  60.7286030  32.6760760  70.0423340  60.8321590  34.1422150  70.4050920
  62.3931110  33.2006100  73.2260780  61.7633850  32.4993410  73.3930910
  61.8536250  33.9610230  73.0093940  73.5668120  49.3570900  72.8945640
  73.7420310  48.6708640  72.2506560  72.8689690  49.8817950  72.5022310
  61.4095770  49.7465740  70.4480950  62.1414590  49.4625020  69.9004840
  61.6689440  49.5079020  71.3380330  60.5710560  45.8630470  70.4527280
  59.9419440  46.3315570  71.0013110  60.6858390  45.0179690  70.8873470
  68.0260280  39.9136130  56.6028480  67.9454330  38.9990740  56.3320190
  67.6124700  40.4103200  55.8968190  66.1578320  41.6915150  58.4837750
  65.3820420  41.2115590  58.7736320  66.8091250  41.0120800  58.3093910
  60.1744150  42.0034960  59.3613510  59.3429030  41.7483670  59.7610020
  60.7825130  42.0745730  60.0971430  70.1785750  46.0975340  57.2636880
  69.7167280  45.3262580  57.5924050  70.9911300  46.1241410  57.7689330
  60.1545410  46.0375050  59.5571530  60.4573450  45.1472790  59.3781750
  60.8989000  46.5945270  59.3293780  58.5836100  36.9636850  53.1455900
  57.6952800  37.3052820  53.0435780  58.8677290  36.7637170  52.2536730
  56.5469110  39.5642500  59.0295600  57.1185220  38.7964700  59.0299240
  56.5470650  39.8631260  58.1202210  66.4049060  48.3833350  56.8840870
  65.7860500  48.8390850  56.3135310  67.2600840  48.5384810  56.4830570
  65.5987310  44.3672340  58.4907910  65.5295590  43.4262280  58.3297040
  66.3607170  44.4573750  59.0630480  57.7893980  34.9726860  60.8164530
  57.6096820  34.0752610  61.0967290  57.3874060  35.5198730  61.4911480
  66.6292480  37.1742720  58.7176840  67.0057300  36.3014600  58.6050510
  66.5311990  37.5101420  57.8267280  60.7597490  35.5468350  54.1794280
  60.8664240  36.4472080  54.4863040  59.8489850  35.4986320  53.8888930
  70.4116600  34.6693160  55.6505180  71.2326220  34.1789730  55.6930660
  70.4450680  35.2590820  56.4037020  58.4080650  37.4687360  59.4246870
  59.0890760  37.7325730  60.0434270  58.0928700  36.6288230  59.7584880
  62.6005220  38.5154720  58.5119460  63.1083440  39.0135690  59.1524480
  63.1318460  37.7389920  58.3358820  74.7016150  36.6859910  62.2148810
  73.9968320  37.0741620  61.6963920  74.9674070  37.3810200  62.8169740
  60.8841320  33.1553280  62.7782880  60.8859760  33.6725670  61.9728780
  60.0545630  32.6783460  62.7552810  67.2712410  43.2672590  54.2772780
  66.6529680  43.7322040  53.7135500  67.7835660  43.9600070  54.6942290
  62.1344170  42.7948460  60.9556380  61.8013550  43.4217380  61.5977450
  62.3110850  43.3210340  60.1758050  70.6478080  36.6093540  58.4232720
  69.9433650  36.8978430  59.0035830  71.0090240  37.4193650  58.0632280
  60.5656650  34.8663240  60.7853330  60.9073460  35.7105290  60.4907200
  59.6272460  35.0146980  60.9018670  61.3463270  44.7629260  62.7705560
  61.9637270  45.4380340  62.4890010  60.4856390  45.1717240  62.6793060
  56.6395610  43.9529120  51.6512410  56.2623590  44.4416220  50.9197310
  56.8968680  44.6254400  52.2818940  72.2640860  46.2268670  60.6860200
  71.5804380  46.8967780  60.6776870  72.8035150  46.4249320  59.9205060
  73.7165000  36.0548330  58.8141930  72.7689910  36.0887310  58.9457360
  74.0414990  36.8687280  59.1991290  64.2484540  32.3545510  57.1097920
  64.5559520  31.7992400  56.3933420  63.3185240  32.4889970  56.9270910
  69.7999600  48.0712800  59.4005380  69.8126760  47.6675090  58.5327640
  69.2474820  48.8460090  59.2966810  71.0945020  44.7929020  54.4895550
  70.9841350  43.8503350  54.6144970  71.0913270  45.1544660  55.3758310
  69.1985040  42.9742640  60.7287990  69.6153830  42.7602750  59.8941450
  69.9224860  43.2315430  61.2996610  66.6365300  40.4194340  53.8458040
  65.7094580  40.3531720  54.0746510  66.7890120  41.3574470  53.7313280
  66.6234380  36.6911340  50.8425200  65.6838050  36.8525300  50.9277660
  66.9417640  37.4097020  50.2961190  73.1447140  41.3729860  60.8204230
  72.3165770  41.4422950  60.3454360  73.7397620  41.9584170  60.3520060
  70.6662590  41.9814640  54.3493290  70.0475010  41.6434190  53.7019590
  70.6487040  41.3374400  55.0572480  70.1089150  38.1599180  61.7659100
  69.6960330  38.9852890  62.0199090  69.3765100  37.5744220  61.5735460
  62.2421940  40.9459080  56.6277770  61.8378940  40.2336330  56.1323670
  62.3285060  40.6012320  57.5165810  62.7103640  44.6326640  58.7916980
  62.4131930  44.0272110  58.1124760  63.6603460  44.6703950  58.6806340
  60.9550560  37.7202290  60.4076810  61.5065150  37.8297630  59.6330060
  61.4694070  38.0939890  61.1232040  70.7989250  48.2058510  62.4540080
  70.3219810  49.0130700  62.2612690  70.1151040  47.5536840  62.6066290
  61.8022070  44.3708330  65.4424780  60.9050600  44.5948300  65.6898180
  61.8274940  44.4943270  64.4936180  68.8427290  41.2201450  51.3566040
  69.2820570  40.3823880  51.2103860  69.5555710  41.8530850  51.4430180
  60.6293290  41.2421650  64.0182150  60.4901060  42.1144450  64.3869550
  59.7474650  40.8994460  63.8730090  66.9522670  46.1597520  55.3247280
  67.3918580  46.9021850  54.9102670  66.8909560  46.4024090  56.2486240
  62.4273640  47.1843350  66.2267300  62.3989070  47.5886300  65.3595730
  62.2638610  46.2553710  66.0638900  72.4244430  32.4744260  49.6707080
  72.1117090  32.5671090  50.5706150  73.1856900  33.0525290  49.6204510
  58.9426570  39.8404060  54.1284420  58.8224170  40.5666150  53.5165690
  58.6327460  39.0706970  53.6512330  74.3788460  47.9670450  67.5231470
  74.8548180  48.4453340  68.2020550  74.9995620  47.8987940  66.7976970
  56.5811940  43.0119200  59.9353060  56.6592360  43.1467970  58.9908780
  57.1953620  42.3035090  60.1281180  57.8259570  44.7119390  56.3459240
  57.4187650  44.8533980  55.4912840  58.7172580  44.4279550  56.1430450
  73.7821710  45.1583300  64.6831480  73.9084770  44.9195180  63.7648660
  73.8243090  44.3267840  65.1553560  67.6438450  48.8611300  63.2526290
  68.1583120  48.7719310  64.0548720  66.8007530  49.2071000  63.5454200
  69.6192850  49.1466640  52.6810290  69.4593990  48.8569580  53.5792120
  69.4539560  48.3706770  52.1455520  62.0981230  48.9265170  54.4581910
  61.9223710  48.0100710  54.2449710  61.2436970  49.2852460  54.6979710
  69.3218980  46.6554200  51.2408290  68.6284140  46.6531490  50.5810570
  70.0641840  46.2313520  50.8102460  68.8868910  48.2816910  55.3156780
  69.3425860  47.5006290  55.6295400  69.2261430  48.9923730  55.8597960
  73.6345720  37.2115760  65.6481220  73.0189990  37.7195430  65.1196680
  73.3142140  36.3114090  65.5907160  56.6371460  44.0533370  62.4747520
  56.8002500  43.5838730  61.6566890  57.1023910  43.5456930  63.1396360
  61.4090230  33.1839130  57.5108090  60.9658380  33.9648670  57.1792610
  61.9675220  33.5069020  58.2179030  65.6960040  36.0507650  63.1143410
  65.2339410  36.2590670  63.9263350  65.2938150  35.2367000  62.8114080
  70.6964550  37.2716600  64.2440070  69.8458140  36.9722350  64.5649140
  70.5366340  37.5158610  63.3323890  67.7914260  38.7718350  66.3438860
  68.1167670  37.9382100  66.0041090  68.5794590  39.2946870  66.4917190
  64.5249050  32.8049830  52.3913920  63.9003230  32.8009700  53.1167230
  64.4379170  31.9380790  51.9949890  63.4466130  33.7286460  59.3697690
  63.7438460  34.6349290  59.2889710  63.9951690  33.2405240  58.7557260
  61.2004450  38.3072700  55.2389340  60.9745370  38.0909870  56.1435960
  60.4196980  38.7401160  54.8935310  68.4302210  38.3136070  53.8379990
  67.8311100  39.0371870  53.6543610  68.9781820  38.2512850  53.0556440
  63.6403660  39.2058280  65.9049610  63.5447260  38.2653010  65.7550010
  64.4835640  39.4273350  65.5097680  67.0367080  36.9499610  55.8683270
  67.4296650  37.2671810  55.0551960  67.3983930  36.0711490  55.9827790
  58.7714200  35.6171950  64.0583390  58.3777590  36.4647160  64.2656170
  58.0832600  34.9798320  64.2492030  65.3459250  35.7006920  67.1280130
  64.6557570  35.5079120  67.7626220  66.0891550  35.9841560  67.6604430
  56.0731250  33.5400410  58.0913470  55.7844300  34.1103270  58.8038450
  56.8177010  33.0604860  58.4544700  56.2601480  37.4820530  49.3016190
  56.1776150  38.4251290  49.4431180  55.9084540  37.3395440  48.4228540
  67.6222220  39.5405360  59.9634050  66.8903340  40.0492170  60.3124150
  67.2246560  38.7235340  59.6622830  64.0599610  36.2159560  58.3686540
  64.0635670  35.7749510  57.5191080  64.9550730  36.5376890  58.4758360
  59.9101990  36.0986050  57.3280750  59.5702040  36.5761280  58.0847800
  59.1479310  35.6451170  56.9681850  64.1219760  37.2171640  51.3593300
  64.2432580  37.1758120  52.3079120  63.7368270  38.0795790  51.2040030
  68.0848130  34.9939040  59.3756990  68.1020870  35.4447690  60.2198840
  67.8363710  34.0944680  59.5890430  63.1341260  39.5272780  50.7576600
  62.5658160  39.0791030  50.1312510  63.8430260  39.8865560  50.2241750
  71.5118880  32.4071220  65.2143370  71.8364650  31.6760880  65.7401350
  71.5475390  32.0884860  64.3124360  58.2110440  43.4284800  64.6343330
  57.8265230  42.7878470  65.2326290  58.5222630  44.1320920  65.2038060
  64.3607580  40.2761340  60.1151950  64.7277710  39.8019910  60.8613290
  64.1712640  41.1502910  60.4560290  57.2248070  35.0205030  56.2445420
  56.9394990  34.6560700  57.0824040  57.1626930  34.2885490  55.6308560
  62.1506950  39.3169980  62.4336160  61.8464020  40.1961960  62.6586520
  63.1053410  39.3769770  62.4693600  60.6788740  43.5230970  53.0303010
  59.9051000  42.9828590  52.8701730  61.4083370  43.0037580  52.6920770
  71.4376720  42.5196330  58.8229400  72.1575840  43.0151620  58.4325510
  71.2358540  41.8414220  58.1783270  66.8986660  33.9134290  52.9658790
  66.0851270  33.4147460  52.8904100  66.7048610  34.7532540  52.5495140
  66.8195520  42.5905390  64.7098400  66.7532830  41.6701060  64.4555990
  66.1900660  42.6880830  65.4243040  69.6135050  38.2853940  51.2620950
  70.5014670  38.5971170  51.0872290  69.5840140  37.4126190  50.8701530
  60.7226140  43.1911350  56.6681820  61.2404810  42.3879610  56.6138710
  60.2710160  43.1290490  57.5098650  65.6095640  44.4577630  51.9409120
  65.9511340  45.2019860  51.4452440  64.7808350  44.7708750  52.3033950
  58.2070680  40.1572720  63.5807520  57.8485620  40.8226570  64.1680860
  57.9125240  39.3256270  63.9520140  61.4083800  40.6156960  66.4647070
  61.1083940  40.7614140  65.5674890  62.1795040  40.0562250  66.3720460
  66.7512250  45.4125960  64.4602200  66.7656790  44.4806920  64.2421110
  66.0437350  45.4985720  65.0991970  71.8849320  39.5965780  50.7300810
  71.8013040  40.0280000  49.8797250  72.6043510  40.0564130  51.1627630
  72.9623460  42.0533300  63.8070780  72.2371650  42.6462080  63.6100170
  73.4898920  42.0456840  63.0084150  72.9136570  46.4508040  53.4582940
  72.2712730  45.7963660  53.7326660  72.5267230  46.8563130  52.6823610
  68.4923050  43.7793470  57.3054630  68.8446870  43.1821600  56.6456000
  67.6085380  43.4537700  57.4762880  64.5786330  44.5391160  54.7125040
  65.2657460  45.0860370  55.0932630  63.7918750  45.0831890  54.7474650
  56.7178730  40.1563980  50.2042120  57.5873580  40.4388780  50.4878040
  56.2269050  40.9699850  50.0890930  63.8813540  41.5437190  54.3250400
  64.3376320  42.3542440  54.5510590  63.5301750  41.2260330  55.1568890
  66.1846150  47.0543530  61.5542700  66.8288370  47.2602910  62.2316120
  66.5475590  46.2931930  61.1013550  59.7825320  31.8874840  54.7972920
  59.6539950  31.8792740  55.7457840  58.9587340  32.2257930  54.4463930
  67.4578230  45.0575880  60.2720150  68.1000460  44.3569040  60.3852320
  67.9827580  45.8374320  60.0917040  71.3033950  45.3424500  49.9959290
  71.0771530  44.6254940  50.5883930  70.9130150  45.0936940  49.1581040
  69.2315850  45.8570780  63.4756210  69.5672090  46.4437470  64.1534130
  68.3116190  45.7263490  63.7054000  57.0849980  49.3691360  50.7703750
  57.4447620  49.9680700  50.1161020  56.9442320  49.9151250  51.5438780
  56.7819250  33.6465960  64.2579620  56.0677770  33.8462880  64.8632230
  57.2014290  32.8705530  64.6294420  70.8850200  43.2596440  51.6573450
  70.5971900  43.7209130  52.4451330  71.6802370  42.7994210  51.9257670
  57.0691840  47.6346220  65.2446150  57.1782960  46.6940960  65.1041540
  56.4172400  47.9000970  64.5959880  65.0604430  45.9062110  66.6444270
  64.7401300  45.1871350  67.1889960  64.3862790  46.5817180  66.7180330
  63.1018600  46.7522560  51.5877420  63.0928700  47.4852250  50.9721930
  62.1816960  46.5054140  51.6804380  58.7025240  41.9737450  52.3324180
  58.0953190  42.7136350  52.3419480  59.1774590  42.0636810  51.5062380
  68.2758030  36.1388270  62.0081070  68.6438850  35.3183480  62.3360640
  67.4156230  36.1990160  62.4236720  71.6420060  35.0945210  52.8168630
  71.0133220  35.1990880  52.1026860  71.1471980  35.3141990  53.6062510
  66.0878200  46.8150800  50.2502610  66.1890180  46.6114790  49.3204590
  65.1879940  46.5609080  50.4550390  63.6104090  37.3731160  54.2326510
  62.9020240  37.8417500  54.6740120  63.8948570  36.7153170  54.8671700
  65.2360020  38.7927860  62.2319040  65.7345270  39.2673680  62.8970890
  65.3782970  37.8691380  62.4389070  67.6419520  34.0981820  55.6722300
  67.5187300  34.1167950  54.7231810  68.5904080  34.1460760  55.7920700
  64.7296310  49.3337120  54.9450280  64.9837810  49.2958510  54.0229650
  63.7808790  49.2070450  54.9378530  61.8139110  35.6816240  51.6077220
  62.6629640  36.1186390  51.5417410  61.4470380  35.9936500  52.4349280
  72.4426880  35.0095820  63.0747430  71.9400480  35.7501220  63.4141240
  73.2583540  35.3979820  62.7584220  70.7348890  40.2529000  56.5208790
  69.7939030  40.2679230  56.6956480  71.0492960  39.4664960  56.9669090
  60.7130530  41.9348600  50.0812750  61.4793800  41.8229960  50.6438180
  60.7905220  41.2386570  49.4289520  59.4077290  39.3673670  50.7645640
  59.4880880  38.4201180  50.8763040  60.2997040  39.6980550  50.8706300
  72.7374470  47.4237850  58.1963050  72.8621890  48.2469020  58.6686860
  73.6040030  47.2128580  57.8487200  60.2092000  49.5169060  57.8680180
  60.9454480  48.9684520  58.1388750  60.5932920  50.3825070  57.7286170
  57.0937480  45.5842630  53.7421690  56.1677260  45.8263770  53.7327100
  57.5593910  46.4116890  53.6206440  59.2150280  48.7015130  67.0565760
  60.0163010  49.0227180  67.4701160  58.7002100  48.3410710  67.7785670
  63.3194310  48.6899370  49.6905750  64.1122920  48.9788200  49.2387540
  62.7998660  48.2591540  49.0118230  68.0514910  44.8095000  67.0041170
  67.4453070  44.8326600  66.2636920  67.7469020  44.0778040  67.5408420
  69.4815280  48.5375290  65.6150580  70.4337030  48.4533310  65.5650820
  69.3343500  49.2017000  66.2884370  72.3724480  47.9169500  51.1142490
  72.0865990  47.5034640  50.2996670  72.1744030  48.8457210  50.9943010
  56.9348090  41.1888590  66.0001810  57.4387110  40.6095870  66.5718040
  56.1955510  41.4728820  66.5378180  63.8371710  43.9102780  49.5548100
  63.7322350  43.2955130  50.2809480  63.6695930  43.3868670  48.7711110
  63.9886030  42.5959580  65.5337330  63.2231700  43.1644580  65.4492000
  64.1701990  42.3035790  64.6405560  67.0774440  42.9722810  50.1590090
  66.5284540  43.4192110  50.8032830  67.6993700  42.4672060  50.6827760
  71.1309380  44.3264910  66.0912350  71.8718850  44.6640670  65.5879810
  70.3682060  44.4956970  65.5382120  58.9671170  39.3318180  66.8951880
  59.0076510  39.0332050  67.8037110  59.8216670  39.7325790  66.7359400
  62.7449560  41.9313730  52.0555390  63.1665980  41.7653600  52.8986780
  62.8700400  41.1213960  51.5610530  60.9076980  37.9110280  64.8626370
  60.3773440  37.4201230  64.2349710  61.5765050  38.3394480  64.3284300
  65.2577200  40.9551340  49.3032490  65.7782860  40.2400360  48.9373640
  65.9045600  41.5937210  49.6033000  69.8055040  42.3779740  64.6267560
  70.2196060  42.5324820  65.4757980  68.8706040  42.5034960  64.7893340
  70.2777210  39.7175900  66.6306710  70.8597980  38.9628220  66.5427190
  70.4538980  40.2483340  65.8538190  61.3949280  34.8772650  64.9423660
  61.3006150  34.2593400  64.2174530  60.8146670  35.6038940  64.7153570
  64.1610720  33.4345890  61.9751050  63.7128020  33.4570150  61.1296600
  63.5275920  33.0364910  62.5721350  64.5670270  42.3300220  62.5963490
  64.9858380  43.1732950  62.4239730  63.6478900  42.4672260  62.3670270
  66.9034170  40.0616400  63.9801330  67.0230380  39.4657540  64.7196170
  67.7628170  40.0986090  63.5602630  69.2422070  40.6153590  62.5563840
  68.7157290  41.1396210  61.9528980  69.5853410  41.2480980  63.1873570
  61.6408460  38.0046960  49.0013550  61.4397520  37.1414320  49.3626890
  61.4700510  37.9180320  48.0635150  62.4177690  48.6353230  63.7121220
  61.8798780  49.3599290  63.3929920  62.6711650  48.1583570  62.9218560
  63.6702940  36.6037750  65.2377150  64.2602630  36.2953600  65.9254970
  62.8523180  36.1317500  65.3937050  68.4896370  36.2203560  65.4710170
  67.8011890  35.5585100  65.4060160  69.2102390  35.7741830  65.9158630
  69.1196770  32.8155190  51.5300430  69.3999060  31.9723090  51.8859850
  68.3462500  33.0478300  52.0439180  60.4391260  35.1047580  48.9891430
  60.7417160  35.1115010  48.0810580  61.1785850  34.7545440  49.4859090
  65.2739900  49.8704440  63.9707870  65.1998600  50.7739580  64.2780240
  64.3718740  49.5516340  63.9429940  63.6576190  34.0482200  49.9747630
  63.3098190  33.3706190  49.3950080  63.8588960  33.5871710  50.7891020
  65.8225230  49.0362950  51.5934230  66.7176020  49.3747920  51.6152990
  65.8542860  48.3142360  50.9658510  59.4621390  44.4090000  49.8221230
  59.8996260  44.9519670  50.4778810  59.9469120  43.5836950  49.8317570
  56.6767190  47.1979030  57.2741490  57.0070200  46.3300090  57.0420130
  57.1058190  47.4037550  58.1046450  61.2729110  45.5288040  54.9343460
  60.9724650  45.4053010  55.8347370  61.1666600  44.6696630  54.5259190
  57.1657400  48.0649620  60.0123120  56.7288390  48.2450420  60.8447270
  57.7335080  48.8224240  59.8704840  72.8019580  47.5666620  64.3000430
  72.2021570  47.6259180  63.5564350  72.9313480  46.6271600  64.4297280
  74.0421030  45.3084440  49.6370140  73.2113990  45.3761090  50.1077370
  74.2192860  46.1988560  49.3337000  73.4977490  42.0531920  52.1404340
  74.2596400  42.6228570  52.2464030  73.5131860  41.4859120  52.9112650
  56.9981830  40.5769850  56.3712000  56.3430670  40.3081490  55.7271700
  57.8359780  40.4674330  55.9213980  74.5037460  42.9082020  56.9846270
  74.8746290  42.1249340  56.5782240  75.1439390  43.5971120  56.8063570
  71.4871220  44.2918600  62.3976590  70.6731060  44.7215760  62.6602380
  71.8945420  44.9037010  61.7845640  73.5496660  42.3466290  49.2976860
  73.8245500  43.2545170  49.1696080  73.3607400  42.2828820  50.2338850
  69.9472270  35.3711140  50.5930490  70.3657150  35.1842120  49.7527150
  69.6408330  34.5190190  50.9033420  73.4462000  40.2835280  54.2906290
  73.0705600  39.5163210  53.8587580  72.7165120  40.6657980  54.7781220
  58.0357760  40.9622420  60.9115340  58.4030800  40.8749820  61.7911360
  57.4668580  40.1988970  60.8122200  72.8361620  39.4306800  63.9245810
  72.6047710  39.2019550  63.0243760  73.0966170  40.3506350  63.8790700
  57.5873760  37.8731510  64.8173760  56.6929810  37.8398270  65.1567470
  58.1271310  38.0718300  65.5825010  71.2749690  34.6563230  66.7025510
  72.1519870  34.6646630  67.0859510  71.2870530  33.9194070  66.0917860
  56.2119910  37.7868780  52.3137330  55.3083990  38.0498980  52.1388990
  56.6960530  38.0579950  51.5337290  72.7212960  38.5092770  57.5913530
  73.2450440  38.0155420  56.9603700  73.3072380  38.6443130  58.3361100
  72.9002680  38.5932640  61.1133080  71.9505390  38.5596180  61.2278070
  73.0815690  39.5032750  60.8782850  58.7547120  36.8434320  50.2231710
  59.4638820  36.4217540  49.7378990  58.0387060  36.9109550  49.5915060
  58.4021280  32.8973650  49.2634360  59.1249410  33.4382590  49.5815580
  58.6745800  32.6237070  48.3875900  72.2112930  37.7666120  53.5305940
  72.7072050  37.5336990  54.3154820  72.0129000  36.9277960  53.1143580
  58.0913470  32.1479840  59.1656980  58.7389660  31.5977220  58.7252140
  58.5115310  32.4022990  59.9872790  73.6400090  36.4027070  56.0643620
  73.5299370  36.2483110  57.0025890  74.4007680  35.8748010  55.8219030
  71.9865810  32.3421200  62.5226620  72.6238030  32.9555340  62.8885810
  72.1340700  32.3781860  61.5775850  74.5290360  34.2334990  49.3049760
  75.4539670  34.1016170  49.0968050  74.5066150  34.3127810  50.2586210
  74.6028850  35.0045650  51.9306470  73.8080350  34.9390770  52.4599380
  74.8072130  35.9396290  51.9191820  71.5447270  49.0437200  55.9244860
  72.1406340  48.7221770  55.2479280  71.8025420  48.5709020  56.7158130
  57.8445470  32.3035510  61.9082300  57.4960290  32.7599330  62.6740480
  57.5133170  31.4092640  61.9904730  59.4509840  45.4755110  66.0735490
  59.4079470  45.1048020  66.9549950  59.5820850  46.4132680  66.2137310
  63.1515870  47.0314700  61.6745210  62.9107230  47.2989260  60.7875730
  64.0918510  47.2020430  61.7296070  65.3570290  33.4947390  65.4301720
  65.2959180  34.0869220  66.1797130  66.2970670  33.3873350  65.2851980
  67.9944850  33.1517450  65.0694010  68.6085260  33.4696740  64.4075090
  68.5394410  32.6666040  65.6889870  74.4120030  49.0509080  62.4755850
  73.9178310  49.4477950  61.7582980  73.8033320  48.4258290  62.8693130
  58.5166110  31.8311710  65.1833070  59.0649100  31.6499760  64.4199180
  58.5821420  31.0405820  65.7189380  59.2897870  48.4217360  63.1933270
  58.6958190  48.2902060  63.9323310  59.2821710  47.5855500  62.7275370
  68.7352890  31.7149590  61.3963300  67.8612730  32.0484700  61.1936230
  68.6263640  31.2422770  62.2215170  69.6424870  33.9220460  62.7805020
  69.3138230  33.1072220  62.4006750  70.5907170  33.8790270  62.6570710
  72.0959480  49.6932500  59.7542590  71.6362450  50.4448310  59.3800610
  71.4671940  48.9738970  59.6957390  58.9210100  45.7875740  62.1441310
  58.1944160  45.1681030  62.0767260  58.9819250  46.1816350  61.2739390
  62.5255200  48.0020740  58.9290720  63.0420220  47.3908100  58.4038980
  63.1752580  48.5049520  59.4201730  65.2650700  48.8929230  59.7559700
  65.5528510  48.6383530  58.8792710  65.7773920  48.3406590  60.3465270
  66.4827710  32.6319430  60.3356210  65.6999500  33.1064930  60.6152970
  66.1890640  31.7274260  60.2269390  71.0348780  33.3342530  58.3805300
  71.4756870  33.2787630  57.5326900  70.7656370  34.2500540  58.4515480
  72.8987350  32.9657770  56.3914120  72.8375750  32.0218990  56.2445140
  73.6779380  33.0737860  56.9367580  57.2040100  49.1050130  55.3538070
  57.0362140  48.4720810  56.0519960  56.3374610  49.3109530  55.0032260
  57.8268120  32.9366910  52.8569930  58.5847480  33.0495790  52.2833960
  57.3645290  33.7736110  52.8113360  64.3681930  35.0506180  55.8472240
  63.5556440  34.6763070  55.5068120  64.8723570  34.2951260  56.1493430
  68.8706910  31.7148630  57.0855310  69.4736280  32.2868840  57.5603830
  68.1299900  32.2788070  56.8629210  72.0141510  32.1170190  52.3595590
  72.2092140  33.0153640  52.6263020  71.2271380  31.8857270  52.8528540
  58.8102800  47.7983360  52.7988210  58.2850420  48.1791390  52.0950170
  58.7347380  48.4234130  53.5197920  60.1993270  33.4630960  51.3971900
  60.7286030  32.6760760  51.2679850  60.8321590  34.1422150  51.6307430
  62.3931110  33.2006100  54.4517290  61.7633850  32.4993410  54.6187420
  61.8536250  33.9610230  54.2350450  65.3323060  49.8145330  67.1227900
  66.2590370  49.5789600  67.1663860  65.3173490  50.6417330  66.6413930
  73.5668120  49.3570900  54.1202150  73.7420310  48.6708640  53.4763070
  72.8689690  49.8817950  53.7278820  62.5186670  32.4790080  66.8869780
  62.2370940  32.9823680  66.1230600  62.9006370  31.6811830  66.5211910
  61.4095770  49.7465740  51.6737460  62.1414590  49.4625020  51.1261350
  61.6689440  49.5079020  52.5636840  60.5710560  45.8630470  51.6783790
  59.9419440  46.3315570  52.2269620  60.6858390  45.0179690  52.1129980
  69.1202130  31.8943660  67.4650250  69.0067580  32.2138270  68.3601770
  69.9371870  32.2956170  67.1687530  71.9000620  49.0415190  66.9468940
  72.6925940  48.5464420  66.7394900  72.1933770  49.7205330  67.5544550
  68.0260280  39.9136130  37.8284990  67.9454330  38.9990740  37.5576700
  67.6124700  40.4103200  37.1224700  66.1578320  41.6915150  39.7094260
  65.3820420  41.2115590  39.9992830  66.8091250  41.0120800  39.5350420
  60.1744150  42.0034960  40.5870020  59.3429030  41.7483670  40.9866530
  60.7825130  42.0745730  41.3227940  70.1785750  46.0975340  38.4893390
  69.7167280  45.3262580  38.8180560  70.9911300  46.1241410  38.9945840
  60.1545410  46.0375050  40.7828040  60.4573450  45.1472790  40.6038260
  60.8989000  46.5945270  40.5550290  58.5836100  36.9636850  34.3712410
  57.6952800  37.3052820  34.2692290  58.8677290  36.7637170  33.4793240
  56.5469110  39.5642500  40.2552110  57.1185220  38.7964700  40.2555750
  56.5470650  39.8631260  39.3458720  66.4049060  48.3833350  38.1097380
  65.7860500  48.8390850  37.5391820  67.2600840  48.5384810  37.7087080
  65.5987310  44.3672340  39.7164420  65.5295590  43.4262280  39.5553550
  66.3607170  44.4573750  40.2886990  57.7893980  34.9726860  42.0421040
  57.6096820  34.0752610  42.3223800  57.3874060  35.5198730  42.7167990
  66.6292480  37.1742720  39.9433350  67.0057300  36.3014600  39.8307020
  66.5311990  37.5101420  39.0523790  60.7597490  35.5468350  35.4050790
  60.8664240  36.4472080  35.7119550  59.8489850  35.4986320  35.1145440
  70.4116600  34.6693160  36.8761690  71.2326220  34.1789730  36.9187170
  70.4450680  35.2590820  37.6293530  58.4080650  37.4687360  40.6503380
  59.0890760  37.7325730  41.2690780  58.0928700  36.6288230  40.9841390
  62.6005220  38.5154720  39.7375970  63.1083440  39.0135690  40.3780990
  63.1318460  37.7389920  39.5615330  74.7016150  36.6859910  43.4405320
  73.9968320  37.0741620  42.9220430  74.9674070  37.3810200  44.0426250
  60.8841320  33.1553280  44.0039390  60.8859760  33.6725670  43.1985290
  60.0545630  32.6783460  43.9809320  67.2712410  43.2672590  35.5029290
  66.6529680  43.7322040  34.9392010  67.7835660  43.9600070  35.9198800
  62.1344170  42.7948460  42.1812890  61.8013550  43.4217380  42.8233960
  62.3110850  43.3210340  41.4014560  70.6478080  36.6093540  39.6489230
  69.9433650  36.8978430  40.2292340  71.0090240  37.4193650  39.2888790
  60.5656650  34.8663240  42.0109840  60.9073460  35.7105290  41.7163710
  59.6272460  35.0146980  42.1275180  61.3463270  44.7629260  43.9962070
  61.9637270  45.4380340  43.7146520  60.4856390  45.1717240  43.9049570
  56.6395610  43.9529120  32.8768920  56.2623590  44.4416220  32.1453820
  56.8968680  44.6254400  33.5075450  72.2640860  46.2268670  41.9116710
  71.5804380  46.8967780  41.9033380  72.8035150  46.4249320  41.1461570
  73.7165000  36.0548330  40.0398440  72.7689910  36.0887310  40.1713870
  74.0414990  36.8687280  40.4247800  64.2484540  32.3545510  38.3354430
  64.5559520  31.7992400  37.6189930  63.3185240  32.4889970  38.1527420
  69.7999600  48.0712800  40.6261890  69.8126760  47.6675090  39.7584150
  69.2474820  48.8460090  40.5223320  71.0945020  44.7929020  35.7152060
  70.9841350  43.8503350  35.8401480  71.0913270  45.1544660  36.6014820
  69.1985040  42.9742640  41.9544500  69.6153830  42.7602750  41.1197960
  69.9224860  43.2315430  42.5253120  66.6365300  40.4194340  35.0714550
  65.7094580  40.3531720  35.3003020  66.7890120  41.3574470  34.9569790
  66.6234380  36.6911340  32.0681710  65.6838050  36.8525300  32.1534170
  66.9417640  37.4097020  31.5217700  73.1447140  41.3729860  42.0460740
  72.3165770  41.4422950  41.5710870  73.7397620  41.9584170  41.5776570
  70.6662590  41.9814640  35.5749800  70.0475010  41.6434190  34.9276100
  70.6487040  41.3374400  36.2828990  70.1089150  38.1599180  42.9915610
  69.6960330  38.9852890  43.2455600  69.3765100  37.5744220  42.7991970
  62.2421940  40.9459080  37.8534280  61.8378940  40.2336330  37.3580180
  62.3285060  40.6012320  38.7422320  62.7103640  44.6326640  40.0173490
  62.4131930  44.0272110  39.3381270  63.6603460  44.6703950  39.9062850
  60.9550560  37.7202290  41.6333320  61.5065150  37.8297630  40.8586570
  61.4694070  38.0939890  42.3488550  70.7989250  48.2058510  43.6796590
  70.3219810  49.0130700  43.4869200  70.1151040  47.5536840  43.8322800
  61.8022070  44.3708330  46.6681290  60.9050600  44.5948300  46.9154690
  61.8274940  44.4943270  45.7192690  68.8427290  41.2201450  32.5822550
  69.2820570  40.3823880  32.4360370  69.5555710  41.8530850  32.6686690
  60.6293290  41.2421650  45.2438660  60.4901060  42.1144450  45.6126060
  59.7474650  40.8994460  45.0986600  66.9522670  46.1597520  36.5503790
  67.3918580  46.9021850  36.1359180  66.8909560  46.4024090  37.4742750
  62.4273640  47.1843350  47.4523810  62.3989070  47.5886300  46.5852240
  62.2638610  46.2553710  47.2895410  72.4244430  32.4744260  30.8963590
  72.1117090  32.5671090  31.7962660  73.1856900  33.0525290  30.8461020
  58.9426570  39.8404060  35.3540930  58.8224170  40.5666150  34.7422200
  58.6327460  39.0706970  34.8768840  74.3788460  47.9670450  48.7487980
  74.8548180  48.4453340  49.4277060  74.9995620  47.8987940  48.0233480
  56.5811940  43.0119200  41.1609570  56.6592360  43.1467970  40.2165290
  57.1953620  42.3035090  41.3537690  57.8259570  44.7119390  37.5715750
  57.4187650  44.8533980  36.7169350  58.7172580  44.4279550  37.3686960
  73.7821710  45.1583300  45.9087990  73.9084770  44.9195180  44.9905170
  73.8243090  44.3267840  46.3810070  67.6438450  48.8611300  44.4782800
  68.1583120  48.7719310  45.2805230  66.8007530  49.2071000  44.7710710
  69.6192850  49.1466640  33.9066800  69.4593990  48.8569580  34.8048630
  69.4539560  48.3706770  33.3712030  62.0981230  48.9265170  35.6838420
  61.9223710  48.0100710  35.4706220  61.2436970  49.2852460  35.9236220
  69.3218980  46.6554200  32.4664800  68.6284140  46.6531490  31.8067080
  70.0641840  46.2313520  32.0358970  68.8868910  48.2816910  36.5413290
  69.3425860  47.5006290  36.8551910  69.2261430  48.9923730  37.0854470
  73.6345720  37.2115760  46.8737730  73.0189990  37.7195430  46.3453190
  73.3142140  36.3114090  46.8163670  56.6371460  44.0533370  43.7004030
  56.8002500  43.5838730  42.8823400  57.1023910  43.5456930  44.3652870
  61.4090230  33.1839130  38.7364600  60.9658380  33.9648670  38.4049120
  61.9675220  33.5069020  39.4435540  65.6960040  36.0507650  44.3399920
  65.2339410  36.2590670  45.1519860  65.2938150  35.2367000  44.0370590
  70.6964550  37.2716600  45.4696580  69.8458140  36.9722350  45.7905650
  70.5366340  37.5158610  44.5580400  67.7914260  38.7718350  47.5695370
  68.1167670  37.9382100  47.2297600  68.5794590  39.2946870  47.7173700
  64.5249050  32.8049830  33.6170430  63.9003230  32.8009700  34.3423740
  64.4379170  31.9380790  33.2206400  63.4466130  33.7286460  40.5954200
  63.7438460  34.6349290  40.5146220  63.9951690  33.2405240  39.9813770
  61.2004450  38.3072700  36.4645850  60.9745370  38.0909870  37.3692470
  60.4196980  38.7401160  36.1191820  68.4302210  38.3136070  35.0636500
  67.8311100  39.0371870  34.8800120  68.9781820  38.2512850  34.2812950
  63.6403660  39.2058280  47.1306120  63.5447260  38.2653010  46.9806520
  64.4835640  39.4273350  46.7354190  67.0367080  36.9499610  37.0939780
  67.4296650  37.2671810  36.2808470  67.3983930  36.0711490  37.2084300
  58.7714200  35.6171950  45.2839900  58.3777590  36.4647160  45.4912680
  58.0832600  34.9798320  45.4748540  65.3459250  35.7006920  48.3536640
  64.6557570  35.5079120  48.9882730  66.0891550  35.9841560  48.8860940
  56.0731250  33.5400410  39.3169980  55.7844300  34.1103270  40.0294960
  56.8177010  33.0604860  39.6801210  56.2601480  37.4820530  30.5272700
  56.1776150  38.4251290  30.6687690  55.9084540  37.3395440  29.6485050
  67.6222220  39.5405360  41.1890560  66.8903340  40.0492170  41.5380660
  67.2246560  38.7235340  40.8879340  64.0599610  36.2159560  39.5943050
  64.0635670  35.7749510  38.7447590  64.9550730  36.5376890  39.7014870
  59.9101990  36.0986050  38.5537260  59.5702040  36.5761280  39.3104310
  59.1479310  35.6451170  38.1938360  64.1219760  37.2171640  32.5849810
  64.2432580  37.1758120  33.5335630  63.7368270  38.0795790  32.4296540
  68.0848130  34.9939040  40.6013500  68.1020870  35.4447690  41.4455350
  67.8363710  34.0944680  40.8146940  63.1341260  39.5272780  31.9833110
  62.5658160  39.0791030  31.3569020  63.8430260  39.8865560  31.4498260
  71.5118880  32.4071220  46.4399880  71.8364650  31.6760880  46.9657860
  71.5475390  32.0884860  45.5380870  58.2110440  43.4284800  45.8599840
  57.8265230  42.7878470  46.4582800  58.5222630  44.1320920  46.4294570
  64.3607580  40.2761340  41.3408460  64.7277710  39.8019910  42.0869800
  64.1712640  41.1502910  41.6816800  57.2248070  35.0205030  37.4701930
  56.9394990  34.6560700  38.3080550  57.1626930  34.2885490  36.8565070
  62.1506950  39.3169980  43.6592670  61.8464020  40.1961960  43.8843030
  63.1053410  39.3769770  43.6950110  60.6788740  43.5230970  34.2559520
  59.9051000  42.9828590  34.0958240  61.4083370  43.0037580  33.9177280
  71.4376720  42.5196330  40.0485910  72.1575840  43.0151620  39.6582020
  71.2358540  41.8414220  39.4039780  66.8986660  33.9134290  34.1915300
  66.0851270  33.4147460  34.1160610  66.7048610  34.7532540  33.7751650
  66.8195520  42.5905390  45.9354910  66.7532830  41.6701060  45.6812500
  66.1900660  42.6880830  46.6499550  69.6135050  38.2853940  32.4877460
  70.5014670  38.5971170  32.3128800  69.5840140  37.4126190  32.0958040
  60.7226140  43.1911350  37.8938330  61.2404810  42.3879610  37.8395220
  60.2710160  43.1290490  38.7355160  65.6095640  44.4577630  33.1665630
  65.9511340  45.2019860  32.6708950  64.7808350  44.7708750  33.5290460
  58.2070680  40.1572720  44.8064030  57.8485620  40.8226570  45.3937370
  57.9125240  39.3256270  45.1776650  61.4083800  40.6156960  47.6903580
  61.1083940  40.7614140  46.7931400  62.1795040  40.0562250  47.5976970
  66.7512250  45.4125960  45.6858710  66.7656790  44.4806920  45.4677620
  66.0437350  45.4985720  46.3248480  71.8849320  39.5965780  31.9557320
  71.8013040  40.0280000  31.1053760  72.6043510  40.0564130  32.3884140
  72.9623460  42.0533300  45.0327290  72.2371650  42.6462080  44.8356680
  73.4898920  42.0456840  44.2340660  72.9136570  46.4508040  34.6839450
  72.2712730  45.7963660  34.9583170  72.5267230  46.8563130  33.9080120
  68.4923050  43.7793470  38.5311140  68.8446870  43.1821600  37.8712510
  67.6085380  43.4537700  38.7019390  64.5786330  44.5391160  35.9381550
  65.2657460  45.0860370  36.3189140  63.7918750  45.0831890  35.9731160
  56.7178730  40.1563980  31.4298630  57.5873580  40.4388780  31.7134550
  56.2269050  40.9699850  31.3147440  63.8813540  41.5437190  35.5506910
  64.3376320  42.3542440  35.7767100  63.5301750  41.2260330  36.3825400
  66.1846150  47.0543530  42.7799210  66.8288370  47.2602910  43.4572630
  66.5475590  46.2931930  42.3270060  59.7825320  31.8874840  36.0229430
  59.6539950  31.8792740  36.9714350  58.9587340  32.2257930  35.6720440
  67.4578230  45.0575880  41.4976660  68.1000460  44.3569040  41.6108830
  67.9827580  45.8374320  41.3173550  71.3033950  45.3424500  31.2215800
  71.0771530  44.6254940  31.8140440  70.9130150  45.0936940  30.3837550
  69.2315850  45.8570780  44.7012720  69.5672090  46.4437470  45.3790640
  68.3116190  45.7263490  44.9310510  57.0849980  49.3691360  31.9960260
  57.4447620  49.9680700  31.3417530  56.9442320  49.9151250  32.7695290
  56.7819250  33.6465960  45.4836130  56.0677770  33.8462880  46.0888740
  57.2014290  32.8705530  45.8550930  70.8850200  43.2596440  32.8829960
  70.5971900  43.7209130  33.6707840  71.6802370  42.7994210  33.1514180
  57.0691840  47.6346220  46.4702660  57.1782960  46.6940960  46.3298050
  56.4172400  47.9000970  45.8216390  65.0604430  45.9062110  47.8700780
  64.7401300  45.1871350  48.4146470  64.3862790  46.5817180  47.9436840
  63.1018600  46.7522560  32.8133930  63.0928700  47.4852250  32.1978440
  62.1816960  46.5054140  32.9060890  58.7025240  41.9737450  33.5580690
  58.0953190  42.7136350  33.5675990  59.1774590  42.0636810  32.7318890
  68.2758030  36.1388270  43.2337580  68.6438850  35.3183480  43.5617150
  67.4156230  36.1990160  43.6493230  71.6420060  35.0945210  34.0425140
  71.0133220  35.1990880  33.3283370  71.1471980  35.3141990  34.8319020
  66.0878200  46.8150800  31.4759120  66.1890180  46.6114790  30.5461100
  65.1879940  46.5609080  31.6806900  63.6104090  37.3731160  35.4583020
  62.9020240  37.8417500  35.8996630  63.8948570  36.7153170  36.0928210
  65.2360020  38.7927860  43.4575550  65.7345270  39.2673680  44.1227400
  65.3782970  37.8691380  43.6645580  67.6419520  34.0981820  36.8978810
  67.5187300  34.1167950  35.9488320  68.5904080  34.1460760  37.0177210
  64.7296310  49.3337120  36.1706790  64.9837810  49.2958510  35.2486160
  63.7808790  49.2070450  36.1635040  61.8139110  35.6816240  32.8333730
  62.6629640  36.1186390  32.7673920  61.4470380  35.9936500  33.6605790
  72.4426880  35.0095820  44.3003940  71.9400480  35.7501220  44.6397750
  73.2583540  35.3979820  43.9840730  70.7348890  40.2529000  37.7465300
  69.7939030  40.2679230  37.9212990  71.0492960  39.4664960  38.1925600
  60.7130530  41.9348600  31.3069260  61.4793800  41.8229960  31.8694690
  60.7905220  41.2386570  30.6546030  59.4077290  39.3673670  31.9902150
  59.4880880  38.4201180  32.1019550  60.2997040  39.6980550  32.0962810
  72.7374470  47.4237850  39.4219560  72.8621890  48.2469020  39.8943370
  73.6040030  47.2128580  39.0743710  60.2092000  49.5169060  39.0936690
  60.9454480  48.9684520  39.3645260  60.5932920  50.3825070  38.9542680
  57.0937480  45.5842630  34.9678200  56.1677260  45.8263770  34.9583610
  57.5593910  46.4116890  34.8462950  59.2150280  48.7015130  48.2822270
  60.0163010  49.0227180  48.6957670  58.7002100  48.3410710  49.0042180
  63.3194310  48.6899370  30.9162260  64.1122920  48.9788200  30.4644050
  62.7998660  48.2591540  30.2374740  68.0514910  44.8095000  48.2297680
  67.4453070  44.8326600  47.4893430  67.7469020  44.0778040  48.7664930
  69.4815280  48.5375290  46.8407090  70.4337030  48.4533310  46.7907330
  69.3343500  49.2017000  47.5140880  72.3724480  47.9169500  32.3399000
  72.0865990  47.5034640  31.5253180  72.1744030  48.8457210  32.2199520
  56.9348090  41.1888590  47.2258320  57.4387110  40.6095870  47.7974550
  56.1955510  41.4728820  47.7634690  63.8371710  43.9102780  30.7804610
  63.7322350  43.2955130  31.5065990  63.6695930  43.3868670  29.9967620
  63.9886030  42.5959580  46.7593840  63.2231700  43.1644580  46.6748510
  64.1701990  42.3035790  45.8662070  67.0774440  42.9722810  31.3846600
  66.5284540  43.4192110  32.0289340  67.6993700  42.4672060  31.9084270
  71.1309380  44.3264910  47.3168860  71.8718850  44.6640670  46.8136320
  70.3682060  44.4956970  46.7638630  58.9671170  39.3318180  48.1208390
  59.0076510  39.0332050  49.0293620  59.8216670  39.7325790  47.9615910
  62.7449560  41.9313730  33.2811900  63.1665980  41.7653600  34.1243290
  62.8700400  41.1213960  32.7867040  60.9076980  37.9110280  46.0882880
  60.3773440  37.4201230  45.4606220  61.5765050  38.3394480  45.5540810
  65.2577200  40.9551340  30.5289000  65.7782860  40.2400360  30.1630150
  65.9045600  41.5937210  30.8289510  69.8055040  42.3779740  45.8524070
  70.2196060  42.5324820  46.7014490  68.8706040  42.5034960  46.0149850
  70.2777210  39.7175900  47.8563220  70.8597980  38.9628220  47.7683700
  70.4538980  40.2483340  47.0794700  61.3949280  34.8772650  46.1680170
  61.3006150  34.2593400  45.4431040  60.8146670  35.6038940  45.9410080
  64.1610720  33.4345890  43.2007560  63.7128020  33.4570150  42.3553110
  63.5275920  33.0364910  43.7977860  64.5670270  42.3300220  43.8220000
  64.9858380  43.1732950  43.6496240  63.6478900  42.4672260  43.5926780
  66.9034170  40.0616400  45.2057840  67.0230380  39.4657540  45.9452680
  67.7628170  40.0986090  44.7859140  69.2422070  40.6153590  43.7820350
  68.7157290  41.1396210  43.1785490  69.5853410  41.2480980  44.4130080
  61.6408460  38.0046960  30.2270060  61.4397520  37.1414320  30.5883400
  61.4700510  37.9180320  29.2891660  62.4177690  48.6353230  44.9377730
  61.8798780  49.3599290  44.6186430  62.6711650  48.1583570  44.1475070
  63.6702940  36.6037750  46.4633660  64.2602630  36.2953600  47.1511480
  62.8523180  36.1317500  46.6193560  68.4896370  36.2203560  46.6966680
  67.8011890  35.5585100  46.6316670  69.2102390  35.7741830  47.1415140
  69.1196770  32.8155190  32.7556940  69.3999060  31.9723090  33.1116360
  68.3462500  33.0478300  33.2695690  60.4391260  35.1047580  30.2147940
  60.7417160  35.1115010  29.3067090  61.1785850  34.7545440  30.7115600
  65.2739900  49.8704440  45.1964380  65.1998600  50.7739580  45.5036750
  64.3718740  49.5516340  45.1686450  63.6576190  34.0482200  31.2004140
  63.3098190  33.3706190  30.6206590  63.8588960  33.5871710  32.0147530
  65.8225230  49.0362950  32.8190740  66.7176020  49.3747920  32.8409500
  65.8542860  48.3142360  32.1915020  59.4621390  44.4090000  31.0477740
  59.8996260  44.9519670  31.7035320  59.9469120  43.5836950  31.0574080
  56.6767190  47.1979030  38.4998000  57.0070200  46.3300090  38.2676640
  57.1058190  47.4037550  39.3302960  61.2729110  45.5288040  36.1599970
  60.9724650  45.4053010  37.0603880  61.1666600  44.6696630  35.7515700
  57.1657400  48.0649620  41.2379630  56.7288390  48.2450420  42.0703780
  57.7335080  48.8224240  41.0961350  72.8019580  47.5666620  45.5256940
  72.2021570  47.6259180  44.7820860  72.9313480  46.6271600  45.6553790
  74.0421030  45.3084440  30.8626650  73.2113990  45.3761090  31.3333880
  74.2192860  46.1988560  30.5593510  73.4977490  42.0531920  33.3660850
  74.2596400  42.6228570  33.4720540  73.5131860  41.4859120  34.1369160
  56.9981830  40.5769850  37.5968510  56.3430670  40.3081490  36.9528210
  57.8359780  40.4674330  37.1470490  74.5037460  42.9082020  38.2102780
  74.8746290  42.1249340  37.8038750  75.1439390  43.5971120  38.0320080
  71.4871220  44.2918600  43.6233100  70.6731060  44.7215760  43.8858890
  71.8945420  44.9037010  43.0102150  73.5496660  42.3466290  30.5233370
  73.8245500  43.2545170  30.3952590  73.3607400  42.2828820  31.4595360
  69.9472270  35.3711140  31.8187000  70.3657150  35.1842120  30.9783660
  69.6408330  34.5190190  32.1289930  73.4462000  40.2835280  35.5162800
  73.0705600  39.5163210  35.0844090  72.7165120  40.6657980  36.0037730
  58.0357760  40.9622420  42.1371850  58.4030800  40.8749820  43.0167870
  57.4668580  40.1988970  42.0378710  72.8361620  39.4306800  45.1502320
  72.6047710  39.2019550  44.2500270  73.0966170  40.3506350  45.1047210
  57.5873760  37.8731510  46.0430270  56.6929810  37.8398270  46.3823980
  58.1271310  38.0718300  46.8081520  71.2749690  34.6563230  47.9282020
  72.1519870  34.6646630  48.3116020  71.2870530  33.9194070  47.3174370
  56.2119910  37.7868780  33.5393840  55.3083990  38.0498980  33.3645500
  56.6960530  38.0579950  32.7593800  72.7212960  38.5092770  38.8170040
  73.2450440  38.0155420  38.1860210  73.3072380  38.6443130  39.5617610
  72.9002680  38.5932640  42.3389590  71.9505390  38.5596180  42.4534580
  73.0815690  39.5032750  42.1039360  58.7547120  36.8434320  31.4488220
  59.4638820  36.4217540  30.9635500  58.0387060  36.9109550  30.8171570
  58.4021280  32.8973650  30.4890870  59.1249410  33.4382590  30.8072090
  58.6745800  32.6237070  29.6132410  72.2112930  37.7666120  34.7562450
  72.7072050  37.5336990  35.5411330  72.0129000  36.9277960  34.3400090
  58.0913470  32.1479840  40.3913490  58.7389660  31.5977220  39.9508650
  58.5115310  32.4022990  41.2129300  73.6400090  36.4027070  37.2900130
  73.5299370  36.2483110  38.2282400  74.4007680  35.8748010  37.0475540
  71.9865810  32.3421200  43.7483130  72.6238030  32.9555340  44.1142320
  72.1340700  32.3781860  42.8032360  74.5290360  34.2334990  30.5306270
  75.4539670  34.1016170  30.3224560  74.5066150  34.3127810  31.4842720
  74.6028850  35.0045650  33.1562980  73.8080350  34.9390770  33.6855890
  74.8072130  35.9396290  33.1448330  71.5447270  49.0437200  37.1501370
  72.1406340  48.7221770  36.4735790  71.8025420  48.5709020  37.9414640
  57.8445470  32.3035510  43.1338810  57.4960290  32.7599330  43.8996990
  57.5133170  31.4092640  43.2161240  59.4509840  45.4755110  47.2992000
  59.4079470  45.1048020  48.1806460  59.5820850  46.4132680  47.4393820
  63.1515870  47.0314700  42.9001720  62.9107230  47.2989260  42.0132240
  64.0918510  47.2020430  42.9552580  65.3570290  33.4947390  46.6558230
  65.2959180  34.0869220  47.4053640  66.2970670  33.3873350  46.5108490
  67.9944850  33.1517450  46.2950520  68.6085260  33.4696740  45.6331600
  68.5394410  32.6666040  46.9146380  74.4120030  49.0509080  43.7012360
  73.9178310  49.4477950  42.9839490  73.8033320  48.4258290  44.0949640
  58.5166110  31.8311710  46.4089580  59.0649100  31.6499760  45.6455690
  58.5821420  31.0405820  46.9445890  59.2897870  48.4217360  44.4189780
  58.6958190  48.2902060  45.1579820  59.2821710  47.5855500  43.9531880
  68.7352890  31.7149590  42.6219810  67.8612730  32.0484700  42.4192740
  68.6263640  31.2422770  43.4471680  69.6424870  33.9220460  44.0061530
  69.3138230  33.1072220  43.6263260  70.5907170  33.8790270  43.8827220
  72.0959480  49.6932500  40.9799100  71.6362450  50.4448310  40.6057120
  71.4671940  48.9738970  40.9213900  58.9210100  45.7875740  43.3697820
  58.1944160  45.1681030  43.3023770  58.9819250  46.1816350  42.4995900
  62.5255200  48.0020740  40.1547230  63.0420220  47.3908100  39.6295490
  63.1752580  48.5049520  40.6458240  65.2650700  48.8929230  40.9816210
  65.5528510  48.6383530  40.1049220  65.7773920  48.3406590  41.5721780
  66.4827710  32.6319430  41.5612720  65.6999500  33.1064930  41.8409480
  66.1890640  31.7274260  41.4525900  71.0348780  33.3342530  39.6061810
  71.4756870  33.2787630  38.7583410  70.7656370  34.2500540  39.6771990
  72.8987350  32.9657770  37.6170630  72.8375750  32.0218990  37.4701650
  73.6779380  33.0737860  38.1624090  57.2040100  49.1050130  36.5794580
  57.0362140  48.4720810  37.2776470  56.3374610  49.3109530  36.2288770
  57.8268120  32.9366910  34.0826440  58.5847480  33.0495790  33.5090470
  57.3645290  33.7736110  34.0369870  64.3681930  35.0506180  37.0728750
  63.5556440  34.6763070  36.7324630  64.8723570  34.2951260  37.3749940
  68.8706910  31.7148630  38.3111820  69.4736280  32.2868840  38.7860340
  68.1299900  32.2788070  38.0885720  72.0141510  32.1170190  33.5852100
  72.2092140  33.0153640  33.8519530  71.2271380  31.8857270  34.0785050
  58.8102800  47.7983360  34.0244720  58.2850420  48.1791390  33.3206680
  58.7347380  48.4234130  34.7454430  60.1993270  33.4630960  32.6228410
  60.7286030  32.6760760  32.4936360  60.8321590  34.1422150  32.8563940
  62.3931110  33.2006100  35.6773800  61.7633850  32.4993410  35.8443930
  61.8536250  33.9610230  35.4606960  65.3323060  49.8145330  48.3484410
  66.2590370  49.5789600  48.3920370  65.3173490  50.6417330  47.8670440
  73.5668120  49.3570900  35.3458660  73.7420310  48.6708640  34.7019580
  72.8689690  49.8817950  34.9535330  62.5186670  32.4790080  48.1126290
  62.2370940  32.9823680  47.3487110  62.9006370  31.6811830  47.7468420
  61.4095770  49.7465740  32.8993970  62.1414590  49.4625020  32.3517860
  61.6689440  49.5079020  33.7893350  60.5710560  45.8630470  32.9040300
  59.9419440  46.3315570  33.4526130  60.6858390  45.0179690  33.3386490
  69.1202130  31.8943660  48.6906760  69.0067580  32.2138270  49.5858280
  69.9371870  32.2956170  48.3944040  71.9000620  49.0415190  48.1725450
  72.6925940  48.5464420  47.9651410  72.1933770  49.7205330  48.7801060
  68.0260280  39.9136130  19.0541500  67.9454330  38.9990740  18.7833210
  67.6124700  40.4103200  18.3481210  66.1578320  41.6915150  20.9350770
  65.3820420  41.2115590  21.2249340  66.8091250  41.0120800  20.7606930
  60.1744150  42.0034960  21.8126530  59.3429030  41.7483670  22.2123040
  60.7825130  42.0745730  22.5484450  70.1785750  46.0975340  19.7149900
  69.7167280  45.3262580  20.0437070  70.9911300  46.1241410  20.2202350
  60.1545410  46.0375050  22.0084550  60.4573450  45.1472790  21.8294770
  60.8989000  46.5945270  21.7806800  58.5836100  36.9636850  15.5968920
  57.6952800  37.3052820  15.4948800  58.8677290  36.7637170  14.7049750
  56.5469110  39.5642500  21.4808620  57.1185220  38.7964700  21.4812260
  56.5470650  39.8631260  20.5715230  66.4049060  48.3833350  19.3353890
  65.7860500  48.8390850  18.7648330  67.2600840  48.5384810  18.9343590
  65.5987310  44.3672340  20.9420930  65.5295590  43.4262280  20.7810060
  66.3607170  44.4573750  21.5143500  57.7893980  34.9726860  23.2677550
  57.6096820  34.0752610  23.5480310  57.3874060  35.5198730  23.9424500
  66.6292480  37.1742720  21.1689860  67.0057300  36.3014600  21.0563530
  66.5311990  37.5101420  20.2780300  60.7597490  35.5468350  16.6307300
  60.8664240  36.4472080  16.9376060  59.8489850  35.4986320  16.3401950
  70.4116600  34.6693160  18.1018200  71.2326220  34.1789730  18.1443680
  70.4450680  35.2590820  18.8550040  58.4080650  37.4687360  21.8759890
  59.0890760  37.7325730  22.4947290  58.0928700  36.6288230  22.2097900
  62.6005220  38.5154720  20.9632480  63.1083440  39.0135690  21.6037500
  63.1318460  37.7389920  20.7871840  74.7016150  36.6859910  24.6661830
  73.9968320  37.0741620  24.1476940  74.9674070  37.3810200  25.2682760
  60.8841320  33.1553280  25.2295900  60.8859760  33.6725670  24.4241800
  60.0545630  32.6783460  25.2065830  67.2712410  43.2672590  16.7285800
  66.6529680  43.7322040  16.1648520  67.7835660  43.9600070  17.1455310
  62.1344170  42.7948460  23.4069400  61.8013550  43.4217380  24.0490470
  62.3110850  43.3210340  22.6271070  70.6478080  36.6093540  20.8745740
  69.9433650  36.8978430  21.4548850  71.0090240  37.4193650  20.5145300
  60.5656650  34.8663240  23.2366350  60.9073460  35.7105290  22.9420220
  59.6272460  35.0146980  23.3531690  61.3463270  44.7629260  25.2218580
  61.9637270  45.4380340  24.9403030  60.4856390  45.1717240  25.1306080
  56.6395610  43.9529120  14.1025430  56.2623590  44.4416220  13.3710330
  56.8968680  44.6254400  14.7331960  72.2640860  46.2268670  23.1373220
  71.5804380  46.8967780  23.1289890  72.8035150  46.4249320  22.3718080
  73.7165000  36.0548330  21.2654950  72.7689910  36.0887310  21.3970380
  74.0414990  36.8687280  21.6504310  64.2484540  32.3545510  19.5610940
  64.5559520  31.7992400  18.8446440  63.3185240  32.4889970  19.3783930
  69.7999600  48.0712800  21.8518400  69.8126760  47.6675090  20.9840660
  69.2474820  48.8460090  21.7479830  71.0945020  44.7929020  16.9408570
  70.9841350  43.8503350  17.0657990  71.0913270  45.1544660  17.8271330
  69.1985040  42.9742640  23.1801010  69.6153830  42.7602750  22.3454470
  69.9224860  43.2315430  23.7509630  66.6365300  40.4194340  16.2971060
  65.7094580  40.3531720  16.5259530  66.7890120  41.3574470  16.1826300
  66.6234380  36.6911340  13.2938220  65.6838050  36.8525300  13.3790680
  66.9417640  37.4097020  12.7474210  73.1447140  41.3729860  23.2717250
  72.3165770  41.4422950  22.7967380  73.7397620  41.9584170  22.8033080
  70.6662590  41.9814640  16.8006310  70.0475010  41.6434190  16.1532610
  70.6487040  41.3374400  17.5085500  70.1089150  38.1599180  24.2172120
  69.6960330  38.9852890  24.4712110  69.3765100  37.5744220  24.0248480
  62.2421940  40.9459080  19.0790790  61.8378940  40.2336330  18.5836690
  62.3285060  40.6012320  19.9678830  62.7103640  44.6326640  21.2430000
  62.4131930  44.0272110  20.5637780  63.6603460  44.6703950  21.1319360
  60.9550560  37.7202290  22.8589830  61.5065150  37.8297630  22.0843080
  61.4694070  38.0939890  23.5745060  70.7989250  48.2058510  24.9053100
  70.3219810  49.0130700  24.7125710  70.1151040  47.5536840  25.0579310
  61.8022070  44.3708330  27.8937800  60.9050600  44.5948300  28.1411200
  61.8274940  44.4943270  26.9449200  68.8427290  41.2201450  13.8079060
  69.2820570  40.3823880  13.6616880  69.5555710  41.8530850  13.8943200
  60.6293290  41.2421650  26.4695170  60.4901060  42.1144450  26.8382570
  59.7474650  40.8994460  26.3243110  66.9522670  46.1597520  17.7760300
  67.3918580  46.9021850  17.3615690  66.8909560  46.4024090  18.6999260
  62.4273640  47.1843350  28.6780320  62.3989070  47.5886300  27.8108750
  62.2638610  46.2553710  28.5151920  72.4244430  32.4744260  12.1220100
  72.1117090  32.5671090  13.0219170  73.1856900  33.0525290  12.0717530
  58.9426570  39.8404060  16.5797440  58.8224170  40.5666150  15.9678710
  58.6327460  39.0706970  16.1025350  74.3788460  47.9670450  29.9744490
  74.8548180  48.4453340  30.6533570  74.9995620  47.8987940  29.2489990
  56.5811940  43.0119200  22.3866080  56.6592360  43.1467970  21.4421800
  57.1953620  42.3035090  22.5794200  57.8259570  44.7119390  18.7972260
  57.4187650  44.8533980  17.9425860  58.7172580  44.4279550  18.5943470
  73.7821710  45.1583300  27.1344500  73.9084770  44.9195180  26.2161680
  73.8243090  44.3267840  27.6066580  67.6438450  48.8611300  25.7039310
  68.1583120  48.7719310  26.5061740  66.8007530  49.2071000  25.9967220
  69.6192850  49.1466640  15.1323310  69.4593990  48.8569580  16.0305140
  69.4539560  48.3706770  14.5968540  62.0981230  48.9265170  16.9094930
  61.9223710  48.0100710  16.6962730  61.2436970  49.2852460  17.1492730
  69.3218980  46.6554200  13.6921310  68.6284140  46.6531490  13.0323590
  70.0641840  46.2313520  13.2615480  68.8868910  48.2816910  17.7669800
  69.3425860  47.5006290  18.0808420  69.2261430  48.9923730  18.3110980
  73.6345720  37.2115760  28.0994240  73.0189990  37.7195430  27.5709700
  73.3142140  36.3114090  28.0420180  56.6371460  44.0533370  24.9260540
  56.8002500  43.5838730  24.1079910  57.1023910  43.5456930  25.5909380
  61.4090230  33.1839130  19.9621110  60.9658380  33.9648670  19.6305630
  61.9675220  33.5069020  20.6692050  65.6960040  36.0507650  25.5656430
  65.2339410  36.2590670  26.3776370  65.2938150  35.2367000  25.2627100
  70.6964550  37.2716600  26.6953090  69.8458140  36.9722350  27.0162160
  70.5366340  37.5158610  25.7836910  67.7914260  38.7718350  28.7951880
  68.1167670  37.9382100  28.4554110  68.5794590  39.2946870  28.9430210
  64.5249050  32.8049830  14.8426940  63.9003230  32.8009700  15.5680250
  64.4379170  31.9380790  14.4462910  63.4466130  33.7286460  21.8210710
  63.7438460  34.6349290  21.7402730  63.9951690  33.2405240  21.2070280
  61.2004450  38.3072700  17.6902360  60.9745370  38.0909870  18.5948980
  60.4196980  38.7401160  17.3448330  68.4302210  38.3136070  16.2893010
  67.8311100  39.0371870  16.1056630  68.9781820  38.2512850  15.5069460
  63.6403660  39.2058280  28.3562630  63.5447260  38.2653010  28.2063030
  64.4835640  39.4273350  27.9610700  67.0367080  36.9499610  18.3196290
  67.4296650  37.2671810  17.5064980  67.3983930  36.0711490  18.4340810
  58.7714200  35.6171950  26.5096410  58.3777590  36.4647160  26.7169190
  58.0832600  34.9798320  26.7005050  65.3459250  35.7006920  29.5793150
  64.6557570  35.5079120  30.2139240  66.0891550  35.9841560  30.1117450
  56.0731250  33.5400410  20.5426490  55.7844300  34.1103270  21.2551470
  56.8177010  33.0604860  20.9057720  56.2601480  37.4820530  11.7529210
  56.1776150  38.4251290  11.8944200  55.9084540  37.3395440  10.8741560
  67.6222220  39.5405360  22.4147070  66.8903340  40.0492170  22.7637170
  67.2246560  38.7235340  22.1135850  64.0599610  36.2159560  20.8199560
  64.0635670  35.7749510  19.9704100  64.9550730  36.5376890  20.9271380
  59.9101990  36.0986050  19.7793770  59.5702040  36.5761280  20.5360820
  59.1479310  35.6451170  19.4194870  64.1219760  37.2171640  13.8106320
  64.2432580  37.1758120  14.7592140  63.7368270  38.0795790  13.6553050
  68.0848130  34.9939040  21.8270010  68.1020870  35.4447690  22.6711860
  67.8363710  34.0944680  22.0403450  63.1341260  39.5272780  13.2089620
  62.5658160  39.0791030  12.5825530  63.8430260  39.8865560  12.6754770
  71.5118880  32.4071220  27.6656390  71.8364650  31.6760880  28.1914370
  71.5475390  32.0884860  26.7637380  58.2110440  43.4284800  27.0856350
  57.8265230  42.7878470  27.6839310  58.5222630  44.1320920  27.6551080
  64.3607580  40.2761340  22.5664970  64.7277710  39.8019910  23.3126310
  64.1712640  41.1502910  22.9073310  57.2248070  35.0205030  18.6958440
  56.9394990  34.6560700  19.5337060  57.1626930  34.2885490  18.0821580
  62.1506950  39.3169980  24.8849180  61.8464020  40.1961960  25.1099540
  63.1053410  39.3769770  24.9206620  60.6788740  43.5230970  15.4816030
  59.9051000  42.9828590  15.3214750  61.4083370  43.0037580  15.1433790
  71.4376720  42.5196330  21.2742420  72.1575840  43.0151620  20.8838530
  71.2358540  41.8414220  20.6296290  66.8986660  33.9134290  15.4171810
  66.0851270  33.4147460  15.3417120  66.7048610  34.7532540  15.0008160
  66.8195520  42.5905390  27.1611420  66.7532830  41.6701060  26.9069010
  66.1900660  42.6880830  27.8756060  69.6135050  38.2853940  13.7133970
  70.5014670  38.5971170  13.5385310  69.5840140  37.4126190  13.3214550
  60.7226140  43.1911350  19.1194840  61.2404810  42.3879610  19.0651730
  60.2710160  43.1290490  19.9611670  65.6095640  44.4577630  14.3922140
  65.9511340  45.2019860  13.8965460  64.7808350  44.7708750  14.7546970
  58.2070680  40.1572720  26.0320540  57.8485620  40.8226570  26.6193880
  57.9125240  39.3256270  26.4033160  61.4083800  40.6156960  28.9160090
  61.1083940  40.7614140  28.0187910  62.1795040  40.0562250  28.8233480
  66.7512250  45.4125960  26.9115220  66.7656790  44.4806920  26.6934130
  66.0437350  45.4985720  27.5504990  71.8849320  39.5965780  13.1813830
  71.8013040  40.0280000  12.3310270  72.6043510  40.0564130  13.6140650
  72.9623460  42.0533300  26.2583800  72.2371650  42.6462080  26.0613190
  73.4898920  42.0456840  25.4597170  72.9136570  46.4508040  15.9095960
  72.2712730  45.7963660  16.1839680  72.5267230  46.8563130  15.1336630
  68.4923050  43.7793470  19.7567650  68.8446870  43.1821600  19.0969020
  67.6085380  43.4537700  19.9275900  64.5786330  44.5391160  17.1638060
  65.2657460  45.0860370  17.5445650  63.7918750  45.0831890  17.1987670
  56.7178730  40.1563980  12.6555140  57.5873580  40.4388780  12.9391060
  56.2269050  40.9699850  12.5403950  63.8813540  41.5437190  16.7763420
  64.3376320  42.3542440  17.0023610  63.5301750  41.2260330  17.6081910
  66.1846150  47.0543530  24.0055720  66.8288370  47.2602910  24.6829140
  66.5475590  46.2931930  23.5526570  59.7825320  31.8874840  17.2485940
  59.6539950  31.8792740  18.1970860  58.9587340  32.2257930  16.8976950
  67.4578230  45.0575880  22.7233170  68.1000460  44.3569040  22.8365340
  67.9827580  45.8374320  22.5430060  71.3033950  45.3424500  12.4472310
  71.0771530  44.6254940  13.0396950  70.9130150  45.0936940  11.6094060
  69.2315850  45.8570780  25.9269230  69.5672090  46.4437470  26.6047150
  68.3116190  45.7263490  26.1567020  57.0849980  49.3691360  13.2216770
  57.4447620  49.9680700  12.5674040  56.9442320  49.9151250  13.9951800
  56.7819250  33.6465960  26.7092640  56.0677770  33.8462880  27.3145250
  57.2014290  32.8705530  27.0807440  70.8850200  43.2596440  14.1086470
  70.5971900  43.7209130  14.8964350  71.6802370  42.7994210  14.3770690
  57.0691840  47.6346220  27.6959170  57.1782960  46.6940960  27.5554560
  56.4172400  47.9000970  27.0472900  65.0604430  45.9062110  29.0957290
  64.7401300  45.1871350  29.6402980  64.3862790  46.5817180  29.1693350
  63.1018600  46.7522560  14.0390440  63.0928700  47.4852250  13.4234950
  62.1816960  46.5054140  14.1317400  58.7025240  41.9737450  14.7837200
  58.0953190  42.7136350  14.7932500  59.1774590  42.0636810  13.9575400
  68.2758030  36.1388270  24.4594090  68.6438850  35.3183480  24.7873660
  67.4156230  36.1990160  24.8749740  71.6420060  35.0945210  15.2681650
  71.0133220  35.1990880  14.5539880  71.1471980  35.3141990  16.0575530
  66.0878200  46.8150800  12.7015630  66.1890180  46.6114790  11.7717610
  65.1879940  46.5609080  12.9063410  63.6104090  37.3731160  16.6839530
  62.9020240  37.8417500  17.1253140  63.8948570  36.7153170  17.3184720
  65.2360020  38.7927860  24.6832060  65.7345270  39.2673680  25.3483910
  65.3782970  37.8691380  24.8902090  67.6419520  34.0981820  18.1235320
  67.5187300  34.1167950  17.1744830  68.5904080  34.1460760  18.2433720
  64.7296310  49.3337120  17.3963300  64.9837810  49.2958510  16.4742670
  63.7808790  49.2070450  17.3891550  61.8139110  35.6816240  14.0590240
  62.6629640  36.1186390  13.9930430  61.4470380  35.9936500  14.8862300
  72.4426880  35.0095820  25.5260450  71.9400480  35.7501220  25.8654260
  73.2583540  35.3979820  25.2097240  70.7348890  40.2529000  18.9721810
  69.7939030  40.2679230  19.1469500  71.0492960  39.4664960  19.4182110
  60.7130530  41.9348600  12.5325770  61.4793800  41.8229960  13.0951200
  60.7905220  41.2386570  11.8802540  59.4077290  39.3673670  13.2158660
  59.4880880  38.4201180  13.3276060  60.2997040  39.6980550  13.3219320
  72.7374470  47.4237850  20.6476070  72.8621890  48.2469020  21.1199880
  73.6040030  47.2128580  20.3000220  60.2092000  49.5169060  20.3193200
  60.9454480  48.9684520  20.5901770  60.5932920  50.3825070  20.1799190
  57.0937480  45.5842630  16.1934710  56.1677260  45.8263770  16.1840120
  57.5593910  46.4116890  16.0719460  59.2150280  48.7015130  29.5078780
  60.0163010  49.0227180  29.9214180  58.7002100  48.3410710  30.2298690
  63.3194310  48.6899370  12.1418770  64.1122920  48.9788200  11.6900560
  62.7998660  48.2591540  11.4631250  68.0514910  44.8095000  29.4554190
  67.4453070  44.8326600  28.7149940  67.7469020  44.0778040  29.9921440
  69.4815280  48.5375290  28.0663600  70.4337030  48.4533310  28.0163840
  69.3343500  49.2017000  28.7397390  72.3724480  47.9169500  13.5655510
  72.0865990  47.5034640  12.7509690  72.1744030  48.8457210  13.4456030
  56.9348090  41.1888590  28.4514830  57.4387110  40.6095870  29.0231060
  56.1955510  41.4728820  28.9891200  63.8371710  43.9102780  12.0061120
  63.7322350  43.2955130  12.7322500  63.6695930  43.3868670  11.2224130
  63.9886030  42.5959580  27.9850350  63.2231700  43.1644580  27.9005020
  64.1701990  42.3035790  27.0918580  67.0774440  42.9722810  12.6103110
  66.5284540  43.4192110  13.2545850  67.6993700  42.4672060  13.1340780
  71.1309380  44.3264910  28.5425370  71.8718850  44.6640670  28.0392830
  70.3682060  44.4956970  27.9895140  58.9671170  39.3318180  29.3464900
  59.0076510  39.0332050  30.2550130  59.8216670  39.7325790  29.1872420
  62.7449560  41.9313730  14.5068410  63.1665980  41.7653600  15.3499800
  62.8700400  41.1213960  14.0123550  60.9076980  37.9110280  27.3139390
  60.3773440  37.4201230  26.6862730  61.5765050  38.3394480  26.7797320
  65.2577200  40.9551340  11.7545510  65.7782860  40.2400360  11.3886660
  65.9045600  41.5937210  12.0546020  69.8055040  42.3779740  27.0780580
  70.2196060  42.5324820  27.9271000  68.8706040  42.5034960  27.2406360
  70.2777210  39.7175900  29.0819730  70.8597980  38.9628220  28.9940210
  70.4538980  40.2483340  28.3051210  61.3949280  34.8772650  27.3936680
  61.3006150  34.2593400  26.6687550  60.8146670  35.6038940  27.1666590
  64.1610720  33.4345890  24.4264070  63.7128020  33.4570150  23.5809620
  63.5275920  33.0364910  25.0234370  64.5670270  42.3300220  25.0476510
  64.9858380  43.1732950  24.8752750  63.6478900  42.4672260  24.8183290
  66.9034170  40.0616400  26.4314350  67.0230380  39.4657540  27.1709190
  67.7628170  40.0986090  26.0115650  69.2422070  40.6153590  25.0076860
  68.7157290  41.1396210  24.4042000  69.5853410  41.2480980  25.6386590
  61.6408460  38.0046960  11.4526570  61.4397520  37.1414320  11.8139910
  61.4700510  37.9180320  10.5148170  62.4177690  48.6353230  26.1634240
  61.8798780  49.3599290  25.8442940  62.6711650  48.1583570  25.3731580
  63.6702940  36.6037750  27.6890170  64.2602630  36.2953600  28.3767990
  62.8523180  36.1317500  27.8450070  68.4896370  36.2203560  27.9223190
  67.8011890  35.5585100  27.8573180  69.2102390  35.7741830  28.3671650
  69.1196770  32.8155190  13.9813450  69.3999060  31.9723090  14.3372870
  68.3462500  33.0478300  14.4952200  60.4391260  35.1047580  11.4404450
  60.7417160  35.1115010  10.5323600  61.1785850  34.7545440  11.9372110
  65.2739900  49.8704440  26.4220890  65.1998600  50.7739580  26.7293260
  64.3718740  49.5516340  26.3942960  63.6576190  34.0482200  12.4260650
  63.3098190  33.3706190  11.8463100  63.8588960  33.5871710  13.2404040
  65.8225230  49.0362950  14.0447250  66.7176020  49.3747920  14.0666010
  65.8542860  48.3142360  13.4171530  59.4621390  44.4090000  12.2734250
  59.8996260  44.9519670  12.9291830  59.9469120  43.5836950  12.2830590
  56.6767190  47.1979030  19.7254510  57.0070200  46.3300090  19.4933150
  57.1058190  47.4037550  20.5559470  61.2729110  45.5288040  17.3856480
  60.9724650  45.4053010  18.2860390  61.1666600  44.6696630  16.9772210
  57.1657400  48.0649620  22.4636140  56.7288390  48.2450420  23.2960290
  57.7335080  48.8224240  22.3217860  72.8019580  47.5666620  26.7513450
  72.2021570  47.6259180  26.0077370  72.9313480  46.6271600  26.8810300
  74.0421030  45.3084440  12.0883160  73.2113990  45.3761090  12.5590390
  74.2192860  46.1988560  11.7850020  73.4977490  42.0531920  14.5917360
  74.2596400  42.6228570  14.6977050  73.5131860  41.4859120  15.3625670
  56.9981830  40.5769850  18.8225020  56.3430670  40.3081490  18.1784720
  57.8359780  40.4674330  18.3727000  74.5037460  42.9082020  19.4359290
  74.8746290  42.1249340  19.0295260  75.1439390  43.5971120  19.2576590
  71.4871220  44.2918600  24.8489610  70.6731060  44.7215760  25.1115400
  71.8945420  44.9037010  24.2358660  73.5496660  42.3466290  11.7489880
  73.8245500  43.2545170  11.6209100  73.3607400  42.2828820  12.6851870
  69.9472270  35.3711140  13.0443510  70.3657150  35.1842120  12.2040170
  69.6408330  34.5190190  13.3546440  73.4462000  40.2835280  16.7419310
  73.0705600  39.5163210  16.3100600  72.7165120  40.6657980  17.2294240
  58.0357760  40.9622420  23.3628360  58.4030800  40.8749820  24.2424380
  57.4668580  40.1988970  23.2635220  72.8361620  39.4306800  26.3758830
  72.6047710  39.2019550  25.4756780  73.0966170  40.3506350  26.3303720
  57.5873760  37.8731510  27.2686780  56.6929810  37.8398270  27.6080490
  58.1271310  38.0718300  28.0338030  71.2749690  34.6563230  29.1538530
  72.1519870  34.6646630  29.5372530  71.2870530  33.9194070  28.5430880
  56.2119910  37.7868780  14.7650350  55.3083990  38.0498980  14.5902010
  56.6960530  38.0579950  13.9850310  72.7212960  38.5092770  20.0426550
  73.2450440  38.0155420  19.4116720  73.3072380  38.6443130  20.7874120
  72.9002680  38.5932640  23.5646100  71.9505390  38.5596180  23.6791090
  73.0815690  39.5032750  23.3295870  58.7547120  36.8434320  12.6744730
  59.4638820  36.4217540  12.1892010  58.0387060  36.9109550  12.0428080
  58.4021280  32.8973650  11.7147380  59.1249410  33.4382590  12.0328600
  58.6745800  32.6237070  10.8388920  72.2112930  37.7666120  15.9818960
  72.7072050  37.5336990  16.7667840  72.0129000  36.9277960  15.5656600
  58.0913470  32.1479840  21.6170000  58.7389660  31.5977220  21.1765160
  58.5115310  32.4022990  22.4385810  73.6400090  36.4027070  18.5156640
  73.5299370  36.2483110  19.4538910  74.4007680  35.8748010  18.2732050
  71.9865810  32.3421200  24.9739640  72.6238030  32.9555340  25.3398830
  72.1340700  32.3781860  24.0288870  74.5290360  34.2334990  11.7562780
  75.4539670  34.1016170  11.5481070  74.5066150  34.3127810  12.7099230
  74.6028850  35.0045650  14.3819490  73.8080350  34.9390770  14.9112400
  74.8072130  35.9396290  14.3704840  71.5447270  49.0437200  18.3757880
  72.1406340  48.7221770  17.6992300  71.8025420  48.5709020  19.1671150
  57.8445470  32.3035510  24.3595320  57.4960290  32.7599330  25.1253500
  57.5133170  31.4092640  24.4417750  59.4509840  45.4755110  28.5248510
  59.4079470  45.1048020  29.4062970  59.5820850  46.4132680  28.6650330
  63.1515870  47.0314700  24.1258230  62.9107230  47.2989260  23.2388750
  64.0918510  47.2020430  24.1809090  65.3570290  33.4947390  27.8814740
  65.2959180  34.0869220  28.6310150  66.2970670  33.3873350  27.7365000
  67.9944850  33.1517450  27.5207030  68.6085260  33.4696740  26.8588110
  68.5394410  32.6666040  28.1402890  74.4120030  49.0509080  24.9268870
  73.9178310  49.4477950  24.2096000  73.8033320  48.4258290  25.3206150
  58.5166110  31.8311710  27.6346090  59.0649100  31.6499760  26.8712200
  58.5821420  31.0405820  28.1702400  59.2897870  48.4217360  25.6446290
  58.6958190  48.2902060  26.3836330  59.2821710  47.5855500  25.1788390
  68.7352890  31.7149590  23.8476320  67.8612730  32.0484700  23.6449250
  68.6263640  31.2422770  24.6728190  69.6424870  33.9220460  25.2318040
  69.3138230  33.1072220  24.8519770  70.5907170  33.8790270  25.1083730
  72.0959480  49.6932500  22.2055610  71.6362450  50.4448310  21.8313630
  71.4671940  48.9738970  22.1470410  58.9210100  45.7875740  24.5954330
  58.1944160  45.1681030  24.5280280  58.9819250  46.1816350  23.7252410
  62.5255200  48.0020740  21.3803740  63.0420220  47.3908100  20.8552000
  63.1752580  48.5049520  21.8714750  65.2650700  48.8929230  22.2072720
  65.5528510  48.6383530  21.3305730  65.7773920  48.3406590  22.7978290
  66.4827710  32.6319430  22.7869230  65.6999500  33.1064930  23.0665990
  66.1890640  31.7274260  22.6782410  71.0348780  33.3342530  20.8318320
  71.4756870  33.2787630  19.9839920  70.7656370  34.2500540  20.9028500
  72.8987350  32.9657770  18.8427140  72.8375750  32.0218990  18.6958160
  73.6779380  33.0737860  19.3880600  57.2040100  49.1050130  17.8051090
  57.0362140  48.4720810  18.5032980  56.3374610  49.3109530  17.4545280
  57.8268120  32.9366910  15.3082950  58.5847480  33.0495790  14.7346980
  57.3645290  33.7736110  15.2626380  64.3681930  35.0506180  18.2985260
  63.5556440  34.6763070  17.9581140  64.8723570  34.2951260  18.6006450
  68.8706910  31.7148630  19.5368330  69.4736280  32.2868840  20.0116850
  68.1299900  32.2788070  19.3142230  72.0141510  32.1170190  14.8108610
  72.2092140  33.0153640  15.0776040  71.2271380  31.8857270  15.3041560
  58.8102800  47.7983360  15.2501230  58.2850420  48.1791390  14.5463190
  58.7347380  48.4234130  15.9710940  60.1993270  33.4630960  13.8484920
  60.7286030  32.6760760  13.7192870  60.8321590  34.1422150  14.0820450
  62.3931110  33.2006100  16.9030310  61.7633850  32.4993410  17.0700440
  61.8536250  33.9610230  16.6863470  65.3323060  49.8145330  29.5740920
  66.2590370  49.5789600  29.6176880  65.3173490  50.6417330  29.0926950
  73.5668120  49.3570900  16.5715170  73.7420310  48.6708640  15.9276090
  72.8689690  49.8817950  16.1791840  62.5186670  32.4790080  29.3382800
  62.2370940  32.9823680  28.5743620  62.9006370  31.6811830  28.9724930
  61.4095770  49.7465740  14.1250480  62.1414590  49.4625020  13.5774370
  61.6689440  49.5079020  15.0149860  60.5710560  45.8630470  14.1296810
  59.9419440  46.3315570  14.6782640  60.6858390  45.0179690  14.5643000
  69.1202130  31.8943660  29.9163270  69.0067580  32.2138270  30.8114790
  69.9371870  32.2956170  29.6200550  71.9000620  49.0415190  29.3981960
  72.6925940  48.5464420  29.1907920  72.1933770  49.7205330  30.0057570
  66.1578320  41.6915150   2.1607280  65.3820420  41.2115590   2.4505850
  66.8091250  41.0120800   1.9863440  60.1744150  42.0034960   3.0383040
  59.3429030  41.7483670   3.4379550  60.7825130  42.0745730   3.7740960
  60.1545410  46.0375050   3.2341060  60.4573450  45.1472790   3.0551280
  60.8989000  46.5945270   3.0063310  56.5469110  39.5642500   2.7065130
  57.1185220  38.7964700   2.7068770  56.5470650  39.8631260   1.7971740
  65.5987310  44.3672340   2.1677440  65.5295590  43.4262280   2.0066570
  66.3607170  44.4573750   2.7400010  57.7893980  34.9726860   4.4934060
  57.6096820  34.0752610   4.7736820  57.3874060  35.5198730   5.1681010
  66.6292480  37.1742720   2.3946370  67.0057300  36.3014600   2.2820040
  66.5311990  37.5101420   1.5036810  58.4080650  37.4687360   3.1016400
  59.0890760  37.7325730   3.7203800  58.0928700  36.6288230   3.4354410
  62.6005220  38.5154720   2.1888990  63.1083440  39.0135690   2.8294010
  63.1318460  37.7389920   2.0128350  74.7016150  36.6859910   5.8918340
  73.9968320  37.0741620   5.3733450  74.9674070  37.3810200   6.4939270
  60.8841320  33.1553280   6.4552410  60.8859760  33.6725670   5.6498310
  60.0545630  32.6783460   6.4322340  62.1344170  42.7948460   4.6325910
  61.8013550  43.4217380   5.2746980  62.3110850  43.3210340   3.8527580
  70.6478080  36.6093540   2.1002250  69.9433650  36.8978430   2.6805360
  71.0090240  37.4193650   1.7401810  60.5656650  34.8663240   4.4622860
  60.9073460  35.7105290   4.1676730  59.6272460  35.0146980   4.5788200
  61.3463270  44.7629260   6.4475090  61.9637270  45.4380340   6.1659540
  60.4856390  45.1717240   6.3562590  72.2640860  46.2268670   4.3629730
  71.5804380  46.8967780   4.3546400  72.8035150  46.4249320   3.5974590
  73.7165000  36.0548330   2.4911460  72.7689910  36.0887310   2.6226890
  74.0414990  36.8687280   2.8760820  69.7999600  48.0712800   3.0774910
  69.8126760  47.6675090   2.2097170  69.2474820  48.8460090   2.9736340
  69.1985040  42.9742640   4.4057520  69.6153830  42.7602750   3.5710980
  69.9224860  43.2315430   4.9766140  73.1447140  41.3729860   4.4973760
  72.3165770  41.4422950   4.0223890  73.7397620  41.9584170   4.0289590
  70.1089150  38.1599180   5.4428630  69.6960330  38.9852890   5.6968620
  69.3765100  37.5744220   5.2504990  62.7103640  44.6326640   2.4686510
  62.4131930  44.0272110   1.7894290  63.6603460  44.6703950   2.3575870
  60.9550560  37.7202290   4.0846340  61.5065150  37.8297630   3.3099590
  61.4694070  38.0939890   4.8001570  70.7989250  48.2058510   6.1309610
  70.3219810  49.0130700   5.9382220  70.1151040  47.5536840   6.2835820
  61.8022070  44.3708330   9.1194310  60.9050600  44.5948300   9.3667710
  61.8274940  44.4943270   8.1705710  60.6293290  41.2421650   7.6951680
  60.4901060  42.1144450   8.0639080  59.7474650  40.8994460   7.5499620
  62.4273640  47.1843350   9.9036830  62.3989070  47.5886300   9.0365260
  62.2638610  46.2553710   9.7408430  74.3788460  47.9670450  11.2001000
  74.8548180  48.4453340  11.8790080  74.9995620  47.8987940  10.4746500
  56.5811940  43.0119200   3.6122590  56.6592360  43.1467970   2.6678310
  57.1953620  42.3035090   3.8050710  73.7821710  45.1583300   8.3601010
  73.9084770  44.9195180   7.4418190  73.8243090  44.3267840   8.8323090
  67.6438450  48.8611300   6.9295820  68.1583120  48.7719310   7.7318250
  66.8007530  49.2071000   7.2223730  73.6345720  37.2115760   9.3250750
  73.0189990  37.7195430   8.7966210  73.3142140  36.3114090   9.2676690
  56.6371460  44.0533370   6.1517050  56.8002500  43.5838730   5.3336420
  57.1023910  43.5456930   6.8165890  65.6960040  36.0507650   6.7912940
  65.2339410  36.2590670   7.6032880  65.2938150  35.2367000   6.4883610
  70.6964550  37.2716600   7.9209600  69.8458140  36.9722350   8.2418670
  70.5366340  37.5158610   7.0093420  67.7914260  38.7718350  10.0208390
  68.1167670  37.9382100   9.6810620  68.5794590  39.2946870  10.1686720
  63.4466130  33.7286460   3.0467220  63.7438460  34.6349290   2.9659240
  63.9951690  33.2405240   2.4326790  63.6403660  39.2058280   9.5819140
  63.5447260  38.2653010   9.4319540  64.4835640  39.4273350   9.1867210
  58.7714200  35.6171950   7.7352920  58.3777590  36.4647160   7.9425700
  58.0832600  34.9798320   7.9261560  65.3459250  35.7006920  10.8049660
  64.6557570  35.5079120  11.4395750  66.0891550  35.9841560  11.3373960
  56.0731250  33.5400410   1.7683000  55.7844300  34.1103270   2.4807980
  56.8177010  33.0604860   2.1314230  67.6222220  39.5405360   3.6403580
  66.8903340  40.0492170   3.9893680  67.2246560  38.7235340   3.3392360
  68.0848130  34.9939040   3.0526520  68.1020870  35.4447690   3.8968370
  67.8363710  34.0944680   3.2659960  71.5118880  32.4071220   8.8912900
  71.8364650  31.6760880   9.4170880  71.5475390  32.0884860   7.9893890
  58.2110440  43.4284800   8.3112860  57.8265230  42.7878470   8.9095820
  58.5222630  44.1320920   8.8807590  64.3607580  40.2761340   3.7921480
  64.7277710  39.8019910   4.5382820  64.1712640  41.1502910   4.1329820
  62.1506950  39.3169980   6.1105690  61.8464020  40.1961960   6.3356050
  63.1053410  39.3769770   6.1463130  71.4376720  42.5196330   2.4998930
  72.1575840  43.0151620   2.1095040  71.2358540  41.8414220   1.8552800
  66.8195520  42.5905390   8.3867930  66.7532830  41.6701060   8.1325520
  66.1900660  42.6880830   9.1012570  58.2070680  40.1572720   7.2577050
  57.8485620  40.8226570   7.8450390  57.9125240  39.3256270   7.6289670
  61.4083800  40.6156960  10.1416600  61.1083940  40.7614140   9.2444420
  62.1795040  40.0562250  10.0489990  66.7512250  45.4125960   8.1371730
  66.7656790  44.4806920   7.9190640  66.0437350  45.4985720   8.7761500
  72.9623460  42.0533300   7.4840310  72.2371650  42.6462080   7.2869700
  73.4898920  42.0456840   6.6853680  66.1846150  47.0543530   5.2312230
  66.8288370  47.2602910   5.9085650  66.5475590  46.2931930   4.7783080
  67.4578230  45.0575880   3.9489680  68.1000460  44.3569040   4.0621850
  67.9827580  45.8374320   3.7686570  69.2315850  45.8570780   7.1525740
  69.5672090  46.4437470   7.8303660  68.3116190  45.7263490   7.3823530
  56.7819250  33.6465960   7.9349150  56.0677770  33.8462880   8.5401760
  57.2014290  32.8705530   8.3063950  57.0691840  47.6346220   8.9215680
  57.1782960  46.6940960   8.7811070  56.4172400  47.9000970   8.2729410
  65.0604430  45.9062110  10.3213800  64.7401300  45.1871350  10.8659490
  64.3862790  46.5817180  10.3949860  68.2758030  36.1388270   5.6850600
  68.6438850  35.3183480   6.0130170  67.4156230  36.1990160   6.1006250
  65.2360020  38.7927860   5.9088570  65.7345270  39.2673680   6.5740420
  65.3782970  37.8691380   6.1158600  72.4426880  35.0095820   6.7516960
  71.9400480  35.7501220   7.0910770  73.2583540  35.3979820   6.4353750
  72.7374470  47.4237850   1.8732580  72.8621890  48.2469020   2.3456390
  73.6040030  47.2128580   1.5256730  59.2150280  48.7015130  10.7335290
  60.0163010  49.0227180  11.1470690  58.7002100  48.3410710  11.4555200
  68.0514910  44.8095000  10.6810700  67.4453070  44.8326600   9.9406450
  67.7469020  44.0778040  11.2177950  69.4815280  48.5375290   9.2920110
  70.4337030  48.4533310   9.2420350  69.3343500  49.2017000   9.9653900
  56.9348090  41.1888590   9.6771340  57.4387110  40.6095870  10.2487570
  56.1955510  41.4728820  10.2147710  63.9886030  42.5959580   9.2106860
  63.2231700  43.1644580   9.1261530  64.1701990  42.3035790   8.3175090
  71.1309380  44.3264910   9.7681880  71.8718850  44.6640670   9.2649340
  70.3682060  44.4956970   9.2151650  58.9671170  39.3318180  10.5721410
  59.0076510  39.0332050  11.4806640  59.8216670  39.7325790  10.4128930
  60.9076980  37.9110280   8.5395900  60.3773440  37.4201230   7.9119240
  61.5765050  38.3394480   8.0053830  69.8055040  42.3779740   8.3037090
  70.2196060  42.5324820   9.1527510  68.8706040  42.5034960   8.4662870
  70.2777210  39.7175900  10.3076240  70.8597980  38.9628220  10.2196720
  70.4538980  40.2483340   9.5307720  61.3949280  34.8772650   8.6193190
  61.3006150  34.2593400   7.8944060  60.8146670  35.6038940   8.3923100
  64.1610720  33.4345890   5.6520580  63.7128020  33.4570150   4.8066130
  63.5275920  33.0364910   6.2490880  64.5670270  42.3300220   6.2733020
  64.9858380  43.1732950   6.1009260  63.6478900  42.4672260   6.0439800
  66.9034170  40.0616400   7.6570860  67.0230380  39.4657540   8.3965700
  67.7628170  40.0986090   7.2372160  69.2422070  40.6153590   6.2333370
  68.7157290  41.1396210   5.6298510  69.5853410  41.2480980   6.8643100
  62.4177690  48.6353230   7.3890750  61.8798780  49.3599290   7.0699450
  62.6711650  48.1583570   6.5988090  63.6702940  36.6037750   8.9146680
  64.2602630  36.2953600   9.6024500  62.8523180  36.1317500   9.0706580
  68.4896370  36.2203560   9.1479700  67.8011890  35.5585100   9.0829690
  69.2102390  35.7741830   9.5928160  65.2739900  49.8704440   7.6477400
  65.1998600  50.7739580   7.9549770  64.3718740  49.5516340   7.6199470
  57.1657400  48.0649620   3.6892650  56.7288390  48.2450420   4.5216800
  57.7335080  48.8224240   3.5474370  72.8019580  47.5666620   7.9769960
  72.2021570  47.6259180   7.2333880  72.9313480  46.6271600   8.1066810
  71.4871220  44.2918600   6.0746120  70.6731060  44.7215760   6.3371910
  71.8945420  44.9037010   5.4615170  58.0357760  40.9622420   4.5884870
  58.4030800  40.8749820   5.4680890  57.4668580  40.1988970   4.4891730
  72.8361620  39.4306800   7.6015340  72.6047710  39.2019550   6.7013290
  73.0966170  40.3506350   7.5560230  57.5873760  37.8731510   8.4943290
  56.6929810  37.8398270   8.8337000  58.1271310  38.0718300   9.2594540
  71.2749690  34.6563230  10.3795040  72.1519870  34.6646630  10.7629040
  71.2870530  33.9194070   9.7687390  72.9002680  38.5932640   4.7902610
  71.9505390  38.5596180   4.9047600  73.0815690  39.5032750   4.5552380
  58.0913470  32.1479840   2.8426510  58.7389660  31.5977220   2.4021670
  58.5115310  32.4022990   3.6642320  71.9865810  32.3421200   6.1996150
  72.6238030  32.9555340   6.5655340  72.1340700  32.3781860   5.2545380
  57.8445470  32.3035510   5.5851830  57.4960290  32.7599330   6.3510010
  57.5133170  31.4092640   5.6674260  59.4509840  45.4755110   9.7505020
  59.4079470  45.1048020  10.6319480  59.5820850  46.4132680   9.8906840
  63.1515870  47.0314700   5.3514740  62.9107230  47.2989260   4.4645260
  64.0918510  47.2020430   5.4065600  65.3570290  33.4947390   9.1071250
  65.2959180  34.0869220   9.8566660  66.2970670  33.3873350   8.9621510
  67.9944850  33.1517450   8.7463540  68.6085260  33.4696740   8.0844620
  68.5394410  32.6666040   9.3659400  74.4120030  49.0509080   6.1525380
  73.9178310  49.4477950   5.4352510  73.8033320  48.4258290   6.5462660
  58.5166110  31.8311710   8.8602600  59.0649100  31.6499760   8.0968710
  58.5821420  31.0405820   9.3958910  59.2897870  48.4217360   6.8702800
  58.6958190  48.2902060   7.6092840  59.2821710  47.5855500   6.4044900
  68.7352890  31.7149590   5.0732830  67.8612730  32.0484700   4.8705760
  68.6263640  31.2422770   5.8984700  69.6424870  33.9220460   6.4574550
  69.3138230  33.1072220   6.0776280  70.5907170  33.8790270   6.3340240
  72.0959480  49.6932500   3.4312120  71.6362450  50.4448310   3.0570140
  71.4671940  48.9738970   3.3726920  58.9210100  45.7875740   5.8210840
  58.1944160  45.1681030   5.7536790  58.9819250  46.1816350   4.9508920
  62.5255200  48.0020740   2.6060250  63.0420220  47.3908100   2.0808510
  63.1752580  48.5049520   3.0971260  65.2650700  48.8929230   3.4329230
  65.5528510  48.6383530   2.5562240  65.7773920  48.3406590   4.0234800
  66.4827710  32.6319430   4.0125740  65.6999500  33.1064930   4.2922500
  66.1890640  31.7274260   3.9038920  65.3323060  49.8145330  10.7997430
  66.2590370  49.5789600  10.8433390  65.3173490  50.6417330  10.3183460
  62.5186670  32.4790080  10.5639310  62.2370940  32.9823680   9.8000130
  62.9006370  31.6811830  10.1981440  69.1202130  31.8943660  11.1419780
  69.0067580  32.2138270  12.0371300  69.9371870  32.2956170  10.8457060
  71.9000620  49.0415190  10.6238470  72.6925940  48.5464420  10.4164430
  72.1933770  49.7205330  11.2314080  68.0260280  21.1392640  75.3771970
  67.9454330  20.2247250  75.1063680  67.6124700  21.6359710  74.6711680
  70.1785750  27.3231850  76.0380370  69.7167280  26.5519090  76.3667540
  70.9911300  27.3497920  76.5432820  58.5836100  18.1893360  71.9199390
  57.6952800  18.5309330  71.8179270  58.8677290  17.9893680  71.0280220
  66.4049060  29.6089860  75.6584360  65.7860500  30.0647360  75.0878800
  67.2600840  29.7641320  75.2574060  60.7597490  16.7724860  72.9537770
  60.8664240  17.6728590  73.2606530  59.8489850  16.7242830  72.6632420
  70.4116600  15.8949670  74.4248670  71.2326220  15.4046240  74.4674150
  70.4450680  16.4847330  75.1780510  67.2712410  24.4929100  73.0516270
  66.6529680  24.9578550  72.4878990  67.7835660  25.1856580  73.4685780
  56.6395610  25.1785630  70.4255900  56.2623590  25.6672730  69.6940800
  56.8968680  25.8510910  71.0562430  64.2484540  13.5802020  75.8841410
  64.5559520  13.0248910  75.1676910  63.3185240  13.7146480  75.7014400
  71.0945020  26.0185530  73.2639040  70.9841350  25.0759860  73.3888460
  71.0913270  26.3801170  74.1501800  66.6365300  21.6450850  72.6201530
  65.7094580  21.5788230  72.8490000  66.7890120  22.5830980  72.5056770
  66.6234380  17.9167850  69.6168690  65.6838050  18.0781810  69.7021150
  66.9417640  18.6353530  69.0704680  70.6662590  23.2071150  73.1236780
  70.0475010  22.8690700  72.4763080  70.6487040  22.5630910  73.8315970
  62.2421940  22.1715590  75.4021260  61.8378940  21.4592840  74.9067160
  62.3285060  21.8268830  76.2909300  68.8427290  22.4457960  70.1309530
  69.2820570  21.6080390  69.9847350  69.5555710  23.0787360  70.2173670
  66.9522670  27.3854030  74.0990770  67.3918580  28.1278360  73.6846160
  66.8909560  27.6280600  75.0229730  72.4244430  13.7000770  68.4450570
  72.1117090  13.7927600  69.3449640  73.1856900  14.2781800  68.3948000
  58.9426570  21.0660570  72.9027910  58.8224170  21.7922660  72.2909180
  58.6327460  20.2963480  72.4255820  57.8259570  25.9375900  75.1202730
  57.4187650  26.0790490  74.2656330  58.7172580  25.6536060  74.9173940
  69.6192850  30.3723150  71.4553780  69.4593990  30.0826090  72.3535610
  69.4539560  29.5963280  70.9199010  62.0981230  30.1521680  73.2325400
  61.9223710  29.2357220  73.0193200  61.2436970  30.5108970  73.4723200
  69.3218980  27.8810710  70.0151780  68.6284140  27.8788000  69.3554060
  70.0641840  27.4570030  69.5845950  68.8868910  29.5073420  74.0900270
  69.3425860  28.7262800  74.4038890  69.2261430  30.2180240  74.6341450
  61.4090230  14.4095640  76.2851580  60.9658380  15.1905180  75.9536100
  61.9675220  14.7325530  76.9922520  64.5249050  14.0306340  71.1657410
  63.9003230  14.0266210  71.8910720  64.4379170  13.1637300  70.7693380
  61.2004450  19.5329210  74.0132830  60.9745370  19.3166380  74.9179450
  60.4196980  19.9657670  73.6678800  68.4302210  19.5392580  72.6123480
  67.8311100  20.2628380  72.4287100  68.9781820  19.4769360  71.8299930
  67.0367080  18.1756120  74.6426760  67.4296650  18.4928320  73.8295450
  67.3983930  17.2968000  74.7571280  56.2601480  18.7077040  68.0759680
  56.1776150  19.6507800  68.2174670  55.9084540  18.5651950  67.1972030
  64.0599610  17.4416070  77.1430030  64.0635670  17.0006020  76.2934570
  64.9550730  17.7633400  77.2501850  59.9101990  17.3242560  76.1024240
  59.5702040  17.8017790  76.8591290  59.1479310  16.8707680  75.7425340
  64.1219760  18.4428150  70.1336790  64.2432580  18.4014630  71.0822610
  63.7368270  19.3052300  69.9783520  63.1341260  20.7529290  69.5320090
  62.5658160  20.3047540  68.9056000  63.8430260  21.1122070  68.9985240
  57.2248070  16.2461540  75.0188910  56.9394990  15.8817210  75.8567530
  57.1626930  15.5142000  74.4052050  60.6788740  24.7487480  71.8046500
  59.9051000  24.2085100  71.6445220  61.4083370  24.2294090  71.4664260
  66.8986660  15.1390800  71.7402280  66.0851270  14.6403970  71.6647590
  66.7048610  15.9789050  71.3238630  69.6135050  19.5110450  70.0364440
  70.5014670  19.8227680  69.8615780  69.5840140  18.6382700  69.6445020
  60.7226140  24.4167860  75.4425310  61.2404810  23.6136120  75.3882200
  60.2710160  24.3547000  76.2842140  65.6095640  25.6834140  70.7152610
  65.9511340  26.4276370  70.2195930  64.7808350  25.9965260  71.0777440
  71.8849320  20.8222290  69.5044300  71.8013040  21.2536510  68.6540740
  72.6043510  21.2820640  69.9371120  72.9136570  27.6764550  72.2326430
  72.2712730  27.0220170  72.5070150  72.5267230  28.0819640  71.4567100
  68.4923050  25.0049980  76.0798120  68.8446870  24.4078110  75.4199490
  67.6085380  24.6794210  76.2506370  64.5786330  25.7647670  73.4868530
  65.2657460  26.3116880  73.8676120  63.7918750  26.3088400  73.5218140
  56.7178730  21.3820490  68.9785610  57.5873580  21.6645290  69.2621530
  56.2269050  22.1956360  68.8634420  63.8813540  22.7693700  73.0993890
  64.3376320  23.5798950  73.3254080  63.5301750  22.4516840  73.9312380
  59.7825320  13.1131350  73.5716410  59.6539950  13.1049250  74.5201330
  58.9587340  13.4514440  73.2207420  71.3033950  26.5681010  68.7702780
  71.0771530  25.8511450  69.3627420  70.9130150  26.3193450  67.9324530
  57.0849980  30.5947870  69.5447240  57.4447620  31.1937210  68.8904510
  56.9442320  31.1407760  70.3182270  70.8850200  24.4852950  70.4316940
  70.5971900  24.9465640  71.2194820  71.6802370  24.0250720  70.7001160
  63.1018600  27.9779070  70.3620910  63.0928700  28.7108760  69.7465420
  62.1816960  27.7310650  70.4547870  58.7025240  23.1993960  71.1067670
  58.0953190  23.9392860  71.1162970  59.1774590  23.2893320  70.2805870
  71.6420060  16.3201720  71.5912120  71.0133220  16.4247390  70.8770350
  71.1471980  16.5398500  72.3806000  66.0878200  28.0407310  69.0246100
  66.1890180  27.8371300  68.0948080  65.1879940  27.7865590  69.2293880
  63.6104090  18.5987670  73.0070000  62.9020240  19.0674010  73.4483610
  63.8948570  17.9409680  73.6415190  67.6419520  15.3238330  74.4465790
  67.5187300  15.3424460  73.4975300  68.5904080  15.3717270  74.5664190
  64.7296310  30.5593630  73.7193770  64.9837810  30.5215020  72.7973140
  63.7808790  30.4326960  73.7122020  61.8139110  16.9072750  70.3820710
  62.6629640  17.3442900  70.3160900  61.4470380  17.2193010  71.2092770
  70.7348890  21.4785510  75.2952280  69.7939030  21.4935740  75.4699970
  71.0492960  20.6921470  75.7412580  60.7130530  23.1605110  68.8556240
  61.4793800  23.0486470  69.4181670  60.7905220  22.4643080  68.2033010
  59.4077290  20.5930180  69.5389130  59.4880880  19.6457690  69.6506530
  60.2997040  20.9237060  69.6449790  60.2092000  30.7425570  76.6423670
  60.9454480  30.1941030  76.9132240  60.5932920  31.6081580  76.5029660
  57.0937480  26.8099140  72.5165180  56.1677260  27.0520280  72.5070590
  57.5593910  27.6373400  72.3949930  63.3194310  29.9155880  68.4649240
  64.1122920  30.2044710  68.0131030  62.7998660  29.4848050  67.7861720
  72.3724480  29.1426010  69.8885980  72.0865990  28.7291150  69.0740160
  72.1744030  30.0713720  69.7686500  63.8371710  25.1359290  68.3291590
  63.7322350  24.5211640  69.0552970  63.6695930  24.6125180  67.5454600
  67.0774440  24.1979320  68.9333580  66.5284540  24.6448620  69.5776320
  67.6993700  23.6928570  69.4571250  62.7449560  23.1570240  70.8298880
  63.1665980  22.9910110  71.6730270  62.8700400  22.3470470  70.3354020
  65.2577200  22.1807850  68.0775980  65.7782860  21.4656870  67.7117130
  65.9045600  22.8193720  68.3776490  61.6408460  19.2303470  67.7757040
  61.4397520  18.3670830  68.1370380  61.4700510  19.1436830  66.8378640
  69.1196770  14.0411700  70.3043920  69.3999060  13.1979600  70.6603340
  68.3462500  14.2734810  70.8182670  60.4391260  16.3304090  67.7634920
  60.7417160  16.3371520  66.8554070  61.1785850  15.9801950  68.2602580
  63.6576190  15.2738710  68.7491120  63.3098190  14.5962700  68.1693570
  63.8588960  14.8128220  69.5634510  65.8225230  30.2619460  70.3677720
  66.7176020  30.6004430  70.3896480  65.8542860  29.5398870  69.7402000
  59.4621390  25.6346510  68.5964720  59.8996260  26.1776180  69.2522300
  59.9469120  24.8093460  68.6061060  56.6767190  28.4235540  76.0484980
  57.0070200  27.5556600  75.8163620  57.1058190  28.6294060  76.8789940
  61.2729110  26.7544550  73.7086950  60.9724650  26.6309520  74.6090860
  61.1666600  25.8953140  73.3002680  74.0421030  26.5340950  68.4113630
  73.2113990  26.6017600  68.8820860  74.2192860  27.4245070  68.1080490
  73.4977490  23.2788430  70.9147830  74.2596400  23.8485080  71.0207520
  73.5131860  22.7115630  71.6856140  56.9981830  21.8026360  75.1455490
  56.3430670  21.5338000  74.5015190  57.8359780  21.6930840  74.6957470
  74.5037460  24.1338530  75.7589760  74.8746290  23.3505850  75.3525730
  75.1439390  24.8227630  75.5807060  73.5496660  23.5722800  68.0720350
  73.8245500  24.4801680  67.9439570  73.3607400  23.5085330  69.0082340
  69.9472270  16.5967650  69.3673980  70.3657150  16.4098630  68.5270640
  69.6408330  15.7446700  69.6776910  73.4462000  21.5091790  73.0649780
  73.0705600  20.7419720  72.6331070  72.7165120  21.8914490  73.5524710
  56.2119910  19.0125290  71.0880820  55.3083990  19.2755490  70.9132480
  56.6960530  19.2836460  70.3080780  72.7212960  19.7349280  76.3657020
  73.2450440  19.2411930  75.7347190  73.3072380  19.8699640  77.1104590
  58.7547120  18.0690830  68.9975200  59.4638820  17.6474050  68.5122480
  58.0387060  18.1366060  68.3658550  58.4021280  14.1230160  68.0377850
  59.1249410  14.6639100  68.3559070  58.6745800  13.8493580  67.1619390
  72.2112930  18.9922630  72.3049430  72.7072050  18.7593500  73.0898310
  72.0129000  18.1534470  71.8887070  73.6400090  17.6283580  74.8387110
  73.5299370  17.4739620  75.7769380  74.4007680  17.1004520  74.5962520
  74.5290360  15.4591500  68.0793250  75.4539670  15.3272680  67.8711540
  74.5066150  15.5384320  69.0329700  74.6028850  16.2302160  70.7049960
  73.8080350  16.1647280  71.2342870  74.8072130  17.1652800  70.6935310
  71.5447270  30.2693710  74.6988350  72.1406340  29.9478280  74.0222770
  71.8025420  29.7965530  75.4901620  71.0348780  14.5599040  77.1548790
  71.4756870  14.5044140  76.3070390  70.7656370  15.4757050  77.2258970
  72.8987350  14.1914280  75.1657610  72.8375750  13.2475500  75.0188630
  73.6779380  14.2994370  75.7111070  57.2040100  30.3306640  74.1281560
  57.0362140  29.6977320  74.8263450  56.3374610  30.5366040  73.7775750
  57.8268120  14.1623420  71.6313420  58.5847480  14.2752300  71.0577450
  57.3645290  14.9992620  71.5856850  64.3681930  16.2762690  74.6215730
  63.5556440  15.9019580  74.2811610  64.8723570  15.5207770  74.9236920
  68.8706910  12.9405140  75.8598800  69.4736280  13.5125350  76.3347320
  68.1299900  13.5044580  75.6372700  72.0141510  13.3426700  71.1339080
  72.2092140  14.2410150  71.4006510  71.2271380  13.1113780  71.6272030
  58.8102800  29.0239870  71.5731700  58.2850420  29.4047900  70.8693660
  58.7347380  29.6490640  72.2941410  60.1993270  14.6887470  70.1715390
  60.7286030  13.9017270  70.0423340  60.8321590  15.3678660  70.4050920
  62.3931110  14.4262610  73.2260780  61.7633850  13.7249920  73.3930910
  61.8536250  15.1866740  73.0093940  73.5668120  30.5827410  72.8945640
  73.7420310  29.8965150  72.2506560  72.8689690  31.1074460  72.5022310
  61.4095770  30.9722250  70.4480950  62.1414590  30.6881530  69.9004840
  61.6689440  30.7335530  71.3380330  60.5710560  27.0886980  70.4527280
  59.9419440  27.5572080  71.0013110  60.6858390  26.2436200  70.8873470
  68.0260280  21.1392640  56.6028480  67.9454330  20.2247250  56.3320190
  67.6124700  21.6359710  55.8968190  66.1578320  22.9171660  58.4837750
  65.3820420  22.4372100  58.7736320  66.8091250  22.2377310  58.3093910
  60.1744150  23.2291470  59.3613510  59.3429030  22.9740180  59.7610020
  60.7825130  23.3002240  60.0971430  70.1785750  27.3231850  57.2636880
  69.7167280  26.5519090  57.5924050  70.9911300  27.3497920  57.7689330
  60.1545410  27.2631560  59.5571530  60.4573450  26.3729300  59.3781750
  60.8989000  27.8201780  59.3293780  58.5836100  18.1893360  53.1455900
  57.6952800  18.5309330  53.0435780  58.8677290  17.9893680  52.2536730
  56.5469110  20.7899010  59.0295600  57.1185220  20.0221210  59.0299240
  56.5470650  21.0887770  58.1202210  66.4049060  29.6089860  56.8840870
  65.7860500  30.0647360  56.3135310  67.2600840  29.7641320  56.4830570
  65.5987310  25.5928850  58.4907910  65.5295590  24.6518790  58.3297040
  66.3607170  25.6830260  59.0630480  57.7893980  16.1983370  60.8164530
  57.6096820  15.3009120  61.0967290  57.3874060  16.7455240  61.4911480
  66.6292480  18.3999230  58.7176840  67.0057300  17.5271110  58.6050510
  66.5311990  18.7357930  57.8267280  60.7597490  16.7724860  54.1794280
  60.8664240  17.6728590  54.4863040  59.8489850  16.7242830  53.8888930
  70.4116600  15.8949670  55.6505180  71.2326220  15.4046240  55.6930660
  70.4450680  16.4847330  56.4037020  58.4080650  18.6943870  59.4246870
  59.0890760  18.9582240  60.0434270  58.0928700  17.8544740  59.7584880
  62.6005220  19.7411230  58.5119460  63.1083440  20.2392200  59.1524480
  63.1318460  18.9646430  58.3358820  74.7016150  17.9116420  62.2148810
  73.9968320  18.2998130  61.6963920  74.9674070  18.6066710  62.8169740
  60.8841320  14.3809790  62.7782880  60.8859760  14.8982180  61.9728780
  60.0545630  13.9039970  62.7552810  67.2712410  24.4929100  54.2772780
  66.6529680  24.9578550  53.7135500  67.7835660  25.1856580  54.6942290
  62.1344170  24.0204970  60.9556380  61.8013550  24.6473890  61.5977450
  62.3110850  24.5466850  60.1758050  70.6478080  17.8350050  58.4232720
  69.9433650  18.1234940  59.0035830  71.0090240  18.6450160  58.0632280
  60.5656650  16.0919750  60.7853330  60.9073460  16.9361800  60.4907200
  59.6272460  16.2403490  60.9018670  61.3463270  25.9885770  62.7705560
  61.9637270  26.6636850  62.4890010  60.4856390  26.3973750  62.6793060
  56.6395610  25.1785630  51.6512410  56.2623590  25.6672730  50.9197310
  56.8968680  25.8510910  52.2818940  72.2640860  27.4525180  60.6860200
  71.5804380  28.1224290  60.6776870  72.8035150  27.6505830  59.9205060
  73.7165000  17.2804840  58.8141930  72.7689910  17.3143820  58.9457360
  74.0414990  18.0943790  59.1991290  64.2484540  13.5802020  57.1097920
  64.5559520  13.0248910  56.3933420  63.3185240  13.7146480  56.9270910
  69.7999600  29.2969310  59.4005380  69.8126760  28.8931600  58.5327640
  69.2474820  30.0716600  59.2966810  71.0945020  26.0185530  54.4895550
  70.9841350  25.0759860  54.6144970  71.0913270  26.3801170  55.3758310
  69.1985040  24.1999150  60.7287990  69.6153830  23.9859260  59.8941450
  69.9224860  24.4571940  61.2996610  66.6365300  21.6450850  53.8458040
  65.7094580  21.5788230  54.0746510  66.7890120  22.5830980  53.7313280
  66.6234380  17.9167850  50.8425200  65.6838050  18.0781810  50.9277660
  66.9417640  18.6353530  50.2961190  73.1447140  22.5986370  60.8204230
  72.3165770  22.6679460  60.3454360  73.7397620  23.1840680  60.3520060
  70.6662590  23.2071150  54.3493290  70.0475010  22.8690700  53.7019590
  70.6487040  22.5630910  55.0572480  70.1089150  19.3855690  61.7659100
  69.6960330  20.2109400  62.0199090  69.3765100  18.8000730  61.5735460
  62.2421940  22.1715590  56.6277770  61.8378940  21.4592840  56.1323670
  62.3285060  21.8268830  57.5165810  62.7103640  25.8583150  58.7916980
  62.4131930  25.2528620  58.1124760  63.6603460  25.8960460  58.6806340
  60.9550560  18.9458800  60.4076810  61.5065150  19.0554140  59.6330060
  61.4694070  19.3196400  61.1232040  70.7989250  29.4315020  62.4540080
  70.3219810  30.2387210  62.2612690  70.1151040  28.7793350  62.6066290
  61.8022070  25.5964840  65.4424780  60.9050600  25.8204810  65.6898180
  61.8274940  25.7199780  64.4936180  68.8427290  22.4457960  51.3566040
  69.2820570  21.6080390  51.2103860  69.5555710  23.0787360  51.4430180
  60.6293290  22.4678160  64.0182150  60.4901060  23.3400960  64.3869550
  59.7474650  22.1250970  63.8730090  66.9522670  27.3854030  55.3247280
  67.3918580  28.1278360  54.9102670  66.8909560  27.6280600  56.2486240
  62.4273640  28.4099860  66.2267300  62.3989070  28.8142810  65.3595730
  62.2638610  27.4810220  66.0638900  72.4244430  13.7000770  49.6707080
  72.1117090  13.7927600  50.5706150  73.1856900  14.2781800  49.6204510
  58.9426570  21.0660570  54.1284420  58.8224170  21.7922660  53.5165690
  58.6327460  20.2963480  53.6512330  74.3788460  29.1926960  67.5231470
  74.8548180  29.6709850  68.2020550  74.9995620  29.1244450  66.7976970
  56.5811940  24.2375710  59.9353060  56.6592360  24.3724480  58.9908780
  57.1953620  23.5291600  60.1281180  57.8259570  25.9375900  56.3459240
  57.4187650  26.0790490  55.4912840  58.7172580  25.6536060  56.1430450
  73.7821710  26.3839810  64.6831480  73.9084770  26.1451690  63.7648660
  73.8243090  25.5524350  65.1553560  67.6438450  30.0867810  63.2526290
  68.1583120  29.9975820  64.0548720  66.8007530  30.4327510  63.5454200
  69.6192850  30.3723150  52.6810290  69.4593990  30.0826090  53.5792120
  69.4539560  29.5963280  52.1455520  62.0981230  30.1521680  54.4581910
  61.9223710  29.2357220  54.2449710  61.2436970  30.5108970  54.6979710
  69.3218980  27.8810710  51.2408290  68.6284140  27.8788000  50.5810570
  70.0641840  27.4570030  50.8102460  68.8868910  29.5073420  55.3156780
  69.3425860  28.7262800  55.6295400  69.2261430  30.2180240  55.8597960
  73.6345720  18.4372270  65.6481220  73.0189990  18.9451940  65.1196680
  73.3142140  17.5370600  65.5907160  56.6371460  25.2789880  62.4747520
  56.8002500  24.8095240  61.6566890  57.1023910  24.7713440  63.1396360
  61.4090230  14.4095640  57.5108090  60.9658380  15.1905180  57.1792610
  61.9675220  14.7325530  58.2179030  65.6960040  17.2764160  63.1143410
  65.2339410  17.4847180  63.9263350  65.2938150  16.4623510  62.8114080
  70.6964550  18.4973110  64.2440070  69.8458140  18.1978860  64.5649140
  70.5366340  18.7415120  63.3323890  67.7914260  19.9974860  66.3438860
  68.1167670  19.1638610  66.0041090  68.5794590  20.5203380  66.4917190
  64.5249050  14.0306340  52.3913920  63.9003230  14.0266210  53.1167230
  64.4379170  13.1637300  51.9949890  63.4466130  14.9542970  59.3697690
  63.7438460  15.8605800  59.2889710  63.9951690  14.4661750  58.7557260
  61.2004450  19.5329210  55.2389340  60.9745370  19.3166380  56.1435960
  60.4196980  19.9657670  54.8935310  68.4302210  19.5392580  53.8379990
  67.8311100  20.2628380  53.6543610  68.9781820  19.4769360  53.0556440
  63.6403660  20.4314790  65.9049610  63.5447260  19.4909520  65.7550010
  64.4835640  20.6529860  65.5097680  67.0367080  18.1756120  55.8683270
  67.4296650  18.4928320  55.0551960  67.3983930  17.2968000  55.9827790
  58.7714200  16.8428460  64.0583390  58.3777590  17.6903670  64.2656170
  58.0832600  16.2054830  64.2492030  65.3459250  16.9263430  67.1280130
  64.6557570  16.7335630  67.7626220  66.0891550  17.2098070  67.6604430
  56.0731250  14.7656920  58.0913470  55.7844300  15.3359780  58.8038450
  56.8177010  14.2861370  58.4544700  56.2601480  18.7077040  49.3016190
  56.1776150  19.6507800  49.4431180  55.9084540  18.5651950  48.4228540
  67.6222220  20.7661870  59.9634050  66.8903340  21.2748680  60.3124150
  67.2246560  19.9491850  59.6622830  64.0599610  17.4416070  58.3686540
  64.0635670  17.0006020  57.5191080  64.9550730  17.7633400  58.4758360
  59.9101990  17.3242560  57.3280750  59.5702040  17.8017790  58.0847800
  59.1479310  16.8707680  56.9681850  64.1219760  18.4428150  51.3593300
  64.2432580  18.4014630  52.3079120  63.7368270  19.3052300  51.2040030
  68.0848130  16.2195550  59.3756990  68.1020870  16.6704200  60.2198840
  67.8363710  15.3201190  59.5890430  63.1341260  20.7529290  50.7576600
  62.5658160  20.3047540  50.1312510  63.8430260  21.1122070  50.2241750
  71.5118880  13.6327730  65.2143370  71.8364650  12.9017390  65.7401350
  71.5475390  13.3141370  64.3124360  58.2110440  24.6541310  64.6343330
  57.8265230  24.0134980  65.2326290  58.5222630  25.3577430  65.2038060
  64.3607580  21.5017850  60.1151950  64.7277710  21.0276420  60.8613290
  64.1712640  22.3759420  60.4560290  57.2248070  16.2461540  56.2445420
  56.9394990  15.8817210  57.0824040  57.1626930  15.5142000  55.6308560
  62.1506950  20.5426490  62.4336160  61.8464020  21.4218470  62.6586520
  63.1053410  20.6026280  62.4693600  60.6788740  24.7487480  53.0303010
  59.9051000  24.2085100  52.8701730  61.4083370  24.2294090  52.6920770
  71.4376720  23.7452840  58.8229400  72.1575840  24.2408130  58.4325510
  71.2358540  23.0670730  58.1783270  66.8986660  15.1390800  52.9658790
  66.0851270  14.6403970  52.8904100  66.7048610  15.9789050  52.5495140
  66.8195520  23.8161900  64.7098400  66.7532830  22.8957570  64.4555990
  66.1900660  23.9137340  65.4243040  69.6135050  19.5110450  51.2620950
  70.5014670  19.8227680  51.0872290  69.5840140  18.6382700  50.8701530
  60.7226140  24.4167860  56.6681820  61.2404810  23.6136120  56.6138710
  60.2710160  24.3547000  57.5098650  65.6095640  25.6834140  51.9409120
  65.9511340  26.4276370  51.4452440  64.7808350  25.9965260  52.3033950
  58.2070680  21.3829230  63.5807520  57.8485620  22.0483080  64.1680860
  57.9125240  20.5512780  63.9520140  61.4083800  21.8413470  66.4647070
  61.1083940  21.9870650  65.5674890  62.1795040  21.2818760  66.3720460
  66.7512250  26.6382470  64.4602200  66.7656790  25.7063430  64.2421110
  66.0437350  26.7242230  65.0991970  71.8849320  20.8222290  50.7300810
  71.8013040  21.2536510  49.8797250  72.6043510  21.2820640  51.1627630
  72.9623460  23.2789810  63.8070780  72.2371650  23.8718590  63.6100170
  73.4898920  23.2713350  63.0084150  72.9136570  27.6764550  53.4582940
  72.2712730  27.0220170  53.7326660  72.5267230  28.0819640  52.6823610
  68.4923050  25.0049980  57.3054630  68.8446870  24.4078110  56.6456000
  67.6085380  24.6794210  57.4762880  64.5786330  25.7647670  54.7125040
  65.2657460  26.3116880  55.0932630  63.7918750  26.3088400  54.7474650
  56.7178730  21.3820490  50.2042120  57.5873580  21.6645290  50.4878040
  56.2269050  22.1956360  50.0890930  63.8813540  22.7693700  54.3250400
  64.3376320  23.5798950  54.5510590  63.5301750  22.4516840  55.1568890
  66.1846150  28.2800040  61.5542700  66.8288370  28.4859420  62.2316120
  66.5475590  27.5188440  61.1013550  59.7825320  13.1131350  54.7972920
  59.6539950  13.1049250  55.7457840  58.9587340  13.4514440  54.4463930
  67.4578230  26.2832390  60.2720150  68.1000460  25.5825550  60.3852320
  67.9827580  27.0630830  60.0917040  71.3033950  26.5681010  49.9959290
  71.0771530  25.8511450  50.5883930  70.9130150  26.3193450  49.1581040
  69.2315850  27.0827290  63.4756210  69.5672090  27.6693980  64.1534130
  68.3116190  26.9520000  63.7054000  57.0849980  30.5947870  50.7703750
  57.4447620  31.1937210  50.1161020  56.9442320  31.1407760  51.5438780
  56.7819250  14.8722470  64.2579620  56.0677770  15.0719390  64.8632230
  57.2014290  14.0962040  64.6294420  70.8850200  24.4852950  51.6573450
  70.5971900  24.9465640  52.4451330  71.6802370  24.0250720  51.9257670
  57.0691840  28.8602730  65.2446150  57.1782960  27.9197470  65.1041540
  56.4172400  29.1257480  64.5959880  65.0604430  27.1318620  66.6444270
  64.7401300  26.4127860  67.1889960  64.3862790  27.8073690  66.7180330
  63.1018600  27.9779070  51.5877420  63.0928700  28.7108760  50.9721930
  62.1816960  27.7310650  51.6804380  58.7025240  23.1993960  52.3324180
  58.0953190  23.9392860  52.3419480  59.1774590  23.2893320  51.5062380
  68.2758030  17.3644780  62.0081070  68.6438850  16.5439990  62.3360640
  67.4156230  17.4246670  62.4236720  71.6420060  16.3201720  52.8168630
  71.0133220  16.4247390  52.1026860  71.1471980  16.5398500  53.6062510
  66.0878200  28.0407310  50.2502610  66.1890180  27.8371300  49.3204590
  65.1879940  27.7865590  50.4550390  63.6104090  18.5987670  54.2326510
  62.9020240  19.0674010  54.6740120  63.8948570  17.9409680  54.8671700
  65.2360020  20.0184370  62.2319040  65.7345270  20.4930190  62.8970890
  65.3782970  19.0947890  62.4389070  67.6419520  15.3238330  55.6722300
  67.5187300  15.3424460  54.7231810  68.5904080  15.3717270  55.7920700
  64.7296310  30.5593630  54.9450280  64.9837810  30.5215020  54.0229650
  63.7808790  30.4326960  54.9378530  61.8139110  16.9072750  51.6077220
  62.6629640  17.3442900  51.5417410  61.4470380  17.2193010  52.4349280
  72.4426880  16.2352330  63.0747430  71.9400480  16.9757730  63.4141240
  73.2583540  16.6236330  62.7584220  70.7348890  21.4785510  56.5208790
  69.7939030  21.4935740  56.6956480  71.0492960  20.6921470  56.9669090
  60.7130530  23.1605110  50.0812750  61.4793800  23.0486470  50.6438180
  60.7905220  22.4643080  49.4289520  59.4077290  20.5930180  50.7645640
  59.4880880  19.6457690  50.8763040  60.2997040  20.9237060  50.8706300
  72.7374470  28.6494360  58.1963050  72.8621890  29.4725530  58.6686860
  73.6040030  28.4385090  57.8487200  60.2092000  30.7425570  57.8680180
  60.9454480  30.1941030  58.1388750  60.5932920  31.6081580  57.7286170
  57.0937480  26.8099140  53.7421690  56.1677260  27.0520280  53.7327100
  57.5593910  27.6373400  53.6206440  59.2150280  29.9271640  67.0565760
  60.0163010  30.2483690  67.4701160  58.7002100  29.5667220  67.7785670
  63.3194310  29.9155880  49.6905750  64.1122920  30.2044710  49.2387540
  62.7998660  29.4848050  49.0118230  68.0514910  26.0351510  67.0041170
  67.4453070  26.0583110  66.2636920  67.7469020  25.3034550  67.5408420
  69.4815280  29.7631800  65.6150580  70.4337030  29.6789820  65.5650820
  69.3343500  30.4273510  66.2884370  72.3724480  29.1426010  51.1142490
  72.0865990  28.7291150  50.2996670  72.1744030  30.0713720  50.9943010
  56.9348090  22.4145100  66.0001810  57.4387110  21.8352380  66.5718040
  56.1955510  22.6985330  66.5378180  63.8371710  25.1359290  49.5548100
  63.7322350  24.5211640  50.2809480  63.6695930  24.6125180  48.7711110
  63.9886030  23.8216090  65.5337330  63.2231700  24.3901090  65.4492000
  64.1701990  23.5292300  64.6405560  67.0774440  24.1979320  50.1590090
  66.5284540  24.6448620  50.8032830  67.6993700  23.6928570  50.6827760
  71.1309380  25.5521420  66.0912350  71.8718850  25.8897180  65.5879810
  70.3682060  25.7213480  65.5382120  58.9671170  20.5574690  66.8951880
  59.0076510  20.2588560  67.8037110  59.8216670  20.9582300  66.7359400
  62.7449560  23.1570240  52.0555390  63.1665980  22.9910110  52.8986780
  62.8700400  22.3470470  51.5610530  60.9076980  19.1366790  64.8626370
  60.3773440  18.6457740  64.2349710  61.5765050  19.5650990  64.3284300
  65.2577200  22.1807850  49.3032490  65.7782860  21.4656870  48.9373640
  65.9045600  22.8193720  49.6033000  69.8055040  23.6036250  64.6267560
  70.2196060  23.7581330  65.4757980  68.8706040  23.7291470  64.7893340
  70.2777210  20.9432410  66.6306710  70.8597980  20.1884730  66.5427190
  70.4538980  21.4739850  65.8538190  61.3949280  16.1029160  64.9423660
  61.3006150  15.4849910  64.2174530  60.8146670  16.8295450  64.7153570
  64.1610720  14.6602400  61.9751050  63.7128020  14.6826660  61.1296600
  63.5275920  14.2621420  62.5721350  64.5670270  23.5556730  62.5963490
  64.9858380  24.3989460  62.4239730  63.6478900  23.6928770  62.3670270
  66.9034170  21.2872910  63.9801330  67.0230380  20.6914050  64.7196170
  67.7628170  21.3242600  63.5602630  69.2422070  21.8410100  62.5563840
  68.7157290  22.3652720  61.9528980  69.5853410  22.4737490  63.1873570
  61.6408460  19.2303470  49.0013550  61.4397520  18.3670830  49.3626890
  61.4700510  19.1436830  48.0635150  62.4177690  29.8609740  63.7121220
  61.8798780  30.5855800  63.3929920  62.6711650  29.3840080  62.9218560
  63.6702940  17.8294260  65.2377150  64.2602630  17.5210110  65.9254970
  62.8523180  17.3574010  65.3937050  68.4896370  17.4460070  65.4710170
  67.8011890  16.7841610  65.4060160  69.2102390  16.9998340  65.9158630
  69.1196770  14.0411700  51.5300430  69.3999060  13.1979600  51.8859850
  68.3462500  14.2734810  52.0439180  60.4391260  16.3304090  48.9891430
  60.7417160  16.3371520  48.0810580  61.1785850  15.9801950  49.4859090
  65.2739900  31.0960950  63.9707870  65.1998600  31.9996090  64.2780240
  64.3718740  30.7772850  63.9429940  63.6576190  15.2738710  49.9747630
  63.3098190  14.5962700  49.3950080  63.8588960  14.8128220  50.7891020
  65.8225230  30.2619460  51.5934230  66.7176020  30.6004430  51.6152990
  65.8542860  29.5398870  50.9658510  59.4621390  25.6346510  49.8221230
  59.8996260  26.1776180  50.4778810  59.9469120  24.8093460  49.8317570
  56.6767190  28.4235540  57.2741490  57.0070200  27.5556600  57.0420130
  57.1058190  28.6294060  58.1046450  61.2729110  26.7544550  54.9343460
  60.9724650  26.6309520  55.8347370  61.1666600  25.8953140  54.5259190
  57.1657400  29.2906130  60.0123120  56.7288390  29.4706930  60.8447270
  57.7335080  30.0480750  59.8704840  72.8019580  28.7923130  64.3000430
  72.2021570  28.8515690  63.5564350  72.9313480  27.8528110  64.4297280
  74.0421030  26.5340950  49.6370140  73.2113990  26.6017600  50.1077370
  74.2192860  27.4245070  49.3337000  73.4977490  23.2788430  52.1404340
  74.2596400  23.8485080  52.2464030  73.5131860  22.7115630  52.9112650
  56.9981830  21.8026360  56.3712000  56.3430670  21.5338000  55.7271700
  57.8359780  21.6930840  55.9213980  74.5037460  24.1338530  56.9846270
  74.8746290  23.3505850  56.5782240  75.1439390  24.8227630  56.8063570
  71.4871220  25.5175110  62.3976590  70.6731060  25.9472270  62.6602380
  71.8945420  26.1293520  61.7845640  73.5496660  23.5722800  49.2976860
  73.8245500  24.4801680  49.1696080  73.3607400  23.5085330  50.2338850
  69.9472270  16.5967650  50.5930490  70.3657150  16.4098630  49.7527150
  69.6408330  15.7446700  50.9033420  73.4462000  21.5091790  54.2906290
  73.0705600  20.7419720  53.8587580  72.7165120  21.8914490  54.7781220
  58.0357760  22.1878930  60.9115340  58.4030800  22.1006330  61.7911360
  57.4668580  21.4245480  60.8122200  72.8361620  20.6563310  63.9245810
  72.6047710  20.4276060  63.0243760  73.0966170  21.5762860  63.8790700
  57.5873760  19.0988020  64.8173760  56.6929810  19.0654780  65.1567470
  58.1271310  19.2974810  65.5825010  71.2749690  15.8819740  66.7025510
  72.1519870  15.8903140  67.0859510  71.2870530  15.1450580  66.0917860
  56.2119910  19.0125290  52.3137330  55.3083990  19.2755490  52.1388990
  56.6960530  19.2836460  51.5337290  72.7212960  19.7349280  57.5913530
  73.2450440  19.2411930  56.9603700  73.3072380  19.8699640  58.3361100
  72.9002680  19.8189150  61.1133080  71.9505390  19.7852690  61.2278070
  73.0815690  20.7289260  60.8782850  58.7547120  18.0690830  50.2231710
  59.4638820  17.6474050  49.7378990  58.0387060  18.1366060  49.5915060
  58.4021280  14.1230160  49.2634360  59.1249410  14.6639100  49.5815580
  58.6745800  13.8493580  48.3875900  72.2112930  18.9922630  53.5305940
  72.7072050  18.7593500  54.3154820  72.0129000  18.1534470  53.1143580
  58.0913470  13.3736350  59.1656980  58.7389660  12.8233730  58.7252140
  58.5115310  13.6279500  59.9872790  73.6400090  17.6283580  56.0643620
  73.5299370  17.4739620  57.0025890  74.4007680  17.1004520  55.8219030
  71.9865810  13.5677710  62.5226620  72.6238030  14.1811850  62.8885810
  72.1340700  13.6038370  61.5775850  74.5290360  15.4591500  49.3049760
  75.4539670  15.3272680  49.0968050  74.5066150  15.5384320  50.2586210
  74.6028850  16.2302160  51.9306470  73.8080350  16.1647280  52.4599380
  74.8072130  17.1652800  51.9191820  71.5447270  30.2693710  55.9244860
  72.1406340  29.9478280  55.2479280  71.8025420  29.7965530  56.7158130
  57.8445470  13.5292020  61.9082300  57.4960290  13.9855840  62.6740480
  57.5133170  12.6349150  61.9904730  59.4509840  26.7011620  66.0735490
  59.4079470  26.3304530  66.9549950  59.5820850  27.6389190  66.2137310
  63.1515870  28.2571210  61.6745210  62.9107230  28.5245770  60.7875730
  64.0918510  28.4276940  61.7296070  65.3570290  14.7203900  65.4301720
  65.2959180  15.3125730  66.1797130  66.2970670  14.6129860  65.2851980
  67.9944850  14.3773960  65.0694010  68.6085260  14.6953250  64.4075090
  68.5394410  13.8922550  65.6889870  74.4120030  30.2765590  62.4755850
  73.9178310  30.6734460  61.7582980  73.8033320  29.6514800  62.8693130
  58.5166110  13.0568220  65.1833070  59.0649100  12.8756270  64.4199180
  58.5821420  12.2662330  65.7189380  59.2897870  29.6473870  63.1933270
  58.6958190  29.5158570  63.9323310  59.2821710  28.8112010  62.7275370
  68.7352890  12.9406100  61.3963300  67.8612730  13.2741210  61.1936230
  68.6263640  12.4679280  62.2215170  69.6424870  15.1476970  62.7805020
  69.3138230  14.3328730  62.4006750  70.5907170  15.1046780  62.6570710
  72.0959480  30.9189010  59.7542590  71.6362450  31.6704820  59.3800610
  71.4671940  30.1995480  59.6957390  58.9210100  27.0132250  62.1441310
  58.1944160  26.3937540  62.0767260  58.9819250  27.4072860  61.2739390
  62.5255200  29.2277250  58.9290720  63.0420220  28.6164610  58.4038980
  63.1752580  29.7306030  59.4201730  65.2650700  30.1185740  59.7559700
  65.5528510  29.8640040  58.8792710  65.7773920  29.5663100  60.3465270
  66.4827710  13.8575940  60.3356210  65.6999500  14.3321440  60.6152970
  66.1890640  12.9530770  60.2269390  71.0348780  14.5599040  58.3805300
  71.4756870  14.5044140  57.5326900  70.7656370  15.4757050  58.4515480
  72.8987350  14.1914280  56.3914120  72.8375750  13.2475500  56.2445140
  73.6779380  14.2994370  56.9367580  57.2040100  30.3306640  55.3538070
  57.0362140  29.6977320  56.0519960  56.3374610  30.5366040  55.0032260
  57.8268120  14.1623420  52.8569930  58.5847480  14.2752300  52.2833960
  57.3645290  14.9992620  52.8113360  64.3681930  16.2762690  55.8472240
  63.5556440  15.9019580  55.5068120  64.8723570  15.5207770  56.1493430
  68.8706910  12.9405140  57.0855310  69.4736280  13.5125350  57.5603830
  68.1299900  13.5044580  56.8629210  72.0141510  13.3426700  52.3595590
  72.2092140  14.2410150  52.6263020  71.2271380  13.1113780  52.8528540
  58.8102800  29.0239870  52.7988210  58.2850420  29.4047900  52.0950170
  58.7347380  29.6490640  53.5197920  60.1993270  14.6887470  51.3971900
  60.7286030  13.9017270  51.2679850  60.8321590  15.3678660  51.6307430
  62.3931110  14.4262610  54.4517290  61.7633850  13.7249920  54.6187420
  61.8536250  15.1866740  54.2350450  65.3323060  31.0401840  67.1227900
  66.2590370  30.8046110  67.1663860  65.3173490  31.8673840  66.6413930
  73.5668120  30.5827410  54.1202150  73.7420310  29.8965150  53.4763070
  72.8689690  31.1074460  53.7278820  62.5186670  13.7046590  66.8869780
  62.2370940  14.2080190  66.1230600  62.9006370  12.9068340  66.5211910
  61.4095770  30.9722250  51.6737460  62.1414590  30.6881530  51.1261350
  61.6689440  30.7335530  52.5636840  60.5710560  27.0886980  51.6783790
  59.9419440  27.5572080  52.2269620  60.6858390  26.2436200  52.1129980
  69.1202130  13.1200170  67.4650250  69.0067580  13.4394780  68.3601770
  69.9371870  13.5212680  67.1687530  71.9000620  30.2671700  66.9468940
  72.6925940  29.7720930  66.7394900  72.1933770  30.9461840  67.5544550
  68.0260280  21.1392640  37.8284990  67.9454330  20.2247250  37.5576700
  67.6124700  21.6359710  37.1224700  66.1578320  22.9171660  39.7094260
  65.3820420  22.4372100  39.9992830  66.8091250  22.2377310  39.5350420
  60.1744150  23.2291470  40.5870020  59.3429030  22.9740180  40.9866530
  60.7825130  23.3002240  41.3227940  70.1785750  27.3231850  38.4893390
  69.7167280  26.5519090  38.8180560  70.9911300  27.3497920  38.9945840
  60.1545410  27.2631560  40.7828040  60.4573450  26.3729300  40.6038260
  60.8989000  27.8201780  40.5550290  58.5836100  18.1893360  34.3712410
  57.6952800  18.5309330  34.2692290  58.8677290  17.9893680  33.4793240
  56.5469110  20.7899010  40.2552110  57.1185220  20.0221210  40.2555750
  56.5470650  21.0887770  39.3458720  66.4049060  29.6089860  38.1097380
  65.7860500  30.0647360  37.5391820  67.2600840  29.7641320  37.7087080
  65.5987310  25.5928850  39.7164420  65.5295590  24.6518790  39.5553550
  66.3607170  25.6830260  40.2886990  57.7893980  16.1983370  42.0421040
  57.6096820  15.3009120  42.3223800  57.3874060  16.7455240  42.7167990
  66.6292480  18.3999230  39.9433350  67.0057300  17.5271110  39.8307020
  66.5311990  18.7357930  39.0523790  60.7597490  16.7724860  35.4050790
  60.8664240  17.6728590  35.7119550  59.8489850  16.7242830  35.1145440
  70.4116600  15.8949670  36.8761690  71.2326220  15.4046240  36.9187170
  70.4450680  16.4847330  37.6293530  58.4080650  18.6943870  40.6503380
  59.0890760  18.9582240  41.2690780  58.0928700  17.8544740  40.9841390
  62.6005220  19.7411230  39.7375970  63.1083440  20.2392200  40.3780990
  63.1318460  18.9646430  39.5615330  74.7016150  17.9116420  43.4405320
  73.9968320  18.2998130  42.9220430  74.9674070  18.6066710  44.0426250
  60.8841320  14.3809790  44.0039390  60.8859760  14.8982180  43.1985290
  60.0545630  13.9039970  43.9809320  67.2712410  24.4929100  35.5029290
  66.6529680  24.9578550  34.9392010  67.7835660  25.1856580  35.9198800
  62.1344170  24.0204970  42.1812890  61.8013550  24.6473890  42.8233960
  62.3110850  24.5466850  41.4014560  70.6478080  17.8350050  39.6489230
  69.9433650  18.1234940  40.2292340  71.0090240  18.6450160  39.2888790
  60.5656650  16.0919750  42.0109840  60.9073460  16.9361800  41.7163710
  59.6272460  16.2403490  42.1275180  61.3463270  25.9885770  43.9962070
  61.9637270  26.6636850  43.7146520  60.4856390  26.3973750  43.9049570
  56.6395610  25.1785630  32.8768920  56.2623590  25.6672730  32.1453820
  56.8968680  25.8510910  33.5075450  72.2640860  27.4525180  41.9116710
  71.5804380  28.1224290  41.9033380  72.8035150  27.6505830  41.1461570
  73.7165000  17.2804840  40.0398440  72.7689910  17.3143820  40.1713870
  74.0414990  18.0943790  40.4247800  64.2484540  13.5802020  38.3354430
  64.5559520  13.0248910  37.6189930  63.3185240  13.7146480  38.1527420
  69.7999600  29.2969310  40.6261890  69.8126760  28.8931600  39.7584150
  69.2474820  30.0716600  40.5223320  71.0945020  26.0185530  35.7152060
  70.9841350  25.0759860  35.8401480  71.0913270  26.3801170  36.6014820
  69.1985040  24.1999150  41.9544500  69.6153830  23.9859260  41.1197960
  69.9224860  24.4571940  42.5253120  66.6365300  21.6450850  35.0714550
  65.7094580  21.5788230  35.3003020  66.7890120  22.5830980  34.9569790
  66.6234380  17.9167850  32.0681710  65.6838050  18.0781810  32.1534170
  66.9417640  18.6353530  31.5217700  73.1447140  22.5986370  42.0460740
  72.3165770  22.6679460  41.5710870  73.7397620  23.1840680  41.5776570
  70.6662590  23.2071150  35.5749800  70.0475010  22.8690700  34.9276100
  70.6487040  22.5630910  36.2828990  70.1089150  19.3855690  42.9915610
  69.6960330  20.2109400  43.2455600  69.3765100  18.8000730  42.7991970
  62.2421940  22.1715590  37.8534280  61.8378940  21.4592840  37.3580180
  62.3285060  21.8268830  38.7422320  62.7103640  25.8583150  40.0173490
  62.4131930  25.2528620  39.3381270  63.6603460  25.8960460  39.9062850
  60.9550560  18.9458800  41.6333320  61.5065150  19.0554140  40.8586570
  61.4694070  19.3196400  42.3488550  70.7989250  29.4315020  43.6796590
  70.3219810  30.2387210  43.4869200  70.1151040  28.7793350  43.8322800
  61.8022070  25.5964840  46.6681290  60.9050600  25.8204810  46.9154690
  61.8274940  25.7199780  45.7192690  68.8427290  22.4457960  32.5822550
  69.2820570  21.6080390  32.4360370  69.5555710  23.0787360  32.6686690
  60.6293290  22.4678160  45.2438660  60.4901060  23.3400960  45.6126060
  59.7474650  22.1250970  45.0986600  66.9522670  27.3854030  36.5503790
  67.3918580  28.1278360  36.1359180  66.8909560  27.6280600  37.4742750
  62.4273640  28.4099860  47.4523810  62.3989070  28.8142810  46.5852240
  62.2638610  27.4810220  47.2895410  72.4244430  13.7000770  30.8963590
  72.1117090  13.7927600  31.7962660  73.1856900  14.2781800  30.8461020
  58.9426570  21.0660570  35.3540930  58.8224170  21.7922660  34.7422200
  58.6327460  20.2963480  34.8768840  74.3788460  29.1926960  48.7487980
  74.8548180  29.6709850  49.4277060  74.9995620  29.1244450  48.0233480
  56.5811940  24.2375710  41.1609570  56.6592360  24.3724480  40.2165290
  57.1953620  23.5291600  41.3537690  57.8259570  25.9375900  37.5715750
  57.4187650  26.0790490  36.7169350  58.7172580  25.6536060  37.3686960
  73.7821710  26.3839810  45.9087990  73.9084770  26.1451690  44.9905170
  73.8243090  25.5524350  46.3810070  67.6438450  30.0867810  44.4782800
  68.1583120  29.9975820  45.2805230  66.8007530  30.4327510  44.7710710
  69.6192850  30.3723150  33.9066800  69.4593990  30.0826090  34.8048630
  69.4539560  29.5963280  33.3712030  62.0981230  30.1521680  35.6838420
  61.9223710  29.2357220  35.4706220  61.2436970  30.5108970  35.9236220
  69.3218980  27.8810710  32.4664800  68.6284140  27.8788000  31.8067080
  70.0641840  27.4570030  32.0358970  68.8868910  29.5073420  36.5413290
  69.3425860  28.7262800  36.8551910  69.2261430  30.2180240  37.0854470
  73.6345720  18.4372270  46.8737730  73.0189990  18.9451940  46.3453190
  73.3142140  17.5370600  46.8163670  56.6371460  25.2789880  43.7004030
  56.8002500  24.8095240  42.8823400  57.1023910  24.7713440  44.3652870
  61.4090230  14.4095640  38.7364600  60.9658380  15.1905180  38.4049120
  61.9675220  14.7325530  39.4435540  65.6960040  17.2764160  44.3399920
  65.2339410  17.4847180  45.1519860  65.2938150  16.4623510  44.0370590
  70.6964550  18.4973110  45.4696580  69.8458140  18.1978860  45.7905650
  70.5366340  18.7415120  44.5580400  67.7914260  19.9974860  47.5695370
  68.1167670  19.1638610  47.2297600  68.5794590  20.5203380  47.7173700
  64.5249050  14.0306340  33.6170430  63.9003230  14.0266210  34.3423740
  64.4379170  13.1637300  33.2206400  63.4466130  14.9542970  40.5954200
  63.7438460  15.8605800  40.5146220  63.9951690  14.4661750  39.9813770
  61.2004450  19.5329210  36.4645850  60.9745370  19.3166380  37.3692470
  60.4196980  19.9657670  36.1191820  68.4302210  19.5392580  35.0636500
  67.8311100  20.2628380  34.8800120  68.9781820  19.4769360  34.2812950
  63.6403660  20.4314790  47.1306120  63.5447260  19.4909520  46.9806520
  64.4835640  20.6529860  46.7354190  67.0367080  18.1756120  37.0939780
  67.4296650  18.4928320  36.2808470  67.3983930  17.2968000  37.2084300
  58.7714200  16.8428460  45.2839900  58.3777590  17.6903670  45.4912680
  58.0832600  16.2054830  45.4748540  65.3459250  16.9263430  48.3536640
  64.6557570  16.7335630  48.9882730  66.0891550  17.2098070  48.8860940
  56.0731250  14.7656920  39.3169980  55.7844300  15.3359780  40.0294960
  56.8177010  14.2861370  39.6801210  56.2601480  18.7077040  30.5272700
  56.1776150  19.6507800  30.6687690  55.9084540  18.5651950  29.6485050
  67.6222220  20.7661870  41.1890560  66.8903340  21.2748680  41.5380660
  67.2246560  19.9491850  40.8879340  64.0599610  17.4416070  39.5943050
  64.0635670  17.0006020  38.7447590  64.9550730  17.7633400  39.7014870
  59.9101990  17.3242560  38.5537260  59.5702040  17.8017790  39.3104310
  59.1479310  16.8707680  38.1938360  64.1219760  18.4428150  32.5849810
  64.2432580  18.4014630  33.5335630  63.7368270  19.3052300  32.4296540
  68.0848130  16.2195550  40.6013500  68.1020870  16.6704200  41.4455350
  67.8363710  15.3201190  40.8146940  63.1341260  20.7529290  31.9833110
  62.5658160  20.3047540  31.3569020  63.8430260  21.1122070  31.4498260
  71.5118880  13.6327730  46.4399880  71.8364650  12.9017390  46.9657860
  71.5475390  13.3141370  45.5380870  58.2110440  24.6541310  45.8599840
  57.8265230  24.0134980  46.4582800  58.5222630  25.3577430  46.4294570
  64.3607580  21.5017850  41.3408460  64.7277710  21.0276420  42.0869800
  64.1712640  22.3759420  41.6816800  57.2248070  16.2461540  37.4701930
  56.9394990  15.8817210  38.3080550  57.1626930  15.5142000  36.8565070
  62.1506950  20.5426490  43.6592670  61.8464020  21.4218470  43.8843030
  63.1053410  20.6026280  43.6950110  60.6788740  24.7487480  34.2559520
  59.9051000  24.2085100  34.0958240  61.4083370  24.2294090  33.9177280
  71.4376720  23.7452840  40.0485910  72.1575840  24.2408130  39.6582020
  71.2358540  23.0670730  39.4039780  66.8986660  15.1390800  34.1915300
  66.0851270  14.6403970  34.1160610  66.7048610  15.9789050  33.7751650
  66.8195520  23.8161900  45.9354910  66.7532830  22.8957570  45.6812500
  66.1900660  23.9137340  46.6499550  69.6135050  19.5110450  32.4877460
  70.5014670  19.8227680  32.3128800  69.5840140  18.6382700  32.0958040
  60.7226140  24.4167860  37.8938330  61.2404810  23.6136120  37.8395220
  60.2710160  24.3547000  38.7355160  65.6095640  25.6834140  33.1665630
  65.9511340  26.4276370  32.6708950  64.7808350  25.9965260  33.5290460
  58.2070680  21.3829230  44.8064030  57.8485620  22.0483080  45.3937370
  57.9125240  20.5512780  45.1776650  61.4083800  21.8413470  47.6903580
  61.1083940  21.9870650  46.7931400  62.1795040  21.2818760  47.5976970
  66.7512250  26.6382470  45.6858710  66.7656790  25.7063430  45.4677620
  66.0437350  26.7242230  46.3248480  71.8849320  20.8222290  31.9557320
  71.8013040  21.2536510  31.1053760  72.6043510  21.2820640  32.3884140
  72.9623460  23.2789810  45.0327290  72.2371650  23.8718590  44.8356680
  73.4898920  23.2713350  44.2340660  72.9136570  27.6764550  34.6839450
  72.2712730  27.0220170  34.9583170  72.5267230  28.0819640  33.9080120
  68.4923050  25.0049980  38.5311140  68.8446870  24.4078110  37.8712510
  67.6085380  24.6794210  38.7019390  64.5786330  25.7647670  35.9381550
  65.2657460  26.3116880  36.3189140  63.7918750  26.3088400  35.9731160
  56.7178730  21.3820490  31.4298630  57.5873580  21.6645290  31.7134550
  56.2269050  22.1956360  31.3147440  63.8813540  22.7693700  35.5506910
  64.3376320  23.5798950  35.7767100  63.5301750  22.4516840  36.3825400
  66.1846150  28.2800040  42.7799210  66.8288370  28.4859420  43.4572630
  66.5475590  27.5188440  42.3270060  59.7825320  13.1131350  36.0229430
  59.6539950  13.1049250  36.9714350  58.9587340  13.4514440  35.6720440
  67.4578230  26.2832390  41.4976660  68.1000460  25.5825550  41.6108830
  67.9827580  27.0630830  41.3173550  71.3033950  26.5681010  31.2215800
  71.0771530  25.8511450  31.8140440  70.9130150  26.3193450  30.3837550
  69.2315850  27.0827290  44.7012720  69.5672090  27.6693980  45.3790640
  68.3116190  26.9520000  44.9310510  57.0849980  30.5947870  31.9960260
  57.4447620  31.1937210  31.3417530  56.9442320  31.1407760  32.7695290
  56.7819250  14.8722470  45.4836130  56.0677770  15.0719390  46.0888740
  57.2014290  14.0962040  45.8550930  70.8850200  24.4852950  32.8829960
  70.5971900  24.9465640  33.6707840  71.6802370  24.0250720  33.1514180
  57.0691840  28.8602730  46.4702660  57.1782960  27.9197470  46.3298050
  56.4172400  29.1257480  45.8216390  65.0604430  27.1318620  47.8700780
  64.7401300  26.4127860  48.4146470  64.3862790  27.8073690  47.9436840
  63.1018600  27.9779070  32.8133930  63.0928700  28.7108760  32.1978440
  62.1816960  27.7310650  32.9060890  58.7025240  23.1993960  33.5580690
  58.0953190  23.9392860  33.5675990  59.1774590  23.2893320  32.7318890
  68.2758030  17.3644780  43.2337580  68.6438850  16.5439990  43.5617150
  67.4156230  17.4246670  43.6493230  71.6420060  16.3201720  34.0425140
  71.0133220  16.4247390  33.3283370  71.1471980  16.5398500  34.8319020
  66.0878200  28.0407310  31.4759120  66.1890180  27.8371300  30.5461100
  65.1879940  27.7865590  31.6806900  63.6104090  18.5987670  35.4583020
  62.9020240  19.0674010  35.8996630  63.8948570  17.9409680  36.0928210
  65.2360020  20.0184370  43.4575550  65.7345270  20.4930190  44.1227400
  65.3782970  19.0947890  43.6645580  67.6419520  15.3238330  36.8978810
  67.5187300  15.3424460  35.9488320  68.5904080  15.3717270  37.0177210
  64.7296310  30.5593630  36.1706790  64.9837810  30.5215020  35.2486160
  63.7808790  30.4326960  36.1635040  61.8139110  16.9072750  32.8333730
  62.6629640  17.3442900  32.7673920  61.4470380  17.2193010  33.6605790
  72.4426880  16.2352330  44.3003940  71.9400480  16.9757730  44.6397750
  73.2583540  16.6236330  43.9840730  70.7348890  21.4785510  37.7465300
  69.7939030  21.4935740  37.9212990  71.0492960  20.6921470  38.1925600
  60.7130530  23.1605110  31.3069260  61.4793800  23.0486470  31.8694690
  60.7905220  22.4643080  30.6546030  59.4077290  20.5930180  31.9902150
  59.4880880  19.6457690  32.1019550  60.2997040  20.9237060  32.0962810
  72.7374470  28.6494360  39.4219560  72.8621890  29.4725530  39.8943370
  73.6040030  28.4385090  39.0743710  60.2092000  30.7425570  39.0936690
  60.9454480  30.1941030  39.3645260  60.5932920  31.6081580  38.9542680
  57.0937480  26.8099140  34.9678200  56.1677260  27.0520280  34.9583610
  57.5593910  27.6373400  34.8462950  59.2150280  29.9271640  48.2822270
  60.0163010  30.2483690  48.6957670  58.7002100  29.5667220  49.0042180
  63.3194310  29.9155880  30.9162260  64.1122920  30.2044710  30.4644050
  62.7998660  29.4848050  30.2374740  68.0514910  26.0351510  48.2297680
  67.4453070  26.0583110  47.4893430  67.7469020  25.3034550  48.7664930
  69.4815280  29.7631800  46.8407090  70.4337030  29.6789820  46.7907330
  69.3343500  30.4273510  47.5140880  72.3724480  29.1426010  32.3399000
  72.0865990  28.7291150  31.5253180  72.1744030  30.0713720  32.2199520
  56.9348090  22.4145100  47.2258320  57.4387110  21.8352380  47.7974550
  56.1955510  22.6985330  47.7634690  63.8371710  25.1359290  30.7804610
  63.7322350  24.5211640  31.5065990  63.6695930  24.6125180  29.9967620
  63.9886030  23.8216090  46.7593840  63.2231700  24.3901090  46.6748510
  64.1701990  23.5292300  45.8662070  67.0774440  24.1979320  31.3846600
  66.5284540  24.6448620  32.0289340  67.6993700  23.6928570  31.9084270
  71.1309380  25.5521420  47.3168860  71.8718850  25.8897180  46.8136320
  70.3682060  25.7213480  46.7638630  58.9671170  20.5574690  48.1208390
  59.0076510  20.2588560  49.0293620  59.8216670  20.9582300  47.9615910
  62.7449560  23.1570240  33.2811900  63.1665980  22.9910110  34.1243290
  62.8700400  22.3470470  32.7867040  60.9076980  19.1366790  46.0882880
  60.3773440  18.6457740  45.4606220  61.5765050  19.5650990  45.5540810
  65.2577200  22.1807850  30.5289000  65.7782860  21.4656870  30.1630150
  65.9045600  22.8193720  30.8289510  69.8055040  23.6036250  45.8524070
  70.2196060  23.7581330  46.7014490  68.8706040  23.7291470  46.0149850
  70.2777210  20.9432410  47.8563220  70.8597980  20.1884730  47.7683700
  70.4538980  21.4739850  47.0794700  61.3949280  16.1029160  46.1680170
  61.3006150  15.4849910  45.4431040  60.8146670  16.8295450  45.9410080
  64.1610720  14.6602400  43.2007560  63.7128020  14.6826660  42.3553110
  63.5275920  14.2621420  43.7977860  64.5670270  23.5556730  43.8220000
  64.9858380  24.3989460  43.6496240  63.6478900  23.6928770  43.5926780
  66.9034170  21.2872910  45.2057840  67.0230380  20.6914050  45.9452680
  67.7628170  21.3242600  44.7859140  69.2422070  21.8410100  43.7820350
  68.7157290  22.3652720  43.1785490  69.5853410  22.4737490  44.4130080
  61.6408460  19.2303470  30.2270060  61.4397520  18.3670830  30.5883400
  61.4700510  19.1436830  29.2891660  62.4177690  29.8609740  44.9377730
  61.8798780  30.5855800  44.6186430  62.6711650  29.3840080  44.1475070
  63.6702940  17.8294260  46.4633660  64.2602630  17.5210110  47.1511480
  62.8523180  17.3574010  46.6193560  68.4896370  17.4460070  46.6966680
  67.8011890  16.7841610  46.6316670  69.2102390  16.9998340  47.1415140
  69.1196770  14.0411700  32.7556940  69.3999060  13.1979600  33.1116360
  68.3462500  14.2734810  33.2695690  60.4391260  16.3304090  30.2147940
  60.7417160  16.3371520  29.3067090  61.1785850  15.9801950  30.7115600
  65.2739900  31.0960950  45.1964380  65.1998600  31.9996090  45.5036750
  64.3718740  30.7772850  45.1686450  63.6576190  15.2738710  31.2004140
  63.3098190  14.5962700  30.6206590  63.8588960  14.8128220  32.0147530
  65.8225230  30.2619460  32.8190740  66.7176020  30.6004430  32.8409500
  65.8542860  29.5398870  32.1915020  59.4621390  25.6346510  31.0477740
  59.8996260  26.1776180  31.7035320  59.9469120  24.8093460  31.0574080
  56.6767190  28.4235540  38.4998000  57.0070200  27.5556600  38.2676640
  57.1058190  28.6294060  39.3302960  61.2729110  26.7544550  36.1599970
  60.9724650  26.6309520  37.0603880  61.1666600  25.8953140  35.7515700
  57.1657400  29.2906130  41.2379630  56.7288390  29.4706930  42.0703780
  57.7335080  30.0480750  41.0961350  72.8019580  28.7923130  45.5256940
  72.2021570  28.8515690  44.7820860  72.9313480  27.8528110  45.6553790
  74.0421030  26.5340950  30.8626650  73.2113990  26.6017600  31.3333880
  74.2192860  27.4245070  30.5593510  73.4977490  23.2788430  33.3660850
  74.2596400  23.8485080  33.4720540  73.5131860  22.7115630  34.1369160
  56.9981830  21.8026360  37.5968510  56.3430670  21.5338000  36.9528210
  57.8359780  21.6930840  37.1470490  74.5037460  24.1338530  38.2102780
  74.8746290  23.3505850  37.8038750  75.1439390  24.8227630  38.0320080
  71.4871220  25.5175110  43.6233100  70.6731060  25.9472270  43.8858890
  71.8945420  26.1293520  43.0102150  73.5496660  23.5722800  30.5233370
  73.8245500  24.4801680  30.3952590  73.3607400  23.5085330  31.4595360
  69.9472270  16.5967650  31.8187000  70.3657150  16.4098630  30.9783660
  69.6408330  15.7446700  32.1289930  73.4462000  21.5091790  35.5162800
  73.0705600  20.7419720  35.0844090  72.7165120  21.8914490  36.0037730
  58.0357760  22.1878930  42.1371850  58.4030800  22.1006330  43.0167870
  57.4668580  21.4245480  42.0378710  72.8361620  20.6563310  45.1502320
  72.6047710  20.4276060  44.2500270  73.0966170  21.5762860  45.1047210
  57.5873760  19.0988020  46.0430270  56.6929810  19.0654780  46.3823980
  58.1271310  19.2974810  46.8081520  71.2749690  15.8819740  47.9282020
  72.1519870  15.8903140  48.3116020  71.2870530  15.1450580  47.3174370
  56.2119910  19.0125290  33.5393840  55.3083990  19.2755490  33.3645500
  56.6960530  19.2836460  32.7593800  72.7212960  19.7349280  38.8170040
  73.2450440  19.2411930  38.1860210  73.3072380  19.8699640  39.5617610
  72.9002680  19.8189150  42.3389590  71.9505390  19.7852690  42.4534580
  73.0815690  20.7289260  42.1039360  58.7547120  18.0690830  31.4488220
  59.4638820  17.6474050  30.9635500  58.0387060  18.1366060  30.8171570
  58.4021280  14.1230160  30.4890870  59.1249410  14.6639100  30.8072090
  58.6745800  13.8493580  29.6132410  72.2112930  18.9922630  34.7562450
  72.7072050  18.7593500  35.5411330  72.0129000  18.1534470  34.3400090
  58.0913470  13.3736350  40.3913490  58.7389660  12.8233730  39.9508650
  58.5115310  13.6279500  41.2129300  73.6400090  17.6283580  37.2900130
  73.5299370  17.4739620  38.2282400  74.4007680  17.1004520  37.0475540
  71.9865810  13.5677710  43.7483130  72.6238030  14.1811850  44.1142320
  72.1340700  13.6038370  42.8032360  74.5290360  15.4591500  30.5306270
  75.4539670  15.3272680  30.3224560  74.5066150  15.5384320  31.4842720
  74.6028850  16.2302160  33.1562980  73.8080350  16.1647280  33.6855890
  74.8072130  17.1652800  33.1448330  71.5447270  30.2693710  37.1501370
  72.1406340  29.9478280  36.4735790  71.8025420  29.7965530  37.9414640
  57.8445470  13.5292020  43.1338810  57.4960290  13.9855840  43.8996990
  57.5133170  12.6349150  43.2161240  59.4509840  26.7011620  47.2992000
  59.4079470  26.3304530  48.1806460  59.5820850  27.6389190  47.4393820
  63.1515870  28.2571210  42.9001720  62.9107230  28.5245770  42.0132240
  64.0918510  28.4276940  42.9552580  65.3570290  14.7203900  46.6558230
  65.2959180  15.3125730  47.4053640  66.2970670  14.6129860  46.5108490
  67.9944850  14.3773960  46.2950520  68.6085260  14.6953250  45.6331600
  68.5394410  13.8922550  46.9146380  74.4120030  30.2765590  43.7012360
  73.9178310  30.6734460  42.9839490  73.8033320  29.6514800  44.0949640
  58.5166110  13.0568220  46.4089580  59.0649100  12.8756270  45.6455690
  58.5821420  12.2662330  46.9445890  59.2897870  29.6473870  44.4189780
  58.6958190  29.5158570  45.1579820  59.2821710  28.8112010  43.9531880
  68.7352890  12.9406100  42.6219810  67.8612730  13.2741210  42.4192740
  68.6263640  12.4679280  43.4471680  69.6424870  15.1476970  44.0061530
  69.3138230  14.3328730  43.6263260  70.5907170  15.1046780  43.8827220
  72.0959480  30.9189010  40.9799100  71.6362450  31.6704820  40.6057120
  71.4671940  30.1995480  40.9213900  58.9210100  27.0132250  43.3697820
  58.1944160  26.3937540  43.3023770  58.9819250  27.4072860  42.4995900
  62.5255200  29.2277250  40.1547230  63.0420220  28.6164610  39.6295490
  63.1752580  29.7306030  40.6458240  65.2650700  30.1185740  40.9816210
  65.5528510  29.8640040  40.1049220  65.7773920  29.5663100  41.5721780
  66.4827710  13.8575940  41.5612720  65.6999500  14.3321440  41.8409480
  66.1890640  12.9530770  41.4525900  71.0348780  14.5599040  39.6061810
  71.4756870  14.5044140  38.7583410  70.7656370  15.4757050  39.6771990
  72.8987350  14.1914280  37.6170630  72.8375750  13.2475500  37.4701650
  73.6779380  14.2994370  38.1624090  57.2040100  30.3306640  36.5794580
  57.0362140  29.6977320  37.2776470  56.3374610  30.5366040  36.2288770
  57.8268120  14.1623420  34.0826440  58.5847480  14.2752300  33.5090470
  57.3645290  14.9992620  34.0369870  64.3681930  16.2762690  37.0728750
  63.5556440  15.9019580  36.7324630  64.8723570  15.5207770  37.3749940
  68.8706910  12.9405140  38.3111820  69.4736280  13.5125350  38.7860340
  68.1299900  13.5044580  38.0885720  72.0141510  13.3426700  33.5852100
  72.2092140  14.2410150  33.8519530  71.2271380  13.1113780  34.0785050
  58.8102800  29.0239870  34.0244720  58.2850420  29.4047900  33.3206680
  58.7347380  29.6490640  34.7454430  60.1993270  14.6887470  32.6228410
  60.7286030  13.9017270  32.4936360  60.8321590  15.3678660  32.8563940
  62.3931110  14.4262610  35.6773800  61.7633850  13.7249920  35.8443930
  61.8536250  15.1866740  35.4606960  65.3323060  31.0401840  48.3484410
  66.2590370  30.8046110  48.3920370  65.3173490  31.8673840  47.8670440
  73.5668120  30.5827410  35.3458660  73.7420310  29.8965150  34.7019580
  72.8689690  31.1074460  34.9535330  62.5186670  13.7046590  48.1126290
  62.2370940  14.2080190  47.3487110  62.9006370  12.9068340  47.7468420
  61.4095770  30.9722250  32.8993970  62.1414590  30.6881530  32.3517860
  61.6689440  30.7335530  33.7893350  60.5710560  27.0886980  32.9040300
  59.9419440  27.5572080  33.4526130  60.6858390  26.2436200  33.3386490
  69.1202130  13.1200170  48.6906760  69.0067580  13.4394780  49.5858280
  69.9371870  13.5212680  48.3944040  71.9000620  30.2671700  48.1725450
  72.6925940  29.7720930  47.9651410  72.1933770  30.9461840  48.7801060
  68.0260280  21.1392640  19.0541500  67.9454330  20.2247250  18.7833210
  67.6124700  21.6359710  18.3481210  66.1578320  22.9171660  20.9350770
  65.3820420  22.4372100  21.2249340  66.8091250  22.2377310  20.7606930
  60.1744150  23.2291470  21.8126530  59.3429030  22.9740180  22.2123040
  60.7825130  23.3002240  22.5484450  70.1785750  27.3231850  19.7149900
  69.7167280  26.5519090  20.0437070  70.9911300  27.3497920  20.2202350
  60.1545410  27.2631560  22.0084550  60.4573450  26.3729300  21.8294770
  60.8989000  27.8201780  21.7806800  58.5836100  18.1893360  15.5968920
  57.6952800  18.5309330  15.4948800  58.8677290  17.9893680  14.7049750
  56.5469110  20.7899010  21.4808620  57.1185220  20.0221210  21.4812260
  56.5470650  21.0887770  20.5715230  66.4049060  29.6089860  19.3353890
  65.7860500  30.0647360  18.7648330  67.2600840  29.7641320  18.9343590
  65.5987310  25.5928850  20.9420930  65.5295590  24.6518790  20.7810060
  66.3607170  25.6830260  21.5143500  57.7893980  16.1983370  23.2677550
  57.6096820  15.3009120  23.5480310  57.3874060  16.7455240  23.9424500
  66.6292480  18.3999230  21.1689860  67.0057300  17.5271110  21.0563530
  66.5311990  18.7357930  20.2780300  60.7597490  16.7724860  16.6307300
  60.8664240  17.6728590  16.9376060  59.8489850  16.7242830  16.3401950
  70.4116600  15.8949670  18.1018200  71.2326220  15.4046240  18.1443680
  70.4450680  16.4847330  18.8550040  58.4080650  18.6943870  21.8759890
  59.0890760  18.9582240  22.4947290  58.0928700  17.8544740  22.2097900
  62.6005220  19.7411230  20.9632480  63.1083440  20.2392200  21.6037500
  63.1318460  18.9646430  20.7871840  74.7016150  17.9116420  24.6661830
  73.9968320  18.2998130  24.1476940  74.9674070  18.6066710  25.2682760
  60.8841320  14.3809790  25.2295900  60.8859760  14.8982180  24.4241800
  60.0545630  13.9039970  25.2065830  67.2712410  24.4929100  16.7285800
  66.6529680  24.9578550  16.1648520  67.7835660  25.1856580  17.1455310
  62.1344170  24.0204970  23.4069400  61.8013550  24.6473890  24.0490470
  62.3110850  24.5466850  22.6271070  70.6478080  17.8350050  20.8745740
  69.9433650  18.1234940  21.4548850  71.0090240  18.6450160  20.5145300
  60.5656650  16.0919750  23.2366350  60.9073460  16.9361800  22.9420220
  59.6272460  16.2403490  23.3531690  61.3463270  25.9885770  25.2218580
  61.9637270  26.6636850  24.9403030  60.4856390  26.3973750  25.1306080
  56.6395610  25.1785630  14.1025430  56.2623590  25.6672730  13.3710330
  56.8968680  25.8510910  14.7331960  72.2640860  27.4525180  23.1373220
  71.5804380  28.1224290  23.1289890  72.8035150  27.6505830  22.3718080
  73.7165000  17.2804840  21.2654950  72.7689910  17.3143820  21.3970380
  74.0414990  18.0943790  21.6504310  64.2484540  13.5802020  19.5610940
  64.5559520  13.0248910  18.8446440  63.3185240  13.7146480  19.3783930
  69.7999600  29.2969310  21.8518400  69.8126760  28.8931600  20.9840660
  69.2474820  30.0716600  21.7479830  71.0945020  26.0185530  16.9408570
  70.9841350  25.0759860  17.0657990  71.0913270  26.3801170  17.8271330
  69.1985040  24.1999150  23.1801010  69.6153830  23.9859260  22.3454470
  69.9224860  24.4571940  23.7509630  66.6365300  21.6450850  16.2971060
  65.7094580  21.5788230  16.5259530  66.7890120  22.5830980  16.1826300
  66.6234380  17.9167850  13.2938220  65.6838050  18.0781810  13.3790680
  66.9417640  18.6353530  12.7474210  73.1447140  22.5986370  23.2717250
  72.3165770  22.6679460  22.7967380  73.7397620  23.1840680  22.8033080
  70.6662590  23.2071150  16.8006310  70.0475010  22.8690700  16.1532610
  70.6487040  22.5630910  17.5085500  70.1089150  19.3855690  24.2172120
  69.6960330  20.2109400  24.4712110  69.3765100  18.8000730  24.0248480
  62.2421940  22.1715590  19.0790790  61.8378940  21.4592840  18.5836690
  62.3285060  21.8268830  19.9678830  62.7103640  25.8583150  21.2430000
  62.4131930  25.2528620  20.5637780  63.6603460  25.8960460  21.1319360
  60.9550560  18.9458800  22.8589830  61.5065150  19.0554140  22.0843080
  61.4694070  19.3196400  23.5745060  70.7989250  29.4315020  24.9053100
  70.3219810  30.2387210  24.7125710  70.1151040  28.7793350  25.0579310
  61.8022070  25.5964840  27.8937800  60.9050600  25.8204810  28.1411200
  61.8274940  25.7199780  26.9449200  68.8427290  22.4457960  13.8079060
  69.2820570  21.6080390  13.6616880  69.5555710  23.0787360  13.8943200
  60.6293290  22.4678160  26.4695170  60.4901060  23.3400960  26.8382570
  59.7474650  22.1250970  26.3243110  66.9522670  27.3854030  17.7760300
  67.3918580  28.1278360  17.3615690  66.8909560  27.6280600  18.6999260
  62.4273640  28.4099860  28.6780320  62.3989070  28.8142810  27.8108750
  62.2638610  27.4810220  28.5151920  72.4244430  13.7000770  12.1220100
  72.1117090  13.7927600  13.0219170  73.1856900  14.2781800  12.0717530
  58.9426570  21.0660570  16.5797440  58.8224170  21.7922660  15.9678710
  58.6327460  20.2963480  16.1025350  74.3788460  29.1926960  29.9744490
  74.8548180  29.6709850  30.6533570  74.9995620  29.1244450  29.2489990
  56.5811940  24.2375710  22.3866080  56.6592360  24.3724480  21.4421800
  57.1953620  23.5291600  22.5794200  57.8259570  25.9375900  18.7972260
  57.4187650  26.0790490  17.9425860  58.7172580  25.6536060  18.5943470
  73.7821710  26.3839810  27.1344500  73.9084770  26.1451690  26.2161680
  73.8243090  25.5524350  27.6066580  67.6438450  30.0867810  25.7039310
  68.1583120  29.9975820  26.5061740  66.8007530  30.4327510  25.9967220
  69.6192850  30.3723150  15.1323310  69.4593990  30.0826090  16.0305140
  69.4539560  29.5963280  14.5968540  62.0981230  30.1521680  16.9094930
  61.9223710  29.2357220  16.6962730  61.2436970  30.5108970  17.1492730
  69.3218980  27.8810710  13.6921310  68.6284140  27.8788000  13.0323590
  70.0641840  27.4570030  13.2615480  68.8868910  29.5073420  17.7669800
  69.3425860  28.7262800  18.0808420  69.2261430  30.2180240  18.3110980
  73.6345720  18.4372270  28.0994240  73.0189990  18.9451940  27.5709700
  73.3142140  17.5370600  28.0420180  56.6371460  25.2789880  24.9260540
  56.8002500  24.8095240  24.1079910  57.1023910  24.7713440  25.5909380
  61.4090230  14.4095640  19.9621110  60.9658380  15.1905180  19.6305630
  61.9675220  14.7325530  20.6692050  65.6960040  17.2764160  25.5656430
  65.2339410  17.4847180  26.3776370  65.2938150  16.4623510  25.2627100
  70.6964550  18.4973110  26.6953090  69.8458140  18.1978860  27.0162160
  70.5366340  18.7415120  25.7836910  67.7914260  19.9974860  28.7951880
  68.1167670  19.1638610  28.4554110  68.5794590  20.5203380  28.9430210
  64.5249050  14.0306340  14.8426940  63.9003230  14.0266210  15.5680250
  64.4379170  13.1637300  14.4462910  63.4466130  14.9542970  21.8210710
  63.7438460  15.8605800  21.7402730  63.9951690  14.4661750  21.2070280
  61.2004450  19.5329210  17.6902360  60.9745370  19.3166380  18.5948980
  60.4196980  19.9657670  17.3448330  68.4302210  19.5392580  16.2893010
  67.8311100  20.2628380  16.1056630  68.9781820  19.4769360  15.5069460
  63.6403660  20.4314790  28.3562630  63.5447260  19.4909520  28.2063030
  64.4835640  20.6529860  27.9610700  67.0367080  18.1756120  18.3196290
  67.4296650  18.4928320  17.5064980  67.3983930  17.2968000  18.4340810
  58.7714200  16.8428460  26.5096410  58.3777590  17.6903670  26.7169190
  58.0832600  16.2054830  26.7005050  65.3459250  16.9263430  29.5793150
  64.6557570  16.7335630  30.2139240  66.0891550  17.2098070  30.1117450
  56.0731250  14.7656920  20.5426490  55.7844300  15.3359780  21.2551470
  56.8177010  14.2861370  20.9057720  56.2601480  18.7077040  11.7529210
  56.1776150  19.6507800  11.8944200  55.9084540  18.5651950  10.8741560
  67.6222220  20.7661870  22.4147070  66.8903340  21.2748680  22.7637170
  67.2246560  19.9491850  22.1135850  64.0599610  17.4416070  20.8199560
  64.0635670  17.0006020  19.9704100  64.9550730  17.7633400  20.9271380
  59.9101990  17.3242560  19.7793770  59.5702040  17.8017790  20.5360820
  59.1479310  16.8707680  19.4194870  64.1219760  18.4428150  13.8106320
  64.2432580  18.4014630  14.7592140  63.7368270  19.3052300  13.6553050
  68.0848130  16.2195550  21.8270010  68.1020870  16.6704200  22.6711860
  67.8363710  15.3201190  22.0403450  63.1341260  20.7529290  13.2089620
  62.5658160  20.3047540  12.5825530  63.8430260  21.1122070  12.6754770
  71.5118880  13.6327730  27.6656390  71.8364650  12.9017390  28.1914370
  71.5475390  13.3141370  26.7637380  58.2110440  24.6541310  27.0856350
  57.8265230  24.0134980  27.6839310  58.5222630  25.3577430  27.6551080
  64.3607580  21.5017850  22.5664970  64.7277710  21.0276420  23.3126310
  64.1712640  22.3759420  22.9073310  57.2248070  16.2461540  18.6958440
  56.9394990  15.8817210  19.5337060  57.1626930  15.5142000  18.0821580
  62.1506950  20.5426490  24.8849180  61.8464020  21.4218470  25.1099540
  63.1053410  20.6026280  24.9206620  60.6788740  24.7487480  15.4816030
  59.9051000  24.2085100  15.3214750  61.4083370  24.2294090  15.1433790
  71.4376720  23.7452840  21.2742420  72.1575840  24.2408130  20.8838530
  71.2358540  23.0670730  20.6296290  66.8986660  15.1390800  15.4171810
  66.0851270  14.6403970  15.3417120  66.7048610  15.9789050  15.0008160
  66.8195520  23.8161900  27.1611420  66.7532830  22.8957570  26.9069010
  66.1900660  23.9137340  27.8756060  69.6135050  19.5110450  13.7133970
  70.5014670  19.8227680  13.5385310  69.5840140  18.6382700  13.3214550
  60.7226140  24.4167860  19.1194840  61.2404810  23.6136120  19.0651730
  60.2710160  24.3547000  19.9611670  65.6095640  25.6834140  14.3922140
  65.9511340  26.4276370  13.8965460  64.7808350  25.9965260  14.7546970
  58.2070680  21.3829230  26.0320540  57.8485620  22.0483080  26.6193880
  57.9125240  20.5512780  26.4033160  61.4083800  21.8413470  28.9160090
  61.1083940  21.9870650  28.0187910  62.1795040  21.2818760  28.8233480
  66.7512250  26.6382470  26.9115220  66.7656790  25.7063430  26.6934130
  66.0437350  26.7242230  27.5504990  71.8849320  20.8222290  13.1813830
  71.8013040  21.2536510  12.3310270  72.6043510  21.2820640  13.6140650
  72.9623460  23.2789810  26.2583800  72.2371650  23.8718590  26.0613190
  73.4898920  23.2713350  25.4597170  72.9136570  27.6764550  15.9095960
  72.2712730  27.0220170  16.1839680  72.5267230  28.0819640  15.1336630
  68.4923050  25.0049980  19.7567650  68.8446870  24.4078110  19.0969020
  67.6085380  24.6794210  19.9275900  64.5786330  25.7647670  17.1638060
  65.2657460  26.3116880  17.5445650  63.7918750  26.3088400  17.1987670
  56.7178730  21.3820490  12.6555140  57.5873580  21.6645290  12.9391060
  56.2269050  22.1956360  12.5403950  63.8813540  22.7693700  16.7763420
  64.3376320  23.5798950  17.0023610  63.5301750  22.4516840  17.6081910
  66.1846150  28.2800040  24.0055720  66.8288370  28.4859420  24.6829140
  66.5475590  27.5188440  23.5526570  59.7825320  13.1131350  17.2485940
  59.6539950  13.1049250  18.1970860  58.9587340  13.4514440  16.8976950
  67.4578230  26.2832390  22.7233170  68.1000460  25.5825550  22.8365340
  67.9827580  27.0630830  22.5430060  71.3033950  26.5681010  12.4472310
  71.0771530  25.8511450  13.0396950  70.9130150  26.3193450  11.6094060
  69.2315850  27.0827290  25.9269230  69.5672090  27.6693980  26.6047150
  68.3116190  26.9520000  26.1567020  57.0849980  30.5947870  13.2216770
  57.4447620  31.1937210  12.5674040  56.9442320  31.1407760  13.9951800
  56.7819250  14.8722470  26.7092640  56.0677770  15.0719390  27.3145250
  57.2014290  14.0962040  27.0807440  70.8850200  24.4852950  14.1086470
  70.5971900  24.9465640  14.8964350  71.6802370  24.0250720  14.3770690
  57.0691840  28.8602730  27.6959170  57.1782960  27.9197470  27.5554560
  56.4172400  29.1257480  27.0472900  65.0604430  27.1318620  29.0957290
  64.7401300  26.4127860  29.6402980  64.3862790  27.8073690  29.1693350
  63.1018600  27.9779070  14.0390440  63.0928700  28.7108760  13.4234950
  62.1816960  27.7310650  14.1317400  58.7025240  23.1993960  14.7837200
  58.0953190  23.9392860  14.7932500  59.1774590  23.2893320  13.9575400
  68.2758030  17.3644780  24.4594090  68.6438850  16.5439990  24.7873660
  67.4156230  17.4246670  24.8749740  71.6420060  16.3201720  15.2681650
  71.0133220  16.4247390  14.5539880  71.1471980  16.5398500  16.0575530
  66.0878200  28.0407310  12.7015630  66.1890180  27.8371300  11.7717610
  65.1879940  27.7865590  12.9063410  63.6104090  18.5987670  16.6839530
  62.9020240  19.0674010  17.1253140  63.8948570  17.9409680  17.3184720
  65.2360020  20.0184370  24.6832060  65.7345270  20.4930190  25.3483910
  65.3782970  19.0947890  24.8902090  67.6419520  15.3238330  18.1235320
  67.5187300  15.3424460  17.1744830  68.5904080  15.3717270  18.2433720
  64.7296310  30.5593630  17.3963300  64.9837810  30.5215020  16.4742670
  63.7808790  30.4326960  17.3891550  61.8139110  16.9072750  14.0590240
  62.6629640  17.3442900  13.9930430  61.4470380  17.2193010  14.8862300
  72.4426880  16.2352330  25.5260450  71.9400480  16.9757730  25.8654260
  73.2583540  16.6236330  25.2097240  70.7348890  21.4785510  18.9721810
  69.7939030  21.4935740  19.1469500  71.0492960  20.6921470  19.4182110
  60.7130530  23.1605110  12.5325770  61.4793800  23.0486470  13.0951200
  60.7905220  22.4643080  11.8802540  59.4077290  20.5930180  13.2158660
  59.4880880  19.6457690  13.3276060  60.2997040  20.9237060  13.3219320
  72.7374470  28.6494360  20.6476070  72.8621890  29.4725530  21.1199880
  73.6040030  28.4385090  20.3000220  60.2092000  30.7425570  20.3193200
  60.9454480  30.1941030  20.5901770  60.5932920  31.6081580  20.1799190
  57.0937480  26.8099140  16.1934710  56.1677260  27.0520280  16.1840120
  57.5593910  27.6373400  16.0719460  59.2150280  29.9271640  29.5078780
  60.0163010  30.2483690  29.9214180  58.7002100  29.5667220  30.2298690
  63.3194310  29.9155880  12.1418770  64.1122920  30.2044710  11.6900560
  62.7998660  29.4848050  11.4631250  68.0514910  26.0351510  29.4554190
  67.4453070  26.0583110  28.7149940  67.7469020  25.3034550  29.9921440
  69.4815280  29.7631800  28.0663600  70.4337030  29.6789820  28.0163840
  69.3343500  30.4273510  28.7397390  72.3724480  29.1426010  13.5655510
  72.0865990  28.7291150  12.7509690  72.1744030  30.0713720  13.4456030
  56.9348090  22.4145100  28.4514830  57.4387110  21.8352380  29.0231060
  56.1955510  22.6985330  28.9891200  63.8371710  25.1359290  12.0061120
  63.7322350  24.5211640  12.7322500  63.6695930  24.6125180  11.2224130
  63.9886030  23.8216090  27.9850350  63.2231700  24.3901090  27.9005020
  64.1701990  23.5292300  27.0918580  67.0774440  24.1979320  12.6103110
  66.5284540  24.6448620  13.2545850  67.6993700  23.6928570  13.1340780
  71.1309380  25.5521420  28.5425370  71.8718850  25.8897180  28.0392830
  70.3682060  25.7213480  27.9895140  58.9671170  20.5574690  29.3464900
  59.0076510  20.2588560  30.2550130  59.8216670  20.9582300  29.1872420
  62.7449560  23.1570240  14.5068410  63.1665980  22.9910110  15.3499800
  62.8700400  22.3470470  14.0123550  60.9076980  19.1366790  27.3139390
  60.3773440  18.6457740  26.6862730  61.5765050  19.5650990  26.7797320
  65.2577200  22.1807850  11.7545510  65.7782860  21.4656870  11.3886660
  65.9045600  22.8193720  12.0546020  69.8055040  23.6036250  27.0780580
  70.2196060  23.7581330  27.9271000  68.8706040  23.7291470  27.2406360
  70.2777210  20.9432410  29.0819730  70.8597980  20.1884730  28.9940210
  70.4538980  21.4739850  28.3051210  61.3949280  16.1029160  27.3936680
  61.3006150  15.4849910  26.6687550  60.8146670  16.8295450  27.1666590
  64.1610720  14.6602400  24.4264070  63.7128020  14.6826660  23.5809620
  63.5275920  14.2621420  25.0234370  64.5670270  23.5556730  25.0476510
  64.9858380  24.3989460  24.8752750  63.6478900  23.6928770  24.8183290
  66.9034170  21.2872910  26.4314350  67.0230380  20.6914050  27.1709190
  67.7628170  21.3242600  26.0115650  69.2422070  21.8410100  25.0076860
  68.7157290  22.3652720  24.4042000  69.5853410  22.4737490  25.6386590
  61.6408460  19.2303470  11.4526570  61.4397520  18.3670830  11.8139910
  61.4700510  19.1436830  10.5148170  62.4177690  29.8609740  26.1634240
  61.8798780  30.5855800  25.8442940  62.6711650  29.3840080  25.3731580
  63.6702940  17.8294260  27.6890170  64.2602630  17.5210110  28.3767990
  62.8523180  17.3574010  27.8450070  68.4896370  17.4460070  27.9223190
  67.8011890  16.7841610  27.8573180  69.2102390  16.9998340  28.3671650
  69.1196770  14.0411700  13.9813450  69.3999060  13.1979600  14.3372870
  68.3462500  14.2734810  14.4952200  60.4391260  16.3304090  11.4404450
  60.7417160  16.3371520  10.5323600  61.1785850  15.9801950  11.9372110
  65.2739900  31.0960950  26.4220890  65.1998600  31.9996090  26.7293260
  64.3718740  30.7772850  26.3942960  63.6576190  15.2738710  12.4260650
  63.3098190  14.5962700  11.8463100  63.8588960  14.8128220  13.2404040
  65.8225230  30.2619460  14.0447250  66.7176020  30.6004430  14.0666010
  65.8542860  29.5398870  13.4171530  59.4621390  25.6346510  12.2734250
  59.8996260  26.1776180  12.9291830  59.9469120  24.8093460  12.2830590
  56.6767190  28.4235540  19.7254510  57.0070200  27.5556600  19.4933150
  57.1058190  28.6294060  20.5559470  61.2729110  26.7544550  17.3856480
  60.9724650  26.6309520  18.2860390  61.1666600  25.8953140  16.9772210
  57.1657400  29.2906130  22.4636140  56.7288390  29.4706930  23.2960290
  57.7335080  30.0480750  22.3217860  72.8019580  28.7923130  26.7513450
  72.2021570  28.8515690  26.0077370  72.9313480  27.8528110  26.8810300
  74.0421030  26.5340950  12.0883160  73.2113990  26.6017600  12.5590390
  74.2192860  27.4245070  11.7850020  73.4977490  23.2788430  14.5917360
  74.2596400  23.8485080  14.6977050  73.5131860  22.7115630  15.3625670
  56.9981830  21.8026360  18.8225020  56.3430670  21.5338000  18.1784720
  57.8359780  21.6930840  18.3727000  74.5037460  24.1338530  19.4359290
  74.8746290  23.3505850  19.0295260  75.1439390  24.8227630  19.2576590
  71.4871220  25.5175110  24.8489610  70.6731060  25.9472270  25.1115400
  71.8945420  26.1293520  24.2358660  73.5496660  23.5722800  11.7489880
  73.8245500  24.4801680  11.6209100  73.3607400  23.5085330  12.6851870
  69.9472270  16.5967650  13.0443510  70.3657150  16.4098630  12.2040170
  69.6408330  15.7446700  13.3546440  73.4462000  21.5091790  16.7419310
  73.0705600  20.7419720  16.3100600  72.7165120  21.8914490  17.2294240
  58.0357760  22.1878930  23.3628360  58.4030800  22.1006330  24.2424380
  57.4668580  21.4245480  23.2635220  72.8361620  20.6563310  26.3758830
  72.6047710  20.4276060  25.4756780  73.0966170  21.5762860  26.3303720
  57.5873760  19.0988020  27.2686780  56.6929810  19.0654780  27.6080490
  58.1271310  19.2974810  28.0338030  71.2749690  15.8819740  29.1538530
  72.1519870  15.8903140  29.5372530  71.2870530  15.1450580  28.5430880
  56.2119910  19.0125290  14.7650350  55.3083990  19.2755490  14.5902010
  56.6960530  19.2836460  13.9850310  72.7212960  19.7349280  20.0426550
  73.2450440  19.2411930  19.4116720  73.3072380  19.8699640  20.7874120
  72.9002680  19.8189150  23.5646100  71.9505390  19.7852690  23.6791090
  73.0815690  20.7289260  23.3295870  58.7547120  18.0690830  12.6744730
  59.4638820  17.6474050  12.1892010  58.0387060  18.1366060  12.0428080
  58.4021280  14.1230160  11.7147380  59.1249410  14.6639100  12.0328600
  58.6745800  13.8493580  10.8388920  72.2112930  18.9922630  15.9818960
  72.7072050  18.7593500  16.7667840  72.0129000  18.1534470  15.5656600
  58.0913470  13.3736350  21.6170000  58.7389660  12.8233730  21.1765160
  58.5115310  13.6279500  22.4385810  73.6400090  17.6283580  18.5156640
  73.5299370  17.4739620  19.4538910  74.4007680  17.1004520  18.2732050
  71.9865810  13.5677710  24.9739640  72.6238030  14.1811850  25.3398830
  72.1340700  13.6038370  24.0288870  74.5290360  15.4591500  11.7562780
  75.4539670  15.3272680  11.5481070  74.5066150  15.5384320  12.7099230
  74.6028850  16.2302160  14.3819490  73.8080350  16.1647280  14.9112400
  74.8072130  17.1652800  14.3704840  71.5447270  30.2693710  18.3757880
  72.1406340  29.9478280  17.6992300  71.8025420  29.7965530  19.1671150
  57.8445470  13.5292020  24.3595320  57.4960290  13.9855840  25.1253500
  57.5133170  12.6349150  24.4417750  59.4509840  26.7011620  28.5248510
  59.4079470  26.3304530  29.4062970  59.5820850  27.6389190  28.6650330
  63.1515870  28.2571210  24.1258230  62.9107230  28.5245770  23.2388750
  64.0918510  28.4276940  24.1809090  65.3570290  14.7203900  27.8814740
  65.2959180  15.3125730  28.6310150  66.2970670  14.6129860  27.7365000
  67.9944850  14.3773960  27.5207030  68.6085260  14.6953250  26.8588110
  68.5394410  13.8922550  28.1402890  74.4120030  30.2765590  24.9268870
  73.9178310  30.6734460  24.2096000  73.8033320  29.6514800  25.3206150
  58.5166110  13.0568220  27.6346090  59.0649100  12.8756270  26.8712200
  58.5821420  12.2662330  28.1702400  59.2897870  29.6473870  25.6446290
  58.6958190  29.5158570  26.3836330  59.2821710  28.8112010  25.1788390
  68.7352890  12.9406100  23.8476320  67.8612730  13.2741210  23.6449250
  68.6263640  12.4679280  24.6728190  69.6424870  15.1476970  25.2318040
  69.3138230  14.3328730  24.8519770  70.5907170  15.1046780  25.1083730
  72.0959480  30.9189010  22.2055610  71.6362450  31.6704820  21.8313630
  71.4671940  30.1995480  22.1470410  58.9210100  27.0132250  24.5954330
  58.1944160  26.3937540  24.5280280  58.9819250  27.4072860  23.7252410
  62.5255200  29.2277250  21.3803740  63.0420220  28.6164610  20.8552000
  63.1752580  29.7306030  21.8714750  65.2650700  30.1185740  22.2072720
  65.5528510  29.8640040  21.3305730  65.7773920  29.5663100  22.7978290
  66.4827710  13.8575940  22.7869230  65.6999500  14.3321440  23.0665990
  66.1890640  12.9530770  22.6782410  71.0348780  14.5599040  20.8318320
  71.4756870  14.5044140  19.9839920  70.7656370  15.4757050  20.9028500
  72.8987350  14.1914280  18.8427140  72.8375750  13.2475500  18.6958160
  73.6779380  14.2994370  19.3880600  57.2040100  30.3306640  17.8051090
  57.0362140  29.6977320  18.5032980  56.3374610  30.5366040  17.4545280
  57.8268120  14.1623420  15.3082950  58.5847480  14.2752300  14.7346980
  57.3645290  14.9992620  15.2626380  64.3681930  16.2762690  18.2985260
  63.5556440  15.9019580  17.9581140  64.8723570  15.5207770  18.6006450
  68.8706910  12.9405140  19.5368330  69.4736280  13.5125350  20.0116850
  68.1299900  13.5044580  19.3142230  72.0141510  13.3426700  14.8108610
  72.2092140  14.2410150  15.0776040  71.2271380  13.1113780  15.3041560
  58.8102800  29.0239870  15.2501230  58.2850420  29.4047900  14.5463190
  58.7347380  29.6490640  15.9710940  60.1993270  14.6887470  13.8484920
  60.7286030  13.9017270  13.7192870  60.8321590  15.3678660  14.0820450
  62.3931110  14.4262610  16.9030310  61.7633850  13.7249920  17.0700440
  61.8536250  15.1866740  16.6863470  65.3323060  31.0401840  29.5740920
  66.2590370  30.8046110  29.6176880  65.3173490  31.8673840  29.0926950
  73.5668120  30.5827410  16.5715170  73.7420310  29.8965150  15.9276090
  72.8689690  31.1074460  16.1791840  62.5186670  13.7046590  29.3382800
  62.2370940  14.2080190  28.5743620  62.9006370  12.9068340  28.9724930
  61.4095770  30.9722250  14.1250480  62.1414590  30.6881530  13.5774370
  61.6689440  30.7335530  15.0149860  60.5710560  27.0886980  14.1296810
  59.9419440  27.5572080  14.6782640  60.6858390  26.2436200  14.5643000
  69.1202130  13.1200170  29.9163270  69.0067580  13.4394780  30.8114790
  69.9371870  13.5212680  29.6200550  71.9000620  30.2671700  29.3981960
  72.6925940  29.7720930  29.1907920  72.1933770  30.9461840  30.0057570
  66.1578320  22.9171660   2.1607280  65.3820420  22.4372100   2.4505850
  66.8091250  22.2377310   1.9863440  60.1744150  23.2291470   3.0383040
  59.3429030  22.9740180   3.4379550  60.7825130  23.3002240   3.7740960
  60.1545410  27.2631560   3.2341060  60.4573450  26.3729300   3.0551280
  60.8989000  27.8201780   3.0063310  56.5469110  20.7899010   2.7065130
  57.1185220  20.0221210   2.7068770  56.5470650  21.0887770   1.7971740
  65.5987310  25.5928850   2.1677440  65.5295590  24.6518790   2.0066570
  66.3607170  25.6830260   2.7400010  57.7893980  16.1983370   4.4934060
  57.6096820  15.3009120   4.7736820  57.3874060  16.7455240   5.1681010
  66.6292480  18.3999230   2.3946370  67.0057300  17.5271110   2.2820040
  66.5311990  18.7357930   1.5036810  58.4080650  18.6943870   3.1016400
  59.0890760  18.9582240   3.7203800  58.0928700  17.8544740   3.4354410
  62.6005220  19.7411230   2.1888990  63.1083440  20.2392200   2.8294010
  63.1318460  18.9646430   2.0128350  74.7016150  17.9116420   5.8918340
  73.9968320  18.2998130   5.3733450  74.9674070  18.6066710   6.4939270
  60.8841320  14.3809790   6.4552410  60.8859760  14.8982180   5.6498310
  60.0545630  13.9039970   6.4322340  62.1344170  24.0204970   4.6325910
  61.8013550  24.6473890   5.2746980  62.3110850  24.5466850   3.8527580
  70.6478080  17.8350050   2.1002250  69.9433650  18.1234940   2.6805360
  71.0090240  18.6450160   1.7401810  60.5656650  16.0919750   4.4622860
  60.9073460  16.9361800   4.1676730  59.6272460  16.2403490   4.5788200
  61.3463270  25.9885770   6.4475090  61.9637270  26.6636850   6.1659540
  60.4856390  26.3973750   6.3562590  72.2640860  27.4525180   4.3629730
  71.5804380  28.1224290   4.3546400  72.8035150  27.6505830   3.5974590
  73.7165000  17.2804840   2.4911460  72.7689910  17.3143820   2.6226890
  74.0414990  18.0943790   2.8760820  69.7999600  29.2969310   3.0774910
  69.8126760  28.8931600   2.2097170  69.2474820  30.0716600   2.9736340
  69.1985040  24.1999150   4.4057520  69.6153830  23.9859260   3.5710980
  69.9224860  24.4571940   4.9766140  73.1447140  22.5986370   4.4973760
  72.3165770  22.6679460   4.0223890  73.7397620  23.1840680   4.0289590
  70.1089150  19.3855690   5.4428630  69.6960330  20.2109400   5.6968620
  69.3765100  18.8000730   5.2504990  62.7103640  25.8583150   2.4686510
  62.4131930  25.2528620   1.7894290  63.6603460  25.8960460   2.3575870
  60.9550560  18.9458800   4.0846340  61.5065150  19.0554140   3.3099590
  61.4694070  19.3196400   4.8001570  70.7989250  29.4315020   6.1309610
  70.3219810  30.2387210   5.9382220  70.1151040  28.7793350   6.2835820
  61.8022070  25.5964840   9.1194310  60.9050600  25.8204810   9.3667710
  61.8274940  25.7199780   8.1705710  60.6293290  22.4678160   7.6951680
  60.4901060  23.3400960   8.0639080  59.7474650  22.1250970   7.5499620
  62.4273640  28.4099860   9.9036830  62.3989070  28.8142810   9.0365260
  62.2638610  27.4810220   9.7408430  74.3788460  29.1926960  11.2001000
  74.8548180  29.6709850  11.8790080  74.9995620  29.1244450  10.4746500
  56.5811940  24.2375710   3.6122590  56.6592360  24.3724480   2.6678310
  57.1953620  23.5291600   3.8050710  73.7821710  26.3839810   8.3601010
  73.9084770  26.1451690   7.4418190  73.8243090  25.5524350   8.8323090
  67.6438450  30.0867810   6.9295820  68.1583120  29.9975820   7.7318250
  66.8007530  30.4327510   7.2223730  73.6345720  18.4372270   9.3250750
  73.0189990  18.9451940   8.7966210  73.3142140  17.5370600   9.2676690
  56.6371460  25.2789880   6.1517050  56.8002500  24.8095240   5.3336420
  57.1023910  24.7713440   6.8165890  65.6960040  17.2764160   6.7912940
  65.2339410  17.4847180   7.6032880  65.2938150  16.4623510   6.4883610
  70.6964550  18.4973110   7.9209600  69.8458140  18.1978860   8.2418670
  70.5366340  18.7415120   7.0093420  67.7914260  19.9974860  10.0208390
  68.1167670  19.1638610   9.6810620  68.5794590  20.5203380  10.1686720
  63.4466130  14.9542970   3.0467220  63.7438460  15.8605800   2.9659240
  63.9951690  14.4661750   2.4326790  63.6403660  20.4314790   9.5819140
  63.5447260  19.4909520   9.4319540  64.4835640  20.6529860   9.1867210
  58.7714200  16.8428460   7.7352920  58.3777590  17.6903670   7.9425700
  58.0832600  16.2054830   7.9261560  65.3459250  16.9263430  10.8049660
  64.6557570  16.7335630  11.4395750  66.0891550  17.2098070  11.3373960
  56.0731250  14.7656920   1.7683000  55.7844300  15.3359780   2.4807980
  56.8177010  14.2861370   2.1314230  67.6222220  20.7661870   3.6403580
  66.8903340  21.2748680   3.9893680  67.2246560  19.9491850   3.3392360
  68.0848130  16.2195550   3.0526520  68.1020870  16.6704200   3.8968370
  67.8363710  15.3201190   3.2659960  71.5118880  13.6327730   8.8912900
  71.8364650  12.9017390   9.4170880  71.5475390  13.3141370   7.9893890
  58.2110440  24.6541310   8.3112860  57.8265230  24.0134980   8.9095820
  58.5222630  25.3577430   8.8807590  64.3607580  21.5017850   3.7921480
  64.7277710  21.0276420   4.5382820  64.1712640  22.3759420   4.1329820
  62.1506950  20.5426490   6.1105690  61.8464020  21.4218470   6.3356050
  63.1053410  20.6026280   6.1463130  71.4376720  23.7452840   2.4998930
  72.1575840  24.2408130   2.1095040  71.2358540  23.0670730   1.8552800
  66.8195520  23.8161900   8.3867930  66.7532830  22.8957570   8.1325520
  66.1900660  23.9137340   9.1012570  58.2070680  21.3829230   7.2577050
  57.8485620  22.0483080   7.8450390  57.9125240  20.5512780   7.6289670
  61.4083800  21.8413470  10.1416600  61.1083940  21.9870650   9.2444420
  62.1795040  21.2818760  10.0489990  66.7512250  26.6382470   8.1371730
  66.7656790  25.7063430   7.9190640  66.0437350  26.7242230   8.7761500
  72.9623460  23.2789810   7.4840310  72.2371650  23.8718590   7.2869700
  73.4898920  23.2713350   6.6853680  66.1846150  28.2800040   5.2312230
  66.8288370  28.4859420   5.9085650  66.5475590  27.5188440   4.7783080
  67.4578230  26.2832390   3.9489680  68.1000460  25.5825550   4.0621850
  67.9827580  27.0630830   3.7686570  69.2315850  27.0827290   7.1525740
  69.5672090  27.6693980   7.8303660  68.3116190  26.9520000   7.3823530
  56.7819250  14.8722470   7.9349150  56.0677770  15.0719390   8.5401760
  57.2014290  14.0962040   8.3063950  57.0691840  28.8602730   8.9215680
  57.1782960  27.9197470   8.7811070  56.4172400  29.1257480   8.2729410
  65.0604430  27.1318620  10.3213800  64.7401300  26.4127860  10.8659490
  64.3862790  27.8073690  10.3949860  68.2758030  17.3644780   5.6850600
  68.6438850  16.5439990   6.0130170  67.4156230  17.4246670   6.1006250
  65.2360020  20.0184370   5.9088570  65.7345270  20.4930190   6.5740420
  65.3782970  19.0947890   6.1158600  72.4426880  16.2352330   6.7516960
  71.9400480  16.9757730   7.0910770  73.2583540  16.6236330   6.4353750
  72.7374470  28.6494360   1.8732580  72.8621890  29.4725530   2.3456390
  73.6040030  28.4385090   1.5256730  59.2150280  29.9271640  10.7335290
  60.0163010  30.2483690  11.1470690  58.7002100  29.5667220  11.4555200
  68.0514910  26.0351510  10.6810700  67.4453070  26.0583110   9.9406450
  67.7469020  25.3034550  11.2177950  69.4815280  29.7631800   9.2920110
  70.4337030  29.6789820   9.2420350  69.3343500  30.4273510   9.9653900
  56.9348090  22.4145100   9.6771340  57.4387110  21.8352380  10.2487570
  56.1955510  22.6985330  10.2147710  63.9886030  23.8216090   9.2106860
  63.2231700  24.3901090   9.1261530  64.1701990  23.5292300   8.3175090
  71.1309380  25.5521420   9.7681880  71.8718850  25.8897180   9.2649340
  70.3682060  25.7213480   9.2151650  58.9671170  20.5574690  10.5721410
  59.0076510  20.2588560  11.4806640  59.8216670  20.9582300  10.4128930
  60.9076980  19.1366790   8.5395900  60.3773440  18.6457740   7.9119240
  61.5765050  19.5650990   8.0053830  69.8055040  23.6036250   8.3037090
  70.2196060  23.7581330   9.1527510  68.8706040  23.7291470   8.4662870
  70.2777210  20.9432410  10.3076240  70.8597980  20.1884730  10.2196720
  70.4538980  21.4739850   9.5307720  61.3949280  16.1029160   8.6193190
  61.3006150  15.4849910   7.8944060  60.8146670  16.8295450   8.3923100
  64.1610720  14.6602400   5.6520580  63.7128020  14.6826660   4.8066130
  63.5275920  14.2621420   6.2490880  64.5670270  23.5556730   6.2733020
  64.9858380  24.3989460   6.1009260  63.6478900  23.6928770   6.0439800
  66.9034170  21.2872910   7.6570860  67.0230380  20.6914050   8.3965700
  67.7628170  21.3242600   7.2372160  69.2422070  21.8410100   6.2333370
  68.7157290  22.3652720   5.6298510  69.5853410  22.4737490   6.8643100
  62.4177690  29.8609740   7.3890750  61.8798780  30.5855800   7.0699450
  62.6711650  29.3840080   6.5988090  63.6702940  17.8294260   8.9146680
  64.2602630  17.5210110   9.6024500  62.8523180  17.3574010   9.0706580
  68.4896370  17.4460070   9.1479700  67.8011890  16.7841610   9.0829690
  69.2102390  16.9998340   9.5928160  65.2739900  31.0960950   7.6477400
  65.1998600  31.9996090   7.9549770  64.3718740  30.7772850   7.6199470
  57.1657400  29.2906130   3.6892650  56.7288390  29.4706930   4.5216800
  57.7335080  30.0480750   3.5474370  72.8019580  28.7923130   7.9769960
  72.2021570  28.8515690   7.2333880  72.9313480  27.8528110   8.1066810
  71.4871220  25.5175110   6.0746120  70.6731060  25.9472270   6.3371910
  71.8945420  26.1293520   5.4615170  58.0357760  22.1878930   4.5884870
  58.4030800  22.1006330   5.4680890  57.4668580  21.4245480   4.4891730
  72.8361620  20.6563310   7.6015340  72.6047710  20.4276060   6.7013290
  73.0966170  21.5762860   7.5560230  57.5873760  19.0988020   8.4943290
  56.6929810  19.0654780   8.8337000  58.1271310  19.2974810   9.2594540
  71.2749690  15.8819740  10.3795040  72.1519870  15.8903140  10.7629040
  71.2870530  15.1450580   9.7687390  72.9002680  19.8189150   4.7902610
  71.9505390  19.7852690   4.9047600  73.0815690  20.7289260   4.5552380
  58.0913470  13.3736350   2.8426510  58.7389660  12.8233730   2.4021670
  58.5115310  13.6279500   3.6642320  71.9865810  13.5677710   6.1996150
  72.6238030  14.1811850   6.5655340  72.1340700  13.6038370   5.2545380
  57.8445470  13.5292020   5.5851830  57.4960290  13.9855840   6.3510010
  57.5133170  12.6349150   5.6674260  59.4509840  26.7011620   9.7505020
  59.4079470  26.3304530  10.6319480  59.5820850  27.6389190   9.8906840
  63.1515870  28.2571210   5.3514740  62.9107230  28.5245770   4.4645260
  64.0918510  28.4276940   5.4065600  65.3570290  14.7203900   9.1071250
  65.2959180  15.3125730   9.8566660  66.2970670  14.6129860   8.9621510
  67.9944850  14.3773960   8.7463540  68.6085260  14.6953250   8.0844620
  68.5394410  13.8922550   9.3659400  74.4120030  30.2765590   6.1525380
  73.9178310  30.6734460   5.4352510  73.8033320  29.6514800   6.5462660
  58.5166110  13.0568220   8.8602600  59.0649100  12.8756270   8.0968710
  58.5821420  12.2662330   9.3958910  59.2897870  29.6473870   6.8702800
  58.6958190  29.5158570   7.6092840  59.2821710  28.8112010   6.4044900
  68.7352890  12.9406100   5.0732830  67.8612730  13.2741210   4.8705760
  68.6263640  12.4679280   5.8984700  69.6424870  15.1476970   6.4574550
  69.3138230  14.3328730   6.0776280  70.5907170  15.1046780   6.3340240
  72.0959480  30.9189010   3.4312120  71.6362450  31.6704820   3.0570140
  71.4671940  30.1995480   3.3726920  58.9210100  27.0132250   5.8210840
  58.1944160  26.3937540   5.7536790  58.9819250  27.4072860   4.9508920
  62.5255200  29.2277250   2.6060250  63.0420220  28.6164610   2.0808510
  63.1752580  29.7306030   3.0971260  65.2650700  30.1185740   3.4329230
  65.5528510  29.8640040   2.5562240  65.7773920  29.5663100   4.0234800
  66.4827710  13.8575940   4.0125740  65.6999500  14.3321440   4.2922500
  66.1890640  12.9530770   3.9038920  65.3323060  31.0401840  10.7997430
  66.2590370  30.8046110  10.8433390  65.3173490  31.8673840  10.3183460
  62.5186670  13.7046590  10.5639310  62.2370940  14.2080190   9.8000130
  62.9006370  12.9068340  10.1981440  69.1202130  13.1200170  11.1419780
  69.0067580  13.4394780  12.0371300  69.9371870  13.5212680  10.8457060
  71.9000620  30.2671700  10.6238470  72.6925940  29.7720930  10.4164430
  72.1933770  30.9461840  11.2314080  70.1785750   8.5488360  76.0380370
  69.7167280   7.7775600  76.3667540  70.9911300   8.5754430  76.5432820
  66.4049060  10.8346370  75.6584360  65.7860500  11.2903870  75.0878800
  67.2600840  10.9897830  75.2574060  67.2712410   5.7185610  73.0516270
  66.6529680   6.1835060  72.4878990  67.7835660   6.4113090  73.4685780
  56.6395610   6.4042140  70.4255900  56.2623590   6.8929240  69.6940800
  56.8968680   7.0767420  71.0562430  71.0945020   7.2442040  73.2639040
  70.9841350   6.3016370  73.3888460  71.0913270   7.6057680  74.1501800
  66.6365300   2.8707360  72.6201530  65.7094580   2.8044740  72.8490000
  66.7890120   3.8087490  72.5056770  70.6662590   4.4327660  73.1236780
  70.0475010   4.0947210  72.4763080  70.6487040   3.7887420  73.8315970
  62.2421940   3.3972100  75.4021260  61.8378940   2.6849350  74.9067160
  62.3285060   3.0525340  76.2909300  68.8427290   3.6714470  70.1309530
  69.2820570   2.8336900  69.9847350  69.5555710   4.3043870  70.2173670
  66.9522670   8.6110540  74.0990770  67.3918580   9.3534870  73.6846160
  66.8909560   8.8537110  75.0229730  58.9426570   2.2917080  72.9027910
  58.8224170   3.0179170  72.2909180  58.6327460   1.5219990  72.4255820
  57.8259570   7.1632410  75.1202730  57.4187650   7.3047000  74.2656330
  58.7172580   6.8792570  74.9173940  69.6192850  11.5979660  71.4553780
  69.4593990  11.3082600  72.3535610  69.4539560  10.8219790  70.9199010
  62.0981230  11.3778190  73.2325400  61.9223710  10.4613730  73.0193200
  61.2436970  11.7365480  73.4723200  69.3218980   9.1067220  70.0151780
  68.6284140   9.1044510  69.3554060  70.0641840   8.6826540  69.5845950
  68.8868910  10.7329930  74.0900270  69.3425860   9.9519310  74.4038890
  69.2261430  11.4436750  74.6341450  63.1341260   1.9785800  69.5320090
  62.5658160   1.5304050  68.9056000  63.8430260   2.3378580  68.9985240
  60.6788740   5.9743990  71.8046500  59.9051000   5.4341610  71.6445220
  61.4083370   5.4550600  71.4664260  60.7226140   5.6424370  75.4425310
  61.2404810   4.8392630  75.3882200  60.2710160   5.5803510  76.2842140
  65.6095640   6.9090650  70.7152610  65.9511340   7.6532880  70.2195930
  64.7808350   7.2221770  71.0777440  71.8849320   2.0478800  69.5044300
  71.8013040   2.4793020  68.6540740  72.6043510   2.5077150  69.9371120
  72.9136570   8.9021060  72.2326430  72.2712730   8.2476680  72.5070150
  72.5267230   9.3076150  71.4567100  68.4923050   6.2306490  76.0798120
  68.8446870   5.6334620  75.4199490  67.6085380   5.9050720  76.2506370
  64.5786330   6.9904180  73.4868530  65.2657460   7.5373390  73.8676120
  63.7918750   7.5344910  73.5218140  56.7178730   2.6077000  68.9785610
  57.5873580   2.8901800  69.2621530  56.2269050   3.4212870  68.8634420
  63.8813540   3.9950210  73.0993890  64.3376320   4.8055460  73.3254080
  63.5301750   3.6773350  73.9312380  71.3033950   7.7937520  68.7702780
  71.0771530   7.0767960  69.3627420  70.9130150   7.5449960  67.9324530
  57.0849980  11.8204380  69.5447240  57.4447620  12.4193720  68.8904510
  56.9442320  12.3664270  70.3182270  70.8850200   5.7109460  70.4316940
  70.5971900   6.1722150  71.2194820  71.6802370   5.2507230  70.7001160
  63.1018600   9.2035580  70.3620910  63.0928700   9.9365270  69.7465420
  62.1816960   8.9567160  70.4547870  58.7025240   4.4250470  71.1067670
  58.0953190   5.1649370  71.1162970  59.1774590   4.5149830  70.2805870
  66.0878200   9.2663820  69.0246100  66.1890180   9.0627810  68.0948080
  65.1879940   9.0122100  69.2293880  64.7296310  11.7850140  73.7193770
  64.9837810  11.7471530  72.7973140  63.7808790  11.6583470  73.7122020
  70.7348890   2.7042020  75.2952280  69.7939030   2.7192250  75.4699970
  71.0492960   1.9177980  75.7412580  60.7130530   4.3861620  68.8556240
  61.4793800   4.2742980  69.4181670  60.7905220   3.6899590  68.2033010
  60.2092000  11.9682080  76.6423670  60.9454480  11.4197540  76.9132240
  60.5932920  12.8338090  76.5029660  57.0937480   8.0355650  72.5165180
  56.1677260   8.2776790  72.5070590  57.5593910   8.8629910  72.3949930
  63.3194310  11.1412390  68.4649240  64.1122920  11.4301220  68.0131030
  62.7998660  10.7104560  67.7861720  72.3724480  10.3682520  69.8885980
  72.0865990   9.9547660  69.0740160  72.1744030  11.2970230  69.7686500
  63.8371710   6.3615800  68.3291590  63.7322350   5.7468150  69.0552970
  63.6695930   5.8381690  67.5454600  67.0774440   5.4235830  68.9333580
  66.5284540   5.8705130  69.5776320  67.6993700   4.9185080  69.4571250
  62.7449560   4.3826750  70.8298880  63.1665980   4.2166620  71.6730270
  62.8700400   3.5726980  70.3354020  65.2577200   3.4064360  68.0775980
  65.7782860   2.6913380  67.7117130  65.9045600   4.0450230  68.3776490
  65.8225230  11.4875970  70.3677720  66.7176020  11.8260940  70.3896480
  65.8542860  10.7655380  69.7402000  59.4621390   6.8603020  68.5964720
  59.8996260   7.4032690  69.2522300  59.9469120   6.0349970  68.6061060
  56.6767190   9.6492050  76.0484980  57.0070200   8.7813110  75.8163620
  57.1058190   9.8550570  76.8789940  61.2729110   7.9801060  73.7086950
  60.9724650   7.8566030  74.6090860  61.1666600   7.1209650  73.3002680
  74.0421030   7.7597460  68.4113630  73.2113990   7.8274110  68.8820860
  74.2192860   8.6501580  68.1080490  73.4977490   4.5044940  70.9147830
  74.2596400   5.0741590  71.0207520  73.5131860   3.9372140  71.6856140
  56.9981830   3.0282870  75.1455490  56.3430670   2.7594510  74.5015190
  57.8359780   2.9187350  74.6957470  74.5037460   5.3595040  75.7589760
  74.8746290   4.5762360  75.3525730  75.1439390   6.0484140  75.5807060
  73.5496660   4.7979310  68.0720350  73.8245500   5.7058190  67.9439570
  73.3607400   4.7341840  69.0082340  73.4462000   2.7348300  73.0649780
  73.0705600   1.9676230  72.6331070  72.7165120   3.1171000  73.5524710
  71.5447270  11.4950220  74.6988350  72.1406340  11.1734790  74.0222770
  71.8025420  11.0222040  75.4901620  57.2040100  11.5563150  74.1281560
  57.0362140  10.9233830  74.8263450  56.3374610  11.7622550  73.7775750
  58.8102800  10.2496380  71.5731700  58.2850420  10.6304410  70.8693660
  58.7347380  10.8747150  72.2941410  73.5668120  11.8083920  72.8945640
  73.7420310  11.1221660  72.2506560  72.8689690  12.3330970  72.5022310
  61.4095770  12.1978760  70.4480950  62.1414590  11.9138040  69.9004840
  61.6689440  11.9592040  71.3380330  60.5710560   8.3143490  70.4527280
  59.9419440   8.7828590  71.0013110  60.6858390   7.4692710  70.8873470
  66.1578320   4.1428170  58.4837750  65.3820420   3.6628610  58.7736320
  66.8091250   3.4633820  58.3093910  60.1744150   4.4547980  59.3613510
  59.3429030   4.1996690  59.7610020  60.7825130   4.5258750  60.0971430
  70.1785750   8.5488360  57.2636880  69.7167280   7.7775600  57.5924050
  70.9911300   8.5754430  57.7689330  60.1545410   8.4888070  59.5571530
  60.4573450   7.5985810  59.3781750  60.8989000   9.0458290  59.3293780
  66.4049060  10.8346370  56.8840870  65.7860500  11.2903870  56.3135310
  67.2600840  10.9897830  56.4830570  65.5987310   6.8185360  58.4907910
  65.5295590   5.8775300  58.3297040  66.3607170   6.9086770  59.0630480
  67.2712410   5.7185610  54.2772780  66.6529680   6.1835060  53.7135500
  67.7835660   6.4113090  54.6942290  62.1344170   5.2461480  60.9556380
  61.8013550   5.8730400  61.5977450  62.3110850   5.7723360  60.1758050
  61.3463270   7.2142280  62.7705560  61.9637270   7.8893360  62.4890010
  60.4856390   7.6230260  62.6793060  56.6395610   6.4042140  51.6512410
  56.2623590   6.8929240  50.9197310  56.8968680   7.0767420  52.2818940
  72.2640860   8.6781690  60.6860200  71.5804380   9.3480800  60.6776870
  72.8035150   8.8762340  59.9205060  69.7999600  10.5225820  59.4005380
  69.8126760  10.1188110  58.5327640  69.2474820  11.2973110  59.2966810
  71.0945020   7.2442040  54.4895550  70.9841350   6.3016370  54.6144970
  71.0913270   7.6057680  55.3758310  69.1985040   5.4255660  60.7287990
  69.6153830   5.2115770  59.8941450  69.9224860   5.6828450  61.2996610
  66.6365300   2.8707360  53.8458040  65.7094580   2.8044740  54.0746510
  66.7890120   3.8087490  53.7313280  73.1447140   3.8242880  60.8204230
  72.3165770   3.8935970  60.3454360  73.7397620   4.4097190  60.3520060
  70.6662590   4.4327660  54.3493290  70.0475010   4.0947210  53.7019590
  70.6487040   3.7887420  55.0572480  62.2421940   3.3972100  56.6277770
  61.8378940   2.6849350  56.1323670  62.3285060   3.0525340  57.5165810
  62.7103640   7.0839660  58.7916980  62.4131930   6.4785130  58.1124760
  63.6603460   7.1216970  58.6806340  70.7989250  10.6571530  62.4540080
  70.3219810  11.4643720  62.2612690  70.1151040  10.0049860  62.6066290
  61.8022070   6.8221350  65.4424780  60.9050600   7.0461320  65.6898180
  61.8274940   6.9456290  64.4936180  68.8427290   3.6714470  51.3566040
  69.2820570   2.8336900  51.2103860  69.5555710   4.3043870  51.4430180
  60.6293290   3.6934670  64.0182150  60.4901060   4.5657470  64.3869550
  59.7474650   3.3507480  63.8730090  66.9522670   8.6110540  55.3247280
  67.3918580   9.3534870  54.9102670  66.8909560   8.8537110  56.2486240
  62.4273640   9.6356370  66.2267300  62.3989070  10.0399320  65.3595730
  62.2638610   8.7066730  66.0638900  58.9426570   2.2917080  54.1284420
  58.8224170   3.0179170  53.5165690  58.6327460   1.5219990  53.6512330
  74.3788460  10.4183470  67.5231470  74.8548180  10.8966360  68.2020550
  74.9995620  10.3500960  66.7976970  56.5811940   5.4632220  59.9353060
  56.6592360   5.5980990  58.9908780  57.1953620   4.7548110  60.1281180
  57.8259570   7.1632410  56.3459240  57.4187650   7.3047000  55.4912840
  58.7172580   6.8792570  56.1430450  73.7821710   7.6096320  64.6831480
  73.9084770   7.3708200  63.7648660  73.8243090   6.7780860  65.1553560
  67.6438450  11.3124320  63.2526290  68.1583120  11.2232330  64.0548720
  66.8007530  11.6584020  63.5454200  69.6192850  11.5979660  52.6810290
  69.4593990  11.3082600  53.5792120  69.4539560  10.8219790  52.1455520
  62.0981230  11.3778190  54.4581910  61.9223710  10.4613730  54.2449710
  61.2436970  11.7365480  54.6979710  69.3218980   9.1067220  51.2408290
  68.6284140   9.1044510  50.5810570  70.0641840   8.6826540  50.8102460
  68.8868910  10.7329930  55.3156780  69.3425860   9.9519310  55.6295400
  69.2261430  11.4436750  55.8597960  56.6371460   6.5046390  62.4747520
  56.8002500   6.0351750  61.6566890  57.1023910   5.9969950  63.1396360
  63.1341260   1.9785800  50.7576600  62.5658160   1.5304050  50.1312510
  63.8430260   2.3378580  50.2241750  58.2110440   5.8797820  64.6343330
  57.8265230   5.2391490  65.2326290  58.5222630   6.5833940  65.2038060
  64.3607580   2.7274360  60.1151950  64.7277710   2.2532930  60.8613290
  64.1712640   3.6015930  60.4560290  62.1506950   1.7683000  62.4336160
  61.8464020   2.6474980  62.6586520  63.1053410   1.8282790  62.4693600
  60.6788740   5.9743990  53.0303010  59.9051000   5.4341610  52.8701730
  61.4083370   5.4550600  52.6920770  71.4376720   4.9709350  58.8229400
  72.1575840   5.4664640  58.4325510  71.2358540   4.2927240  58.1783270
  66.8195520   5.0418410  64.7098400  66.7532830   4.1214080  64.4555990
  66.1900660   5.1393850  65.4243040  60.7226140   5.6424370  56.6681820
  61.2404810   4.8392630  56.6138710  60.2710160   5.5803510  57.5098650
  65.6095640   6.9090650  51.9409120  65.9511340   7.6532880  51.4452440
  64.7808350   7.2221770  52.3033950  58.2070680   2.6085740  63.5807520
  57.8485620   3.2739590  64.1680860  57.9125240   1.7769290  63.9520140
  61.4083800   3.0669980  66.4647070  61.1083940   3.2127160  65.5674890
  62.1795040   2.5075270  66.3720460  66.7512250   7.8638980  64.4602200
  66.7656790   6.9319940  64.2421110  66.0437350   7.9498740  65.0991970
  71.8849320   2.0478800  50.7300810  71.8013040   2.4793020  49.8797250
  72.6043510   2.5077150  51.1627630  72.9623460   4.5046320  63.8070780
  72.2371650   5.0975100  63.6100170  73.4898920   4.4969860  63.0084150
  72.9136570   8.9021060  53.4582940  72.2712730   8.2476680  53.7326660
  72.5267230   9.3076150  52.6823610  68.4923050   6.2306490  57.3054630
  68.8446870   5.6334620  56.6456000  67.6085380   5.9050720  57.4762880
  64.5786330   6.9904180  54.7125040  65.2657460   7.5373390  55.0932630
  63.7918750   7.5344910  54.7474650  56.7178730   2.6077000  50.2042120
  57.5873580   2.8901800  50.4878040  56.2269050   3.4212870  50.0890930
  63.8813540   3.9950210  54.3250400  64.3376320   4.8055460  54.5510590
  63.5301750   3.6773350  55.1568890  66.1846150   9.5056550  61.5542700
  66.8288370   9.7115930  62.2316120  66.5475590   8.7444950  61.1013550
  67.4578230   7.5088900  60.2720150  68.1000460   6.8082060  60.3852320
  67.9827580   8.2887340  60.0917040  71.3033950   7.7937520  49.9959290
  71.0771530   7.0767960  50.5883930  70.9130150   7.5449960  49.1581040
  69.2315850   8.3083800  63.4756210  69.5672090   8.8950490  64.1534130
  68.3116190   8.1776510  63.7054000  57.0849980  11.8204380  50.7703750
  57.4447620  12.4193720  50.1161020  56.9442320  12.3664270  51.5438780
  70.8850200   5.7109460  51.6573450  70.5971900   6.1722150  52.4451330
  71.6802370   5.2507230  51.9257670  57.0691840  10.0859240  65.2446150
  57.1782960   9.1453980  65.1041540  56.4172400  10.3513990  64.5959880
  65.0604430   8.3575130  66.6444270  64.7401300   7.6384370  67.1889960
  64.3862790   9.0330200  66.7180330  63.1018600   9.2035580  51.5877420
  63.0928700   9.9365270  50.9721930  62.1816960   8.9567160  51.6804380
  58.7025240   4.4250470  52.3324180  58.0953190   5.1649370  52.3419480
  59.1774590   4.5149830  51.5062380  66.0878200   9.2663820  50.2502610
  66.1890180   9.0627810  49.3204590  65.1879940   9.0122100  50.4550390
  64.7296310  11.7850140  54.9450280  64.9837810  11.7471530  54.0229650
  63.7808790  11.6583470  54.9378530  70.7348890   2.7042020  56.5208790
  69.7939030   2.7192250  56.6956480  71.0492960   1.9177980  56.9669090
  60.7130530   4.3861620  50.0812750  61.4793800   4.2742980  50.6438180
  60.7905220   3.6899590  49.4289520  72.7374470   9.8750870  58.1963050
  72.8621890  10.6982040  58.6686860  73.6040030   9.6641600  57.8487200
  60.2092000  11.9682080  57.8680180  60.9454480  11.4197540  58.1388750
  60.5932920  12.8338090  57.7286170  57.0937480   8.0355650  53.7421690
  56.1677260   8.2776790  53.7327100  57.5593910   8.8629910  53.6206440
  59.2150280  11.1528150  67.0565760  60.0163010  11.4740200  67.4701160
  58.7002100  10.7923730  67.7785670  63.3194310  11.1412390  49.6905750
  64.1122920  11.4301220  49.2387540  62.7998660  10.7104560  49.0118230
  68.0514910   7.2608020  67.0041170  67.4453070   7.2839620  66.2636920
  67.7469020   6.5291060  67.5408420  69.4815280  10.9888310  65.6150580
  70.4337030  10.9046330  65.5650820  69.3343500  11.6530020  66.2884370
  72.3724480  10.3682520  51.1142490  72.0865990   9.9547660  50.2996670
  72.1744030  11.2970230  50.9943010  56.9348090   3.6401610  66.0001810
  57.4387110   3.0608890  66.5718040  56.1955510   3.9241840  66.5378180
  63.8371710   6.3615800  49.5548100  63.7322350   5.7468150  50.2809480
  63.6695930   5.8381690  48.7711110  63.9886030   5.0472600  65.5337330
  63.2231700   5.6157600  65.4492000  64.1701990   4.7548810  64.6405560
  67.0774440   5.4235830  50.1590090  66.5284540   5.8705130  50.8032830
  67.6993700   4.9185080  50.6827760  71.1309380   6.7777930  66.0912350
  71.8718850   7.1153690  65.5879810  70.3682060   6.9469990  65.5382120
  58.9671170   1.7831200  66.8951880  59.0076510   1.4845070  67.8037110
  59.8216670   2.1838810  66.7359400  62.7449560   4.3826750  52.0555390
  63.1665980   4.2166620  52.8986780  62.8700400   3.5726980  51.5610530
  65.2577200   3.4064360  49.3032490  65.7782860   2.6913380  48.9373640
  65.9045600   4.0450230  49.6033000  69.8055040   4.8292760  64.6267560
  70.2196060   4.9837840  65.4757980  68.8706040   4.9547980  64.7893340
  64.5670270   4.7813240  62.5963490  64.9858380   5.6245970  62.4239730
  63.6478900   4.9185280  62.3670270  66.9034170   2.5129420  63.9801330
  67.0230380   1.9170560  64.7196170  67.7628170   2.5499110  63.5602630
  69.2422070   3.0666610  62.5563840  68.7157290   3.5909230  61.9528980
  69.5853410   3.6994000  63.1873570  62.4177690  11.0866250  63.7121220
  61.8798780  11.8112310  63.3929920  62.6711650  10.6096590  62.9218560
  65.2739900  12.3217460  63.9707870  65.1998600  13.2252600  64.2780240
  64.3718740  12.0029360  63.9429940  65.8225230  11.4875970  51.5934230
  66.7176020  11.8260940  51.6152990  65.8542860  10.7655380  50.9658510
  59.4621390   6.8603020  49.8221230  59.8996260   7.4032690  50.4778810
  59.9469120   6.0349970  49.8317570  56.6767190   9.6492050  57.2741490
  57.0070200   8.7813110  57.0420130  57.1058190   9.8550570  58.1046450
  61.2729110   7.9801060  54.9343460  60.9724650   7.8566030  55.8347370
  61.1666600   7.1209650  54.5259190  57.1657400  10.5162640  60.0123120
  56.7288390  10.6963440  60.8447270  57.7335080  11.2737260  59.8704840
  72.8019580  10.0179640  64.3000430  72.2021570  10.0772200  63.5564350
  72.9313480   9.0784620  64.4297280  74.0421030   7.7597460  49.6370140
  73.2113990   7.8274110  50.1077370  74.2192860   8.6501580  49.3337000
  73.4977490   4.5044940  52.1404340  74.2596400   5.0741590  52.2464030
  73.5131860   3.9372140  52.9112650  56.9981830   3.0282870  56.3712000
  56.3430670   2.7594510  55.7271700  57.8359780   2.9187350  55.9213980
  74.5037460   5.3595040  56.9846270  74.8746290   4.5762360  56.5782240
  75.1439390   6.0484140  56.8063570  71.4871220   6.7431620  62.3976590
  70.6731060   7.1728780  62.6602380  71.8945420   7.3550030  61.7845640
  73.5496660   4.7979310  49.2976860  73.8245500   5.7058190  49.1696080
  73.3607400   4.7341840  50.2338850  73.4462000   2.7348300  54.2906290
  73.0705600   1.9676230  53.8587580  72.7165120   3.1171000  54.7781220
  58.0357760   3.4135440  60.9115340  58.4030800   3.3262840  61.7911360
  57.4668580   2.6501990  60.8122200  72.8361620   1.8819820  63.9245810
  72.6047710   1.6532570  63.0243760  73.0966170   2.8019370  63.8790700
  71.5447270  11.4950220  55.9244860  72.1406340  11.1734790  55.2479280
  71.8025420  11.0222040  56.7158130  59.4509840   7.9268130  66.0735490
  59.4079470   7.5561040  66.9549950  59.5820850   8.8645700  66.2137310
  63.1515870   9.4827720  61.6745210  62.9107230   9.7502280  60.7875730
  64.0918510   9.6533450  61.7296070  74.4120030  11.5022100  62.4755850
  73.9178310  11.8990970  61.7582980  73.8033320  10.8771310  62.8693130
  59.2897870  10.8730380  63.1933270  58.6958190  10.7415080  63.9323310
  59.2821710  10.0368520  62.7275370  72.0959480  12.1445520  59.7542590
  71.6362450  12.8961330  59.3800610  71.4671940  11.4251990  59.6957390
  58.9210100   8.2388760  62.1441310  58.1944160   7.6194050  62.0767260
  58.9819250   8.6329370  61.2739390  62.5255200  10.4533760  58.9290720
  63.0420220   9.8421120  58.4038980  63.1752580  10.9562540  59.4201730
  65.2650700  11.3442250  59.7559700  65.5528510  11.0896550  58.8792710
  65.7773920  10.7919610  60.3465270  57.2040100  11.5563150  55.3538070
  57.0362140  10.9233830  56.0519960  56.3374610  11.7622550  55.0032260
  58.8102800  10.2496380  52.7988210  58.2850420  10.6304410  52.0950170
  58.7347380  10.8747150  53.5197920  65.3323060  12.2658350  67.1227900
  66.2590370  12.0302620  67.1663860  65.3173490  13.0930350  66.6413930
  73.5668120  11.8083920  54.1202150  73.7420310  11.1221660  53.4763070
  72.8689690  12.3330970  53.7278820  61.4095770  12.1978760  51.6737460
  62.1414590  11.9138040  51.1261350  61.6689440  11.9592040  52.5636840
  60.5710560   8.3143490  51.6783790  59.9419440   8.7828590  52.2269620
  60.6858390   7.4692710  52.1129980  71.9000620  11.4928210  66.9468940
  72.6925940  10.9977440  66.7394900  72.1933770  12.1718350  67.5544550
  66.1578320   4.1428170  39.7094260  65.3820420   3.6628610  39.9992830
  66.8091250   3.4633820  39.5350420  60.1744150   4.4547980  40.5870020
  59.3429030   4.1996690  40.9866530  60.7825130   4.5258750  41.3227940
  70.1785750   8.5488360  38.4893390  69.7167280   7.7775600  38.8180560
  70.9911300   8.5754430  38.9945840  60.1545410   8.4888070  40.7828040
  60.4573450   7.5985810  40.6038260  60.8989000   9.0458290  40.5550290
  66.4049060  10.8346370  38.1097380  65.7860500  11.2903870  37.5391820
  67.2600840  10.9897830  37.7087080  65.5987310   6.8185360  39.7164420
  65.5295590   5.8775300  39.5553550  66.3607170   6.9086770  40.2886990
  67.2712410   5.7185610  35.5029290  66.6529680   6.1835060  34.9392010
  67.7835660   6.4113090  35.9198800  62.1344170   5.2461480  42.1812890
  61.8013550   5.8730400  42.8233960  62.3110850   5.7723360  41.4014560
  61.3463270   7.2142280  43.9962070  61.9637270   7.8893360  43.7146520
  60.4856390   7.6230260  43.9049570  56.6395610   6.4042140  32.8768920
  56.2623590   6.8929240  32.1453820  56.8968680   7.0767420  33.5075450
  72.2640860   8.6781690  41.9116710  71.5804380   9.3480800  41.9033380
  72.8035150   8.8762340  41.1461570  69.7999600  10.5225820  40.6261890
  69.8126760  10.1188110  39.7584150  69.2474820  11.2973110  40.5223320
  71.0945020   7.2442040  35.7152060  70.9841350   6.3016370  35.8401480
  71.0913270   7.6057680  36.6014820  69.1985040   5.4255660  41.9544500
  69.6153830   5.2115770  41.1197960  69.9224860   5.6828450  42.5253120
  66.6365300   2.8707360  35.0714550  65.7094580   2.8044740  35.3003020
  66.7890120   3.8087490  34.9569790  73.1447140   3.8242880  42.0460740
  72.3165770   3.8935970  41.5710870  73.7397620   4.4097190  41.5776570
  70.6662590   4.4327660  35.5749800  70.0475010   4.0947210  34.9276100
  70.6487040   3.7887420  36.2828990  62.2421940   3.3972100  37.8534280
  61.8378940   2.6849350  37.3580180  62.3285060   3.0525340  38.7422320
  62.7103640   7.0839660  40.0173490  62.4131930   6.4785130  39.3381270
  63.6603460   7.1216970  39.9062850  70.7989250  10.6571530  43.6796590
  70.3219810  11.4643720  43.4869200  70.1151040  10.0049860  43.8322800
  61.8022070   6.8221350  46.6681290  60.9050600   7.0461320  46.9154690
  61.8274940   6.9456290  45.7192690  68.8427290   3.6714470  32.5822550
  69.2820570   2.8336900  32.4360370  69.5555710   4.3043870  32.6686690
  60.6293290   3.6934670  45.2438660  60.4901060   4.5657470  45.6126060
  59.7474650   3.3507480  45.0986600  66.9522670   8.6110540  36.5503790
  67.3918580   9.3534870  36.1359180  66.8909560   8.8537110  37.4742750
  62.4273640   9.6356370  47.4523810  62.3989070  10.0399320  46.5852240
  62.2638610   8.7066730  47.2895410  58.9426570   2.2917080  35.3540930
  58.8224170   3.0179170  34.7422200  58.6327460   1.5219990  34.8768840
  74.3788460  10.4183470  48.7487980  74.8548180  10.8966360  49.4277060
  74.9995620  10.3500960  48.0233480  56.5811940   5.4632220  41.1609570
  56.6592360   5.5980990  40.2165290  57.1953620   4.7548110  41.3537690
  57.8259570   7.1632410  37.5715750  57.4187650   7.3047000  36.7169350
  58.7172580   6.8792570  37.3686960  73.7821710   7.6096320  45.9087990
  73.9084770   7.3708200  44.9905170  73.8243090   6.7780860  46.3810070
  67.6438450  11.3124320  44.4782800  68.1583120  11.2232330  45.2805230
  66.8007530  11.6584020  44.7710710  69.6192850  11.5979660  33.9066800
  69.4593990  11.3082600  34.8048630  69.4539560  10.8219790  33.3712030
  62.0981230  11.3778190  35.6838420  61.9223710  10.4613730  35.4706220
  61.2436970  11.7365480  35.9236220  69.3218980   9.1067220  32.4664800
  68.6284140   9.1044510  31.8067080  70.0641840   8.6826540  32.0358970
  68.8868910  10.7329930  36.5413290  69.3425860   9.9519310  36.8551910
  69.2261430  11.4436750  37.0854470  56.6371460   6.5046390  43.7004030
  56.8002500   6.0351750  42.8823400  57.1023910   5.9969950  44.3652870
  63.1341260   1.9785800  31.9833110  62.5658160   1.5304050  31.3569020
  63.8430260   2.3378580  31.4498260  58.2110440   5.8797820  45.8599840
  57.8265230   5.2391490  46.4582800  58.5222630   6.5833940  46.4294570
  64.3607580   2.7274360  41.3408460  64.7277710   2.2532930  42.0869800
  64.1712640   3.6015930  41.6816800  62.1506950   1.7683000  43.6592670
  61.8464020   2.6474980  43.8843030  63.1053410   1.8282790  43.6950110
  60.6788740   5.9743990  34.2559520  59.9051000   5.4341610  34.0958240
  61.4083370   5.4550600  33.9177280  71.4376720   4.9709350  40.0485910
  72.1575840   5.4664640  39.6582020  71.2358540   4.2927240  39.4039780
  66.8195520   5.0418410  45.9354910  66.7532830   4.1214080  45.6812500
  66.1900660   5.1393850  46.6499550  60.7226140   5.6424370  37.8938330
  61.2404810   4.8392630  37.8395220  60.2710160   5.5803510  38.7355160
  65.6095640   6.9090650  33.1665630  65.9511340   7.6532880  32.6708950
  64.7808350   7.2221770  33.5290460  58.2070680   2.6085740  44.8064030
  57.8485620   3.2739590  45.3937370  57.9125240   1.7769290  45.1776650
  61.4083800   3.0669980  47.6903580  61.1083940   3.2127160  46.7931400
  62.1795040   2.5075270  47.5976970  66.7512250   7.8638980  45.6858710
  66.7656790   6.9319940  45.4677620  66.0437350   7.9498740  46.3248480
  71.8849320   2.0478800  31.9557320  71.8013040   2.4793020  31.1053760
  72.6043510   2.5077150  32.3884140  72.9623460   4.5046320  45.0327290
  72.2371650   5.0975100  44.8356680  73.4898920   4.4969860  44.2340660
  72.9136570   8.9021060  34.6839450  72.2712730   8.2476680  34.9583170
  72.5267230   9.3076150  33.9080120  68.4923050   6.2306490  38.5311140
  68.8446870   5.6334620  37.8712510  67.6085380   5.9050720  38.7019390
  64.5786330   6.9904180  35.9381550  65.2657460   7.5373390  36.3189140
  63.7918750   7.5344910  35.9731160  56.7178730   2.6077000  31.4298630
  57.5873580   2.8901800  31.7134550  56.2269050   3.4212870  31.3147440
  63.8813540   3.9950210  35.5506910  64.3376320   4.8055460  35.7767100
  63.5301750   3.6773350  36.3825400  66.1846150   9.5056550  42.7799210
  66.8288370   9.7115930  43.4572630  66.5475590   8.7444950  42.3270060
  67.4578230   7.5088900  41.4976660  68.1000460   6.8082060  41.6108830
  67.9827580   8.2887340  41.3173550  71.3033950   7.7937520  31.2215800
  71.0771530   7.0767960  31.8140440  70.9130150   7.5449960  30.3837550
  69.2315850   8.3083800  44.7012720  69.5672090   8.8950490  45.3790640
  68.3116190   8.1776510  44.9310510  57.0849980  11.8204380  31.9960260
  57.4447620  12.4193720  31.3417530  56.9442320  12.3664270  32.7695290
  70.8850200   5.7109460  32.8829960  70.5971900   6.1722150  33.6707840
  71.6802370   5.2507230  33.1514180  57.0691840  10.0859240  46.4702660
  57.1782960   9.1453980  46.3298050  56.4172400  10.3513990  45.8216390
  65.0604430   8.3575130  47.8700780  64.7401300   7.6384370  48.4146470
  64.3862790   9.0330200  47.9436840  63.1018600   9.2035580  32.8133930
  63.0928700   9.9365270  32.1978440  62.1816960   8.9567160  32.9060890
  58.7025240   4.4250470  33.5580690  58.0953190   5.1649370  33.5675990
  59.1774590   4.5149830  32.7318890  66.0878200   9.2663820  31.4759120
  66.1890180   9.0627810  30.5461100  65.1879940   9.0122100  31.6806900
  64.7296310  11.7850140  36.1706790  64.9837810  11.7471530  35.2486160
  63.7808790  11.6583470  36.1635040  70.7348890   2.7042020  37.7465300
  69.7939030   2.7192250  37.9212990  71.0492960   1.9177980  38.1925600
  60.7130530   4.3861620  31.3069260  61.4793800   4.2742980  31.8694690
  60.7905220   3.6899590  30.6546030  72.7374470   9.8750870  39.4219560
  72.8621890  10.6982040  39.8943370  73.6040030   9.6641600  39.0743710
  60.2092000  11.9682080  39.0936690  60.9454480  11.4197540  39.3645260
  60.5932920  12.8338090  38.9542680  57.0937480   8.0355650  34.9678200
  56.1677260   8.2776790  34.9583610  57.5593910   8.8629910  34.8462950
  59.2150280  11.1528150  48.2822270  60.0163010  11.4740200  48.6957670
  58.7002100  10.7923730  49.0042180  63.3194310  11.1412390  30.9162260
  64.1122920  11.4301220  30.4644050  62.7998660  10.7104560  30.2374740
  68.0514910   7.2608020  48.2297680  67.4453070   7.2839620  47.4893430
  67.7469020   6.5291060  48.7664930  69.4815280  10.9888310  46.8407090
  70.4337030  10.9046330  46.7907330  69.3343500  11.6530020  47.5140880
  72.3724480  10.3682520  32.3399000  72.0865990   9.9547660  31.5253180
  72.1744030  11.2970230  32.2199520  56.9348090   3.6401610  47.2258320
  57.4387110   3.0608890  47.7974550  56.1955510   3.9241840  47.7634690
  63.8371710   6.3615800  30.7804610  63.7322350   5.7468150  31.5065990
  63.6695930   5.8381690  29.9967620  63.9886030   5.0472600  46.7593840
  63.2231700   5.6157600  46.6748510  64.1701990   4.7548810  45.8662070
  67.0774440   5.4235830  31.3846600  66.5284540   5.8705130  32.0289340
  67.6993700   4.9185080  31.9084270  71.1309380   6.7777930  47.3168860
  71.8718850   7.1153690  46.8136320  70.3682060   6.9469990  46.7638630
  58.9671170   1.7831200  48.1208390  59.0076510   1.4845070  49.0293620
  59.8216670   2.1838810  47.9615910  62.7449560   4.3826750  33.2811900
  63.1665980   4.2166620  34.1243290  62.8700400   3.5726980  32.7867040
  65.2577200   3.4064360  30.5289000  65.7782860   2.6913380  30.1630150
  65.9045600   4.0450230  30.8289510  69.8055040   4.8292760  45.8524070
  70.2196060   4.9837840  46.7014490  68.8706040   4.9547980  46.0149850
  64.5670270   4.7813240  43.8220000  64.9858380   5.6245970  43.6496240
  63.6478900   4.9185280  43.5926780  66.9034170   2.5129420  45.2057840
  67.0230380   1.9170560  45.9452680  67.7628170   2.5499110  44.7859140
  69.2422070   3.0666610  43.7820350  68.7157290   3.5909230  43.1785490
  69.5853410   3.6994000  44.4130080  62.4177690  11.0866250  44.9377730
  61.8798780  11.8112310  44.6186430  62.6711650  10.6096590  44.1475070
  65.2739900  12.3217460  45.1964380  65.1998600  13.2252600  45.5036750
  64.3718740  12.0029360  45.1686450  65.8225230  11.4875970  32.8190740
  66.7176020  11.8260940  32.8409500  65.8542860  10.7655380  32.1915020
  59.4621390   6.8603020  31.0477740  59.8996260   7.4032690  31.7035320
  59.9469120   6.0349970  31.0574080  56.6767190   9.6492050  38.4998000
  57.0070200   8.7813110  38.2676640  57.1058190   9.8550570  39.3302960
  61.2729110   7.9801060  36.1599970  60.9724650   7.8566030  37.0603880
  61.1666600   7.1209650  35.7515700  57.1657400  10.5162640  41.2379630
  56.7288390  10.6963440  42.0703780  57.7335080  11.2737260  41.0961350
  72.8019580  10.0179640  45.5256940  72.2021570  10.0772200  44.7820860
  72.9313480   9.0784620  45.6553790  74.0421030   7.7597460  30.8626650
  73.2113990   7.8274110  31.3333880  74.2192860   8.6501580  30.5593510
  73.4977490   4.5044940  33.3660850  74.2596400   5.0741590  33.4720540
  73.5131860   3.9372140  34.1369160  56.9981830   3.0282870  37.5968510
  56.3430670   2.7594510  36.9528210  57.8359780   2.9187350  37.1470490
  74.5037460   5.3595040  38.2102780  74.8746290   4.5762360  37.8038750
  75.1439390   6.0484140  38.0320080  71.4871220   6.7431620  43.6233100
  70.6731060   7.1728780  43.8858890  71.8945420   7.3550030  43.0102150
  73.5496660   4.7979310  30.5233370  73.8245500   5.7058190  30.3952590
  73.3607400   4.7341840  31.4595360  73.4462000   2.7348300  35.5162800
  73.0705600   1.9676230  35.0844090  72.7165120   3.1171000  36.0037730
  58.0357760   3.4135440  42.1371850  58.4030800   3.3262840  43.0167870
  57.4668580   2.6501990  42.0378710  72.8361620   1.8819820  45.1502320
  72.6047710   1.6532570  44.2500270  73.0966170   2.8019370  45.1047210
  71.5447270  11.4950220  37.1501370  72.1406340  11.1734790  36.4735790
  71.8025420  11.0222040  37.9414640  59.4509840   7.9268130  47.2992000
  59.4079470   7.5561040  48.1806460  59.5820850   8.8645700  47.4393820
  63.1515870   9.4827720  42.9001720  62.9107230   9.7502280  42.0132240
  64.0918510   9.6533450  42.9552580  74.4120030  11.5022100  43.7012360
  73.9178310  11.8990970  42.9839490  73.8033320  10.8771310  44.0949640
  59.2897870  10.8730380  44.4189780  58.6958190  10.7415080  45.1579820
  59.2821710  10.0368520  43.9531880  72.0959480  12.1445520  40.9799100
  71.6362450  12.8961330  40.6057120  71.4671940  11.4251990  40.9213900
  58.9210100   8.2388760  43.3697820  58.1944160   7.6194050  43.3023770
  58.9819250   8.6329370  42.4995900  62.5255200  10.4533760  40.1547230
  63.0420220   9.8421120  39.6295490  63.1752580  10.9562540  40.6458240
  65.2650700  11.3442250  40.9816210  65.5528510  11.0896550  40.1049220
  65.7773920  10.7919610  41.5721780  57.2040100  11.5563150  36.5794580
  57.0362140  10.9233830  37.2776470  56.3374610  11.7622550  36.2288770
  58.8102800  10.2496380  34.0244720  58.2850420  10.6304410  33.3206680
  58.7347380  10.8747150  34.7454430  65.3323060  12.2658350  48.3484410
  66.2590370  12.0302620  48.3920370  65.3173490  13.0930350  47.8670440
  73.5668120  11.8083920  35.3458660  73.7420310  11.1221660  34.7019580
  72.8689690  12.3330970  34.9535330  61.4095770  12.1978760  32.8993970
  62.1414590  11.9138040  32.3517860  61.6689440  11.9592040  33.7893350
  60.5710560   8.3143490  32.9040300  59.9419440   8.7828590  33.4526130
  60.6858390   7.4692710  33.3386490  71.9000620  11.4928210  48.1725450
  72.6925940  10.9977440  47.9651410  72.1933770  12.1718350  48.7801060
  66.1578320   4.1428170  20.9350770  65.3820420   3.6628610  21.2249340
  66.8091250   3.4633820  20.7606930  60.1744150   4.4547980  21.8126530
  59.3429030   4.1996690  22.2123040  60.7825130   4.5258750  22.5484450
  70.1785750   8.5488360  19.7149900  69.7167280   7.7775600  20.0437070
  70.9911300   8.5754430  20.2202350  60.1545410   8.4888070  22.0084550
  60.4573450   7.5985810  21.8294770  60.8989000   9.0458290  21.7806800
  66.4049060  10.8346370  19.3353890  65.7860500  11.2903870  18.7648330
  67.2600840  10.9897830  18.9343590  65.5987310   6.8185360  20.9420930
  65.5295590   5.8775300  20.7810060  66.3607170   6.9086770  21.5143500
  67.2712410   5.7185610  16.7285800  66.6529680   6.1835060  16.1648520
  67.7835660   6.4113090  17.1455310  62.1344170   5.2461480  23.4069400
  61.8013550   5.8730400  24.0490470  62.3110850   5.7723360  22.6271070
  61.3463270   7.2142280  25.2218580  61.9637270   7.8893360  24.9403030
  60.4856390   7.6230260  25.1306080  56.6395610   6.4042140  14.1025430
  56.2623590   6.8929240  13.3710330  56.8968680   7.0767420  14.7331960
  72.2640860   8.6781690  23.1373220  71.5804380   9.3480800  23.1289890
  72.8035150   8.8762340  22.3718080  69.7999600  10.5225820  21.8518400
  69.8126760  10.1188110  20.9840660  69.2474820  11.2973110  21.7479830
  71.0945020   7.2442040  16.9408570  70.9841350   6.3016370  17.0657990
  71.0913270   7.6057680  17.8271330  69.1985040   5.4255660  23.1801010
  69.6153830   5.2115770  22.3454470  69.9224860   5.6828450  23.7509630
  66.6365300   2.8707360  16.2971060  65.7094580   2.8044740  16.5259530
  66.7890120   3.8087490  16.1826300  73.1447140   3.8242880  23.2717250
  72.3165770   3.8935970  22.7967380  73.7397620   4.4097190  22.8033080
  70.6662590   4.4327660  16.8006310  70.0475010   4.0947210  16.1532610
  70.6487040   3.7887420  17.5085500  62.2421940   3.3972100  19.0790790
  61.8378940   2.6849350  18.5836690  62.3285060   3.0525340  19.9678830
  62.7103640   7.0839660  21.2430000  62.4131930   6.4785130  20.5637780
  63.6603460   7.1216970  21.1319360  70.7989250  10.6571530  24.9053100
  70.3219810  11.4643720  24.7125710  70.1151040  10.0049860  25.0579310
  61.8022070   6.8221350  27.8937800  60.9050600   7.0461320  28.1411200
  61.8274940   6.9456290  26.9449200  68.8427290   3.6714470  13.8079060
  69.2820570   2.8336900  13.6616880  69.5555710   4.3043870  13.8943200
  60.6293290   3.6934670  26.4695170  60.4901060   4.5657470  26.8382570
  59.7474650   3.3507480  26.3243110  66.9522670   8.6110540  17.7760300
  67.3918580   9.3534870  17.3615690  66.8909560   8.8537110  18.6999260
  62.4273640   9.6356370  28.6780320  62.3989070  10.0399320  27.8108750
  62.2638610   8.7066730  28.5151920  58.9426570   2.2917080  16.5797440
  58.8224170   3.0179170  15.9678710  58.6327460   1.5219990  16.1025350
  74.3788460  10.4183470  29.9744490  74.8548180  10.8966360  30.6533570
  74.9995620  10.3500960  29.2489990  56.5811940   5.4632220  22.3866080
  56.6592360   5.5980990  21.4421800  57.1953620   4.7548110  22.5794200
  57.8259570   7.1632410  18.7972260  57.4187650   7.3047000  17.9425860
  58.7172580   6.8792570  18.5943470  73.7821710   7.6096320  27.1344500
  73.9084770   7.3708200  26.2161680  73.8243090   6.7780860  27.6066580
  67.6438450  11.3124320  25.7039310  68.1583120  11.2232330  26.5061740
  66.8007530  11.6584020  25.9967220  69.6192850  11.5979660  15.1323310
  69.4593990  11.3082600  16.0305140  69.4539560  10.8219790  14.5968540
  62.0981230  11.3778190  16.9094930  61.9223710  10.4613730  16.6962730
  61.2436970  11.7365480  17.1492730  69.3218980   9.1067220  13.6921310
  68.6284140   9.1044510  13.0323590  70.0641840   8.6826540  13.2615480
  68.8868910  10.7329930  17.7669800  69.3425860   9.9519310  18.0808420
  69.2261430  11.4436750  18.3110980  56.6371460   6.5046390  24.9260540
  56.8002500   6.0351750  24.1079910  57.1023910   5.9969950  25.5909380
  63.1341260   1.9785800  13.2089620  62.5658160   1.5304050  12.5825530
  63.8430260   2.3378580  12.6754770  58.2110440   5.8797820  27.0856350
  57.8265230   5.2391490  27.6839310  58.5222630   6.5833940  27.6551080
  64.3607580   2.7274360  22.5664970  64.7277710   2.2532930  23.3126310
  64.1712640   3.6015930  22.9073310  62.1506950   1.7683000  24.8849180
  61.8464020   2.6474980  25.1099540  63.1053410   1.8282790  24.9206620
  60.6788740   5.9743990  15.4816030  59.9051000   5.4341610  15.3214750
  61.4083370   5.4550600  15.1433790  71.4376720   4.9709350  21.2742420
  72.1575840   5.4664640  20.8838530  71.2358540   4.2927240  20.6296290
  66.8195520   5.0418410  27.1611420  66.7532830   4.1214080  26.9069010
  66.1900660   5.1393850  27.8756060  60.7226140   5.6424370  19.1194840
  61.2404810   4.8392630  19.0651730  60.2710160   5.5803510  19.9611670
  65.6095640   6.9090650  14.3922140  65.9511340   7.6532880  13.8965460
  64.7808350   7.2221770  14.7546970  58.2070680   2.6085740  26.0320540
  57.8485620   3.2739590  26.6193880  57.9125240   1.7769290  26.4033160
  61.4083800   3.0669980  28.9160090  61.1083940   3.2127160  28.0187910
  62.1795040   2.5075270  28.8233480  66.7512250   7.8638980  26.9115220
  66.7656790   6.9319940  26.6934130  66.0437350   7.9498740  27.5504990
  71.8849320   2.0478800  13.1813830  71.8013040   2.4793020  12.3310270
  72.6043510   2.5077150  13.6140650  72.9623460   4.5046320  26.2583800
  72.2371650   5.0975100  26.0613190  73.4898920   4.4969860  25.4597170
  72.9136570   8.9021060  15.9095960  72.2712730   8.2476680  16.1839680
  72.5267230   9.3076150  15.1336630  68.4923050   6.2306490  19.7567650
  68.8446870   5.6334620  19.0969020  67.6085380   5.9050720  19.9275900
  64.5786330   6.9904180  17.1638060  65.2657460   7.5373390  17.5445650
  63.7918750   7.5344910  17.1987670  56.7178730   2.6077000  12.6555140
  57.5873580   2.8901800  12.9391060  56.2269050   3.4212870  12.5403950
  63.8813540   3.9950210  16.7763420  64.3376320   4.8055460  17.0023610
  63.5301750   3.6773350  17.6081910  66.1846150   9.5056550  24.0055720
  66.8288370   9.7115930  24.6829140  66.5475590   8.7444950  23.5526570
  67.4578230   7.5088900  22.7233170  68.1000460   6.8082060  22.8365340
  67.9827580   8.2887340  22.5430060  71.3033950   7.7937520  12.4472310
  71.0771530   7.0767960  13.0396950  70.9130150   7.5449960  11.6094060
  69.2315850   8.3083800  25.9269230  69.5672090   8.8950490  26.6047150
  68.3116190   8.1776510  26.1567020  57.0849980  11.8204380  13.2216770
  57.4447620  12.4193720  12.5674040  56.9442320  12.3664270  13.9951800
  70.8850200   5.7109460  14.1086470  70.5971900   6.1722150  14.8964350
  71.6802370   5.2507230  14.3770690  57.0691840  10.0859240  27.6959170
  57.1782960   9.1453980  27.5554560  56.4172400  10.3513990  27.0472900
  65.0604430   8.3575130  29.0957290  64.7401300   7.6384370  29.6402980
  64.3862790   9.0330200  29.1693350  63.1018600   9.2035580  14.0390440
  63.0928700   9.9365270  13.4234950  62.1816960   8.9567160  14.1317400
  58.7025240   4.4250470  14.7837200  58.0953190   5.1649370  14.7932500
  59.1774590   4.5149830  13.9575400  66.0878200   9.2663820  12.7015630
  66.1890180   9.0627810  11.7717610  65.1879940   9.0122100  12.9063410
  64.7296310  11.7850140  17.3963300  64.9837810  11.7471530  16.4742670
  63.7808790  11.6583470  17.3891550  70.7348890   2.7042020  18.9721810
  69.7939030   2.7192250  19.1469500  71.0492960   1.9177980  19.4182110
  60.7130530   4.3861620  12.5325770  61.4793800   4.2742980  13.0951200
  60.7905220   3.6899590  11.8802540  72.7374470   9.8750870  20.6476070
  72.8621890  10.6982040  21.1199880  73.6040030   9.6641600  20.3000220
  60.2092000  11.9682080  20.3193200  60.9454480  11.4197540  20.5901770
  60.5932920  12.8338090  20.1799190  57.0937480   8.0355650  16.1934710
  56.1677260   8.2776790  16.1840120  57.5593910   8.8629910  16.0719460
  59.2150280  11.1528150  29.5078780  60.0163010  11.4740200  29.9214180
  58.7002100  10.7923730  30.2298690  63.3194310  11.1412390  12.1418770
  64.1122920  11.4301220  11.6900560  62.7998660  10.7104560  11.4631250
  68.0514910   7.2608020  29.4554190  67.4453070   7.2839620  28.7149940
  67.7469020   6.5291060  29.9921440  69.4815280  10.9888310  28.0663600
  70.4337030  10.9046330  28.0163840  69.3343500  11.6530020  28.7397390
  72.3724480  10.3682520  13.5655510  72.0865990   9.9547660  12.7509690
  72.1744030  11.2970230  13.4456030  56.9348090   3.6401610  28.4514830
  57.4387110   3.0608890  29.0231060  56.1955510   3.9241840  28.9891200
  63.8371710   6.3615800  12.0061120  63.7322350   5.7468150  12.7322500
  63.6695930   5.8381690  11.2224130  63.9886030   5.0472600  27.9850350
  63.2231700   5.6157600  27.9005020  64.1701990   4.7548810  27.0918580
  67.0774440   5.4235830  12.6103110  66.5284540   5.8705130  13.2545850
  67.6993700   4.9185080  13.1340780  71.1309380   6.7777930  28.5425370
  71.8718850   7.1153690  28.0392830  70.3682060   6.9469990  27.9895140
  58.9671170   1.7831200  29.3464900  59.0076510   1.4845070  30.2550130
  59.8216670   2.1838810  29.1872420  62.7449560   4.3826750  14.5068410
  63.1665980   4.2166620  15.3499800  62.8700400   3.5726980  14.0123550
  65.2577200   3.4064360  11.7545510  65.7782860   2.6913380  11.3886660
  65.9045600   4.0450230  12.0546020  69.8055040   4.8292760  27.0780580
  70.2196060   4.9837840  27.9271000  68.8706040   4.9547980  27.2406360
  64.5670270   4.7813240  25.0476510  64.9858380   5.6245970  24.8752750
  63.6478900   4.9185280  24.8183290  66.9034170   2.5129420  26.4314350
  67.0230380   1.9170560  27.1709190  67.7628170   2.5499110  26.0115650
  69.2422070   3.0666610  25.0076860  68.7157290   3.5909230  24.4042000
  69.5853410   3.6994000  25.6386590  62.4177690  11.0866250  26.1634240
  61.8798780  11.8112310  25.8442940  62.6711650  10.6096590  25.3731580
  65.2739900  12.3217460  26.4220890  65.1998600  13.2252600  26.7293260
  64.3718740  12.0029360  26.3942960  65.8225230  11.4875970  14.0447250
  66.7176020  11.8260940  14.0666010  65.8542860  10.7655380  13.4171530
  59.4621390   6.8603020  12.2734250  59.8996260   7.4032690  12.9291830
  59.9469120   6.0349970  12.2830590  56.6767190   9.6492050  19.7254510
  57.0070200   8.7813110  19.4933150  57.1058190   9.8550570  20.5559470
  61.2729110   7.9801060  17.3856480  60.9724650   7.8566030  18.2860390
  61.1666600   7.1209650  16.9772210  57.1657400  10.5162640  22.4636140
  56.7288390  10.6963440  23.2960290  57.7335080  11.2737260  22.3217860
  72.8019580  10.0179640  26.7513450  72.2021570  10.0772200  26.0077370
  72.9313480   9.0784620  26.8810300  74.0421030   7.7597460  12.0883160
  73.2113990   7.8274110  12.5590390  74.2192860   8.6501580  11.7850020
  73.4977490   4.5044940  14.5917360  74.2596400   5.0741590  14.6977050
  73.5131860   3.9372140  15.3625670  56.9981830   3.0282870  18.8225020
  56.3430670   2.7594510  18.1784720  57.8359780   2.9187350  18.3727000
  74.5037460   5.3595040  19.4359290  74.8746290   4.5762360  19.0295260
  75.1439390   6.0484140  19.2576590  71.4871220   6.7431620  24.8489610
  70.6731060   7.1728780  25.1115400  71.8945420   7.3550030  24.2358660
  73.5496660   4.7979310  11.7489880  73.8245500   5.7058190  11.6209100
  73.3607400   4.7341840  12.6851870  73.4462000   2.7348300  16.7419310
  73.0705600   1.9676230  16.3100600  72.7165120   3.1171000  17.2294240
  58.0357760   3.4135440  23.3628360  58.4030800   3.3262840  24.2424380
  57.4668580   2.6501990  23.2635220  72.8361620   1.8819820  26.3758830
  72.6047710   1.6532570  25.4756780  73.0966170   2.8019370  26.3303720
  71.5447270  11.4950220  18.3757880  72.1406340  11.1734790  17.6992300
  71.8025420  11.0222040  19.1671150  59.4509840   7.9268130  28.5248510
  59.4079470   7.5561040  29.4062970  59.5820850   8.8645700  28.6650330
  63.1515870   9.4827720  24.1258230  62.9107230   9.7502280  23.2388750
  64.0918510   9.6533450  24.1809090  74.4120030  11.5022100  24.9268870
  73.9178310  11.8990970  24.2096000  73.8033320  10.8771310  25.3206150
  59.2897870  10.8730380  25.6446290  58.6958190  10.7415080  26.3836330
  59.2821710  10.0368520  25.1788390  72.0959480  12.1445520  22.2055610
  71.6362450  12.8961330  21.8313630  71.4671940  11.4251990  22.1470410
  58.9210100   8.2388760  24.5954330  58.1944160   7.6194050  24.5280280
  58.9819250   8.6329370  23.7252410  62.5255200  10.4533760  21.3803740
  63.0420220   9.8421120  20.8552000  63.1752580  10.9562540  21.8714750
  65.2650700  11.3442250  22.2072720  65.5528510  11.0896550  21.3305730
  65.7773920  10.7919610  22.7978290  57.2040100  11.5563150  17.8051090
  57.0362140  10.9233830  18.5032980  56.3374610  11.7622550  17.4545280
  58.8102800  10.2496380  15.2501230  58.2850420  10.6304410  14.5463190
  58.7347380  10.8747150  15.9710940  65.3323060  12.2658350  29.5740920
  66.2590370  12.0302620  29.6176880  65.3173490  13.0930350  29.0926950
  73.5668120  11.8083920  16.5715170  73.7420310  11.1221660  15.9276090
  72.8689690  12.3330970  16.1791840  61.4095770  12.1978760  14.1250480
  62.1414590  11.9138040  13.5774370  61.6689440  11.9592040  15.0149860
  60.5710560   8.3143490  14.1296810  59.9419440   8.7828590  14.6782640
  60.6858390   7.4692710  14.5643000  71.9000620  11.4928210  29.3981960
  72.6925940  10.9977440  29.1907920  72.1933770  12.1718350  30.0057570
  66.1578320   4.1428170   2.1607280  65.3820420   3.6628610   2.4505850
  66.8091250   3.4633820   1.9863440  60.1744150   4.4547980   3.0383040
  59.3429030   4.1996690   3.4379550  60.7825130   4.5258750   3.7740960
  60.1545410   8.4888070   3.2341060  60.4573450   7.5985810   3.0551280
  60.8989000   9.0458290   3.0063310  65.5987310   6.8185360   2.1677440
  65.5295590   5.8775300   2.0066570  66.3607170   6.9086770   2.7400010
  62.1344170   5.2461480   4.6325910  61.8013550   5.8730400   5.2746980
  62.3110850   5.7723360   3.8527580  61.3463270   7.2142280   6.4475090
  61.9637270   7.8893360   6.1659540  60.4856390   7.6230260   6.3562590
  72.2640860   8.6781690   4.3629730  71.5804380   9.3480800   4.3546400
  72.8035150   8.8762340   3.5974590  69.7999600  10.5225820   3.0774910
  69.8126760  10.1188110   2.2097170  69.2474820  11.2973110   2.9736340
  69.1985040   5.4255660   4.4057520  69.6153830   5.2115770   3.5710980
  69.9224860   5.6828450   4.9766140  73.1447140   3.8242880   4.4973760
  72.3165770   3.8935970   4.0223890  73.7397620   4.4097190   4.0289590
  62.7103640   7.0839660   2.4686510  62.4131930   6.4785130   1.7894290
  63.6603460   7.1216970   2.3575870  70.7989250  10.6571530   6.1309610
  70.3219810  11.4643720   5.9382220  70.1151040  10.0049860   6.2835820
  61.8022070   6.8221350   9.1194310  60.9050600   7.0461320   9.3667710
  61.8274940   6.9456290   8.1705710  60.6293290   3.6934670   7.6951680
  60.4901060   4.5657470   8.0639080  59.7474650   3.3507480   7.5499620
  62.4273640   9.6356370   9.9036830  62.3989070  10.0399320   9.0365260
  62.2638610   8.7066730   9.7408430  74.3788460  10.4183470  11.2001000
  74.8548180  10.8966360  11.8790080  74.9995620  10.3500960  10.4746500
  56.5811940   5.4632220   3.6122590  56.6592360   5.5980990   2.6678310
  57.1953620   4.7548110   3.8050710  73.7821710   7.6096320   8.3601010
  73.9084770   7.3708200   7.4418190  73.8243090   6.7780860   8.8323090
  67.6438450  11.3124320   6.9295820  68.1583120  11.2232330   7.7318250
  66.8007530  11.6584020   7.2223730  56.6371460   6.5046390   6.1517050
  56.8002500   6.0351750   5.3336420  57.1023910   5.9969950   6.8165890
  58.2110440   5.8797820   8.3112860  57.8265230   5.2391490   8.9095820
  58.5222630   6.5833940   8.8807590  64.3607580   2.7274360   3.7921480
  64.7277710   2.2532930   4.5382820  64.1712640   3.6015930   4.1329820
  62.1506950   1.7683000   6.1105690  61.8464020   2.6474980   6.3356050
  63.1053410   1.8282790   6.1463130  71.4376720   4.9709350   2.4998930
  72.1575840   5.4664640   2.1095040  71.2358540   4.2927240   1.8552800
  66.8195520   5.0418410   8.3867930  66.7532830   4.1214080   8.1325520
  66.1900660   5.1393850   9.1012570  58.2070680   2.6085740   7.2577050
  57.8485620   3.2739590   7.8450390  57.9125240   1.7769290   7.6289670
  61.4083800   3.0669980  10.1416600  61.1083940   3.2127160   9.2444420
  62.1795040   2.5075270  10.0489990  66.7512250   7.8638980   8.1371730
  66.7656790   6.9319940   7.9190640  66.0437350   7.9498740   8.7761500
  72.9623460   4.5046320   7.4840310  72.2371650   5.0975100   7.2869700
  73.4898920   4.4969860   6.6853680  66.1846150   9.5056550   5.2312230
  66.8288370   9.7115930   5.9085650  66.5475590   8.7444950   4.7783080
  67.4578230   7.5088900   3.9489680  68.1000460   6.8082060   4.0621850
  67.9827580   8.2887340   3.7686570  69.2315850   8.3083800   7.1525740
  69.5672090   8.8950490   7.8303660  68.3116190   8.1776510   7.3823530
  57.0691840  10.0859240   8.9215680  57.1782960   9.1453980   8.7811070
  56.4172400  10.3513990   8.2729410  65.0604430   8.3575130  10.3213800
  64.7401300   7.6384370  10.8659490  64.3862790   9.0330200  10.3949860
  72.7374470   9.8750870   1.8732580  72.8621890  10.6982040   2.3456390
  73.6040030   9.6641600   1.5256730  59.2150280  11.1528150  10.7335290
  60.0163010  11.4740200  11.1470690  58.7002100  10.7923730  11.4555200
  68.0514910   7.2608020  10.6810700  67.4453070   7.2839620   9.9406450
  67.7469020   6.5291060  11.2177950  69.4815280  10.9888310   9.2920110
  70.4337030  10.9046330   9.2420350  69.3343500  11.6530020   9.9653900
  56.9348090   3.6401610   9.6771340  57.4387110   3.0608890  10.2487570
  56.1955510   3.9241840  10.2147710  63.9886030   5.0472600   9.2106860
  63.2231700   5.6157600   9.1261530  64.1701990   4.7548810   8.3175090
  71.1309380   6.7777930   9.7681880  71.8718850   7.1153690   9.2649340
  70.3682060   6.9469990   9.2151650  58.9671170   1.7831200  10.5721410
  59.0076510   1.4845070  11.4806640  59.8216670   2.1838810  10.4128930
  69.8055040   4.8292760   8.3037090  70.2196060   4.9837840   9.1527510
  68.8706040   4.9547980   8.4662870  64.5670270   4.7813240   6.2733020
  64.9858380   5.6245970   6.1009260  63.6478900   4.9185280   6.0439800
  66.9034170   2.5129420   7.6570860  67.0230380   1.9170560   8.3965700
  67.7628170   2.5499110   7.2372160  69.2422070   3.0666610   6.2333370
  68.7157290   3.5909230   5.6298510  69.5853410   3.6994000   6.8643100
  62.4177690  11.0866250   7.3890750  61.8798780  11.8112310   7.0699450
  62.6711650  10.6096590   6.5988090  65.2739900  12.3217460   7.6477400
  65.1998600  13.2252600   7.9549770  64.3718740  12.0029360   7.6199470
  57.1657400  10.5162640   3.6892650  56.7288390  10.6963440   4.5216800
  57.7335080  11.2737260   3.5474370  72.8019580  10.0179640   7.9769960
  72.2021570  10.0772200   7.2333880  72.9313480   9.0784620   8.1066810
  71.4871220   6.7431620   6.0746120  70.6731060   7.1728780   6.3371910
  71.8945420   7.3550030   5.4615170  58.0357760   3.4135440   4.5884870
  58.4030800   3.3262840   5.4680890  57.4668580   2.6501990   4.4891730
  72.8361620   1.8819820   7.6015340  72.6047710   1.6532570   6.7013290
  73.0966170   2.8019370   7.5560230  59.4509840   7.9268130   9.7505020
  59.4079470   7.5561040  10.6319480  59.5820850   8.8645700   9.8906840
  63.1515870   9.4827720   5.3514740  62.9107230   9.7502280   4.4645260
  64.0918510   9.6533450   5.4065600  74.4120030  11.5022100   6.1525380
  73.9178310  11.8990970   5.4352510  73.8033320  10.8771310   6.5462660
  59.2897870  10.8730380   6.8702800  58.6958190  10.7415080   7.6092840
  59.2821710  10.0368520   6.4044900  72.0959480  12.1445520   3.4312120
  71.6362450  12.8961330   3.0570140  71.4671940  11.4251990   3.3726920
  58.9210100   8.2388760   5.8210840  58.1944160   7.6194050   5.7536790
  58.9819250   8.6329370   4.9508920  62.5255200  10.4533760   2.6060250
  63.0420220   9.8421120   2.0808510  63.1752580  10.9562540   3.0971260
  65.2650700  11.3442250   3.4329230  65.5528510  11.0896550   2.5562240
  65.7773920  10.7919610   4.0234800  65.3323060  12.2658350  10.7997430
  66.2590370  12.0302620  10.8433390  65.3173490  13.0930350  10.3183460
  71.9000620  11.4928210  10.6238470  72.6925940  10.9977440  10.4164430
  72.1933770  12.1718350  11.2314080  49.2516790  96.2366600  75.3771970
  49.1710840  95.3221210  75.1063680  48.8381210  96.7333670  74.6711680
  39.8092610  93.2867320  71.9199390  38.9209310  93.6283290  71.8179270
  40.0933800  93.0867640  71.0280220  41.9854000  91.8698820  72.9537770
  42.0920750  92.7702550  73.2606530  41.0746360  91.8216790  72.6632420
  51.6373110  90.9923630  74.4248670  52.4582730  90.5020200  74.4674150
  51.6707190  91.5821290  75.1780510  45.4741050  88.6775980  75.8841410
  45.7816030  88.1222870  75.1676910  44.5441750  88.8120440  75.7014400
  47.8621810  96.7424810  72.6201530  46.9351090  96.6762190  72.8490000
  48.0146630  97.6804940  72.5056770  47.8490890  93.0141810  69.6168690
  46.9094560  93.1755770  69.7021150  48.1674150  93.7327490  69.0704680
  51.8919100  98.3045110  73.1236780  51.2731520  97.9664660  72.4763080
  51.8743550  97.6604870  73.8315970  43.4678450  97.2689550  75.4021260
  43.0635450  96.5566800  74.9067160  43.5541570  96.9242790  76.2909300
  50.0683800  97.5431920  70.1309530  50.5077080  96.7054350  69.9847350
  50.7812220  98.1761320  70.2173670  53.6500940  88.7974730  68.4450570
  53.3373600  88.8901560  69.3449640  54.4113410  89.3755760  68.3948000
  40.1683080  96.1634530  72.9027910  40.0480680  96.8896620  72.2909180
  39.8583970  95.3937440  72.4255820  42.6346740  89.5069600  76.2851580
  42.1914890  90.2879140  75.9536100  43.1931730  89.8299490  76.9922520
  45.7505560  89.1280300  71.1657410  45.1259740  89.1240170  71.8910720
  45.6635680  88.2611260  70.7693380  42.4260960  94.6303170  74.0132830
  42.2001880  94.4140340  74.9179450  41.6453490  95.0631630  73.6678800
  49.6558720  94.6366540  72.6123480  49.0567610  95.3602340  72.4287100
  50.2038330  94.5743320  71.8299930  48.2623590  93.2730080  74.6426760
  48.6553160  93.5902280  73.8295450  48.6240440  92.3941960  74.7571280
  37.4857990  93.8051000  68.0759680  37.4032660  94.7481760  68.2174670
  37.1341050  93.6625910  67.1972030  45.2856120  92.5390030  77.1430030
  45.2892180  92.0979980  76.2934570  46.1807240  92.8607360  77.2501850
  41.1358500  92.4216520  76.1024240  40.7958550  92.8991750  76.8591290
  40.3735820  91.9681640  75.7425340  45.3476270  93.5402110  70.1336790
  45.4689090  93.4988590  71.0822610  44.9624780  94.4026260  69.9783520
  44.3597770  95.8503250  69.5320090  43.7914670  95.4021500  68.9056000
  45.0686770  96.2096030  68.9985240  38.4504580  91.3435500  75.0188910
  38.1651500  90.9791170  75.8567530  38.3883440  90.6115960  74.4052050
  48.1243170  90.2364760  71.7402280  47.3107780  89.7377930  71.6647590
  47.9305120  91.0763010  71.3238630  50.8391560  94.6084410  70.0364440
  51.7271180  94.9201640  69.8615780  50.8096650  93.7356660  69.6445020
  53.1105830  95.9196250  69.5044300  53.0269550  96.3510470  68.6540740
  53.8300020  96.3794600  69.9371120  37.9435240  96.4794450  68.9785610
  38.8130090  96.7619250  69.2621530  37.4525560  97.2930320  68.8634420
  45.1070050  97.8667660  73.0993890  45.5632830  98.6772910  73.3254080
  44.7558260  97.5490800  73.9312380  41.0081830  88.2105310  73.5716410
  40.8796460  88.2023210  74.5201330  40.1843850  88.5488400  73.2207420
  52.8676570  91.4175680  71.5912120  52.2389730  91.5221350  70.8770350
  52.3728490  91.6372460  72.3806000  44.8360600  93.6961630  73.0070000
  44.1276750  94.1647970  73.4483610  45.1205080  93.0383640  73.6415190
  48.8676030  90.4212290  74.4465790  48.7443810  90.4398420  73.4975300
  49.8160590  90.4691230  74.5664190  43.0395620  92.0046710  70.3820710
  43.8886150  92.4416860  70.3160900  42.6726890  92.3166970  71.2092770
  51.9605400  96.5759470  75.2952280  51.0195540  96.5909700  75.4699970
  52.2749470  95.7895430  75.7412580  41.9387040  98.2579070  68.8556240
  42.7050310  98.1460430  69.4181670  42.0161730  97.5617040  68.2033010
  40.6333800  95.6904140  69.5389130  40.7137390  94.7431650  69.6506530
  41.5253550  96.0211020  69.6449790  43.9706070  98.2544200  70.8298880
  44.3922490  98.0884070  71.6730270  44.0956910  97.4444430  70.3354020
  46.4833710  97.2781810  68.0775980  47.0039370  96.5630830  67.7117130
  47.1302110  97.9167680  68.3776490  42.8664970  94.3277430  67.7757040
  42.6654030  93.4644790  68.1370380  42.6957020  94.2410790  66.8378640
  50.3453280  89.1385660  70.3043920  50.6255570  88.2953560  70.6603340
  49.5719010  89.3708770  70.8182670  41.6647770  91.4278050  67.7634920
  41.9673670  91.4345480  66.8554070  42.4042360  91.0775910  68.2602580
  44.8832700  90.3712670  68.7491120  44.5354700  89.6936660  68.1693570
  45.0845470  89.9102180  69.5634510  38.2238340  96.9000320  75.1455490
  37.5687180  96.6311960  74.5015190  39.0616290  96.7904800  74.6957470
  51.1728780  91.6941610  69.3673980  51.5913660  91.5072590  68.5270640
  50.8664840  90.8420660  69.6776910  54.6718510  96.6065750  73.0649780
  54.2962110  95.8393680  72.6331070  53.9421630  96.9888450  73.5524710
  37.4376420  94.1099250  71.0880820  36.5340500  94.3729450  70.9132480
  37.9217040  94.3810420  70.3080780  53.9469470  94.8323240  76.3657020
  54.4706950  94.3385890  75.7347190  54.5328890  94.9673600  77.1104590
  39.9803630  93.1664790  68.9975200  40.6895330  92.7448010  68.5122480
  39.2643570  93.2340020  68.3658550  39.6277790  89.2204120  68.0377850
  40.3505920  89.7613060  68.3559070  39.9002310  88.9467540  67.1619390
  53.4369440  94.0896590  72.3049430  53.9328560  93.8567460  73.0898310
  53.2385510  93.2508430  71.8887070  54.8656600  92.7257540  74.8387110
  54.7555880  92.5713580  75.7769380  55.6264190  92.1978480  74.5962520
  55.7546870  90.5565460  68.0793250  56.6796180  90.4246640  67.8711540
  55.7322660  90.6358280  69.0329700  55.8285360  91.3276120  70.7049960
  55.0336860  91.2621240  71.2342870  56.0328640  92.2626760  70.6935310
  52.2605290  89.6573000  77.1548790  52.7013380  89.6018100  76.3070390
  51.9912880  90.5731010  77.2258970  54.1243860  89.2888240  75.1657610
  54.0632260  88.3449460  75.0188630  54.9035890  89.3968330  75.7111070
  39.0524630  89.2597380  71.6313420  39.8103990  89.3726260  71.0577450
  38.5901800  90.0966580  71.5856850  45.5938440  91.3736650  74.6215730
  44.7812950  90.9993540  74.2811610  46.0980080  90.6181730  74.9236920
  50.0963420  88.0379100  75.8598800  50.6992790  88.6099310  76.3347320
  49.3556410  88.6018540  75.6372700  53.2398020  88.4400660  71.1339080
  53.4348650  89.3384110  71.4006510  52.4527890  88.2087740  71.6272030
  41.4249780  89.7861430  70.1715390  41.9542540  88.9991230  70.0423340
  42.0578100  90.4652620  70.4050920  43.6187620  89.5236570  73.2260780
  42.9890360  88.8223880  73.3930910  43.0792760  90.2840700  73.0093940
  49.2516790  96.2366600  56.6028480  49.1710840  95.3221210  56.3320190
  48.8381210  96.7333670  55.8968190  47.3834830  98.0145620  58.4837750
  46.6076930  97.5346060  58.7736320  48.0347760  97.3351270  58.3093910
  41.4000660  98.3265430  59.3613510  40.5685540  98.0714140  59.7610020
  42.0081640  98.3976200  60.0971430  39.8092610  93.2867320  53.1455900
  38.9209310  93.6283290  53.0435780  40.0933800  93.0867640  52.2536730
  37.7725620  95.8872970  59.0295600  38.3441730  95.1195170  59.0299240
  37.7727160  96.1861730  58.1202210  39.0150490  91.2957330  60.8164530
  38.8353330  90.3983080  61.0967290  38.6130570  91.8429200  61.4911480
  47.8548990  93.4973190  58.7176840  48.2313810  92.6245070  58.6050510
  47.7568500  93.8331890  57.8267280  41.9854000  91.8698820  54.1794280
  42.0920750  92.7702550  54.4863040  41.0746360  91.8216790  53.8888930
  51.6373110  90.9923630  55.6505180  52.4582730  90.5020200  55.6930660
  51.6707190  91.5821290  56.4037020  39.6337160  93.7917830  59.4246870
  40.3147270  94.0556200  60.0434270  39.3185210  92.9518700  59.7584880
  43.8261730  94.8385190  58.5119460  44.3339950  95.3366160  59.1524480
  44.3574970  94.0620390  58.3358820  55.9272660  93.0090380  62.2148810
  55.2224830  93.3972090  61.6963920  56.1930580  93.7040670  62.8169740
  42.1097830  89.4783750  62.7782880  42.1116270  89.9956140  61.9728780
  41.2802140  89.0013930  62.7552810  51.8734590  92.9324010  58.4232720
  51.1690160  93.2208900  59.0035830  52.2346750  93.7424120  58.0632280
  41.7913160  91.1893710  60.7853330  42.1329970  92.0335760  60.4907200
  40.8528970  91.3377450  60.9018670  54.9421510  92.3778800  58.8141930
  53.9946420  92.4117780  58.9457360  55.2671500  93.1917750  59.1991290
  45.4741050  88.6775980  57.1097920  45.7816030  88.1222870  56.3933420
  44.5441750  88.8120440  56.9270910  47.8621810  96.7424810  53.8458040
  46.9351090  96.6762190  54.0746510  48.0146630  97.6804940  53.7313280
  47.8490890  93.0141810  50.8425200  46.9094560  93.1755770  50.9277660
  48.1674150  93.7327490  50.2961190  54.3703650  97.6960330  60.8204230
  53.5422280  97.7653420  60.3454360  54.9654130  98.2814640  60.3520060
  51.8919100  98.3045110  54.3493290  51.2731520  97.9664660  53.7019590
  51.8743550  97.6604870  55.0572480  51.3345660  94.4829650  61.7659100
  50.9216840  95.3083360  62.0199090  50.6021610  93.8974690  61.5735460
  43.4678450  97.2689550  56.6277770  43.0635450  96.5566800  56.1323670
  43.5541570  96.9242790  57.5165810  42.1807070  94.0432760  60.4076810
  42.7321660  94.1528100  59.6330060  42.6950580  94.4170360  61.1232040
  50.0683800  97.5431920  51.3566040  50.5077080  96.7054350  51.2103860
  50.7812220  98.1761320  51.4430180  41.8549800  97.5652120  64.0182150
  41.7157570  98.4374920  64.3869550  40.9731160  97.2224930  63.8730090
  53.6500940  88.7974730  49.6707080  53.3373600  88.8901560  50.5706150
  54.4113410  89.3755760  49.6204510  40.1683080  96.1634530  54.1284420
  40.0480680  96.8896620  53.5165690  39.8583970  95.3937440  53.6512330
  54.8602230  93.5346230  65.6481220  54.2446500  94.0425900  65.1196680
  54.5398650  92.6344560  65.5907160  42.6346740  89.5069600  57.5108090
  42.1914890  90.2879140  57.1792610  43.1931730  89.8299490  58.2179030
  46.9216550  92.3738120  63.1143410  46.4595920  92.5821140  63.9263350
  46.5194660  91.5597470  62.8114080  51.9221060  93.5947070  64.2440070
  51.0714650  93.2952820  64.5649140  51.7622850  93.8389080  63.3323890
  49.0170770  95.0948820  66.3438860  49.3424180  94.2612570  66.0041090
  49.8051100  95.6177340  66.4917190  45.7505560  89.1280300  52.3913920
  45.1259740  89.1240170  53.1167230  45.6635680  88.2611260  51.9949890
  44.6722640  90.0516930  59.3697690  44.9694970  90.9579760  59.2889710
  45.2208200  89.5635710  58.7557260  42.4260960  94.6303170  55.2389340
  42.2001880  94.4140340  56.1435960  41.6453490  95.0631630  54.8935310
  49.6558720  94.6366540  53.8379990  49.0567610  95.3602340  53.6543610
  50.2038330  94.5743320  53.0556440  44.8660170  95.5288750  65.9049610
  44.7703770  94.5883480  65.7550010  45.7092150  95.7503820  65.5097680
  48.2623590  93.2730080  55.8683270  48.6553160  93.5902280  55.0551960
  48.6240440  92.3941960  55.9827790  39.9970710  91.9402420  64.0583390
  39.6034100  92.7877630  64.2656170  39.3089110  91.3028790  64.2492030
  46.5715760  92.0237390  67.1280130  45.8814080  91.8309590  67.7626220
  47.3148060  92.3072030  67.6604430  37.2987760  89.8630880  58.0913470
  37.0100810  90.4333740  58.8038450  38.0433520  89.3835330  58.4544700
  37.4857990  93.8051000  49.3016190  37.4032660  94.7481760  49.4431180
  37.1341050  93.6625910  48.4228540  48.8478730  95.8635830  59.9634050
  48.1159850  96.3722640  60.3124150  48.4503070  95.0465810  59.6622830
  45.2856120  92.5390030  58.3686540  45.2892180  92.0979980  57.5191080
  46.1807240  92.8607360  58.4758360  41.1358500  92.4216520  57.3280750
  40.7958550  92.8991750  58.0847800  40.3735820  91.9681640  56.9681850
  45.3476270  93.5402110  51.3593300  45.4689090  93.4988590  52.3079120
  44.9624780  94.4026260  51.2040030  49.3104640  91.3169510  59.3756990
  49.3277380  91.7678160  60.2198840  49.0620220  90.4175150  59.5890430
  44.3597770  95.8503250  50.7576600  43.7914670  95.4021500  50.1312510
  45.0686770  96.2096030  50.2241750  52.7375390  88.7301690  65.2143370
  53.0621160  87.9991350  65.7401350  52.7731900  88.4115330  64.3124360
  45.5864090  96.5991810  60.1151950  45.9534220  96.1250380  60.8613290
  45.3969150  97.4733380  60.4560290  38.4504580  91.3435500  56.2445420
  38.1651500  90.9791170  57.0824040  38.3883440  90.6115960  55.6308560
  43.3763460  95.6400450  62.4336160  43.0720530  96.5192430  62.6586520
  44.3309920  95.7000240  62.4693600  48.1243170  90.2364760  52.9658790
  47.3107780  89.7377930  52.8904100  47.9305120  91.0763010  52.5495140
  50.8391560  94.6084410  51.2620950  51.7271180  94.9201640  51.0872290
  50.8096650  93.7356660  50.8701530  39.4327190  96.4803190  63.5807520
  39.0742130  97.1457040  64.1680860  39.1381750  95.6486740  63.9520140
  42.6340310  96.9387430  66.4647070  42.3340450  97.0844610  65.5674890
  43.4051550  96.3792720  66.3720460  53.1105830  95.9196250  50.7300810
  53.0269550  96.3510470  49.8797250  53.8300020  96.3794600  51.1627630
  37.9435240  96.4794450  50.2042120  38.8130090  96.7619250  50.4878040
  37.4525560  97.2930320  50.0890930  45.1070050  97.8667660  54.3250400
  45.5632830  98.6772910  54.5510590  44.7558260  97.5490800  55.1568890
  41.0081830  88.2105310  54.7972920  40.8796460  88.2023210  55.7457840
  40.1843850  88.5488400  54.4463930  38.0075760  89.9696430  64.2579620
  37.2934280  90.1693350  64.8632230  38.4270800  89.1936000  64.6294420
  49.5014540  92.4618740  62.0081070  49.8695360  91.6413950  62.3360640
  48.6412740  92.5220630  62.4236720  52.8676570  91.4175680  52.8168630
  52.2389730  91.5221350  52.1026860  52.3728490  91.6372460  53.6062510
  44.8360600  93.6961630  54.2326510  44.1276750  94.1647970  54.6740120
  45.1205080  93.0383640  54.8671700  46.4616530  95.1158330  62.2319040
  46.9601780  95.5904150  62.8970890  46.6039480  94.1921850  62.4389070
  48.8676030  90.4212290  55.6722300  48.7443810  90.4398420  54.7231810
  49.8160590  90.4691230  55.7920700  43.0395620  92.0046710  51.6077220
  43.8886150  92.4416860  51.5417410  42.6726890  92.3166970  52.4349280
  53.6683390  91.3326290  63.0747430  53.1656990  92.0731690  63.4141240
  54.4840050  91.7210290  62.7584220  51.9605400  96.5759470  56.5208790
  51.0195540  96.5909700  56.6956480  52.2749470  95.7895430  56.9669090
  41.9387040  98.2579070  50.0812750  42.7050310  98.1460430  50.6438180
  42.0161730  97.5617040  49.4289520  40.6333800  95.6904140  50.7645640
  40.7137390  94.7431650  50.8763040  41.5253550  96.0211020  50.8706300
  38.1604600  97.5119060  66.0001810  38.6643620  96.9326340  66.5718040
  37.4212020  97.7959290  66.5378180  40.1927680  95.6548650  66.8951880
  40.2333020  95.3562520  67.8037110  41.0473180  96.0556260  66.7359400
  43.9706070  98.2544200  52.0555390  44.3922490  98.0884070  52.8986780
  44.0956910  97.4444430  51.5610530  42.1333490  94.2340750  64.8626370
  41.6029950  93.7431700  64.2349710  42.8021560  94.6624950  64.3284300
  46.4833710  97.2781810  49.3032490  47.0039370  96.5630830  48.9373640
  47.1302110  97.9167680  49.6033000  51.5033720  96.0406370  66.6306710
  52.0854490  95.2858690  66.5427190  51.6795490  96.5713810  65.8538190
  42.6205790  91.2003120  64.9423660  42.5262660  90.5823870  64.2174530
  42.0403180  91.9269410  64.7153570  45.3867230  89.7576360  61.9751050
  44.9384530  89.7800620  61.1296600  44.7532430  89.3595380  62.5721350
  48.1290680  96.3846870  63.9801330  48.2486890  95.7888010  64.7196170
  48.9884680  96.4216560  63.5602630  50.4678580  96.9384060  62.5563840
  49.9413800  97.4626680  61.9528980  50.8109920  97.5711450  63.1873570
  42.8664970  94.3277430  49.0013550  42.6654030  93.4644790  49.3626890
  42.6957020  94.2410790  48.0635150  44.8959450  92.9268220  65.2377150
  45.4859140  92.6184070  65.9254970  44.0779690  92.4547970  65.3937050
  49.7152880  92.5434030  65.4710170  49.0268400  91.8815570  65.4060160
  50.4358900  92.0972300  65.9158630  50.3453280  89.1385660  51.5300430
  50.6255570  88.2953560  51.8859850  49.5719010  89.3708770  52.0439180
  41.6647770  91.4278050  48.9891430  41.9673670  91.4345480  48.0810580
  42.4042360  91.0775910  49.4859090  44.8832700  90.3712670  49.9747630
  44.5354700  89.6936660  49.3950080  45.0845470  89.9102180  50.7891020
  38.2238340  96.9000320  56.3712000  37.5687180  96.6311960  55.7271700
  39.0616290  96.7904800  55.9213980  51.1728780  91.6941610  50.5930490
  51.5913660  91.5072590  49.7527150  50.8664840  90.8420660  50.9033420
  54.6718510  96.6065750  54.2906290  54.2962110  95.8393680  53.8587580
  53.9421630  96.9888450  54.7781220  39.2614270  97.2852890  60.9115340
  39.6287310  97.1980290  61.7911360  38.6925090  96.5219440  60.8122200
  54.0618130  95.7537270  63.9245810  53.8304220  95.5250020  63.0243760
  54.3222680  96.6736820  63.8790700  38.8130270  94.1961980  64.8173760
  37.9186320  94.1628740  65.1567470  39.3527820  94.3948770  65.5825010
  52.5006200  90.9793700  66.7025510  53.3776380  90.9877100  67.0859510
  52.5127040  90.2424540  66.0917860  37.4376420  94.1099250  52.3137330
  36.5340500  94.3729450  52.1388990  37.9217040  94.3810420  51.5337290
  53.9469470  94.8323240  57.5913530  54.4706950  94.3385890  56.9603700
  54.5328890  94.9673600  58.3361100  54.1259190  94.9163110  61.1133080
  53.1761900  94.8826650  61.2278070  54.3072200  95.8263220  60.8782850
  39.9803630  93.1664790  50.2231710  40.6895330  92.7448010  49.7378990
  39.2643570  93.2340020  49.5915060  39.6277790  89.2204120  49.2634360
  40.3505920  89.7613060  49.5815580  39.9002310  88.9467540  48.3875900
  53.4369440  94.0896590  53.5305940  53.9328560  93.8567460  54.3154820
  53.2385510  93.2508430  53.1143580  39.3169980  88.4710310  59.1656980
  39.9646170  87.9207690  58.7252140  39.7371820  88.7253460  59.9872790
  54.8656600  92.7257540  56.0643620  54.7555880  92.5713580  57.0025890
  55.6264190  92.1978480  55.8219030  53.2122320  88.6651670  62.5226620
  53.8494540  89.2785810  62.8885810  53.3597210  88.7012330  61.5775850
  55.7546870  90.5565460  49.3049760  56.6796180  90.4246640  49.0968050
  55.7322660  90.6358280  50.2586210  55.8285360  91.3276120  51.9306470
  55.0336860  91.2621240  52.4599380  56.0328640  92.2626760  51.9191820
  39.0701980  88.6265980  61.9082300  38.7216800  89.0829800  62.6740480
  38.7389680  87.7323110  61.9904730  46.5826800  89.8177860  65.4301720
  46.5215690  90.4099690  66.1797130  47.5227180  89.7103820  65.2851980
  49.2201360  89.4747920  65.0694010  49.8341770  89.7927210  64.4075090
  49.7650920  88.9896510  65.6889870  39.7422620  88.1542180  65.1833070
  40.2905610  87.9730230  64.4199180  39.8077930  87.3636290  65.7189380
  49.9609400  88.0380060  61.3963300  49.0869240  88.3715170  61.1936230
  49.8520150  87.5653240  62.2215170  50.8681380  90.2450930  62.7805020
  50.5394740  89.4302690  62.4006750  51.8163680  90.2020740  62.6570710
  47.7084220  88.9549900  60.3356210  46.9256010  89.4295400  60.6152970
  47.4147150  88.0504730  60.2269390  52.2605290  89.6573000  58.3805300
  52.7013380  89.6018100  57.5326900  51.9912880  90.5731010  58.4515480
  54.1243860  89.2888240  56.3914120  54.0632260  88.3449460  56.2445140
  54.9035890  89.3968330  56.9367580  39.0524630  89.2597380  52.8569930
  39.8103990  89.3726260  52.2833960  38.5901800  90.0966580  52.8113360
  45.5938440  91.3736650  55.8472240  44.7812950  90.9993540  55.5068120
  46.0980080  90.6181730  56.1493430  50.0963420  88.0379100  57.0855310
  50.6992790  88.6099310  57.5603830  49.3556410  88.6018540  56.8629210
  53.2398020  88.4400660  52.3595590  53.4348650  89.3384110  52.6263020
  52.4527890  88.2087740  52.8528540  41.4249780  89.7861430  51.3971900
  41.9542540  88.9991230  51.2679850  42.0578100  90.4652620  51.6307430
  43.6187620  89.5236570  54.4517290  42.9890360  88.8223880  54.6187420
  43.0792760  90.2840700  54.2350450  43.7443180  88.8020550  66.8869780
  43.4627450  89.3054150  66.1230600  44.1262880  88.0042300  66.5211910
  50.3458640  88.2174130  67.4650250  50.2324090  88.5368740  68.3601770
  51.1628380  88.6186640  67.1687530  49.2516790  96.2366600  37.8284990
  49.1710840  95.3221210  37.5576700  48.8381210  96.7333670  37.1224700
  47.3834830  98.0145620  39.7094260  46.6076930  97.5346060  39.9992830
  48.0347760  97.3351270  39.5350420  41.4000660  98.3265430  40.5870020
  40.5685540  98.0714140  40.9866530  42.0081640  98.3976200  41.3227940
  39.8092610  93.2867320  34.3712410  38.9209310  93.6283290  34.2692290
  40.0933800  93.0867640  33.4793240  37.7725620  95.8872970  40.2552110
  38.3441730  95.1195170  40.2555750  37.7727160  96.1861730  39.3458720
  39.0150490  91.2957330  42.0421040  38.8353330  90.3983080  42.3223800
  38.6130570  91.8429200  42.7167990  47.8548990  93.4973190  39.9433350
  48.2313810  92.6245070  39.8307020  47.7568500  93.8331890  39.0523790
  41.9854000  91.8698820  35.4050790  42.0920750  92.7702550  35.7119550
  41.0746360  91.8216790  35.1145440  51.6373110  90.9923630  36.8761690
  52.4582730  90.5020200  36.9187170  51.6707190  91.5821290  37.6293530
  39.6337160  93.7917830  40.6503380  40.3147270  94.0556200  41.2690780
  39.3185210  92.9518700  40.9841390  43.8261730  94.8385190  39.7375970
  44.3339950  95.3366160  40.3780990  44.3574970  94.0620390  39.5615330
  55.9272660  93.0090380  43.4405320  55.2224830  93.3972090  42.9220430
  56.1930580  93.7040670  44.0426250  42.1097830  89.4783750  44.0039390
  42.1116270  89.9956140  43.1985290  41.2802140  89.0013930  43.9809320
  51.8734590  92.9324010  39.6489230  51.1690160  93.2208900  40.2292340
  52.2346750  93.7424120  39.2888790  41.7913160  91.1893710  42.0109840
  42.1329970  92.0335760  41.7163710  40.8528970  91.3377450  42.1275180
  54.9421510  92.3778800  40.0398440  53.9946420  92.4117780  40.1713870
  55.2671500  93.1917750  40.4247800  45.4741050  88.6775980  38.3354430
  45.7816030  88.1222870  37.6189930  44.5441750  88.8120440  38.1527420
  47.8621810  96.7424810  35.0714550  46.9351090  96.6762190  35.3003020
  48.0146630  97.6804940  34.9569790  47.8490890  93.0141810  32.0681710
  46.9094560  93.1755770  32.1534170  48.1674150  93.7327490  31.5217700
  54.3703650  97.6960330  42.0460740  53.5422280  97.7653420  41.5710870
  54.9654130  98.2814640  41.5776570  51.8919100  98.3045110  35.5749800
  51.2731520  97.9664660  34.9276100  51.8743550  97.6604870  36.2828990
  51.3345660  94.4829650  42.9915610  50.9216840  95.3083360  43.2455600
  50.6021610  93.8974690  42.7991970  43.4678450  97.2689550  37.8534280
  43.0635450  96.5566800  37.3580180  43.5541570  96.9242790  38.7422320
  42.1807070  94.0432760  41.6333320  42.7321660  94.1528100  40.8586570
  42.6950580  94.4170360  42.3488550  50.0683800  97.5431920  32.5822550
  50.5077080  96.7054350  32.4360370  50.7812220  98.1761320  32.6686690
  41.8549800  97.5652120  45.2438660  41.7157570  98.4374920  45.6126060
  40.9731160  97.2224930  45.0986600  53.6500940  88.7974730  30.8963590
  53.3373600  88.8901560  31.7962660  54.4113410  89.3755760  30.8461020
  40.1683080  96.1634530  35.3540930  40.0480680  96.8896620  34.7422200
  39.8583970  95.3937440  34.8768840  54.8602230  93.5346230  46.8737730
  54.2446500  94.0425900  46.3453190  54.5398650  92.6344560  46.8163670
  42.6346740  89.5069600  38.7364600  42.1914890  90.2879140  38.4049120
  43.1931730  89.8299490  39.4435540  46.9216550  92.3738120  44.3399920
  46.4595920  92.5821140  45.1519860  46.5194660  91.5597470  44.0370590
  51.9221060  93.5947070  45.4696580  51.0714650  93.2952820  45.7905650
  51.7622850  93.8389080  44.5580400  49.0170770  95.0948820  47.5695370
  49.3424180  94.2612570  47.2297600  49.8051100  95.6177340  47.7173700
  45.7505560  89.1280300  33.6170430  45.1259740  89.1240170  34.3423740
  45.6635680  88.2611260  33.2206400  44.6722640  90.0516930  40.5954200
  44.9694970  90.9579760  40.5146220  45.2208200  89.5635710  39.9813770
  42.4260960  94.6303170  36.4645850  42.2001880  94.4140340  37.3692470
  41.6453490  95.0631630  36.1191820  49.6558720  94.6366540  35.0636500
  49.0567610  95.3602340  34.8800120  50.2038330  94.5743320  34.2812950
  44.8660170  95.5288750  47.1306120  44.7703770  94.5883480  46.9806520
  45.7092150  95.7503820  46.7354190  48.2623590  93.2730080  37.0939780
  48.6553160  93.5902280  36.2808470  48.6240440  92.3941960  37.2084300
  39.9970710  91.9402420  45.2839900  39.6034100  92.7877630  45.4912680
  39.3089110  91.3028790  45.4748540  46.5715760  92.0237390  48.3536640
  45.8814080  91.8309590  48.9882730  47.3148060  92.3072030  48.8860940
  37.2987760  89.8630880  39.3169980  37.0100810  90.4333740  40.0294960
  38.0433520  89.3835330  39.6801210  37.4857990  93.8051000  30.5272700
  37.4032660  94.7481760  30.6687690  37.1341050  93.6625910  29.6485050
  48.8478730  95.8635830  41.1890560  48.1159850  96.3722640  41.5380660
  48.4503070  95.0465810  40.8879340  45.2856120  92.5390030  39.5943050
  45.2892180  92.0979980  38.7447590  46.1807240  92.8607360  39.7014870
  41.1358500  92.4216520  38.5537260  40.7958550  92.8991750  39.3104310
  40.3735820  91.9681640  38.1938360  45.3476270  93.5402110  32.5849810
  45.4689090  93.4988590  33.5335630  44.9624780  94.4026260  32.4296540
  49.3104640  91.3169510  40.6013500  49.3277380  91.7678160  41.4455350
  49.0620220  90.4175150  40.8146940  44.3597770  95.8503250  31.9833110
  43.7914670  95.4021500  31.3569020  45.0686770  96.2096030  31.4498260
  52.7375390  88.7301690  46.4399880  53.0621160  87.9991350  46.9657860
  52.7731900  88.4115330  45.5380870  45.5864090  96.5991810  41.3408460
  45.9534220  96.1250380  42.0869800  45.3969150  97.4733380  41.6816800
  38.4504580  91.3435500  37.4701930  38.1651500  90.9791170  38.3080550
  38.3883440  90.6115960  36.8565070  43.3763460  95.6400450  43.6592670
  43.0720530  96.5192430  43.8843030  44.3309920  95.7000240  43.6950110
  48.1243170  90.2364760  34.1915300  47.3107780  89.7377930  34.1160610
  47.9305120  91.0763010  33.7751650  50.8391560  94.6084410  32.4877460
  51.7271180  94.9201640  32.3128800  50.8096650  93.7356660  32.0958040
  39.4327190  96.4803190  44.8064030  39.0742130  97.1457040  45.3937370
  39.1381750  95.6486740  45.1776650  42.6340310  96.9387430  47.6903580
  42.3340450  97.0844610  46.7931400  43.4051550  96.3792720  47.5976970
  53.1105830  95.9196250  31.9557320  53.0269550  96.3510470  31.1053760
  53.8300020  96.3794600  32.3884140  37.9435240  96.4794450  31.4298630
  38.8130090  96.7619250  31.7134550  37.4525560  97.2930320  31.3147440
  45.1070050  97.8667660  35.5506910  45.5632830  98.6772910  35.7767100
  44.7558260  97.5490800  36.3825400  41.0081830  88.2105310  36.0229430
  40.8796460  88.2023210  36.9714350  40.1843850  88.5488400  35.6720440
  38.0075760  89.9696430  45.4836130  37.2934280  90.1693350  46.0888740
  38.4270800  89.1936000  45.8550930  49.5014540  92.4618740  43.2337580
  49.8695360  91.6413950  43.5617150  48.6412740  92.5220630  43.6493230
  52.8676570  91.4175680  34.0425140  52.2389730  91.5221350  33.3283370
  52.3728490  91.6372460  34.8319020  44.8360600  93.6961630  35.4583020
  44.1276750  94.1647970  35.8996630  45.1205080  93.0383640  36.0928210
  46.4616530  95.1158330  43.4575550  46.9601780  95.5904150  44.1227400
  46.6039480  94.1921850  43.6645580  48.8676030  90.4212290  36.8978810
  48.7443810  90.4398420  35.9488320  49.8160590  90.4691230  37.0177210
  43.0395620  92.0046710  32.8333730  43.8886150  92.4416860  32.7673920
  42.6726890  92.3166970  33.6605790  53.6683390  91.3326290  44.3003940
  53.1656990  92.0731690  44.6397750  54.4840050  91.7210290  43.9840730
  51.9605400  96.5759470  37.7465300  51.0195540  96.5909700  37.9212990
  52.2749470  95.7895430  38.1925600  41.9387040  98.2579070  31.3069260
  42.7050310  98.1460430  31.8694690  42.0161730  97.5617040  30.6546030
  40.6333800  95.6904140  31.9902150  40.7137390  94.7431650  32.1019550
  41.5253550  96.0211020  32.0962810  38.1604600  97.5119060  47.2258320
  38.6643620  96.9326340  47.7974550  37.4212020  97.7959290  47.7634690
  40.1927680  95.6548650  48.1208390  40.2333020  95.3562520  49.0293620
  41.0473180  96.0556260  47.9615910  43.9706070  98.2544200  33.2811900
  44.3922490  98.0884070  34.1243290  44.0956910  97.4444430  32.7867040
  42.1333490  94.2340750  46.0882880  41.6029950  93.7431700  45.4606220
  42.8021560  94.6624950  45.5540810  46.4833710  97.2781810  30.5289000
  47.0039370  96.5630830  30.1630150  47.1302110  97.9167680  30.8289510
  51.5033720  96.0406370  47.8563220  52.0854490  95.2858690  47.7683700
  51.6795490  96.5713810  47.0794700  42.6205790  91.2003120  46.1680170
  42.5262660  90.5823870  45.4431040  42.0403180  91.9269410  45.9410080
  45.3867230  89.7576360  43.2007560  44.9384530  89.7800620  42.3553110
  44.7532430  89.3595380  43.7977860  48.1290680  96.3846870  45.2057840
  48.2486890  95.7888010  45.9452680  48.9884680  96.4216560  44.7859140
  50.4678580  96.9384060  43.7820350  49.9413800  97.4626680  43.1785490
  50.8109920  97.5711450  44.4130080  42.8664970  94.3277430  30.2270060
  42.6654030  93.4644790  30.5883400  42.6957020  94.2410790  29.2891660
  44.8959450  92.9268220  46.4633660  45.4859140  92.6184070  47.1511480
  44.0779690  92.4547970  46.6193560  49.7152880  92.5434030  46.6966680
  49.0268400  91.8815570  46.6316670  50.4358900  92.0972300  47.1415140
  50.3453280  89.1385660  32.7556940  50.6255570  88.2953560  33.1116360
  49.5719010  89.3708770  33.2695690  41.6647770  91.4278050  30.2147940
  41.9673670  91.4345480  29.3067090  42.4042360  91.0775910  30.7115600
  44.8832700  90.3712670  31.2004140  44.5354700  89.6936660  30.6206590
  45.0845470  89.9102180  32.0147530  38.2238340  96.9000320  37.5968510
  37.5687180  96.6311960  36.9528210  39.0616290  96.7904800  37.1470490
  51.1728780  91.6941610  31.8187000  51.5913660  91.5072590  30.9783660
  50.8664840  90.8420660  32.1289930  54.6718510  96.6065750  35.5162800
  54.2962110  95.8393680  35.0844090  53.9421630  96.9888450  36.0037730
  39.2614270  97.2852890  42.1371850  39.6287310  97.1980290  43.0167870
  38.6925090  96.5219440  42.0378710  54.0618130  95.7537270  45.1502320
  53.8304220  95.5250020  44.2500270  54.3222680  96.6736820  45.1047210
  38.8130270  94.1961980  46.0430270  37.9186320  94.1628740  46.3823980
  39.3527820  94.3948770  46.8081520  52.5006200  90.9793700  47.9282020
  53.3776380  90.9877100  48.3116020  52.5127040  90.2424540  47.3174370
  37.4376420  94.1099250  33.5393840  36.5340500  94.3729450  33.3645500
  37.9217040  94.3810420  32.7593800  53.9469470  94.8323240  38.8170040
  54.4706950  94.3385890  38.1860210  54.5328890  94.9673600  39.5617610
  54.1259190  94.9163110  42.3389590  53.1761900  94.8826650  42.4534580
  54.3072200  95.8263220  42.1039360  39.9803630  93.1664790  31.4488220
  40.6895330  92.7448010  30.9635500  39.2643570  93.2340020  30.8171570
  39.6277790  89.2204120  30.4890870  40.3505920  89.7613060  30.8072090
  39.9002310  88.9467540  29.6132410  53.4369440  94.0896590  34.7562450
  53.9328560  93.8567460  35.5411330  53.2385510  93.2508430  34.3400090
  39.3169980  88.4710310  40.3913490  39.9646170  87.9207690  39.9508650
  39.7371820  88.7253460  41.2129300  54.8656600  92.7257540  37.2900130
  54.7555880  92.5713580  38.2282400  55.6264190  92.1978480  37.0475540
  53.2122320  88.6651670  43.7483130  53.8494540  89.2785810  44.1142320
  53.3597210  88.7012330  42.8032360  55.7546870  90.5565460  30.5306270
  56.6796180  90.4246640  30.3224560  55.7322660  90.6358280  31.4842720
  55.8285360  91.3276120  33.1562980  55.0336860  91.2621240  33.6855890
  56.0328640  92.2626760  33.1448330  39.0701980  88.6265980  43.1338810
  38.7216800  89.0829800  43.8996990  38.7389680  87.7323110  43.2161240
  46.5826800  89.8177860  46.6558230  46.5215690  90.4099690  47.4053640
  47.5227180  89.7103820  46.5108490  49.2201360  89.4747920  46.2950520
  49.8341770  89.7927210  45.6331600  49.7650920  88.9896510  46.9146380
  39.7422620  88.1542180  46.4089580  40.2905610  87.9730230  45.6455690
  39.8077930  87.3636290  46.9445890  49.9609400  88.0380060  42.6219810
  49.0869240  88.3715170  42.4192740  49.8520150  87.5653240  43.4471680
  50.8681380  90.2450930  44.0061530  50.5394740  89.4302690  43.6263260
  51.8163680  90.2020740  43.8827220  47.7084220  88.9549900  41.5612720
  46.9256010  89.4295400  41.8409480  47.4147150  88.0504730  41.4525900
  52.2605290  89.6573000  39.6061810  52.7013380  89.6018100  38.7583410
  51.9912880  90.5731010  39.6771990  54.1243860  89.2888240  37.6170630
  54.0632260  88.3449460  37.4701650  54.9035890  89.3968330  38.1624090
  39.0524630  89.2597380  34.0826440  39.8103990  89.3726260  33.5090470
  38.5901800  90.0966580  34.0369870  45.5938440  91.3736650  37.0728750
  44.7812950  90.9993540  36.7324630  46.0980080  90.6181730  37.3749940
  50.0963420  88.0379100  38.3111820  50.6992790  88.6099310  38.7860340
  49.3556410  88.6018540  38.0885720  53.2398020  88.4400660  33.5852100
  53.4348650  89.3384110  33.8519530  52.4527890  88.2087740  34.0785050
  41.4249780  89.7861430  32.6228410  41.9542540  88.9991230  32.4936360
  42.0578100  90.4652620  32.8563940  43.6187620  89.5236570  35.6773800
  42.9890360  88.8223880  35.8443930  43.0792760  90.2840700  35.4606960
  43.7443180  88.8020550  48.1126290  43.4627450  89.3054150  47.3487110
  44.1262880  88.0042300  47.7468420  50.3458640  88.2174130  48.6906760
  50.2324090  88.5368740  49.5858280  51.1628380  88.6186640  48.3944040
  49.2516790  96.2366600  19.0541500  49.1710840  95.3221210  18.7833210
  48.8381210  96.7333670  18.3481210  47.3834830  98.0145620  20.9350770
  46.6076930  97.5346060  21.2249340  48.0347760  97.3351270  20.7606930
  41.4000660  98.3265430  21.8126530  40.5685540  98.0714140  22.2123040
  42.0081640  98.3976200  22.5484450  39.8092610  93.2867320  15.5968920
  38.9209310  93.6283290  15.4948800  40.0933800  93.0867640  14.7049750
  37.7725620  95.8872970  21.4808620  38.3441730  95.1195170  21.4812260
  37.7727160  96.1861730  20.5715230  39.0150490  91.2957330  23.2677550
  38.8353330  90.3983080  23.5480310  38.6130570  91.8429200  23.9424500
  47.8548990  93.4973190  21.1689860  48.2313810  92.6245070  21.0563530
  47.7568500  93.8331890  20.2780300  41.9854000  91.8698820  16.6307300
  42.0920750  92.7702550  16.9376060  41.0746360  91.8216790  16.3401950
  51.6373110  90.9923630  18.1018200  52.4582730  90.5020200  18.1443680
  51.6707190  91.5821290  18.8550040  39.6337160  93.7917830  21.8759890
  40.3147270  94.0556200  22.4947290  39.3185210  92.9518700  22.2097900
  43.8261730  94.8385190  20.9632480  44.3339950  95.3366160  21.6037500
  44.3574970  94.0620390  20.7871840  55.9272660  93.0090380  24.6661830
  55.2224830  93.3972090  24.1476940  56.1930580  93.7040670  25.2682760
  42.1097830  89.4783750  25.2295900  42.1116270  89.9956140  24.4241800
  41.2802140  89.0013930  25.2065830  51.8734590  92.9324010  20.8745740
  51.1690160  93.2208900  21.4548850  52.2346750  93.7424120  20.5145300
  41.7913160  91.1893710  23.2366350  42.1329970  92.0335760  22.9420220
  40.8528970  91.3377450  23.3531690  54.9421510  92.3778800  21.2654950
  53.9946420  92.4117780  21.3970380  55.2671500  93.1917750  21.6504310
  45.4741050  88.6775980  19.5610940  45.7816030  88.1222870  18.8446440
  44.5441750  88.8120440  19.3783930  47.8621810  96.7424810  16.2971060
  46.9351090  96.6762190  16.5259530  48.0146630  97.6804940  16.1826300
  47.8490890  93.0141810  13.2938220  46.9094560  93.1755770  13.3790680
  48.1674150  93.7327490  12.7474210  54.3703650  97.6960330  23.2717250
  53.5422280  97.7653420  22.7967380  54.9654130  98.2814640  22.8033080
  51.8919100  98.3045110  16.8006310  51.2731520  97.9664660  16.1532610
  51.8743550  97.6604870  17.5085500  51.3345660  94.4829650  24.2172120
  50.9216840  95.3083360  24.4712110  50.6021610  93.8974690  24.0248480
  43.4678450  97.2689550  19.0790790  43.0635450  96.5566800  18.5836690
  43.5541570  96.9242790  19.9678830  42.1807070  94.0432760  22.8589830
  42.7321660  94.1528100  22.0843080  42.6950580  94.4170360  23.5745060
  50.0683800  97.5431920  13.8079060  50.5077080  96.7054350  13.6616880
  50.7812220  98.1761320  13.8943200  41.8549800  97.5652120  26.4695170
  41.7157570  98.4374920  26.8382570  40.9731160  97.2224930  26.3243110
  53.6500940  88.7974730  12.1220100  53.3373600  88.8901560  13.0219170
  54.4113410  89.3755760  12.0717530  40.1683080  96.1634530  16.5797440
  40.0480680  96.8896620  15.9678710  39.8583970  95.3937440  16.1025350
  54.8602230  93.5346230  28.0994240  54.2446500  94.0425900  27.5709700
  54.5398650  92.6344560  28.0420180  42.6346740  89.5069600  19.9621110
  42.1914890  90.2879140  19.6305630  43.1931730  89.8299490  20.6692050
  46.9216550  92.3738120  25.5656430  46.4595920  92.5821140  26.3776370
  46.5194660  91.5597470  25.2627100  51.9221060  93.5947070  26.6953090
  51.0714650  93.2952820  27.0162160  51.7622850  93.8389080  25.7836910
  49.0170770  95.0948820  28.7951880  49.3424180  94.2612570  28.4554110
  49.8051100  95.6177340  28.9430210  45.7505560  89.1280300  14.8426940
  45.1259740  89.1240170  15.5680250  45.6635680  88.2611260  14.4462910
  44.6722640  90.0516930  21.8210710  44.9694970  90.9579760  21.7402730
  45.2208200  89.5635710  21.2070280  42.4260960  94.6303170  17.6902360
  42.2001880  94.4140340  18.5948980  41.6453490  95.0631630  17.3448330
  49.6558720  94.6366540  16.2893010  49.0567610  95.3602340  16.1056630
  50.2038330  94.5743320  15.5069460  44.8660170  95.5288750  28.3562630
  44.7703770  94.5883480  28.2063030  45.7092150  95.7503820  27.9610700
  48.2623590  93.2730080  18.3196290  48.6553160  93.5902280  17.5064980
  48.6240440  92.3941960  18.4340810  39.9970710  91.9402420  26.5096410
  39.6034100  92.7877630  26.7169190  39.3089110  91.3028790  26.7005050
  46.5715760  92.0237390  29.5793150  45.8814080  91.8309590  30.2139240
  47.3148060  92.3072030  30.1117450  37.2987760  89.8630880  20.5426490
  37.0100810  90.4333740  21.2551470  38.0433520  89.3835330  20.9057720
  37.4857990  93.8051000  11.7529210  37.4032660  94.7481760  11.8944200
  37.1341050  93.6625910  10.8741560  48.8478730  95.8635830  22.4147070
  48.1159850  96.3722640  22.7637170  48.4503070  95.0465810  22.1135850
  45.2856120  92.5390030  20.8199560  45.2892180  92.0979980  19.9704100
  46.1807240  92.8607360  20.9271380  41.1358500  92.4216520  19.7793770
  40.7958550  92.8991750  20.5360820  40.3735820  91.9681640  19.4194870
  45.3476270  93.5402110  13.8106320  45.4689090  93.4988590  14.7592140
  44.9624780  94.4026260  13.6553050  49.3104640  91.3169510  21.8270010
  49.3277380  91.7678160  22.6711860  49.0620220  90.4175150  22.0403450
  44.3597770  95.8503250  13.2089620  43.7914670  95.4021500  12.5825530
  45.0686770  96.2096030  12.6754770  52.7375390  88.7301690  27.6656390
  53.0621160  87.9991350  28.1914370  52.7731900  88.4115330  26.7637380
  45.5864090  96.5991810  22.5664970  45.9534220  96.1250380  23.3126310
  45.3969150  97.4733380  22.9073310  38.4504580  91.3435500  18.6958440
  38.1651500  90.9791170  19.5337060  38.3883440  90.6115960  18.0821580
  43.3763460  95.6400450  24.8849180  43.0720530  96.5192430  25.1099540
  44.3309920  95.7000240  24.9206620  48.1243170  90.2364760  15.4171810
  47.3107780  89.7377930  15.3417120  47.9305120  91.0763010  15.0008160
  50.8391560  94.6084410  13.7133970  51.7271180  94.9201640  13.5385310
  50.8096650  93.7356660  13.3214550  39.4327190  96.4803190  26.0320540
  39.0742130  97.1457040  26.6193880  39.1381750  95.6486740  26.4033160
  42.6340310  96.9387430  28.9160090  42.3340450  97.0844610  28.0187910
  43.4051550  96.3792720  28.8233480  53.1105830  95.9196250  13.1813830
  53.0269550  96.3510470  12.3310270  53.8300020  96.3794600  13.6140650
  37.9435240  96.4794450  12.6555140  38.8130090  96.7619250  12.9391060
  37.4525560  97.2930320  12.5403950  45.1070050  97.8667660  16.7763420
  45.5632830  98.6772910  17.0023610  44.7558260  97.5490800  17.6081910
  41.0081830  88.2105310  17.2485940  40.8796460  88.2023210  18.1970860
  40.1843850  88.5488400  16.8976950  38.0075760  89.9696430  26.7092640
  37.2934280  90.1693350  27.3145250  38.4270800  89.1936000  27.0807440
  49.5014540  92.4618740  24.4594090  49.8695360  91.6413950  24.7873660
  48.6412740  92.5220630  24.8749740  52.8676570  91.4175680  15.2681650
  52.2389730  91.5221350  14.5539880  52.3728490  91.6372460  16.0575530
  44.8360600  93.6961630  16.6839530  44.1276750  94.1647970  17.1253140
  45.1205080  93.0383640  17.3184720  46.4616530  95.1158330  24.6832060
  46.9601780  95.5904150  25.3483910  46.6039480  94.1921850  24.8902090
  48.8676030  90.4212290  18.1235320  48.7443810  90.4398420  17.1744830
  49.8160590  90.4691230  18.2433720  43.0395620  92.0046710  14.0590240
  43.8886150  92.4416860  13.9930430  42.6726890  92.3166970  14.8862300
  53.6683390  91.3326290  25.5260450  53.1656990  92.0731690  25.8654260
  54.4840050  91.7210290  25.2097240  51.9605400  96.5759470  18.9721810
  51.0195540  96.5909700  19.1469500  52.2749470  95.7895430  19.4182110
  41.9387040  98.2579070  12.5325770  42.7050310  98.1460430  13.0951200
  42.0161730  97.5617040  11.8802540  40.6333800  95.6904140  13.2158660
  40.7137390  94.7431650  13.3276060  41.5253550  96.0211020  13.3219320
  38.1604600  97.5119060  28.4514830  38.6643620  96.9326340  29.0231060
  37.4212020  97.7959290  28.9891200  40.1927680  95.6548650  29.3464900
  40.2333020  95.3562520  30.2550130  41.0473180  96.0556260  29.1872420
  43.9706070  98.2544200  14.5068410  44.3922490  98.0884070  15.3499800
  44.0956910  97.4444430  14.0123550  42.1333490  94.2340750  27.3139390
  41.6029950  93.7431700  26.6862730  42.8021560  94.6624950  26.7797320
  46.4833710  97.2781810  11.7545510  47.0039370  96.5630830  11.3886660
  47.1302110  97.9167680  12.0546020  51.5033720  96.0406370  29.0819730
  52.0854490  95.2858690  28.9940210  51.6795490  96.5713810  28.3051210
  42.6205790  91.2003120  27.3936680  42.5262660  90.5823870  26.6687550
  42.0403180  91.9269410  27.1666590  45.3867230  89.7576360  24.4264070
  44.9384530  89.7800620  23.5809620  44.7532430  89.3595380  25.0234370
  48.1290680  96.3846870  26.4314350  48.2486890  95.7888010  27.1709190
  48.9884680  96.4216560  26.0115650  50.4678580  96.9384060  25.0076860
  49.9413800  97.4626680  24.4042000  50.8109920  97.5711450  25.6386590
  42.8664970  94.3277430  11.4526570  42.6654030  93.4644790  11.8139910
  42.6957020  94.2410790  10.5148170  44.8959450  92.9268220  27.6890170
  45.4859140  92.6184070  28.3767990  44.0779690  92.4547970  27.8450070
  49.7152880  92.5434030  27.9223190  49.0268400  91.8815570  27.8573180
  50.4358900  92.0972300  28.3671650  50.3453280  89.1385660  13.9813450
  50.6255570  88.2953560  14.3372870  49.5719010  89.3708770  14.4952200
  41.6647770  91.4278050  11.4404450  41.9673670  91.4345480  10.5323600
  42.4042360  91.0775910  11.9372110  44.8832700  90.3712670  12.4260650
  44.5354700  89.6936660  11.8463100  45.0845470  89.9102180  13.2404040
  38.2238340  96.9000320  18.8225020  37.5687180  96.6311960  18.1784720
  39.0616290  96.7904800  18.3727000  51.1728780  91.6941610  13.0443510
  51.5913660  91.5072590  12.2040170  50.8664840  90.8420660  13.3546440
  54.6718510  96.6065750  16.7419310  54.2962110  95.8393680  16.3100600
  53.9421630  96.9888450  17.2294240  39.2614270  97.2852890  23.3628360
  39.6287310  97.1980290  24.2424380  38.6925090  96.5219440  23.2635220
  54.0618130  95.7537270  26.3758830  53.8304220  95.5250020  25.4756780
  54.3222680  96.6736820  26.3303720  38.8130270  94.1961980  27.2686780
  37.9186320  94.1628740  27.6080490  39.3527820  94.3948770  28.0338030
  52.5006200  90.9793700  29.1538530  53.3776380  90.9877100  29.5372530
  52.5127040  90.2424540  28.5430880  37.4376420  94.1099250  14.7650350
  36.5340500  94.3729450  14.5902010  37.9217040  94.3810420  13.9850310
  53.9469470  94.8323240  20.0426550  54.4706950  94.3385890  19.4116720
  54.5328890  94.9673600  20.7874120  54.1259190  94.9163110  23.5646100
  53.1761900  94.8826650  23.6791090  54.3072200  95.8263220  23.3295870
  39.9803630  93.1664790  12.6744730  40.6895330  92.7448010  12.1892010
  39.2643570  93.2340020  12.0428080  39.6277790  89.2204120  11.7147380
  40.3505920  89.7613060  12.0328600  39.9002310  88.9467540  10.8388920
  53.4369440  94.0896590  15.9818960  53.9328560  93.8567460  16.7667840
  53.2385510  93.2508430  15.5656600  39.3169980  88.4710310  21.6170000
  39.9646170  87.9207690  21.1765160  39.7371820  88.7253460  22.4385810
  54.8656600  92.7257540  18.5156640  54.7555880  92.5713580  19.4538910
  55.6264190  92.1978480  18.2732050  53.2122320  88.6651670  24.9739640
  53.8494540  89.2785810  25.3398830  53.3597210  88.7012330  24.0288870
  55.7546870  90.5565460  11.7562780  56.6796180  90.4246640  11.5481070
  55.7322660  90.6358280  12.7099230  55.8285360  91.3276120  14.3819490
  55.0336860  91.2621240  14.9112400  56.0328640  92.2626760  14.3704840
  39.0701980  88.6265980  24.3595320  38.7216800  89.0829800  25.1253500
  38.7389680  87.7323110  24.4417750  46.5826800  89.8177860  27.8814740
  46.5215690  90.4099690  28.6310150  47.5227180  89.7103820  27.7365000
  49.2201360  89.4747920  27.5207030  49.8341770  89.7927210  26.8588110
  49.7650920  88.9896510  28.1402890  39.7422620  88.1542180  27.6346090
  40.2905610  87.9730230  26.8712200  39.8077930  87.3636290  28.1702400
  49.9609400  88.0380060  23.8476320  49.0869240  88.3715170  23.6449250
  49.8520150  87.5653240  24.6728190  50.8681380  90.2450930  25.2318040
  50.5394740  89.4302690  24.8519770  51.8163680  90.2020740  25.1083730
  47.7084220  88.9549900  22.7869230  46.9256010  89.4295400  23.0665990
  47.4147150  88.0504730  22.6782410  52.2605290  89.6573000  20.8318320
  52.7013380  89.6018100  19.9839920  51.9912880  90.5731010  20.9028500
  54.1243860  89.2888240  18.8427140  54.0632260  88.3449460  18.6958160
  54.9035890  89.3968330  19.3880600  39.0524630  89.2597380  15.3082950
  39.8103990  89.3726260  14.7346980  38.5901800  90.0966580  15.2626380
  45.5938440  91.3736650  18.2985260  44.7812950  90.9993540  17.9581140
  46.0980080  90.6181730  18.6006450  50.0963420  88.0379100  19.5368330
  50.6992790  88.6099310  20.0116850  49.3556410  88.6018540  19.3142230
  53.2398020  88.4400660  14.8108610  53.4348650  89.3384110  15.0776040
  52.4527890  88.2087740  15.3041560  41.4249780  89.7861430  13.8484920
  41.9542540  88.9991230  13.7192870  42.0578100  90.4652620  14.0820450
  43.6187620  89.5236570  16.9030310  42.9890360  88.8223880  17.0700440
  43.0792760  90.2840700  16.6863470  43.7443180  88.8020550  29.3382800
  43.4627450  89.3054150  28.5743620  44.1262880  88.0042300  28.9724930
  50.3458640  88.2174130  29.9163270  50.2324090  88.5368740  30.8114790
  51.1628380  88.6186640  29.6200550  47.3834830  98.0145620   2.1607280
  46.6076930  97.5346060   2.4505850  48.0347760  97.3351270   1.9863440
  41.4000660  98.3265430   3.0383040  40.5685540  98.0714140   3.4379550
  42.0081640  98.3976200   3.7740960  37.7725620  95.8872970   2.7065130
  38.3441730  95.1195170   2.7068770  37.7727160  96.1861730   1.7971740
  39.0150490  91.2957330   4.4934060  38.8353330  90.3983080   4.7736820
  38.6130570  91.8429200   5.1681010  47.8548990  93.4973190   2.3946370
  48.2313810  92.6245070   2.2820040  47.7568500  93.8331890   1.5036810
  39.6337160  93.7917830   3.1016400  40.3147270  94.0556200   3.7203800
  39.3185210  92.9518700   3.4354410  43.8261730  94.8385190   2.1888990
  44.3339950  95.3366160   2.8294010  44.3574970  94.0620390   2.0128350
  55.9272660  93.0090380   5.8918340  55.2224830  93.3972090   5.3733450
  56.1930580  93.7040670   6.4939270  42.1097830  89.4783750   6.4552410
  42.1116270  89.9956140   5.6498310  41.2802140  89.0013930   6.4322340
  51.8734590  92.9324010   2.1002250  51.1690160  93.2208900   2.6805360
  52.2346750  93.7424120   1.7401810  41.7913160  91.1893710   4.4622860
  42.1329970  92.0335760   4.1676730  40.8528970  91.3377450   4.5788200
  54.9421510  92.3778800   2.4911460  53.9946420  92.4117780   2.6226890
  55.2671500  93.1917750   2.8760820  54.3703650  97.6960330   4.4973760
  53.5422280  97.7653420   4.0223890  54.9654130  98.2814640   4.0289590
  51.3345660  94.4829650   5.4428630  50.9216840  95.3083360   5.6968620
  50.6021610  93.8974690   5.2504990  42.1807070  94.0432760   4.0846340
  42.7321660  94.1528100   3.3099590  42.6950580  94.4170360   4.8001570
  41.8549800  97.5652120   7.6951680  41.7157570  98.4374920   8.0639080
  40.9731160  97.2224930   7.5499620  54.8602230  93.5346230   9.3250750
  54.2446500  94.0425900   8.7966210  54.5398650  92.6344560   9.2676690
  46.9216550  92.3738120   6.7912940  46.4595920  92.5821140   7.6032880
  46.5194660  91.5597470   6.4883610  51.9221060  93.5947070   7.9209600
  51.0714650  93.2952820   8.2418670  51.7622850  93.8389080   7.0093420
  49.0170770  95.0948820  10.0208390  49.3424180  94.2612570   9.6810620
  49.8051100  95.6177340  10.1686720  44.6722640  90.0516930   3.0467220
  44.9694970  90.9579760   2.9659240  45.2208200  89.5635710   2.4326790
  44.8660170  95.5288750   9.5819140  44.7703770  94.5883480   9.4319540
  45.7092150  95.7503820   9.1867210  39.9970710  91.9402420   7.7352920
  39.6034100  92.7877630   7.9425700  39.3089110  91.3028790   7.9261560
  46.5715760  92.0237390  10.8049660  45.8814080  91.8309590  11.4395750
  47.3148060  92.3072030  11.3373960  37.2987760  89.8630880   1.7683000
  37.0100810  90.4333740   2.4807980  38.0433520  89.3835330   2.1314230
  48.8478730  95.8635830   3.6403580  48.1159850  96.3722640   3.9893680
  48.4503070  95.0465810   3.3392360  49.3104640  91.3169510   3.0526520
  49.3277380  91.7678160   3.8968370  49.0620220  90.4175150   3.2659960
  52.7375390  88.7301690   8.8912900  53.0621160  87.9991350   9.4170880
  52.7731900  88.4115330   7.9893890  45.5864090  96.5991810   3.7921480
  45.9534220  96.1250380   4.5382820  45.3969150  97.4733380   4.1329820
  43.3763460  95.6400450   6.1105690  43.0720530  96.5192430   6.3356050
  44.3309920  95.7000240   6.1463130  39.4327190  96.4803190   7.2577050
  39.0742130  97.1457040   7.8450390  39.1381750  95.6486740   7.6289670
  42.6340310  96.9387430  10.1416600  42.3340450  97.0844610   9.2444420
  43.4051550  96.3792720  10.0489990  38.0075760  89.9696430   7.9349150
  37.2934280  90.1693350   8.5401760  38.4270800  89.1936000   8.3063950
  49.5014540  92.4618740   5.6850600  49.8695360  91.6413950   6.0130170
  48.6412740  92.5220630   6.1006250  46.4616530  95.1158330   5.9088570
  46.9601780  95.5904150   6.5740420  46.6039480  94.1921850   6.1158600
  53.6683390  91.3326290   6.7516960  53.1656990  92.0731690   7.0910770
  54.4840050  91.7210290   6.4353750  38.1604600  97.5119060   9.6771340
  38.6643620  96.9326340  10.2487570  37.4212020  97.7959290  10.2147710
  40.1927680  95.6548650  10.5721410  40.2333020  95.3562520  11.4806640
  41.0473180  96.0556260  10.4128930  42.1333490  94.2340750   8.5395900
  41.6029950  93.7431700   7.9119240  42.8021560  94.6624950   8.0053830
  51.5033720  96.0406370  10.3076240  52.0854490  95.2858690  10.2196720
  51.6795490  96.5713810   9.5307720  42.6205790  91.2003120   8.6193190
  42.5262660  90.5823870   7.8944060  42.0403180  91.9269410   8.3923100
  45.3867230  89.7576360   5.6520580  44.9384530  89.7800620   4.8066130
  44.7532430  89.3595380   6.2490880  48.1290680  96.3846870   7.6570860
  48.2486890  95.7888010   8.3965700  48.9884680  96.4216560   7.2372160
  50.4678580  96.9384060   6.2333370  49.9413800  97.4626680   5.6298510
  50.8109920  97.5711450   6.8643100  44.8959450  92.9268220   8.9146680
  45.4859140  92.6184070   9.6024500  44.0779690  92.4547970   9.0706580
  49.7152880  92.5434030   9.1479700  49.0268400  91.8815570   9.0829690
  50.4358900  92.0972300   9.5928160  39.2614270  97.2852890   4.5884870
  39.6287310  97.1980290   5.4680890  38.6925090  96.5219440   4.4891730
  54.0618130  95.7537270   7.6015340  53.8304220  95.5250020   6.7013290
  54.3222680  96.6736820   7.5560230  38.8130270  94.1961980   8.4943290
  37.9186320  94.1628740   8.8337000  39.3527820  94.3948770   9.2594540
  52.5006200  90.9793700  10.3795040  53.3776380  90.9877100  10.7629040
  52.5127040  90.2424540   9.7687390  54.1259190  94.9163110   4.7902610
  53.1761900  94.8826650   4.9047600  54.3072200  95.8263220   4.5552380
  39.3169980  88.4710310   2.8426510  39.9646170  87.9207690   2.4021670
  39.7371820  88.7253460   3.6642320  53.2122320  88.6651670   6.1996150
  53.8494540  89.2785810   6.5655340  53.3597210  88.7012330   5.2545380
  39.0701980  88.6265980   5.5851830  38.7216800  89.0829800   6.3510010
  38.7389680  87.7323110   5.6674260  46.5826800  89.8177860   9.1071250
  46.5215690  90.4099690   9.8566660  47.5227180  89.7103820   8.9621510
  49.2201360  89.4747920   8.7463540  49.8341770  89.7927210   8.0844620
  49.7650920  88.9896510   9.3659400  39.7422620  88.1542180   8.8602600
  40.2905610  87.9730230   8.0968710  39.8077930  87.3636290   9.3958910
  49.9609400  88.0380060   5.0732830  49.0869240  88.3715170   4.8705760
  49.8520150  87.5653240   5.8984700  50.8681380  90.2450930   6.4574550
  50.5394740  89.4302690   6.0776280  51.8163680  90.2020740   6.3340240
  47.7084220  88.9549900   4.0125740  46.9256010  89.4295400   4.2922500
  47.4147150  88.0504730   3.9038920  43.7443180  88.8020550  10.5639310
  43.4627450  89.3054150   9.8000130  44.1262880  88.0042300  10.1981440
  50.3458640  88.2174130  11.1419780  50.2324090  88.5368740  12.0371300
  51.1628380  88.6186640  10.8457060  49.2516790  77.4623110  75.3771970
  49.1710840  76.5477720  75.1063680  48.8381210  77.9590180  74.6711680
  51.4042260  83.6462320  76.0380370  50.9423790  82.8749560  76.3667540
  52.2167810  83.6728390  76.5432820  39.8092610  74.5123830  71.9199390
  38.9209310  74.8539800  71.8179270  40.0933800  74.3124150  71.0280220
  47.6305570  85.9320330  75.6584360  47.0117010  86.3877830  75.0878800
  48.4857350  86.0871790  75.2574060  41.9854000  73.0955330  72.9537770
  42.0920750  73.9959060  73.2606530  41.0746360  73.0473300  72.6632420
  51.6373110  72.2180140  74.4248670  52.4582730  71.7276710  74.4674150
  51.6707190  72.8077800  75.1780510  48.4968920  80.8159570  73.0516270
  47.8786190  81.2809020  72.4878990  49.0092170  81.5087050  73.4685780
  37.8652120  81.5016100  70.4255900  37.4880100  81.9903200  69.6940800
  38.1225190  82.1741380  71.0562430  45.4741050  69.9032490  75.8841410
  45.7816030  69.3479380  75.1676910  44.5441750  70.0376950  75.7014400
  52.3201530  82.3416000  73.2639040  52.2097860  81.3990330  73.3888460
  52.3169780  82.7031640  74.1501800  47.8621810  77.9681320  72.6201530
  46.9351090  77.9018700  72.8490000  48.0146630  78.9061450  72.5056770
  47.8490890  74.2398320  69.6168690  46.9094560  74.4012280  69.7021150
  48.1674150  74.9584000  69.0704680  51.8919100  79.5301620  73.1236780
  51.2731520  79.1921170  72.4763080  51.8743550  78.8861380  73.8315970
  43.4678450  78.4946060  75.4021260  43.0635450  77.7823310  74.9067160
  43.5541570  78.1499300  76.2909300  50.0683800  78.7688430  70.1309530
  50.5077080  77.9310860  69.9847350  50.7812220  79.4017830  70.2173670
  48.1779180  83.7084500  74.0990770  48.6175090  84.4508830  73.6846160
  48.1166070  83.9511070  75.0229730  53.6500940  70.0231240  68.4450570
  53.3373600  70.1158070  69.3449640  54.4113410  70.6012270  68.3948000
  40.1683080  77.3891040  72.9027910  40.0480680  78.1153130  72.2909180
  39.8583970  76.6193950  72.4255820  39.0516080  82.2606370  75.1202730
  38.6444160  82.4020960  74.2656330  39.9429090  81.9766530  74.9173940
  50.8449360  86.6953620  71.4553780  50.6850500  86.4056560  72.3535610
  50.6796070  85.9193750  70.9199010  43.3237740  86.4752150  73.2325400
  43.1480220  85.5587690  73.0193200  42.4693480  86.8339440  73.4723200
  50.5475490  84.2041180  70.0151780  49.8540650  84.2018470  69.3554060
  51.2898350  83.7800500  69.5845950  50.1125420  85.8303890  74.0900270
  50.5682370  85.0493270  74.4038890  50.4517940  86.5410710  74.6341450
  42.6346740  70.7326110  76.2851580  42.1914890  71.5135650  75.9536100
  43.1931730  71.0556000  76.9922520  45.7505560  70.3536810  71.1657410
  45.1259740  70.3496680  71.8910720  45.6635680  69.4867770  70.7693380
  42.4260960  75.8559680  74.0132830  42.2001880  75.6396850  74.9179450
  41.6453490  76.2888140  73.6678800  49.6558720  75.8623050  72.6123480
  49.0567610  76.5858850  72.4287100  50.2038330  75.7999830  71.8299930
  48.2623590  74.4986590  74.6426760  48.6553160  74.8158790  73.8295450
  48.6240440  73.6198470  74.7571280  37.4857990  75.0307510  68.0759680
  37.4032660  75.9738270  68.2174670  37.1341050  74.8882420  67.1972030
  45.2856120  73.7646540  77.1430030  45.2892180  73.3236490  76.2934570
  46.1807240  74.0863870  77.2501850  41.1358500  73.6473030  76.1024240
  40.7958550  74.1248260  76.8591290  40.3735820  73.1938150  75.7425340
  45.3476270  74.7658620  70.1336790  45.4689090  74.7245100  71.0822610
  44.9624780  75.6282770  69.9783520  44.3597770  77.0759760  69.5320090
  43.7914670  76.6278010  68.9056000  45.0686770  77.4352540  68.9985240
  38.4504580  72.5692010  75.0188910  38.1651500  72.2047680  75.8567530
  38.3883440  71.8372470  74.4052050  41.9045250  81.0717950  71.8046500
  41.1307510  80.5315570  71.6445220  42.6339880  80.5524560  71.4664260
  48.1243170  71.4621270  71.7402280  47.3107780  70.9634440  71.6647590
  47.9305120  72.3019520  71.3238630  50.8391560  75.8340920  70.0364440
  51.7271180  76.1458150  69.8615780  50.8096650  74.9613170  69.6445020
  41.9482650  80.7398330  75.4425310  42.4661320  79.9366590  75.3882200
  41.4966670  80.6777470  76.2842140  46.8352150  82.0064610  70.7152610
  47.1767850  82.7506840  70.2195930  46.0064860  82.3195730  71.0777440
  53.1105830  77.1452760  69.5044300  53.0269550  77.5766980  68.6540740
  53.8300020  77.6051110  69.9371120  54.1393080  83.9995020  72.2326430
  53.4969240  83.3450640  72.5070150  53.7523740  84.4050110  71.4567100
  49.7179560  81.3280450  76.0798120  50.0703380  80.7308580  75.4199490
  48.8341890  81.0024680  76.2506370  45.8042840  82.0878140  73.4868530
  46.4913970  82.6347350  73.8676120  45.0175260  82.6318870  73.5218140
  37.9435240  77.7050960  68.9785610  38.8130090  77.9875760  69.2621530
  37.4525560  78.5186830  68.8634420  45.1070050  79.0924170  73.0993890
  45.5632830  79.9029420  73.3254080  44.7558260  78.7747310  73.9312380
  41.0081830  69.4361820  73.5716410  40.8796460  69.4279720  74.5201330
  40.1843850  69.7744910  73.2207420  52.5290460  82.8911480  68.7702780
  52.3028040  82.1741920  69.3627420  52.1386660  82.6423920  67.9324530
  38.3106490  86.9178340  69.5447240  38.6704130  87.5167680  68.8904510
  38.1698830  87.4638230  70.3182270  52.1106710  80.8083420  70.4316940
  51.8228410  81.2696110  71.2194820  52.9058880  80.3481190  70.7001160
  44.3275110  84.3009540  70.3620910  44.3185210  85.0339230  69.7465420
  43.4073470  84.0541120  70.4547870  39.9281750  79.5224430  71.1067670
  39.3209700  80.2623330  71.1162970  40.4031100  79.6123790  70.2805870
  52.8676570  72.6432190  71.5912120  52.2389730  72.7477860  70.8770350
  52.3728490  72.8628970  72.3806000  47.3134710  84.3637780  69.0246100
  47.4146690  84.1601770  68.0948080  46.4136450  84.1096060  69.2293880
  44.8360600  74.9218140  73.0070000  44.1276750  75.3904480  73.4483610
  45.1205080  74.2640150  73.6415190  48.8676030  71.6468800  74.4465790
  48.7443810  71.6654930  73.4975300  49.8160590  71.6947740  74.5664190
  45.9552820  86.8824100  73.7193770  46.2094320  86.8445490  72.7973140
  45.0065300  86.7557430  73.7122020  43.0395620  73.2303220  70.3820710
  43.8886150  73.6673370  70.3160900  42.6726890  73.5423480  71.2092770
  51.9605400  77.8015980  75.2952280  51.0195540  77.8166210  75.4699970
  52.2749470  77.0151940  75.7412580  41.9387040  79.4835580  68.8556240
  42.7050310  79.3716940  69.4181670  42.0161730  78.7873550  68.2033010
  40.6333800  76.9160650  69.5389130  40.7137390  75.9688160  69.6506530
  41.5253550  77.2467530  69.6449790  41.4348510  87.0656040  76.6423670
  42.1710990  86.5171500  76.9132240  41.8189430  87.9312050  76.5029660
  38.3193990  83.1329610  72.5165180  37.3933770  83.3750750  72.5070590
  38.7850420  83.9603870  72.3949930  44.5450820  86.2386350  68.4649240
  45.3379430  86.5275180  68.0131030  44.0255170  85.8078520  67.7861720
  53.5980990  85.4656480  69.8885980  53.3122500  85.0521620  69.0740160
  53.4000540  86.3944190  69.7686500  45.0628220  81.4589760  68.3291590
  44.9578860  80.8442110  69.0552970  44.8952440  80.9355650  67.5454600
  48.3030950  80.5209790  68.9333580  47.7541050  80.9679090  69.5776320
  48.9250210  80.0159040  69.4571250  43.9706070  79.4800710  70.8298880
  44.3922490  79.3140580  71.6730270  44.0956910  78.6700940  70.3354020
  46.4833710  78.5038320  68.0775980  47.0039370  77.7887340  67.7117130
  47.1302110  79.1424190  68.3776490  42.8664970  75.5533940  67.7757040
  42.6654030  74.6901300  68.1370380  42.6957020  75.4667300  66.8378640
  50.3453280  70.3642170  70.3043920  50.6255570  69.5210070  70.6603340
  49.5719010  70.5965280  70.8182670  41.6647770  72.6534560  67.7634920
  41.9673670  72.6601990  66.8554070  42.4042360  72.3032420  68.2602580
  44.8832700  71.5969180  68.7491120  44.5354700  70.9193170  68.1693570
  45.0845470  71.1358690  69.5634510  47.0481740  86.5849930  70.3677720
  47.9432530  86.9234900  70.3896480  47.0799370  85.8629340  69.7402000
  40.6877900  81.9576980  68.5964720  41.1252770  82.5006650  69.2522300
  41.1725630  81.1323930  68.6061060  37.9023700  84.7466010  76.0484980
  38.2326710  83.8787070  75.8163620  38.3314700  84.9524530  76.8789940
  42.4985620  83.0775020  73.7086950  42.1981160  82.9539990  74.6090860
  42.3923110  82.2183610  73.3002680  55.2677540  82.8571420  68.4113630
  54.4370500  82.9248070  68.8820860  55.4449370  83.7475540  68.1080490
  54.7234000  79.6018900  70.9147830  55.4852910  80.1715550  71.0207520
  54.7388370  79.0346100  71.6856140  38.2238340  78.1256830  75.1455490
  37.5687180  77.8568470  74.5015190  39.0616290  78.0161310  74.6957470
  55.7293970  80.4569000  75.7589760  56.1002800  79.6736320  75.3525730
  56.3695900  81.1458100  75.5807060  54.7753170  79.8953270  68.0720350
  55.0502010  80.8032150  67.9439570  54.5863910  79.8315800  69.0082340
  51.1728780  72.9198120  69.3673980  51.5913660  72.7329100  68.5270640
  50.8664840  72.0677170  69.6776910  54.6718510  77.8322260  73.0649780
  54.2962110  77.0650190  72.6331070  53.9421630  78.2144960  73.5524710
  37.4376420  75.3355760  71.0880820  36.5340500  75.5985960  70.9132480
  37.9217040  75.6066930  70.3080780  53.9469470  76.0579750  76.3657020
  54.4706950  75.5642400  75.7347190  54.5328890  76.1930110  77.1104590
  39.9803630  74.3921300  68.9975200  40.6895330  73.9704520  68.5122480
  39.2643570  74.4596530  68.3658550  39.6277790  70.4460630  68.0377850
  40.3505920  70.9869570  68.3559070  39.9002310  70.1724050  67.1619390
  53.4369440  75.3153100  72.3049430  53.9328560  75.0823970  73.0898310
  53.2385510  74.4764940  71.8887070  54.8656600  73.9514050  74.8387110
  54.7555880  73.7970090  75.7769380  55.6264190  73.4234990  74.5962520
  55.7546870  71.7821970  68.0793250  56.6796180  71.6503150  67.8711540
  55.7322660  71.8614790  69.0329700  55.8285360  72.5532630  70.7049960
  55.0336860  72.4877750  71.2342870  56.0328640  73.4883270  70.6935310
  52.7703780  86.5924180  74.6988350  53.3662850  86.2708750  74.0222770
  53.0281930  86.1196000  75.4901620  52.2605290  70.8829510  77.1548790
  52.7013380  70.8274610  76.3070390  51.9912880  71.7987520  77.2258970
  54.1243860  70.5144750  75.1657610  54.0632260  69.5705970  75.0188630
  54.9035890  70.6224840  75.7111070  38.4296610  86.6537110  74.1281560
  38.2618650  86.0207790  74.8263450  37.5631120  86.8596510  73.7775750
  39.0524630  70.4853890  71.6313420  39.8103990  70.5982770  71.0577450
  38.5901800  71.3223090  71.5856850  45.5938440  72.5993160  74.6215730
  44.7812950  72.2250050  74.2811610  46.0980080  71.8438240  74.9236920
  50.0963420  69.2635610  75.8598800  50.6992790  69.8355820  76.3347320
  49.3556410  69.8275050  75.6372700  53.2398020  69.6657170  71.1339080
  53.4348650  70.5640620  71.4006510  52.4527890  69.4344250  71.6272030
  40.0359310  85.3470340  71.5731700  39.5106930  85.7278370  70.8693660
  39.9603890  85.9721110  72.2941410  41.4249780  71.0117940  70.1715390
  41.9542540  70.2247740  70.0423340  42.0578100  71.6909130  70.4050920
  43.6187620  70.7493080  73.2260780  42.9890360  70.0480390  73.3930910
  43.0792760  71.5097210  73.0093940  54.7924630  86.9057880  72.8945640
  54.9676820  86.2195620  72.2506560  54.0946200  87.4304930  72.5022310
  42.6352280  87.2952720  70.4480950  43.3671100  87.0112000  69.9004840
  42.8945950  87.0566000  71.3380330  41.7967070  83.4117450  70.4527280
  41.1675950  83.8802550  71.0013110  41.9114900  82.5666670  70.8873470
  49.2516790  77.4623110  56.6028480  49.1710840  76.5477720  56.3320190
  48.8381210  77.9590180  55.8968190  47.3834830  79.2402130  58.4837750
  46.6076930  78.7602570  58.7736320  48.0347760  78.5607780  58.3093910
  41.4000660  79.5521940  59.3613510  40.5685540  79.2970650  59.7610020
  42.0081640  79.6232710  60.0971430  51.4042260  83.6462320  57.2636880
  50.9423790  82.8749560  57.5924050  52.2167810  83.6728390  57.7689330
  41.3801920  83.5862030  59.5571530  41.6829960  82.6959770  59.3781750
  42.1245510  84.1432250  59.3293780  39.8092610  74.5123830  53.1455900
  38.9209310  74.8539800  53.0435780  40.0933800  74.3124150  52.2536730
  37.7725620  77.1129480  59.0295600  38.3441730  76.3451680  59.0299240
  37.7727160  77.4118240  58.1202210  47.6305570  85.9320330  56.8840870
  47.0117010  86.3877830  56.3135310  48.4857350  86.0871790  56.4830570
  46.8243820  81.9159320  58.4907910  46.7552100  80.9749260  58.3297040
  47.5863680  82.0060730  59.0630480  39.0150490  72.5213840  60.8164530
  38.8353330  71.6239590  61.0967290  38.6130570  73.0685710  61.4911480
  47.8548990  74.7229700  58.7176840  48.2313810  73.8501580  58.6050510
  47.7568500  75.0588400  57.8267280  41.9854000  73.0955330  54.1794280
  42.0920750  73.9959060  54.4863040  41.0746360  73.0473300  53.8888930
  51.6373110  72.2180140  55.6505180  52.4582730  71.7276710  55.6930660
  51.6707190  72.8077800  56.4037020  39.6337160  75.0174340  59.4246870
  40.3147270  75.2812710  60.0434270  39.3185210  74.1775210  59.7584880
  43.8261730  76.0641700  58.5119460  44.3339950  76.5622670  59.1524480
  44.3574970  75.2876900  58.3358820  55.9272660  74.2346890  62.2148810
  55.2224830  74.6228600  61.6963920  56.1930580  74.9297180  62.8169740
  42.1097830  70.7040260  62.7782880  42.1116270  71.2212650  61.9728780
  41.2802140  70.2270440  62.7552810  48.4968920  80.8159570  54.2772780
  47.8786190  81.2809020  53.7135500  49.0092170  81.5087050  54.6942290
  43.3600680  80.3435440  60.9556380  43.0270060  80.9704360  61.5977450
  43.5367360  80.8697320  60.1758050  51.8734590  74.1580520  58.4232720
  51.1690160  74.4465410  59.0035830  52.2346750  74.9680630  58.0632280
  41.7913160  72.4150220  60.7853330  42.1329970  73.2592270  60.4907200
  40.8528970  72.5633960  60.9018670  42.5719780  82.3116240  62.7705560
  43.1893780  82.9867320  62.4890010  41.7112900  82.7204220  62.6793060
  37.8652120  81.5016100  51.6512410  37.4880100  81.9903200  50.9197310
  38.1225190  82.1741380  52.2818940  53.4897370  83.7755650  60.6860200
  52.8060890  84.4454760  60.6776870  54.0291660  83.9736300  59.9205060
  54.9421510  73.6035310  58.8141930  53.9946420  73.6374290  58.9457360
  55.2671500  74.4174260  59.1991290  45.4741050  69.9032490  57.1097920
  45.7816030  69.3479380  56.3933420  44.5441750  70.0376950  56.9270910
  51.0256110  85.6199780  59.4005380  51.0383270  85.2162070  58.5327640
  50.4731330  86.3947070  59.2966810  52.3201530  82.3416000  54.4895550
  52.2097860  81.3990330  54.6144970  52.3169780  82.7031640  55.3758310
  50.4241550  80.5229620  60.7287990  50.8410340  80.3089730  59.8941450
  51.1481370  80.7802410  61.2996610  47.8621810  77.9681320  53.8458040
  46.9351090  77.9018700  54.0746510  48.0146630  78.9061450  53.7313280
  47.8490890  74.2398320  50.8425200  46.9094560  74.4012280  50.9277660
  48.1674150  74.9584000  50.2961190  54.3703650  78.9216840  60.8204230
  53.5422280  78.9909930  60.3454360  54.9654130  79.5071150  60.3520060
  51.8919100  79.5301620  54.3493290  51.2731520  79.1921170  53.7019590
  51.8743550  78.8861380  55.0572480  51.3345660  75.7086160  61.7659100
  50.9216840  76.5339870  62.0199090  50.6021610  75.1231200  61.5735460
  43.4678450  78.4946060  56.6277770  43.0635450  77.7823310  56.1323670
  43.5541570  78.1499300  57.5165810  43.9360150  82.1813620  58.7916980
  43.6388440  81.5759090  58.1124760  44.8859970  82.2190930  58.6806340
  42.1807070  75.2689270  60.4076810  42.7321660  75.3784610  59.6330060
  42.6950580  75.6426870  61.1232040  52.0245760  85.7545490  62.4540080
  51.5476320  86.5617680  62.2612690  51.3407550  85.1023820  62.6066290
  43.0278580  81.9195310  65.4424780  42.1307110  82.1435280  65.6898180
  43.0531450  82.0430250  64.4936180  50.0683800  78.7688430  51.3566040
  50.5077080  77.9310860  51.2103860  50.7812220  79.4017830  51.4430180
  41.8549800  78.7908630  64.0182150  41.7157570  79.6631430  64.3869550
  40.9731160  78.4481440  63.8730090  48.1779180  83.7084500  55.3247280
  48.6175090  84.4508830  54.9102670  48.1166070  83.9511070  56.2486240
  43.6530150  84.7330330  66.2267300  43.6245580  85.1373280  65.3595730
  43.4895120  83.8040690  66.0638900  40.1683080  77.3891040  54.1284420
  40.0480680  78.1153130  53.5165690  39.8583970  76.6193950  53.6512330
  55.6044970  85.5157430  67.5231470  56.0804690  85.9940320  68.2020550
  56.2252130  85.4474920  66.7976970  37.8068450  80.5606180  59.9353060
  37.8848870  80.6954950  58.9908780  38.4210130  79.8522070  60.1281180
  39.0516080  82.2606370  56.3459240  38.6444160  82.4020960  55.4912840
  39.9429090  81.9766530  56.1430450  55.0078220  82.7070280  64.6831480
  55.1341280  82.4682160  63.7648660  55.0499600  81.8754820  65.1553560
  48.8694960  86.4098280  63.2526290  49.3839630  86.3206290  64.0548720
  48.0264040  86.7557980  63.5454200  50.8449360  86.6953620  52.6810290
  50.6850500  86.4056560  53.5792120  50.6796070  85.9193750  52.1455520
  43.3237740  86.4752150  54.4581910  43.1480220  85.5587690  54.2449710
  42.4693480  86.8339440  54.6979710  50.5475490  84.2041180  51.2408290
  49.8540650  84.2018470  50.5810570  51.2898350  83.7800500  50.8102460
  50.1125420  85.8303890  55.3156780  50.5682370  85.0493270  55.6295400
  50.4517940  86.5410710  55.8597960  54.8602230  74.7602740  65.6481220
  54.2446500  75.2682410  65.1196680  54.5398650  73.8601070  65.5907160
  37.8627970  81.6020350  62.4747520  38.0259010  81.1325710  61.6566890
  38.3280420  81.0943910  63.1396360  42.6346740  70.7326110  57.5108090
  42.1914890  71.5135650  57.1792610  43.1931730  71.0556000  58.2179030
  46.9216550  73.5994630  63.1143410  46.4595920  73.8077650  63.9263350
  46.5194660  72.7853980  62.8114080  51.9221060  74.8203580  64.2440070
  51.0714650  74.5209330  64.5649140  51.7622850  75.0645590  63.3323890
  49.0170770  76.3205330  66.3438860  49.3424180  75.4869080  66.0041090
  49.8051100  76.8433850  66.4917190  44.6722640  71.2773440  59.3697690
  44.9694970  72.1836270  59.2889710  45.2208200  70.7892220  58.7557260
  42.4260960  75.8559680  55.2389340  42.2001880  75.6396850  56.1435960
  41.6453490  76.2888140  54.8935310  49.6558720  75.8623050  53.8379990
  49.0567610  76.5858850  53.6543610  50.2038330  75.7999830  53.0556440
  44.8660170  76.7545260  65.9049610  44.7703770  75.8139990  65.7550010
  45.7092150  76.9760330  65.5097680  48.2623590  74.4986590  55.8683270
  48.6553160  74.8158790  55.0551960  48.6240440  73.6198470  55.9827790
  39.9970710  73.1658930  64.0583390  39.6034100  74.0134140  64.2656170
  39.3089110  72.5285300  64.2492030  46.5715760  73.2493900  67.1280130
  45.8814080  73.0566100  67.7626220  47.3148060  73.5328540  67.6604430
  37.2987760  71.0887390  58.0913470  37.0100810  71.6590250  58.8038450
  38.0433520  70.6091840  58.4544700  37.4857990  75.0307510  49.3016190
  37.4032660  75.9738270  49.4431180  37.1341050  74.8882420  48.4228540
  48.8478730  77.0892340  59.9634050  48.1159850  77.5979150  60.3124150
  48.4503070  76.2722320  59.6622830  45.2856120  73.7646540  58.3686540
  45.2892180  73.3236490  57.5191080  46.1807240  74.0863870  58.4758360
  41.1358500  73.6473030  57.3280750  40.7958550  74.1248260  58.0847800
  40.3735820  73.1938150  56.9681850  45.3476270  74.7658620  51.3593300
  45.4689090  74.7245100  52.3079120  44.9624780  75.6282770  51.2040030
  49.3104640  72.5426020  59.3756990  49.3277380  72.9934670  60.2198840
  49.0620220  71.6431660  59.5890430  44.3597770  77.0759760  50.7576600
  43.7914670  76.6278010  50.1312510  45.0686770  77.4352540  50.2241750
  52.7375390  69.9558200  65.2143370  53.0621160  69.2247860  65.7401350
  52.7731900  69.6371840  64.3124360  39.4366950  80.9771780  64.6343330
  39.0521740  80.3365450  65.2326290  39.7479140  81.6807900  65.2038060
  45.5864090  77.8248320  60.1151950  45.9534220  77.3506890  60.8613290
  45.3969150  78.6989890  60.4560290  38.4504580  72.5692010  56.2445420
  38.1651500  72.2047680  57.0824040  38.3883440  71.8372470  55.6308560
  43.3763460  76.8656960  62.4336160  43.0720530  77.7448940  62.6586520
  44.3309920  76.9256750  62.4693600  41.9045250  81.0717950  53.0303010
  41.1307510  80.5315570  52.8701730  42.6339880  80.5524560  52.6920770
  52.6633230  80.0683310  58.8229400  53.3832350  80.5638600  58.4325510
  52.4615050  79.3901200  58.1783270  48.1243170  71.4621270  52.9658790
  47.3107780  70.9634440  52.8904100  47.9305120  72.3019520  52.5495140
  48.0452030  80.1392370  64.7098400  47.9789340  79.2188040  64.4555990
  47.4157170  80.2367810  65.4243040  41.9482650  80.7398330  56.6681820
  42.4661320  79.9366590  56.6138710  41.4966670  80.6777470  57.5098650
  46.8352150  82.0064610  51.9409120  47.1767850  82.7506840  51.4452440
  46.0064860  82.3195730  52.3033950  39.4327190  77.7059700  63.5807520
  39.0742130  78.3713550  64.1680860  39.1381750  76.8743250  63.9520140
  42.6340310  78.1643940  66.4647070  42.3340450  78.3101120  65.5674890
  43.4051550  77.6049230  66.3720460  47.9768760  82.9612940  64.4602200
  47.9913300  82.0293900  64.2421110  47.2693860  83.0472700  65.0991970
  54.1879970  79.6020280  63.8070780  53.4628160  80.1949060  63.6100170
  54.7155430  79.5943820  63.0084150  54.1393080  83.9995020  53.4582940
  53.4969240  83.3450640  53.7326660  53.7523740  84.4050110  52.6823610
  49.7179560  81.3280450  57.3054630  50.0703380  80.7308580  56.6456000
  48.8341890  81.0024680  57.4762880  45.8042840  82.0878140  54.7125040
  46.4913970  82.6347350  55.0932630  45.0175260  82.6318870  54.7474650
  37.9435240  77.7050960  50.2042120  38.8130090  77.9875760  50.4878040
  37.4525560  78.5186830  50.0890930  45.1070050  79.0924170  54.3250400
  45.5632830  79.9029420  54.5510590  44.7558260  78.7747310  55.1568890
  47.4102660  84.6030510  61.5542700  48.0544880  84.8089890  62.2316120
  47.7732100  83.8418910  61.1013550  41.0081830  69.4361820  54.7972920
  40.8796460  69.4279720  55.7457840  40.1843850  69.7744910  54.4463930
  48.6834740  82.6062860  60.2720150  49.3256970  81.9056020  60.3852320
  49.2084090  83.3861300  60.0917040  52.5290460  82.8911480  49.9959290
  52.3028040  82.1741920  50.5883930  52.1386660  82.6423920  49.1581040
  50.4572360  83.4057760  63.4756210  50.7928600  83.9924450  64.1534130
  49.5372700  83.2750470  63.7054000  38.3106490  86.9178340  50.7703750
  38.6704130  87.5167680  50.1161020  38.1698830  87.4638230  51.5438780
  38.0075760  71.1952940  64.2579620  37.2934280  71.3949860  64.8632230
  38.4270800  70.4192510  64.6294420  52.1106710  80.8083420  51.6573450
  51.8228410  81.2696110  52.4451330  52.9058880  80.3481190  51.9257670
  38.2948350  85.1833200  65.2446150  38.4039470  84.2427940  65.1041540
  37.6428910  85.4487950  64.5959880  46.2860940  83.4549090  66.6444270
  45.9657810  82.7358330  67.1889960  45.6119300  84.1304160  66.7180330
  44.3275110  84.3009540  51.5877420  44.3185210  85.0339230  50.9721930
  43.4073470  84.0541120  51.6804380  39.9281750  79.5224430  52.3324180
  39.3209700  80.2623330  52.3419480  40.4031100  79.6123790  51.5062380
  49.5014540  73.6875250  62.0081070  49.8695360  72.8670460  62.3360640
  48.6412740  73.7477140  62.4236720  47.3134710  84.3637780  50.2502610
  47.4146690  84.1601770  49.3204590  46.4136450  84.1096060  50.4550390
  44.8360600  74.9218140  54.2326510  44.1276750  75.3904480  54.6740120
  45.1205080  74.2640150  54.8671700  46.4616530  76.3414840  62.2319040
  46.9601780  76.8160660  62.8970890  46.6039480  75.4178360  62.4389070
  48.8676030  71.6468800  55.6722300  48.7443810  71.6654930  54.7231810
  49.8160590  71.6947740  55.7920700  45.9552820  86.8824100  54.9450280
  46.2094320  86.8445490  54.0229650  45.0065300  86.7557430  54.9378530
  43.0395620  73.2303220  51.6077220  43.8886150  73.6673370  51.5417410
  42.6726890  73.5423480  52.4349280  53.6683390  72.5582800  63.0747430
  53.1656990  73.2988200  63.4141240  54.4840050  72.9466800  62.7584220
  51.9605400  77.8015980  56.5208790  51.0195540  77.8166210  56.6956480
  52.2749470  77.0151940  56.9669090  41.9387040  79.4835580  50.0812750
  42.7050310  79.3716940  50.6438180  42.0161730  78.7873550  49.4289520
  40.6333800  76.9160650  50.7645640  40.7137390  75.9688160  50.8763040
  41.5253550  77.2467530  50.8706300  53.9630980  84.9724830  58.1963050
  54.0878400  85.7956000  58.6686860  54.8296540  84.7615560  57.8487200
  41.4348510  87.0656040  57.8680180  42.1710990  86.5171500  58.1388750
  41.8189430  87.9312050  57.7286170  38.3193990  83.1329610  53.7421690
  37.3933770  83.3750750  53.7327100  38.7850420  83.9603870  53.6206440
  40.4406790  86.2502110  67.0565760  41.2419520  86.5714160  67.4701160
  39.9258610  85.8897690  67.7785670  44.5450820  86.2386350  49.6905750
  45.3379430  86.5275180  49.2387540  44.0255170  85.8078520  49.0118230
  49.2771420  82.3581980  67.0041170  48.6709580  82.3813580  66.2636920
  48.9725530  81.6265020  67.5408420  50.7071790  86.0862270  65.6150580
  51.6593540  86.0020290  65.5650820  50.5600010  86.7503980  66.2884370
  53.5980990  85.4656480  51.1142490  53.3122500  85.0521620  50.2996670
  53.4000540  86.3944190  50.9943010  38.1604600  78.7375570  66.0001810
  38.6643620  78.1582850  66.5718040  37.4212020  79.0215800  66.5378180
  45.0628220  81.4589760  49.5548100  44.9578860  80.8442110  50.2809480
  44.8952440  80.9355650  48.7711110  45.2142540  80.1446560  65.5337330
  44.4488210  80.7131560  65.4492000  45.3958500  79.8522770  64.6405560
  48.3030950  80.5209790  50.1590090  47.7541050  80.9679090  50.8032830
  48.9250210  80.0159040  50.6827760  52.3565890  81.8751890  66.0912350
  53.0975360  82.2127650  65.5879810  51.5938570  82.0443950  65.5382120
  40.1927680  76.8805160  66.8951880  40.2333020  76.5819030  67.8037110
  41.0473180  77.2812770  66.7359400  43.9706070  79.4800710  52.0555390
  44.3922490  79.3140580  52.8986780  44.0956910  78.6700940  51.5610530
  42.1333490  75.4597260  64.8626370  41.6029950  74.9688210  64.2349710
  42.8021560  75.8881460  64.3284300  46.4833710  78.5038320  49.3032490
  47.0039370  77.7887340  48.9373640  47.1302110  79.1424190  49.6033000
  51.0311550  79.9266720  64.6267560  51.4452570  80.0811800  65.4757980
  50.0962550  80.0521940  64.7893340  51.5033720  77.2662880  66.6306710
  52.0854490  76.5115200  66.5427190  51.6795490  77.7970320  65.8538190
  42.6205790  72.4259630  64.9423660  42.5262660  71.8080380  64.2174530
  42.0403180  73.1525920  64.7153570  45.3867230  70.9832870  61.9751050
  44.9384530  71.0057130  61.1296600  44.7532430  70.5851890  62.5721350
  45.7926780  79.8787200  62.5963490  46.2114890  80.7219930  62.4239730
  44.8735410  80.0159240  62.3670270  48.1290680  77.6103380  63.9801330
  48.2486890  77.0144520  64.7196170  48.9884680  77.6473070  63.5602630
  50.4678580  78.1640570  62.5563840  49.9413800  78.6883190  61.9528980
  50.8109920  78.7967960  63.1873570  42.8664970  75.5533940  49.0013550
  42.6654030  74.6901300  49.3626890  42.6957020  75.4667300  48.0635150
  43.6434200  86.1840210  63.7121220  43.1055290  86.9086270  63.3929920
  43.8968160  85.7070550  62.9218560  44.8959450  74.1524730  65.2377150
  45.4859140  73.8440580  65.9254970  44.0779690  73.6804480  65.3937050
  49.7152880  73.7690540  65.4710170  49.0268400  73.1072080  65.4060160
  50.4358900  73.3228810  65.9158630  41.6647770  72.6534560  48.9891430
  41.9673670  72.6601990  48.0810580  42.4042360  72.3032420  49.4859090
  46.4996410  87.4191420  63.9707870  46.4255110  88.3226560  64.2780240
  45.5975250  87.1003320  63.9429940  47.0481740  86.5849930  51.5934230
  47.9432530  86.9234900  51.6152990  47.0799370  85.8629340  50.9658510
  40.6877900  81.9576980  49.8221230  41.1252770  82.5006650  50.4778810
  41.1725630  81.1323930  49.8317570  37.9023700  84.7466010  57.2741490
  38.2326710  83.8787070  57.0420130  38.3314700  84.9524530  58.1046450
  42.4985620  83.0775020  54.9343460  42.1981160  82.9539990  55.8347370
  42.3923110  82.2183610  54.5259190  38.3913910  85.6136600  60.0123120
  37.9544900  85.7937400  60.8447270  38.9591590  86.3711220  59.8704840
  54.0276090  85.1153600  64.3000430  53.4278080  85.1746160  63.5564350
  54.1569990  84.1758580  64.4297280  55.2677540  82.8571420  49.6370140
  54.4370500  82.9248070  50.1077370  55.4449370  83.7475540  49.3337000
  38.2238340  78.1256830  56.3712000  37.5687180  77.8568470  55.7271700
  39.0616290  78.0161310  55.9213980  55.7293970  80.4569000  56.9846270
  56.1002800  79.6736320  56.5782240  56.3695900  81.1458100  56.8063570
  52.7127730  81.8405580  62.3976590  51.8987570  82.2702740  62.6602380
  53.1201930  82.4523990  61.7845640  39.2614270  78.5109400  60.9115340
  39.6287310  78.4236800  61.7911360  38.6925090  77.7475950  60.8122200
  54.0618130  76.9793780  63.9245810  53.8304220  76.7506530  63.0243760
  54.3222680  77.8993330  63.8790700  38.8130270  75.4218490  64.8173760
  37.9186320  75.3885250  65.1567470  39.3527820  75.6205280  65.5825010
  52.5006200  72.2050210  66.7025510  53.3776380  72.2133610  67.0859510
  52.5127040  71.4681050  66.0917860  37.4376420  75.3355760  52.3137330
  36.5340500  75.5985960  52.1388990  37.9217040  75.6066930  51.5337290
  53.9469470  76.0579750  57.5913530  54.4706950  75.5642400  56.9603700
  54.5328890  76.1930110  58.3361100  54.1259190  76.1419620  61.1133080
  53.1761900  76.1083160  61.2278070  54.3072200  77.0519730  60.8782850
  39.9803630  74.3921300  50.2231710  40.6895330  73.9704520  49.7378990
  39.2643570  74.4596530  49.5915060  39.3169980  69.6966820  59.1656980
  39.9646170  69.1464200  58.7252140  39.7371820  69.9509970  59.9872790
  54.8656600  73.9514050  56.0643620  54.7555880  73.7970090  57.0025890
  55.6264190  73.4234990  55.8219030  53.2122320  69.8908180  62.5226620
  53.8494540  70.5042320  62.8885810  53.3597210  69.9268840  61.5775850
  52.7703780  86.5924180  55.9244860  53.3662850  86.2708750  55.2479280
  53.0281930  86.1196000  56.7158130  39.0701980  69.8522490  61.9082300
  38.7216800  70.3086310  62.6740480  38.7389680  68.9579620  61.9904730
  40.6766350  83.0242090  66.0735490  40.6335980  82.6535000  66.9549950
  40.8077360  83.9619660  66.2137310  44.3772380  84.5801680  61.6745210
  44.1363740  84.8476240  60.7875730  45.3175020  84.7507410  61.7296070
  46.5826800  71.0434370  65.4301720  46.5215690  71.6356200  66.1797130
  47.5227180  70.9360330  65.2851980  49.2201360  70.7004430  65.0694010
  49.8341770  71.0183720  64.4075090  49.7650920  70.2153020  65.6889870
  55.6376540  86.5996060  62.4755850  55.1434820  86.9964930  61.7582980
  55.0289830  85.9745270  62.8693130  39.7422620  69.3798690  65.1833070
  40.2905610  69.1986740  64.4199180  39.8077930  68.5892800  65.7189380
  40.5154380  85.9704340  63.1933270  39.9214700  85.8389040  63.9323310
  40.5078220  85.1342480  62.7275370  49.9609400  69.2636570  61.3963300
  49.0869240  69.5971680  61.1936230  49.8520150  68.7909750  62.2215170
  50.8681380  71.4707440  62.7805020  50.5394740  70.6559200  62.4006750
  51.8163680  71.4277250  62.6570710  53.3215990  87.2419480  59.7542590
  52.8618960  87.9935290  59.3800610  52.6928450  86.5225950  59.6957390
  40.1466610  83.3362720  62.1441310  39.4200670  82.7168010  62.0767260
  40.2075760  83.7303330  61.2739390  43.7511710  85.5507720  58.9290720
  44.2676730  84.9395080  58.4038980  44.4009090  86.0536500  59.4201730
  46.4907210  86.4416210  59.7559700  46.7785020  86.1870510  58.8792710
  47.0030430  85.8893570  60.3465270  47.7084220  70.1806410  60.3356210
  46.9256010  70.6551910  60.6152970  47.4147150  69.2761240  60.2269390
  52.2605290  70.8829510  58.3805300  52.7013380  70.8274610  57.5326900
  51.9912880  71.7987520  58.4515480  54.1243860  70.5144750  56.3914120
  54.0632260  69.5705970  56.2445140  54.9035890  70.6224840  56.9367580
  38.4296610  86.6537110  55.3538070  38.2618650  86.0207790  56.0519960
  37.5631120  86.8596510  55.0032260  39.0524630  70.4853890  52.8569930
  39.8103990  70.5982770  52.2833960  38.5901800  71.3223090  52.8113360
  45.5938440  72.5993160  55.8472240  44.7812950  72.2250050  55.5068120
  46.0980080  71.8438240  56.1493430  50.0963420  69.2635610  57.0855310
  50.6992790  69.8355820  57.5603830  49.3556410  69.8275050  56.8629210
  40.0359310  85.3470340  52.7988210  39.5106930  85.7278370  52.0950170
  39.9603890  85.9721110  53.5197920  41.4249780  71.0117940  51.3971900
  41.9542540  70.2247740  51.2679850  42.0578100  71.6909130  51.6307430
  43.6187620  70.7493080  54.4517290  42.9890360  70.0480390  54.6187420
  43.0792760  71.5097210  54.2350450  46.5579570  87.3632310  67.1227900
  47.4846880  87.1276580  67.1663860  46.5430000  88.1904310  66.6413930
  54.7924630  86.9057880  54.1202150  54.9676820  86.2195620  53.4763070
  54.0946200  87.4304930  53.7278820  43.7443180  70.0277060  66.8869780
  43.4627450  70.5310660  66.1230600  44.1262880  69.2298810  66.5211910
  42.6352280  87.2952720  51.6737460  43.3671100  87.0112000  51.1261350
  42.8945950  87.0566000  52.5636840  41.7967070  83.4117450  51.6783790
  41.1675950  83.8802550  52.2269620  41.9114900  82.5666670  52.1129980
  50.3458640  69.4430640  67.4650250  50.2324090  69.7625250  68.3601770
  51.1628380  69.8443150  67.1687530  53.1257130  86.5902170  66.9468940
  53.9182450  86.0951400  66.7394900  53.4190280  87.2692310  67.5544550
  49.2516790  77.4623110  37.8284990  49.1710840  76.5477720  37.5576700
  48.8381210  77.9590180  37.1224700  47.3834830  79.2402130  39.7094260
  46.6076930  78.7602570  39.9992830  48.0347760  78.5607780  39.5350420
  41.4000660  79.5521940  40.5870020  40.5685540  79.2970650  40.9866530
  42.0081640  79.6232710  41.3227940  51.4042260  83.6462320  38.4893390
  50.9423790  82.8749560  38.8180560  52.2167810  83.6728390  38.9945840
  41.3801920  83.5862030  40.7828040  41.6829960  82.6959770  40.6038260
  42.1245510  84.1432250  40.5550290  39.8092610  74.5123830  34.3712410
  38.9209310  74.8539800  34.2692290  40.0933800  74.3124150  33.4793240
  37.7725620  77.1129480  40.2552110  38.3441730  76.3451680  40.2555750
  37.7727160  77.4118240  39.3458720  47.6305570  85.9320330  38.1097380
  47.0117010  86.3877830  37.5391820  48.4857350  86.0871790  37.7087080
  46.8243820  81.9159320  39.7164420  46.7552100  80.9749260  39.5553550
  47.5863680  82.0060730  40.2886990  39.0150490  72.5213840  42.0421040
  38.8353330  71.6239590  42.3223800  38.6130570  73.0685710  42.7167990
  47.8548990  74.7229700  39.9433350  48.2313810  73.8501580  39.8307020
  47.7568500  75.0588400  39.0523790  41.9854000  73.0955330  35.4050790
  42.0920750  73.9959060  35.7119550  41.0746360  73.0473300  35.1145440
  39.6337160  75.0174340  40.6503380  40.3147270  75.2812710  41.2690780
  39.3185210  74.1775210  40.9841390  43.8261730  76.0641700  39.7375970
  44.3339950  76.5622670  40.3780990  44.3574970  75.2876900  39.5615330
  48.4968920  80.8159570  35.5029290  47.8786190  81.2809020  34.9392010
  49.0092170  81.5087050  35.9198800  43.3600680  80.3435440  42.1812890
  43.0270060  80.9704360  42.8233960  43.5367360  80.8697320  41.4014560
  41.7913160  72.4150220  42.0109840  42.1329970  73.2592270  41.7163710
  40.8528970  72.5633960  42.1275180  42.5719780  82.3116240  43.9962070
  43.1893780  82.9867320  43.7146520  41.7112900  82.7204220  43.9049570
  37.8652120  81.5016100  32.8768920  37.4880100  81.9903200  32.1453820
  38.1225190  82.1741380  33.5075450  53.4897370  83.7755650  41.9116710
  52.8060890  84.4454760  41.9033380  54.0291660  83.9736300  41.1461570
  51.0256110  85.6199780  40.6261890  51.0383270  85.2162070  39.7584150
  50.4731330  86.3947070  40.5223320  52.3201530  82.3416000  35.7152060
  52.2097860  81.3990330  35.8401480  52.3169780  82.7031640  36.6014820
  50.4241550  80.5229620  41.9544500  50.8410340  80.3089730  41.1197960
  51.1481370  80.7802410  42.5253120  47.8621810  77.9681320  35.0714550
  46.9351090  77.9018700  35.3003020  48.0146630  78.9061450  34.9569790
  47.8490890  74.2398320  32.0681710  46.9094560  74.4012280  32.1534170
  48.1674150  74.9584000  31.5217700  51.8919100  79.5301620  35.5749800
  51.2731520  79.1921170  34.9276100  51.8743550  78.8861380  36.2828990
  43.4678450  78.4946060  37.8534280  43.0635450  77.7823310  37.3580180
  43.5541570  78.1499300  38.7422320  43.9360150  82.1813620  40.0173490
  43.6388440  81.5759090  39.3381270  44.8859970  82.2190930  39.9062850
  42.1807070  75.2689270  41.6333320  42.7321660  75.3784610  40.8586570
  42.6950580  75.6426870  42.3488550  52.0245760  85.7545490  43.6796590
  51.5476320  86.5617680  43.4869200  51.3407550  85.1023820  43.8322800
  43.0278580  81.9195310  46.6681290  42.1307110  82.1435280  46.9154690
  43.0531450  82.0430250  45.7192690  50.0683800  78.7688430  32.5822550
  50.5077080  77.9310860  32.4360370  50.7812220  79.4017830  32.6686690
  41.8549800  78.7908630  45.2438660  41.7157570  79.6631430  45.6126060
  40.9731160  78.4481440  45.0986600  48.1779180  83.7084500  36.5503790
  48.6175090  84.4508830  36.1359180  48.1166070  83.9511070  37.4742750
  43.6530150  84.7330330  47.4523810  43.6245580  85.1373280  46.5852240
  43.4895120  83.8040690  47.2895410  40.1683080  77.3891040  35.3540930
  40.0480680  78.1153130  34.7422200  39.8583970  76.6193950  34.8768840
  55.6044970  85.5157430  48.7487980  56.0804690  85.9940320  49.4277060
  56.2252130  85.4474920  48.0233480  37.8068450  80.5606180  41.1609570
  37.8848870  80.6954950  40.2165290  38.4210130  79.8522070  41.3537690
  39.0516080  82.2606370  37.5715750  38.6444160  82.4020960  36.7169350
  39.9429090  81.9766530  37.3686960  55.0078220  82.7070280  45.9087990
  55.1341280  82.4682160  44.9905170  55.0499600  81.8754820  46.3810070
  48.8694960  86.4098280  44.4782800  49.3839630  86.3206290  45.2805230
  48.0264040  86.7557980  44.7710710  50.8449360  86.6953620  33.9066800
  50.6850500  86.4056560  34.8048630  50.6796070  85.9193750  33.3712030
  43.3237740  86.4752150  35.6838420  43.1480220  85.5587690  35.4706220
  42.4693480  86.8339440  35.9236220  50.5475490  84.2041180  32.4664800
  49.8540650  84.2018470  31.8067080  51.2898350  83.7800500  32.0358970
  50.1125420  85.8303890  36.5413290  50.5682370  85.0493270  36.8551910
  50.4517940  86.5410710  37.0854470  37.8627970  81.6020350  43.7004030
  38.0259010  81.1325710  42.8823400  38.3280420  81.0943910  44.3652870
  46.9216550  73.5994630  44.3399920  46.4595920  73.8077650  45.1519860
  46.5194660  72.7853980  44.0370590  49.0170770  76.3205330  47.5695370
  49.3424180  75.4869080  47.2297600  49.8051100  76.8433850  47.7173700
  42.4260960  75.8559680  36.4645850  42.2001880  75.6396850  37.3692470
  41.6453490  76.2888140  36.1191820  49.6558720  75.8623050  35.0636500
  49.0567610  76.5858850  34.8800120  50.2038330  75.7999830  34.2812950
  44.8660170  76.7545260  47.1306120  44.7703770  75.8139990  46.9806520
  45.7092150  76.9760330  46.7354190  48.2623590  74.4986590  37.0939780
  48.6553160  74.8158790  36.2808470  48.6240440  73.6198470  37.2084300
  39.9970710  73.1658930  45.2839900  39.6034100  74.0134140  45.4912680
  39.3089110  72.5285300  45.4748540  46.5715760  73.2493900  48.3536640
  45.8814080  73.0566100  48.9882730  47.3148060  73.5328540  48.8860940
  37.4857990  75.0307510  30.5272700  37.4032660  75.9738270  30.6687690
  37.1341050  74.8882420  29.6485050  48.8478730  77.0892340  41.1890560
  48.1159850  77.5979150  41.5380660  48.4503070  76.2722320  40.8879340
  45.2856120  73.7646540  39.5943050  45.2892180  73.3236490  38.7447590
  46.1807240  74.0863870  39.7014870  41.1358500  73.6473030  38.5537260
  40.7958550  74.1248260  39.3104310  40.3735820  73.1938150  38.1938360
  45.3476270  74.7658620  32.5849810  45.4689090  74.7245100  33.5335630
  44.9624780  75.6282770  32.4296540  44.3597770  77.0759760  31.9833110
  43.7914670  76.6278010  31.3569020  45.0686770  77.4352540  31.4498260
  39.4366950  80.9771780  45.8599840  39.0521740  80.3365450  46.4582800
  39.7479140  81.6807900  46.4294570  45.5864090  77.8248320  41.3408460
  45.9534220  77.3506890  42.0869800  45.3969150  78.6989890  41.6816800
  38.4504580  72.5692010  37.4701930  38.1651500  72.2047680  38.3080550
  38.3883440  71.8372470  36.8565070  43.3763460  76.8656960  43.6592670
  43.0720530  77.7448940  43.8843030  44.3309920  76.9256750  43.6950110
  41.9045250  81.0717950  34.2559520  41.1307510  80.5315570  34.0958240
  42.6339880  80.5524560  33.9177280  52.6633230  80.0683310  40.0485910
  53.3832350  80.5638600  39.6582020  52.4615050  79.3901200  39.4039780
  48.0452030  80.1392370  45.9354910  47.9789340  79.2188040  45.6812500
  47.4157170  80.2367810  46.6499550  50.8391560  75.8340920  32.4877460
  51.7271180  76.1458150  32.3128800  50.8096650  74.9613170  32.0958040
  41.9482650  80.7398330  37.8938330  42.4661320  79.9366590  37.8395220
  41.4966670  80.6777470  38.7355160  46.8352150  82.0064610  33.1665630
  47.1767850  82.7506840  32.6708950  46.0064860  82.3195730  33.5290460
  39.4327190  77.7059700  44.8064030  39.0742130  78.3713550  45.3937370
  39.1381750  76.8743250  45.1776650  42.6340310  78.1643940  47.6903580
  42.3340450  78.3101120  46.7931400  43.4051550  77.6049230  47.5976970
  47.9768760  82.9612940  45.6858710  47.9913300  82.0293900  45.4677620
  47.2693860  83.0472700  46.3248480  54.1393080  83.9995020  34.6839450
  53.4969240  83.3450640  34.9583170  53.7523740  84.4050110  33.9080120
  49.7179560  81.3280450  38.5311140  50.0703380  80.7308580  37.8712510
  48.8341890  81.0024680  38.7019390  45.8042840  82.0878140  35.9381550
  46.4913970  82.6347350  36.3189140  45.0175260  82.6318870  35.9731160
  37.9435240  77.7050960  31.4298630  38.8130090  77.9875760  31.7134550
  37.4525560  78.5186830  31.3147440  45.1070050  79.0924170  35.5506910
  45.5632830  79.9029420  35.7767100  44.7558260  78.7747310  36.3825400
  47.4102660  84.6030510  42.7799210  48.0544880  84.8089890  43.4572630
  47.7732100  83.8418910  42.3270060  48.6834740  82.6062860  41.4976660
  49.3256970  81.9056020  41.6108830  49.2084090  83.3861300  41.3173550
  52.5290460  82.8911480  31.2215800  52.3028040  82.1741920  31.8140440
  52.1386660  82.6423920  30.3837550  50.4572360  83.4057760  44.7012720
  50.7928600  83.9924450  45.3790640  49.5372700  83.2750470  44.9310510
  38.3106490  86.9178340  31.9960260  38.6704130  87.5167680  31.3417530
  38.1698830  87.4638230  32.7695290  52.1106710  80.8083420  32.8829960
  51.8228410  81.2696110  33.6707840  52.9058880  80.3481190  33.1514180
  38.2948350  85.1833200  46.4702660  38.4039470  84.2427940  46.3298050
  37.6428910  85.4487950  45.8216390  46.2860940  83.4549090  47.8700780
  45.9657810  82.7358330  48.4146470  45.6119300  84.1304160  47.9436840
  44.3275110  84.3009540  32.8133930  44.3185210  85.0339230  32.1978440
  43.4073470  84.0541120  32.9060890  39.9281750  79.5224430  33.5580690
  39.3209700  80.2623330  33.5675990  40.4031100  79.6123790  32.7318890
  49.5014540  73.6875250  43.2337580  49.8695360  72.8670460  43.5617150
  48.6412740  73.7477140  43.6493230  47.3134710  84.3637780  31.4759120
  47.4146690  84.1601770  30.5461100  46.4136450  84.1096060  31.6806900
  44.8360600  74.9218140  35.4583020  44.1276750  75.3904480  35.8996630
  45.1205080  74.2640150  36.0928210  46.4616530  76.3414840  43.4575550
  46.9601780  76.8160660  44.1227400  46.6039480  75.4178360  43.6645580
  45.9552820  86.8824100  36.1706790  46.2094320  86.8445490  35.2486160
  45.0065300  86.7557430  36.1635040  43.0395620  73.2303220  32.8333730
  43.8886150  73.6673370  32.7673920  42.6726890  73.5423480  33.6605790
  41.9387040  79.4835580  31.3069260  42.7050310  79.3716940  31.8694690
  42.0161730  78.7873550  30.6546030  40.6333800  76.9160650  31.9902150
  40.7137390  75.9688160  32.1019550  41.5253550  77.2467530  32.0962810
  53.9630980  84.9724830  39.4219560  54.0878400  85.7956000  39.8943370
  54.8296540  84.7615560  39.0743710  41.4348510  87.0656040  39.0936690
  42.1710990  86.5171500  39.3645260  41.8189430  87.9312050  38.9542680
  38.3193990  83.1329610  34.9678200  37.3933770  83.3750750  34.9583610
  38.7850420  83.9603870  34.8462950  40.4406790  86.2502110  48.2822270
  41.2419520  86.5714160  48.6957670  39.9258610  85.8897690  49.0042180
  44.5450820  86.2386350  30.9162260  45.3379430  86.5275180  30.4644050
  44.0255170  85.8078520  30.2374740  49.2771420  82.3581980  48.2297680
  48.6709580  82.3813580  47.4893430  48.9725530  81.6265020  48.7664930
  50.7071790  86.0862270  46.8407090  51.6593540  86.0020290  46.7907330
  50.5600010  86.7503980  47.5140880  53.5980990  85.4656480  32.3399000
  53.3122500  85.0521620  31.5253180  53.4000540  86.3944190  32.2199520
  38.1604600  78.7375570  47.2258320  38.6643620  78.1582850  47.7974550
  37.4212020  79.0215800  47.7634690  45.0628220  81.4589760  30.7804610
  44.9578860  80.8442110  31.5065990  44.8952440  80.9355650  29.9967620
  45.2142540  80.1446560  46.7593840  44.4488210  80.7131560  46.6748510
  45.3958500  79.8522770  45.8662070  48.3030950  80.5209790  31.3846600
  47.7541050  80.9679090  32.0289340  48.9250210  80.0159040  31.9084270
  52.3565890  81.8751890  47.3168860  53.0975360  82.2127650  46.8136320
  51.5938570  82.0443950  46.7638630  40.1927680  76.8805160  48.1208390
  40.2333020  76.5819030  49.0293620  41.0473180  77.2812770  47.9615910
  43.9706070  79.4800710  33.2811900  44.3922490  79.3140580  34.1243290
  44.0956910  78.6700940  32.7867040  42.1333490  75.4597260  46.0882880
  41.6029950  74.9688210  45.4606220  42.8021560  75.8881460  45.5540810
  46.4833710  78.5038320  30.5289000  47.0039370  77.7887340  30.1630150
  47.1302110  79.1424190  30.8289510  51.0311550  79.9266720  45.8524070
  51.4452570  80.0811800  46.7014490  50.0962550  80.0521940  46.0149850
  42.6205790  72.4259630  46.1680170  42.5262660  71.8080380  45.4431040
  42.0403180  73.1525920  45.9410080  45.7926780  79.8787200  43.8220000
  46.2114890  80.7219930  43.6496240  44.8735410  80.0159240  43.5926780
  48.1290680  77.6103380  45.2057840  48.2486890  77.0144520  45.9452680
  48.9884680  77.6473070  44.7859140  50.4678580  78.1640570  43.7820350
  49.9413800  78.6883190  43.1785490  50.8109920  78.7967960  44.4130080
  42.8664970  75.5533940  30.2270060  42.6654030  74.6901300  30.5883400
  42.6957020  75.4667300  29.2891660  43.6434200  86.1840210  44.9377730
  43.1055290  86.9086270  44.6186430  43.8968160  85.7070550  44.1475070
  44.8959450  74.1524730  46.4633660  45.4859140  73.8440580  47.1511480
  44.0779690  73.6804480  46.6193560  49.7152880  73.7690540  46.6966680
  49.0268400  73.1072080  46.6316670  50.4358900  73.3228810  47.1415140
  46.4996410  87.4191420  45.1964380  46.4255110  88.3226560  45.5036750
  45.5975250  87.1003320  45.1686450  47.0481740  86.5849930  32.8190740
  47.9432530  86.9234900  32.8409500  47.0799370  85.8629340  32.1915020
  40.6877900  81.9576980  31.0477740  41.1252770  82.5006650  31.7035320
  41.1725630  81.1323930  31.0574080  37.9023700  84.7466010  38.4998000
  38.2326710  83.8787070  38.2676640  38.3314700  84.9524530  39.3302960
  42.4985620  83.0775020  36.1599970  42.1981160  82.9539990  37.0603880
  42.3923110  82.2183610  35.7515700  38.3913910  85.6136600  41.2379630
  37.9544900  85.7937400  42.0703780  38.9591590  86.3711220  41.0961350
  54.0276090  85.1153600  45.5256940  53.4278080  85.1746160  44.7820860
  54.1569990  84.1758580  45.6553790  55.2677540  82.8571420  30.8626650
  54.4370500  82.9248070  31.3333880  55.4449370  83.7475540  30.5593510
  54.7234000  79.6018900  33.3660850  55.4852910  80.1715550  33.4720540
  54.7388370  79.0346100  34.1369160  38.2238340  78.1256830  37.5968510
  37.5687180  77.8568470  36.9528210  39.0616290  78.0161310  37.1470490
  55.7293970  80.4569000  38.2102780  56.1002800  79.6736320  37.8038750
  56.3695900  81.1458100  38.0320080  52.7127730  81.8405580  43.6233100
  51.8987570  82.2702740  43.8858890  53.1201930  82.4523990  43.0102150
  54.7753170  79.8953270  30.5233370  55.0502010  80.8032150  30.3952590
  54.5863910  79.8315800  31.4595360  39.2614270  78.5109400  42.1371850
  39.6287310  78.4236800  43.0167870  38.6925090  77.7475950  42.0378710
  38.8130270  75.4218490  46.0430270  37.9186320  75.3885250  46.3823980
  39.3527820  75.6205280  46.8081520  37.4376420  75.3355760  33.5393840
  36.5340500  75.5985960  33.3645500  37.9217040  75.6066930  32.7593800
  39.9803630  74.3921300  31.4488220  40.6895330  73.9704520  30.9635500
  39.2643570  74.4596530  30.8171570  52.7703780  86.5924180  37.1501370
  53.3662850  86.2708750  36.4735790  53.0281930  86.1196000  37.9414640
  40.6766350  83.0242090  47.2992000  40.6335980  82.6535000  48.1806460
  40.8077360  83.9619660  47.4393820  44.3772380  84.5801680  42.9001720
  44.1363740  84.8476240  42.0132240  45.3175020  84.7507410  42.9552580
  55.6376540  86.5996060  43.7012360  55.1434820  86.9964930  42.9839490
  55.0289830  85.9745270  44.0949640  40.5154380  85.9704340  44.4189780
  39.9214700  85.8389040  45.1579820  40.5078220  85.1342480  43.9531880
  53.3215990  87.2419480  40.9799100  52.8618960  87.9935290  40.6057120
  52.6928450  86.5225950  40.9213900  40.1466610  83.3362720  43.3697820
  39.4200670  82.7168010  43.3023770  40.2075760  83.7303330  42.4995900
  43.7511710  85.5507720  40.1547230  44.2676730  84.9395080  39.6295490
  44.4009090  86.0536500  40.6458240  46.4907210  86.4416210  40.9816210
  46.7785020  86.1870510  40.1049220  47.0030430  85.8893570  41.5721780
  38.4296610  86.6537110  36.5794580  38.2618650  86.0207790  37.2776470
  37.5631120  86.8596510  36.2288770  40.0359310  85.3470340  34.0244720
  39.5106930  85.7278370  33.3206680  39.9603890  85.9721110  34.7454430
  46.5579570  87.3632310  48.3484410  47.4846880  87.1276580  48.3920370
  46.5430000  88.1904310  47.8670440  54.7924630  86.9057880  35.3458660
  54.9676820  86.2195620  34.7019580  54.0946200  87.4304930  34.9535330
  42.6352280  87.2952720  32.8993970  43.3671100  87.0112000  32.3517860
  42.8945950  87.0566000  33.7893350  41.7967070  83.4117450  32.9040300
  41.1675950  83.8802550  33.4526130  41.9114900  82.5666670  33.3386490
  53.1257130  86.5902170  48.1725450  53.9182450  86.0951400  47.9651410
  53.4190280  87.2692310  48.7801060  49.2516790  77.4623110  19.0541500
  49.1710840  76.5477720  18.7833210  48.8381210  77.9590180  18.3481210
  47.3834830  79.2402130  20.9350770  46.6076930  78.7602570  21.2249340
  48.0347760  78.5607780  20.7606930  41.4000660  79.5521940  21.8126530
  40.5685540  79.2970650  22.2123040  42.0081640  79.6232710  22.5484450
  51.4042260  83.6462320  19.7149900  50.9423790  82.8749560  20.0437070
  52.2167810  83.6728390  20.2202350  41.3801920  83.5862030  22.0084550
  41.6829960  82.6959770  21.8294770  42.1245510  84.1432250  21.7806800
  39.8092610  74.5123830  15.5968920  38.9209310  74.8539800  15.4948800
  40.0933800  74.3124150  14.7049750  37.7725620  77.1129480  21.4808620
  38.3441730  76.3451680  21.4812260  37.7727160  77.4118240  20.5715230
  47.6305570  85.9320330  19.3353890  47.0117010  86.3877830  18.7648330
  48.4857350  86.0871790  18.9343590  46.8243820  81.9159320  20.9420930
  46.7552100  80.9749260  20.7810060  47.5863680  82.0060730  21.5143500
  39.0150490  72.5213840  23.2677550  38.8353330  71.6239590  23.5480310
  38.6130570  73.0685710  23.9424500  47.8548990  74.7229700  21.1689860
  48.2313810  73.8501580  21.0563530  47.7568500  75.0588400  20.2780300
  41.9854000  73.0955330  16.6307300  42.0920750  73.9959060  16.9376060
  41.0746360  73.0473300  16.3401950  51.6373110  72.2180140  18.1018200
  52.4582730  71.7276710  18.1443680  51.6707190  72.8077800  18.8550040
  39.6337160  75.0174340  21.8759890  40.3147270  75.2812710  22.4947290
  39.3185210  74.1775210  22.2097900  43.8261730  76.0641700  20.9632480
  44.3339950  76.5622670  21.6037500  44.3574970  75.2876900  20.7871840
  48.4968920  80.8159570  16.7285800  47.8786190  81.2809020  16.1648520
  49.0092170  81.5087050  17.1455310  43.3600680  80.3435440  23.4069400
  43.0270060  80.9704360  24.0490470  43.5367360  80.8697320  22.6271070
  51.8734590  74.1580520  20.8745740  51.1690160  74.4465410  21.4548850
  52.2346750  74.9680630  20.5145300  41.7913160  72.4150220  23.2366350
  42.1329970  73.2592270  22.9420220  40.8528970  72.5633960  23.3531690
  42.5719780  82.3116240  25.2218580  43.1893780  82.9867320  24.9403030
  41.7112900  82.7204220  25.1306080  37.8652120  81.5016100  14.1025430
  37.4880100  81.9903200  13.3710330  38.1225190  82.1741380  14.7331960
  53.4897370  83.7755650  23.1373220  52.8060890  84.4454760  23.1289890
  54.0291660  83.9736300  22.3718080  54.9421510  73.6035310  21.2654950
  53.9946420  73.6374290  21.3970380  55.2671500  74.4174260  21.6504310
  45.4741050  69.9032490  19.5610940  45.7816030  69.3479380  18.8446440
  44.5441750  70.0376950  19.3783930  51.0256110  85.6199780  21.8518400
  51.0383270  85.2162070  20.9840660  50.4731330  86.3947070  21.7479830
  52.3201530  82.3416000  16.9408570  52.2097860  81.3990330  17.0657990
  52.3169780  82.7031640  17.8271330  50.4241550  80.5229620  23.1801010
  50.8410340  80.3089730  22.3454470  51.1481370  80.7802410  23.7509630
  47.8621810  77.9681320  16.2971060  46.9351090  77.9018700  16.5259530
  48.0146630  78.9061450  16.1826300  47.8490890  74.2398320  13.2938220
  46.9094560  74.4012280  13.3790680  48.1674150  74.9584000  12.7474210
  54.3703650  78.9216840  23.2717250  53.5422280  78.9909930  22.7967380
  54.9654130  79.5071150  22.8033080  51.8919100  79.5301620  16.8006310
  51.2731520  79.1921170  16.1532610  51.8743550  78.8861380  17.5085500
  51.3345660  75.7086160  24.2172120  50.9216840  76.5339870  24.4712110
  50.6021610  75.1231200  24.0248480  43.4678450  78.4946060  19.0790790
  43.0635450  77.7823310  18.5836690  43.5541570  78.1499300  19.9678830
  43.9360150  82.1813620  21.2430000  43.6388440  81.5759090  20.5637780
  44.8859970  82.2190930  21.1319360  42.1807070  75.2689270  22.8589830
  42.7321660  75.3784610  22.0843080  42.6950580  75.6426870  23.5745060
  52.0245760  85.7545490  24.9053100  51.5476320  86.5617680  24.7125710
  51.3407550  85.1023820  25.0579310  43.0278580  81.9195310  27.8937800
  42.1307110  82.1435280  28.1411200  43.0531450  82.0430250  26.9449200
  50.0683800  78.7688430  13.8079060  50.5077080  77.9310860  13.6616880
  50.7812220  79.4017830  13.8943200  41.8549800  78.7908630  26.4695170
  41.7157570  79.6631430  26.8382570  40.9731160  78.4481440  26.3243110
  48.1779180  83.7084500  17.7760300  48.6175090  84.4508830  17.3615690
  48.1166070  83.9511070  18.6999260  43.6530150  84.7330330  28.6780320
  43.6245580  85.1373280  27.8108750  43.4895120  83.8040690  28.5151920
  53.6500940  70.0231240  12.1220100  53.3373600  70.1158070  13.0219170
  54.4113410  70.6012270  12.0717530  40.1683080  77.3891040  16.5797440
  40.0480680  78.1153130  15.9678710  39.8583970  76.6193950  16.1025350
  55.6044970  85.5157430  29.9744490  56.0804690  85.9940320  30.6533570
  56.2252130  85.4474920  29.2489990  37.8068450  80.5606180  22.3866080
  37.8848870  80.6954950  21.4421800  38.4210130  79.8522070  22.5794200
  39.0516080  82.2606370  18.7972260  38.6444160  82.4020960  17.9425860
  39.9429090  81.9766530  18.5943470  55.0078220  82.7070280  27.1344500
  55.1341280  82.4682160  26.2161680  55.0499600  81.8754820  27.6066580
  48.8694960  86.4098280  25.7039310  49.3839630  86.3206290  26.5061740
  48.0264040  86.7557980  25.9967220  50.8449360  86.6953620  15.1323310
  50.6850500  86.4056560  16.0305140  50.6796070  85.9193750  14.5968540
  43.3237740  86.4752150  16.9094930  43.1480220  85.5587690  16.6962730
  42.4693480  86.8339440  17.1492730  50.5475490  84.2041180  13.6921310
  49.8540650  84.2018470  13.0323590  51.2898350  83.7800500  13.2615480
  50.1125420  85.8303890  17.7669800  50.5682370  85.0493270  18.0808420
  50.4517940  86.5410710  18.3110980  37.8627970  81.6020350  24.9260540
  38.0259010  81.1325710  24.1079910  38.3280420  81.0943910  25.5909380
  42.6346740  70.7326110  19.9621110  42.1914890  71.5135650  19.6305630
  43.1931730  71.0556000  20.6692050  49.0170770  76.3205330  28.7951880
  49.3424180  75.4869080  28.4554110  49.8051100  76.8433850  28.9430210
  45.7505560  70.3536810  14.8426940  45.1259740  70.3496680  15.5680250
  45.6635680  69.4867770  14.4462910  42.4260960  75.8559680  17.6902360
  42.2001880  75.6396850  18.5948980  41.6453490  76.2888140  17.3448330
  49.6558720  75.8623050  16.2893010  49.0567610  76.5858850  16.1056630
  50.2038330  75.7999830  15.5069460  44.8660170  76.7545260  28.3562630
  44.7703770  75.8139990  28.2063030  45.7092150  76.9760330  27.9610700
  48.2623590  74.4986590  18.3196290  48.6553160  74.8158790  17.5064980
  48.6240440  73.6198470  18.4340810  39.9970710  73.1658930  26.5096410
  39.6034100  74.0134140  26.7169190  39.3089110  72.5285300  26.7005050
  37.2987760  71.0887390  20.5426490  37.0100810  71.6590250  21.2551470
  38.0433520  70.6091840  20.9057720  37.4857990  75.0307510  11.7529210
  37.4032660  75.9738270  11.8944200  37.1341050  74.8882420  10.8741560
  48.8478730  77.0892340  22.4147070  48.1159850  77.5979150  22.7637170
  48.4503070  76.2722320  22.1135850  45.2856120  73.7646540  20.8199560
  45.2892180  73.3236490  19.9704100  46.1807240  74.0863870  20.9271380
  41.1358500  73.6473030  19.7793770  40.7958550  74.1248260  20.5360820
  40.3735820  73.1938150  19.4194870  45.3476270  74.7658620  13.8106320
  45.4689090  74.7245100  14.7592140  44.9624780  75.6282770  13.6553050
  49.3104640  72.5426020  21.8270010  49.3277380  72.9934670  22.6711860
  49.0620220  71.6431660  22.0403450  44.3597770  77.0759760  13.2089620
  43.7914670  76.6278010  12.5825530  45.0686770  77.4352540  12.6754770
  39.4366950  80.9771780  27.0856350  39.0521740  80.3365450  27.6839310
  39.7479140  81.6807900  27.6551080  45.5864090  77.8248320  22.5664970
  45.9534220  77.3506890  23.3126310  45.3969150  78.6989890  22.9073310
  38.4504580  72.5692010  18.6958440  38.1651500  72.2047680  19.5337060
  38.3883440  71.8372470  18.0821580  43.3763460  76.8656960  24.8849180
  43.0720530  77.7448940  25.1099540  44.3309920  76.9256750  24.9206620
  41.9045250  81.0717950  15.4816030  41.1307510  80.5315570  15.3214750
  42.6339880  80.5524560  15.1433790  52.6633230  80.0683310  21.2742420
  53.3832350  80.5638600  20.8838530  52.4615050  79.3901200  20.6296290
  48.1243170  71.4621270  15.4171810  47.3107780  70.9634440  15.3417120
  47.9305120  72.3019520  15.0008160  48.0452030  80.1392370  27.1611420
  47.9789340  79.2188040  26.9069010  47.4157170  80.2367810  27.8756060
  50.8391560  75.8340920  13.7133970  51.7271180  76.1458150  13.5385310
  50.8096650  74.9613170  13.3214550  41.9482650  80.7398330  19.1194840
  42.4661320  79.9366590  19.0651730  41.4966670  80.6777470  19.9611670
  46.8352150  82.0064610  14.3922140  47.1767850  82.7506840  13.8965460
  46.0064860  82.3195730  14.7546970  39.4327190  77.7059700  26.0320540
  39.0742130  78.3713550  26.6193880  39.1381750  76.8743250  26.4033160
  42.6340310  78.1643940  28.9160090  42.3340450  78.3101120  28.0187910
  43.4051550  77.6049230  28.8233480  47.9768760  82.9612940  26.9115220
  47.9913300  82.0293900  26.6934130  47.2693860  83.0472700  27.5504990
  53.1105830  77.1452760  13.1813830  53.0269550  77.5766980  12.3310270
  53.8300020  77.6051110  13.6140650  54.1393080  83.9995020  15.9095960
  53.4969240  83.3450640  16.1839680  53.7523740  84.4050110  15.1336630
  49.7179560  81.3280450  19.7567650  50.0703380  80.7308580  19.0969020
  48.8341890  81.0024680  19.9275900  45.8042840  82.0878140  17.1638060
  46.4913970  82.6347350  17.5445650  45.0175260  82.6318870  17.1987670
  37.9435240  77.7050960  12.6555140  38.8130090  77.9875760  12.9391060
  37.4525560  78.5186830  12.5403950  45.1070050  79.0924170  16.7763420
  45.5632830  79.9029420  17.0023610  44.7558260  78.7747310  17.6081910
  47.4102660  84.6030510  24.0055720  48.0544880  84.8089890  24.6829140
  47.7732100  83.8418910  23.5526570  41.0081830  69.4361820  17.2485940
  40.8796460  69.4279720  18.1970860  40.1843850  69.7744910  16.8976950
  48.6834740  82.6062860  22.7233170  49.3256970  81.9056020  22.8365340
  49.2084090  83.3861300  22.5430060  52.5290460  82.8911480  12.4472310
  52.3028040  82.1741920  13.0396950  52.1386660  82.6423920  11.6094060
  50.4572360  83.4057760  25.9269230  50.7928600  83.9924450  26.6047150
  49.5372700  83.2750470  26.1567020  38.3106490  86.9178340  13.2216770
  38.6704130  87.5167680  12.5674040  38.1698830  87.4638230  13.9951800
  52.1106710  80.8083420  14.1086470  51.8228410  81.2696110  14.8964350
  52.9058880  80.3481190  14.3770690  38.2948350  85.1833200  27.6959170
  38.4039470  84.2427940  27.5554560  37.6428910  85.4487950  27.0472900
  46.2860940  83.4549090  29.0957290  45.9657810  82.7358330  29.6402980
  45.6119300  84.1304160  29.1693350  44.3275110  84.3009540  14.0390440
  44.3185210  85.0339230  13.4234950  43.4073470  84.0541120  14.1317400
  39.9281750  79.5224430  14.7837200  39.3209700  80.2623330  14.7932500
  40.4031100  79.6123790  13.9575400  49.5014540  73.6875250  24.4594090
  49.8695360  72.8670460  24.7873660  48.6412740  73.7477140  24.8749740
  52.8676570  72.6432190  15.2681650  52.2389730  72.7477860  14.5539880
  52.3728490  72.8628970  16.0575530  47.3134710  84.3637780  12.7015630
  47.4146690  84.1601770  11.7717610  46.4136450  84.1096060  12.9063410
  44.8360600  74.9218140  16.6839530  44.1276750  75.3904480  17.1253140
  45.1205080  74.2640150  17.3184720  46.4616530  76.3414840  24.6832060
  46.9601780  76.8160660  25.3483910  46.6039480  75.4178360  24.8902090
  48.8676030  71.6468800  18.1235320  48.7443810  71.6654930  17.1744830
  49.8160590  71.6947740  18.2433720  45.9552820  86.8824100  17.3963300
  46.2094320  86.8445490  16.4742670  45.0065300  86.7557430  17.3891550
  43.0395620  73.2303220  14.0590240  43.8886150  73.6673370  13.9930430
  42.6726890  73.5423480  14.8862300  51.9605400  77.8015980  18.9721810
  51.0195540  77.8166210  19.1469500  52.2749470  77.0151940  19.4182110
  41.9387040  79.4835580  12.5325770  42.7050310  79.3716940  13.0951200
  42.0161730  78.7873550  11.8802540  40.6333800  76.9160650  13.2158660
  40.7137390  75.9688160  13.3276060  41.5253550  77.2467530  13.3219320
  53.9630980  84.9724830  20.6476070  54.0878400  85.7956000  21.1199880
  54.8296540  84.7615560  20.3000220  41.4348510  87.0656040  20.3193200
  42.1710990  86.5171500  20.5901770  41.8189430  87.9312050  20.1799190
  38.3193990  83.1329610  16.1934710  37.3933770  83.3750750  16.1840120
  38.7850420  83.9603870  16.0719460  40.4406790  86.2502110  29.5078780
  41.2419520  86.5714160  29.9214180  39.9258610  85.8897690  30.2298690
  44.5450820  86.2386350  12.1418770  45.3379430  86.5275180  11.6900560
  44.0255170  85.8078520  11.4631250  49.2771420  82.3581980  29.4554190
  48.6709580  82.3813580  28.7149940  48.9725530  81.6265020  29.9921440
  50.7071790  86.0862270  28.0663600  51.6593540  86.0020290  28.0163840
  50.5600010  86.7503980  28.7397390  53.5980990  85.4656480  13.5655510
  53.3122500  85.0521620  12.7509690  53.4000540  86.3944190  13.4456030
  38.1604600  78.7375570  28.4514830  38.6643620  78.1582850  29.0231060
  37.4212020  79.0215800  28.9891200  45.0628220  81.4589760  12.0061120
  44.9578860  80.8442110  12.7322500  44.8952440  80.9355650  11.2224130
  45.2142540  80.1446560  27.9850350  44.4488210  80.7131560  27.9005020
  45.3958500  79.8522770  27.0918580  48.3030950  80.5209790  12.6103110
  47.7541050  80.9679090  13.2545850  48.9250210  80.0159040  13.1340780
  52.3565890  81.8751890  28.5425370  53.0975360  82.2127650  28.0392830
  51.5938570  82.0443950  27.9895140  40.1927680  76.8805160  29.3464900
  40.2333020  76.5819030  30.2550130  41.0473180  77.2812770  29.1872420
  43.9706070  79.4800710  14.5068410  44.3922490  79.3140580  15.3499800
  44.0956910  78.6700940  14.0123550  42.1333490  75.4597260  27.3139390
  41.6029950  74.9688210  26.6862730  42.8021560  75.8881460  26.7797320
  46.4833710  78.5038320  11.7545510  47.0039370  77.7887340  11.3886660
  47.1302110  79.1424190  12.0546020  51.0311550  79.9266720  27.0780580
  51.4452570  80.0811800  27.9271000  50.0962550  80.0521940  27.2406360
  51.5033720  77.2662880  29.0819730  52.0854490  76.5115200  28.9940210
  51.6795490  77.7970320  28.3051210  45.7926780  79.8787200  25.0476510
  46.2114890  80.7219930  24.8752750  44.8735410  80.0159240  24.8183290
  48.1290680  77.6103380  26.4314350  48.2486890  77.0144520  27.1709190
  48.9884680  77.6473070  26.0115650  50.4678580  78.1640570  25.0076860
  49.9413800  78.6883190  24.4042000  50.8109920  78.7967960  25.6386590
  42.8664970  75.5533940  11.4526570  42.6654030  74.6901300  11.8139910
  42.6957020  75.4667300  10.5148170  43.6434200  86.1840210  26.1634240
  43.1055290  86.9086270  25.8442940  43.8968160  85.7070550  25.3731580
  44.8959450  74.1524730  27.6890170  45.4859140  73.8440580  28.3767990
  44.0779690  73.6804480  27.8450070  49.7152880  73.7690540  27.9223190
  49.0268400  73.1072080  27.8573180  50.4358900  73.3228810  28.3671650
  50.3453280  70.3642170  13.9813450  50.6255570  69.5210070  14.3372870
  49.5719010  70.5965280  14.4952200  41.6647770  72.6534560  11.4404450
  41.9673670  72.6601990  10.5323600  42.4042360  72.3032420  11.9372110
  46.4996410  87.4191420  26.4220890  46.4255110  88.3226560  26.7293260
  45.5975250  87.1003320  26.3942960  44.8832700  71.5969180  12.4260650
  44.5354700  70.9193170  11.8463100  45.0845470  71.1358690  13.2404040
  47.0481740  86.5849930  14.0447250  47.9432530  86.9234900  14.0666010
  47.0799370  85.8629340  13.4171530  40.6877900  81.9576980  12.2734250
  41.1252770  82.5006650  12.9291830  41.1725630  81.1323930  12.2830590
  37.9023700  84.7466010  19.7254510  38.2326710  83.8787070  19.4933150
  38.3314700  84.9524530  20.5559470  42.4985620  83.0775020  17.3856480
  42.1981160  82.9539990  18.2860390  42.3923110  82.2183610  16.9772210
  38.3913910  85.6136600  22.4636140  37.9544900  85.7937400  23.2960290
  38.9591590  86.3711220  22.3217860  54.0276090  85.1153600  26.7513450
  53.4278080  85.1746160  26.0077370  54.1569990  84.1758580  26.8810300
  55.2677540  82.8571420  12.0883160  54.4370500  82.9248070  12.5590390
  55.4449370  83.7475540  11.7850020  54.7234000  79.6018900  14.5917360
  55.4852910  80.1715550  14.6977050  54.7388370  79.0346100  15.3625670
  38.2238340  78.1256830  18.8225020  37.5687180  77.8568470  18.1784720
  39.0616290  78.0161310  18.3727000  55.7293970  80.4569000  19.4359290
  56.1002800  79.6736320  19.0295260  56.3695900  81.1458100  19.2576590
  52.7127730  81.8405580  24.8489610  51.8987570  82.2702740  25.1115400
  53.1201930  82.4523990  24.2358660  54.7753170  79.8953270  11.7489880
  55.0502010  80.8032150  11.6209100  54.5863910  79.8315800  12.6851870
  51.1728780  72.9198120  13.0443510  51.5913660  72.7329100  12.2040170
  50.8664840  72.0677170  13.3546440  54.6718510  77.8322260  16.7419310
  54.2962110  77.0650190  16.3100600  53.9421630  78.2144960  17.2294240
  39.2614270  78.5109400  23.3628360  39.6287310  78.4236800  24.2424380
  38.6925090  77.7475950  23.2635220  38.8130270  75.4218490  27.2686780
  37.9186320  75.3885250  27.6080490  39.3527820  75.6205280  28.0338030
  37.4376420  75.3355760  14.7650350  36.5340500  75.5985960  14.5902010
  37.9217040  75.6066930  13.9850310  53.9469470  76.0579750  20.0426550
  54.4706950  75.5642400  19.4116720  54.5328890  76.1930110  20.7874120
  54.1259190  76.1419620  23.5646100  53.1761900  76.1083160  23.6791090
  54.3072200  77.0519730  23.3295870  39.9803630  74.3921300  12.6744730
  40.6895330  73.9704520  12.1892010  39.2643570  74.4596530  12.0428080
  39.6277790  70.4460630  11.7147380  40.3505920  70.9869570  12.0328600
  39.9002310  70.1724050  10.8388920  53.4369440  75.3153100  15.9818960
  53.9328560  75.0823970  16.7667840  53.2385510  74.4764940  15.5656600
  39.3169980  69.6966820  21.6170000  39.9646170  69.1464200  21.1765160
  39.7371820  69.9509970  22.4385810  54.8656600  73.9514050  18.5156640
  54.7555880  73.7970090  19.4538910  55.6264190  73.4234990  18.2732050
  55.7546870  71.7821970  11.7562780  56.6796180  71.6503150  11.5481070
  55.7322660  71.8614790  12.7099230  55.8285360  72.5532630  14.3819490
  55.0336860  72.4877750  14.9112400  56.0328640  73.4883270  14.3704840
  52.7703780  86.5924180  18.3757880  53.3662850  86.2708750  17.6992300
  53.0281930  86.1196000  19.1671150  40.6766350  83.0242090  28.5248510
  40.6335980  82.6535000  29.4062970  40.8077360  83.9619660  28.6650330
  44.3772380  84.5801680  24.1258230  44.1363740  84.8476240  23.2388750
  45.3175020  84.7507410  24.1809090  55.6376540  86.5996060  24.9268870
  55.1434820  86.9964930  24.2096000  55.0289830  85.9745270  25.3206150
  40.5154380  85.9704340  25.6446290  39.9214700  85.8389040  26.3836330
  40.5078220  85.1342480  25.1788390  49.9609400  69.2636570  23.8476320
  49.0869240  69.5971680  23.6449250  49.8520150  68.7909750  24.6728190
  50.8681380  71.4707440  25.2318040  50.5394740  70.6559200  24.8519770
  51.8163680  71.4277250  25.1083730  53.3215990  87.2419480  22.2055610
  52.8618960  87.9935290  21.8313630  52.6928450  86.5225950  22.1470410
  40.1466610  83.3362720  24.5954330  39.4200670  82.7168010  24.5280280
  40.2075760  83.7303330  23.7252410  43.7511710  85.5507720  21.3803740
  44.2676730  84.9395080  20.8552000  44.4009090  86.0536500  21.8714750
  46.4907210  86.4416210  22.2072720  46.7785020  86.1870510  21.3305730
  47.0030430  85.8893570  22.7978290  47.7084220  70.1806410  22.7869230
  46.9256010  70.6551910  23.0665990  47.4147150  69.2761240  22.6782410
  52.2605290  70.8829510  20.8318320  52.7013380  70.8274610  19.9839920
  51.9912880  71.7987520  20.9028500  54.1243860  70.5144750  18.8427140
  54.0632260  69.5705970  18.6958160  54.9035890  70.6224840  19.3880600
  38.4296610  86.6537110  17.8051090  38.2618650  86.0207790  18.5032980
  37.5631120  86.8596510  17.4545280  39.0524630  70.4853890  15.3082950
  39.8103990  70.5982770  14.7346980  38.5901800  71.3223090  15.2626380
  45.5938440  72.5993160  18.2985260  44.7812950  72.2250050  17.9581140
  46.0980080  71.8438240  18.6006450  50.0963420  69.2635610  19.5368330
  50.6992790  69.8355820  20.0116850  49.3556410  69.8275050  19.3142230
  53.2398020  69.6657170  14.8108610  53.4348650  70.5640620  15.0776040
  52.4527890  69.4344250  15.3041560  40.0359310  85.3470340  15.2501230
  39.5106930  85.7278370  14.5463190  39.9603890  85.9721110  15.9710940
  41.4249780  71.0117940  13.8484920  41.9542540  70.2247740  13.7192870
  42.0578100  71.6909130  14.0820450  43.6187620  70.7493080  16.9030310
  42.9890360  70.0480390  17.0700440  43.0792760  71.5097210  16.6863470
  46.5579570  87.3632310  29.5740920  47.4846880  87.1276580  29.6176880
  46.5430000  88.1904310  29.0926950  54.7924630  86.9057880  16.5715170
  54.9676820  86.2195620  15.9276090  54.0946200  87.4304930  16.1791840
  42.6352280  87.2952720  14.1250480  43.3671100  87.0112000  13.5774370
  42.8945950  87.0566000  15.0149860  41.7967070  83.4117450  14.1296810
  41.1675950  83.8802550  14.6782640  41.9114900  82.5666670  14.5643000
  53.1257130  86.5902170  29.3981960  53.9182450  86.0951400  29.1907920
  53.4190280  87.2692310  30.0057570  47.3834830  79.2402130   2.1607280
  46.6076930  78.7602570   2.4505850  48.0347760  78.5607780   1.9863440
  41.4000660  79.5521940   3.0383040  40.5685540  79.2970650   3.4379550
  42.0081640  79.6232710   3.7740960  41.3801920  83.5862030   3.2341060
  41.6829960  82.6959770   3.0551280  42.1245510  84.1432250   3.0063310
  37.7725620  77.1129480   2.7065130  38.3441730  76.3451680   2.7068770
  37.7727160  77.4118240   1.7971740  46.8243820  81.9159320   2.1677440
  46.7552100  80.9749260   2.0066570  47.5863680  82.0060730   2.7400010
  39.0150490  72.5213840   4.4934060  38.8353330  71.6239590   4.7736820
  38.6130570  73.0685710   5.1681010  47.8548990  74.7229700   2.3946370
  48.2313810  73.8501580   2.2820040  47.7568500  75.0588400   1.5036810
  39.6337160  75.0174340   3.1016400  40.3147270  75.2812710   3.7203800
  39.3185210  74.1775210   3.4354410  43.8261730  76.0641700   2.1888990
  44.3339950  76.5622670   2.8294010  44.3574970  75.2876900   2.0128350
  55.9272660  74.2346890   5.8918340  55.2224830  74.6228600   5.3733450
  56.1930580  74.9297180   6.4939270  42.1097830  70.7040260   6.4552410
  42.1116270  71.2212650   5.6498310  41.2802140  70.2270440   6.4322340
  43.3600680  80.3435440   4.6325910  43.0270060  80.9704360   5.2746980
  43.5367360  80.8697320   3.8527580  51.8734590  74.1580520   2.1002250
  51.1690160  74.4465410   2.6805360  52.2346750  74.9680630   1.7401810
  41.7913160  72.4150220   4.4622860  42.1329970  73.2592270   4.1676730
  40.8528970  72.5633960   4.5788200  42.5719780  82.3116240   6.4475090
  43.1893780  82.9867320   6.1659540  41.7112900  82.7204220   6.3562590
  53.4897370  83.7755650   4.3629730  52.8060890  84.4454760   4.3546400
  54.0291660  83.9736300   3.5974590  54.9421510  73.6035310   2.4911460
  53.9946420  73.6374290   2.6226890  55.2671500  74.4174260   2.8760820
  51.0256110  85.6199780   3.0774910  51.0383270  85.2162070   2.2097170
  50.4731330  86.3947070   2.9736340  50.4241550  80.5229620   4.4057520
  50.8410340  80.3089730   3.5710980  51.1481370  80.7802410   4.9766140
  54.3703650  78.9216840   4.4973760  53.5422280  78.9909930   4.0223890
  54.9654130  79.5071150   4.0289590  51.3345660  75.7086160   5.4428630
  50.9216840  76.5339870   5.6968620  50.6021610  75.1231200   5.2504990
  43.9360150  82.1813620   2.4686510  43.6388440  81.5759090   1.7894290
  44.8859970  82.2190930   2.3575870  42.1807070  75.2689270   4.0846340
  42.7321660  75.3784610   3.3099590  42.6950580  75.6426870   4.8001570
  52.0245760  85.7545490   6.1309610  51.5476320  86.5617680   5.9382220
  51.3407550  85.1023820   6.2835820  43.0278580  81.9195310   9.1194310
  42.1307110  82.1435280   9.3667710  43.0531450  82.0430250   8.1705710
  41.8549800  78.7908630   7.6951680  41.7157570  79.6631430   8.0639080
  40.9731160  78.4481440   7.5499620  43.6530150  84.7330330   9.9036830
  43.6245580  85.1373280   9.0365260  43.4895120  83.8040690   9.7408430
  55.6044970  85.5157430  11.2001000  56.0804690  85.9940320  11.8790080
  56.2252130  85.4474920  10.4746500  37.8068450  80.5606180   3.6122590
  37.8848870  80.6954950   2.6678310  38.4210130  79.8522070   3.8050710
  55.0078220  82.7070280   8.3601010  55.1341280  82.4682160   7.4418190
  55.0499600  81.8754820   8.8323090  48.8694960  86.4098280   6.9295820
  49.3839630  86.3206290   7.7318250  48.0264040  86.7557980   7.2223730
  54.8602230  74.7602740   9.3250750  54.2446500  75.2682410   8.7966210
  54.5398650  73.8601070   9.2676690  37.8627970  81.6020350   6.1517050
  38.0259010  81.1325710   5.3336420  38.3280420  81.0943910   6.8165890
  46.9216550  73.5994630   6.7912940  46.4595920  73.8077650   7.6032880
  46.5194660  72.7853980   6.4883610  51.9221060  74.8203580   7.9209600
  51.0714650  74.5209330   8.2418670  51.7622850  75.0645590   7.0093420
  49.0170770  76.3205330  10.0208390  49.3424180  75.4869080   9.6810620
  49.8051100  76.8433850  10.1686720  44.6722640  71.2773440   3.0467220
  44.9694970  72.1836270   2.9659240  45.2208200  70.7892220   2.4326790
  44.8660170  76.7545260   9.5819140  44.7703770  75.8139990   9.4319540
  45.7092150  76.9760330   9.1867210  39.9970710  73.1658930   7.7352920
  39.6034100  74.0134140   7.9425700  39.3089110  72.5285300   7.9261560
  46.5715760  73.2493900  10.8049660  45.8814080  73.0566100  11.4395750
  47.3148060  73.5328540  11.3373960  37.2987760  71.0887390   1.7683000
  37.0100810  71.6590250   2.4807980  38.0433520  70.6091840   2.1314230
  48.8478730  77.0892340   3.6403580  48.1159850  77.5979150   3.9893680
  48.4503070  76.2722320   3.3392360  49.3104640  72.5426020   3.0526520
  49.3277380  72.9934670   3.8968370  49.0620220  71.6431660   3.2659960
  52.7375390  69.9558200   8.8912900  53.0621160  69.2247860   9.4170880
  52.7731900  69.6371840   7.9893890  39.4366950  80.9771780   8.3112860
  39.0521740  80.3365450   8.9095820  39.7479140  81.6807900   8.8807590
  45.5864090  77.8248320   3.7921480  45.9534220  77.3506890   4.5382820
  45.3969150  78.6989890   4.1329820  43.3763460  76.8656960   6.1105690
  43.0720530  77.7448940   6.3356050  44.3309920  76.9256750   6.1463130
  52.6633230  80.0683310   2.4998930  53.3832350  80.5638600   2.1095040
  52.4615050  79.3901200   1.8552800  48.0452030  80.1392370   8.3867930
  47.9789340  79.2188040   8.1325520  47.4157170  80.2367810   9.1012570
  39.4327190  77.7059700   7.2577050  39.0742130  78.3713550   7.8450390
  39.1381750  76.8743250   7.6289670  42.6340310  78.1643940  10.1416600
  42.3340450  78.3101120   9.2444420  43.4051550  77.6049230  10.0489990
  47.9768760  82.9612940   8.1371730  47.9913300  82.0293900   7.9190640
  47.2693860  83.0472700   8.7761500  54.1879970  79.6020280   7.4840310
  53.4628160  80.1949060   7.2869700  54.7155430  79.5943820   6.6853680
  47.4102660  84.6030510   5.2312230  48.0544880  84.8089890   5.9085650
  47.7732100  83.8418910   4.7783080  48.6834740  82.6062860   3.9489680
  49.3256970  81.9056020   4.0621850  49.2084090  83.3861300   3.7686570
  50.4572360  83.4057760   7.1525740  50.7928600  83.9924450   7.8303660
  49.5372700  83.2750470   7.3823530  38.0075760  71.1952940   7.9349150
  37.2934280  71.3949860   8.5401760  38.4270800  70.4192510   8.3063950
  38.2948350  85.1833200   8.9215680  38.4039470  84.2427940   8.7811070
  37.6428910  85.4487950   8.2729410  46.2860940  83.4549090  10.3213800
  45.9657810  82.7358330  10.8659490  45.6119300  84.1304160  10.3949860
  49.5014540  73.6875250   5.6850600  49.8695360  72.8670460   6.0130170
  48.6412740  73.7477140   6.1006250  46.4616530  76.3414840   5.9088570
  46.9601780  76.8160660   6.5740420  46.6039480  75.4178360   6.1158600
  53.6683390  72.5582800   6.7516960  53.1656990  73.2988200   7.0910770
  54.4840050  72.9466800   6.4353750  53.9630980  84.9724830   1.8732580
  54.0878400  85.7956000   2.3456390  54.8296540  84.7615560   1.5256730
  40.4406790  86.2502110  10.7335290  41.2419520  86.5714160  11.1470690
  39.9258610  85.8897690  11.4555200  49.2771420  82.3581980  10.6810700
  48.6709580  82.3813580   9.9406450  48.9725530  81.6265020  11.2177950
  50.7071790  86.0862270   9.2920110  51.6593540  86.0020290   9.2420350
  50.5600010  86.7503980   9.9653900  38.1604600  78.7375570   9.6771340
  38.6643620  78.1582850  10.2487570  37.4212020  79.0215800  10.2147710
  45.2142540  80.1446560   9.2106860  44.4488210  80.7131560   9.1261530
  45.3958500  79.8522770   8.3175090  52.3565890  81.8751890   9.7681880
  53.0975360  82.2127650   9.2649340  51.5938570  82.0443950   9.2151650
  40.1927680  76.8805160  10.5721410  40.2333020  76.5819030  11.4806640
  41.0473180  77.2812770  10.4128930  42.1333490  75.4597260   8.5395900
  41.6029950  74.9688210   7.9119240  42.8021560  75.8881460   8.0053830
  51.0311550  79.9266720   8.3037090  51.4452570  80.0811800   9.1527510
  50.0962550  80.0521940   8.4662870  51.5033720  77.2662880  10.3076240
  52.0854490  76.5115200  10.2196720  51.6795490  77.7970320   9.5307720
  42.6205790  72.4259630   8.6193190  42.5262660  71.8080380   7.8944060
  42.0403180  73.1525920   8.3923100  45.3867230  70.9832870   5.6520580
  44.9384530  71.0057130   4.8066130  44.7532430  70.5851890   6.2490880
  45.7926780  79.8787200   6.2733020  46.2114890  80.7219930   6.1009260
  44.8735410  80.0159240   6.0439800  48.1290680  77.6103380   7.6570860
  48.2486890  77.0144520   8.3965700  48.9884680  77.6473070   7.2372160
  50.4678580  78.1640570   6.2333370  49.9413800  78.6883190   5.6298510
  50.8109920  78.7967960   6.8643100  43.6434200  86.1840210   7.3890750
  43.1055290  86.9086270   7.0699450  43.8968160  85.7070550   6.5988090
  44.8959450  74.1524730   8.9146680  45.4859140  73.8440580   9.6024500
  44.0779690  73.6804480   9.0706580  49.7152880  73.7690540   9.1479700
  49.0268400  73.1072080   9.0829690  50.4358900  73.3228810   9.5928160
  46.4996410  87.4191420   7.6477400  46.4255110  88.3226560   7.9549770
  45.5975250  87.1003320   7.6199470  38.3913910  85.6136600   3.6892650
  37.9544900  85.7937400   4.5216800  38.9591590  86.3711220   3.5474370
  54.0276090  85.1153600   7.9769960  53.4278080  85.1746160   7.2333880
  54.1569990  84.1758580   8.1066810  52.7127730  81.8405580   6.0746120
  51.8987570  82.2702740   6.3371910  53.1201930  82.4523990   5.4615170
  39.2614270  78.5109400   4.5884870  39.6287310  78.4236800   5.4680890
  38.6925090  77.7475950   4.4891730  54.0618130  76.9793780   7.6015340
  53.8304220  76.7506530   6.7013290  54.3222680  77.8993330   7.5560230
  38.8130270  75.4218490   8.4943290  37.9186320  75.3885250   8.8337000
  39.3527820  75.6205280   9.2594540  52.5006200  72.2050210  10.3795040
  53.3776380  72.2133610  10.7629040  52.5127040  71.4681050   9.7687390
  54.1259190  76.1419620   4.7902610  53.1761900  76.1083160   4.9047600
  54.3072200  77.0519730   4.5552380  39.3169980  69.6966820   2.8426510
  39.9646170  69.1464200   2.4021670  39.7371820  69.9509970   3.6642320
  53.2122320  69.8908180   6.1996150  53.8494540  70.5042320   6.5655340
  53.3597210  69.9268840   5.2545380  39.0701980  69.8522490   5.5851830
  38.7216800  70.3086310   6.3510010  38.7389680  68.9579620   5.6674260
  40.6766350  83.0242090   9.7505020  40.6335980  82.6535000  10.6319480
  40.8077360  83.9619660   9.8906840  44.3772380  84.5801680   5.3514740
  44.1363740  84.8476240   4.4645260  45.3175020  84.7507410   5.4065600
  46.5826800  71.0434370   9.1071250  46.5215690  71.6356200   9.8566660
  47.5227180  70.9360330   8.9621510  49.2201360  70.7004430   8.7463540
  49.8341770  71.0183720   8.0844620  49.7650920  70.2153020   9.3659400
  55.6376540  86.5996060   6.1525380  55.1434820  86.9964930   5.4352510
  55.0289830  85.9745270   6.5462660  39.7422620  69.3798690   8.8602600
  40.2905610  69.1986740   8.0968710  39.8077930  68.5892800   9.3958910
  40.5154380  85.9704340   6.8702800  39.9214700  85.8389040   7.6092840
  40.5078220  85.1342480   6.4044900  49.9609400  69.2636570   5.0732830
  49.0869240  69.5971680   4.8705760  49.8520150  68.7909750   5.8984700
  50.8681380  71.4707440   6.4574550  50.5394740  70.6559200   6.0776280
  51.8163680  71.4277250   6.3340240  53.3215990  87.2419480   3.4312120
  52.8618960  87.9935290   3.0570140  52.6928450  86.5225950   3.3726920
  40.1466610  83.3362720   5.8210840  39.4200670  82.7168010   5.7536790
  40.2075760  83.7303330   4.9508920  43.7511710  85.5507720   2.6060250
  44.2676730  84.9395080   2.0808510  44.4009090  86.0536500   3.0971260
  46.4907210  86.4416210   3.4329230  46.7785020  86.1870510   2.5562240
  47.0030430  85.8893570   4.0234800  47.7084220  70.1806410   4.0125740
  46.9256010  70.6551910   4.2922500  47.4147150  69.2761240   3.9038920
  46.5579570  87.3632310  10.7997430  47.4846880  87.1276580  10.8433390
  46.5430000  88.1904310  10.3183460  43.7443180  70.0277060  10.5639310
  43.4627450  70.5310660   9.8000130  44.1262880  69.2298810  10.1981440
  50.3458640  69.4430640  11.1419780  50.2324090  69.7625250  12.0371300
  51.1628380  69.8443150  10.8457060  53.1257130  86.5902170  10.6238470
  53.9182450  86.0951400  10.4164430  53.4190280  87.2692310  11.2314080
  49.2516790  58.6879620  75.3771970  49.1710840  57.7734230  75.1063680
  48.8381210  59.1846690  74.6711680  51.4042260  64.8718830  76.0380370
  50.9423790  64.1006070  76.3667540  52.2167810  64.8984900  76.5432820
  39.8092610  55.7380340  71.9199390  38.9209310  56.0796310  71.8179270
  40.0933800  55.5380660  71.0280220  47.6305570  67.1576840  75.6584360
  47.0117010  67.6134340  75.0878800  48.4857350  67.3128300  75.2574060
  41.9854000  54.3211840  72.9537770  42.0920750  55.2215570  73.2606530
  41.0746360  54.2729810  72.6632420  51.6373110  53.4436650  74.4248670
  52.4582730  52.9533220  74.4674150  51.6707190  54.0334310  75.1780510
  48.4968920  62.0416080  73.0516270  47.8786190  62.5065530  72.4878990
  49.0092170  62.7343560  73.4685780  37.8652120  62.7272610  70.4255900
  37.4880100  63.2159710  69.6940800  38.1225190  63.3997890  71.0562430
  45.4741050  51.1289000  75.8841410  45.7816030  50.5735890  75.1676910
  44.5441750  51.2633460  75.7014400  52.3201530  63.5672510  73.2639040
  52.2097860  62.6246840  73.3888460  52.3169780  63.9288150  74.1501800
  47.8621810  59.1937830  72.6201530  46.9351090  59.1275210  72.8490000
  48.0146630  60.1317960  72.5056770  47.8490890  55.4654830  69.6168690
  46.9094560  55.6268790  69.7021150  48.1674150  56.1840510  69.0704680
  51.8919100  60.7558130  73.1236780  51.2731520  60.4177680  72.4763080
  51.8743550  60.1117890  73.8315970  43.4678450  59.7202570  75.4021260
  43.0635450  59.0079820  74.9067160  43.5541570  59.3755810  76.2909300
  50.0683800  59.9944940  70.1309530  50.5077080  59.1567370  69.9847350
  50.7812220  60.6274340  70.2173670  48.1779180  64.9341010  74.0990770
  48.6175090  65.6765340  73.6846160  48.1166070  65.1767580  75.0229730
  53.6500940  51.2487750  68.4450570  53.3373600  51.3414580  69.3449640
  54.4113410  51.8268780  68.3948000  40.1683080  58.6147550  72.9027910
  40.0480680  59.3409640  72.2909180  39.8583970  57.8450460  72.4255820
  39.0516080  63.4862880  75.1202730  38.6444160  63.6277470  74.2656330
  39.9429090  63.2023040  74.9173940  50.8449360  67.9210130  71.4553780
  50.6850500  67.6313070  72.3535610  50.6796070  67.1450260  70.9199010
  43.3237740  67.7008660  73.2325400  43.1480220  66.7844200  73.0193200
  42.4693480  68.0595950  73.4723200  50.5475490  65.4297690  70.0151780
  49.8540650  65.4274980  69.3554060  51.2898350  65.0057010  69.5845950
  50.1125420  67.0560400  74.0900270  50.5682370  66.2749780  74.4038890
  50.4517940  67.7667220  74.6341450  42.6346740  51.9582620  76.2851580
  42.1914890  52.7392160  75.9536100  43.1931730  52.2812510  76.9922520
  45.7505560  51.5793320  71.1657410  45.1259740  51.5753190  71.8910720
  45.6635680  50.7124280  70.7693380  42.4260960  57.0816190  74.0132830
  42.2001880  56.8653360  74.9179450  41.6453490  57.5144650  73.6678800
  49.6558720  57.0879560  72.6123480  49.0567610  57.8115360  72.4287100
  50.2038330  57.0256340  71.8299930  48.2623590  55.7243100  74.6426760
  48.6553160  56.0415300  73.8295450  48.6240440  54.8454980  74.7571280
  37.4857990  56.2564020  68.0759680  37.4032660  57.1994780  68.2174670
  37.1341050  56.1138930  67.1972030  45.2856120  54.9903050  77.1430030
  45.2892180  54.5493000  76.2934570  46.1807240  55.3120380  77.2501850
  41.1358500  54.8729540  76.1024240  40.7958550  55.3504770  76.8591290
  40.3735820  54.4194660  75.7425340  45.3476270  55.9915130  70.1336790
  45.4689090  55.9501610  71.0822610  44.9624780  56.8539280  69.9783520
  44.3597770  58.3016270  69.5320090  43.7914670  57.8534520  68.9056000
  45.0686770  58.6609050  68.9985240  38.4504580  53.7948520  75.0188910
  38.1651500  53.4304190  75.8567530  38.3883440  53.0628980  74.4052050
  41.9045250  62.2974460  71.8046500  41.1307510  61.7572080  71.6445220
  42.6339880  61.7781070  71.4664260  48.1243170  52.6877780  71.7402280
  47.3107780  52.1890950  71.6647590  47.9305120  53.5276030  71.3238630
  50.8391560  57.0597430  70.0364440  51.7271180  57.3714660  69.8615780
  50.8096650  56.1869680  69.6445020  41.9482650  61.9654840  75.4425310
  42.4661320  61.1623100  75.3882200  41.4966670  61.9033980  76.2842140
  46.8352150  63.2321120  70.7152610  47.1767850  63.9763350  70.2195930
  46.0064860  63.5452240  71.0777440  53.1105830  58.3709270  69.5044300
  53.0269550  58.8023490  68.6540740  53.8300020  58.8307620  69.9371120
  54.1393080  65.2251530  72.2326430  53.4969240  64.5707150  72.5070150
  53.7523740  65.6306620  71.4567100  49.7179560  62.5536960  76.0798120
  50.0703380  61.9565090  75.4199490  48.8341890  62.2281190  76.2506370
  45.8042840  63.3134650  73.4868530  46.4913970  63.8603860  73.8676120
  45.0175260  63.8575380  73.5218140  37.9435240  58.9307470  68.9785610
  38.8130090  59.2132270  69.2621530  37.4525560  59.7443340  68.8634420
  45.1070050  60.3180680  73.0993890  45.5632830  61.1285930  73.3254080
  44.7558260  60.0003820  73.9312380  41.0081830  50.6618330  73.5716410
  40.8796460  50.6536230  74.5201330  40.1843850  51.0001420  73.2207420
  52.5290460  64.1167990  68.7702780  52.3028040  63.3998430  69.3627420
  52.1386660  63.8680430  67.9324530  38.3106490  68.1434850  69.5447240
  38.6704130  68.7424190  68.8904510  38.1698830  68.6894740  70.3182270
  52.1106710  62.0339930  70.4316940  51.8228410  62.4952620  71.2194820
  52.9058880  61.5737700  70.7001160  44.3275110  65.5266050  70.3620910
  44.3185210  66.2595740  69.7465420  43.4073470  65.2797630  70.4547870
  39.9281750  60.7480940  71.1067670  39.3209700  61.4879840  71.1162970
  40.4031100  60.8380300  70.2805870  52.8676570  53.8688700  71.5912120
  52.2389730  53.9734370  70.8770350  52.3728490  54.0885480  72.3806000
  47.3134710  65.5894290  69.0246100  47.4146690  65.3858280  68.0948080
  46.4136450  65.3352570  69.2293880  44.8360600  56.1474650  73.0070000
  44.1276750  56.6160990  73.4483610  45.1205080  55.4896660  73.6415190
  48.8676030  52.8725310  74.4465790  48.7443810  52.8911440  73.4975300
  49.8160590  52.9204250  74.5664190  45.9552820  68.1080610  73.7193770
  46.2094320  68.0702000  72.7973140  45.0065300  67.9813940  73.7122020
  43.0395620  54.4559730  70.3820710  43.8886150  54.8929880  70.3160900
  42.6726890  54.7679990  71.2092770  51.9605400  59.0272490  75.2952280
  51.0195540  59.0422720  75.4699970  52.2749470  58.2408450  75.7412580
  41.9387040  60.7092090  68.8556240  42.7050310  60.5973450  69.4181670
  42.0161730  60.0130060  68.2033010  40.6333800  58.1417160  69.5389130
  40.7137390  57.1944670  69.6506530  41.5253550  58.4724040  69.6449790
  41.4348510  68.2912550  76.6423670  42.1710990  67.7428010  76.9132240
  41.8189430  69.1568560  76.5029660  38.3193990  64.3586120  72.5165180
  37.3933770  64.6007260  72.5070590  38.7850420  65.1860380  72.3949930
  44.5450820  67.4642860  68.4649240  45.3379430  67.7531690  68.0131030
  44.0255170  67.0335030  67.7861720  53.5980990  66.6912990  69.8885980
  53.3122500  66.2778130  69.0740160  53.4000540  67.6200700  69.7686500
  45.0628220  62.6846270  68.3291590  44.9578860  62.0698620  69.0552970
  44.8952440  62.1612160  67.5454600  48.3030950  61.7466300  68.9333580
  47.7541050  62.1935600  69.5776320  48.9250210  61.2415550  69.4571250
  43.9706070  60.7057220  70.8298880  44.3922490  60.5397090  71.6730270
  44.0956910  59.8957450  70.3354020  46.4833710  59.7294830  68.0775980
  47.0039370  59.0143850  67.7117130  47.1302110  60.3680700  68.3776490
  42.8664970  56.7790450  67.7757040  42.6654030  55.9157810  68.1370380
  42.6957020  56.6923810  66.8378640  50.3453280  51.5898680  70.3043920
  50.6255570  50.7466580  70.6603340  49.5719010  51.8221790  70.8182670
  41.6647770  53.8791070  67.7634920  41.9673670  53.8858500  66.8554070
  42.4042360  53.5288930  68.2602580  44.8832700  52.8225690  68.7491120
  44.5354700  52.1449680  68.1693570  45.0845470  52.3615200  69.5634510
  47.0481740  67.8106440  70.3677720  47.9432530  68.1491410  70.3896480
  47.0799370  67.0885850  69.7402000  40.6877900  63.1833490  68.5964720
  41.1252770  63.7263160  69.2522300  41.1725630  62.3580440  68.6061060
  37.9023700  65.9722520  76.0484980  38.2326710  65.1043580  75.8163620
  38.3314700  66.1781040  76.8789940  42.4985620  64.3031530  73.7086950
  42.1981160  64.1796500  74.6090860  42.3923110  63.4440120  73.3002680
  55.2677540  64.0827930  68.4113630  54.4370500  64.1504580  68.8820860
  55.4449370  64.9732050  68.1080490  54.7234000  60.8275410  70.9147830
  55.4852910  61.3972060  71.0207520  54.7388370  60.2602610  71.6856140
  38.2238340  59.3513340  75.1455490  37.5687180  59.0824980  74.5015190
  39.0616290  59.2417820  74.6957470  55.7293970  61.6825510  75.7589760
  56.1002800  60.8992830  75.3525730  56.3695900  62.3714610  75.5807060
  54.7753170  61.1209780  68.0720350  55.0502010  62.0288660  67.9439570
  54.5863910  61.0572310  69.0082340  51.1728780  54.1454630  69.3673980
  51.5913660  53.9585610  68.5270640  50.8664840  53.2933680  69.6776910
  54.6718510  59.0578770  73.0649780  54.2962110  58.2906700  72.6331070
  53.9421630  59.4401470  73.5524710  37.4376420  56.5612270  71.0880820
  36.5340500  56.8242470  70.9132480  37.9217040  56.8323440  70.3080780
  53.9469470  57.2836260  76.3657020  54.4706950  56.7898910  75.7347190
  54.5328890  57.4186620  77.1104590  39.9803630  55.6177810  68.9975200
  40.6895330  55.1961030  68.5122480  39.2643570  55.6853040  68.3658550
  39.6277790  51.6717140  68.0377850  40.3505920  52.2126080  68.3559070
  39.9002310  51.3980560  67.1619390  53.4369440  56.5409610  72.3049430
  53.9328560  56.3080480  73.0898310  53.2385510  55.7021450  71.8887070
  54.8656600  55.1770560  74.8387110  54.7555880  55.0226600  75.7769380
  55.6264190  54.6491500  74.5962520  55.7546870  53.0078480  68.0793250
  56.6796180  52.8759660  67.8711540  55.7322660  53.0871300  69.0329700
  55.8285360  53.7789140  70.7049960  55.0336860  53.7134260  71.2342870
  56.0328640  54.7139780  70.6935310  52.7703780  67.8180690  74.6988350
  53.3662850  67.4965260  74.0222770  53.0281930  67.3452510  75.4901620
  52.2605290  52.1086020  77.1548790  52.7013380  52.0531120  76.3070390
  51.9912880  53.0244030  77.2258970  54.1243860  51.7401260  75.1657610
  54.0632260  50.7962480  75.0188630  54.9035890  51.8481350  75.7111070
  38.4296610  67.8793620  74.1281560  38.2618650  67.2464300  74.8263450
  37.5631120  68.0853020  73.7775750  39.0524630  51.7110400  71.6313420
  39.8103990  51.8239280  71.0577450  38.5901800  52.5479600  71.5856850
  45.5938440  53.8249670  74.6215730  44.7812950  53.4506560  74.2811610
  46.0980080  53.0694750  74.9236920  50.0963420  50.4892120  75.8598800
  50.6992790  51.0612330  76.3347320  49.3556410  51.0531560  75.6372700
  53.2398020  50.8913680  71.1339080  53.4348650  51.7897130  71.4006510
  52.4527890  50.6600760  71.6272030  40.0359310  66.5726850  71.5731700
  39.5106930  66.9534880  70.8693660  39.9603890  67.1977620  72.2941410
  41.4249780  52.2374450  70.1715390  41.9542540  51.4504250  70.0423340
  42.0578100  52.9165640  70.4050920  43.6187620  51.9749590  73.2260780
  42.9890360  51.2736900  73.3930910  43.0792760  52.7353720  73.0093940
  54.7924630  68.1314390  72.8945640  54.9676820  67.4452130  72.2506560
  54.0946200  68.6561440  72.5022310  42.6352280  68.5209230  70.4480950
  43.3671100  68.2368510  69.9004840  42.8945950  68.2822510  71.3380330
  41.7967070  64.6373960  70.4527280  41.1675950  65.1059060  71.0013110
  41.9114900  63.7923180  70.8873470  49.2516790  58.6879620  56.6028480
  49.1710840  57.7734230  56.3320190  48.8381210  59.1846690  55.8968190
  47.3834830  60.4658640  58.4837750  46.6076930  59.9859080  58.7736320
  48.0347760  59.7864290  58.3093910  41.4000660  60.7778450  59.3613510
  40.5685540  60.5227160  59.7610020  42.0081640  60.8489220  60.0971430
  51.4042260  64.8718830  57.2636880  50.9423790  64.1006070  57.5924050
  52.2167810  64.8984900  57.7689330  41.3801920  64.8118540  59.5571530
  41.6829960  63.9216280  59.3781750  42.1245510  65.3688760  59.3293780
  37.7725620  58.3385990  59.0295600  38.3441730  57.5708190  59.0299240
  37.7727160  58.6374750  58.1202210  47.6305570  67.1576840  56.8840870
  47.0117010  67.6134340  56.3135310  48.4857350  67.3128300  56.4830570
  46.8243820  63.1415830  58.4907910  46.7552100  62.2005770  58.3297040
  47.5863680  63.2317240  59.0630480  39.0150490  53.7470350  60.8164530
  38.8353330  52.8496100  61.0967290  38.6130570  54.2942220  61.4911480
  47.8548990  55.9486210  58.7176840  48.2313810  55.0758090  58.6050510
  47.7568500  56.2844910  57.8267280  51.6373110  53.4436650  55.6505180
  52.4582730  52.9533220  55.6930660  51.6707190  54.0334310  56.4037020
  39.6337160  56.2430850  59.4246870  40.3147270  56.5069220  60.0434270
  39.3185210  55.4031720  59.7584880  43.8261730  57.2898210  58.5119460
  44.3339950  57.7879180  59.1524480  44.3574970  56.5133410  58.3358820
  55.9272660  55.4603400  62.2148810  55.2224830  55.8485110  61.6963920
  56.1930580  56.1553690  62.8169740  42.1097830  51.9296770  62.7782880
  42.1116270  52.4469160  61.9728780  41.2802140  51.4526950  62.7552810
  43.3600680  61.5691950  60.9556380  43.0270060  62.1960870  61.5977450
  43.5367360  62.0953830  60.1758050  51.8734590  55.3837030  58.4232720
  51.1690160  55.6721920  59.0035830  52.2346750  56.1937140  58.0632280
  41.7913160  53.6406730  60.7853330  42.1329970  54.4848780  60.4907200
  40.8528970  53.7890470  60.9018670  42.5719780  63.5372750  62.7705560
  43.1893780  64.2123830  62.4890010  41.7112900  63.9460730  62.6793060
  53.4897370  65.0012160  60.6860200  52.8060890  65.6711270  60.6776870
  54.0291660  65.1992810  59.9205060  54.9421510  54.8291820  58.8141930
  53.9946420  54.8630800  58.9457360  55.2671500  55.6430770  59.1991290
  45.4741050  51.1289000  57.1097920  45.7816030  50.5735890  56.3933420
  44.5441750  51.2633460  56.9270910  51.0256110  66.8456290  59.4005380
  51.0383270  66.4418580  58.5327640  50.4731330  67.6203580  59.2966810
  50.4241550  61.7486130  60.7287990  50.8410340  61.5346240  59.8941450
  51.1481370  62.0058920  61.2996610  54.3703650  60.1473350  60.8204230
  53.5422280  60.2166440  60.3454360  54.9654130  60.7327660  60.3520060
  51.3345660  56.9342670  61.7659100  50.9216840  57.7596380  62.0199090
  50.6021610  56.3487710  61.5735460  43.4678450  59.7202570  56.6277770
  43.0635450  59.0079820  56.1323670  43.5541570  59.3755810  57.5165810
  43.9360150  63.4070130  58.7916980  43.6388440  62.8015600  58.1124760
  44.8859970  63.4447440  58.6806340  42.1807070  56.4945780  60.4076810
  42.7321660  56.6041120  59.6330060  42.6950580  56.8683380  61.1232040
  52.0245760  66.9802000  62.4540080  51.5476320  67.7874190  62.2612690
  51.3407550  66.3280330  62.6066290  43.0278580  63.1451820  65.4424780
  42.1307110  63.3691790  65.6898180  43.0531450  63.2686760  64.4936180
  41.8549800  60.0165140  64.0182150  41.7157570  60.8887940  64.3869550
  40.9731160  59.6737950  63.8730090  48.1779180  64.9341010  55.3247280
  48.6175090  65.6765340  54.9102670  48.1166070  65.1767580  56.2486240
  43.6530150  65.9586840  66.2267300  43.6245580  66.3629790  65.3595730
  43.4895120  65.0297200  66.0638900  53.6500940  51.2487750  49.6707080
  53.3373600  51.3414580  50.5706150  54.4113410  51.8268780  49.6204510
  55.6044970  66.7413940  67.5231470  56.0804690  67.2196830  68.2020550
  56.2252130  66.6731430  66.7976970  37.8068450  61.7862690  59.9353060
  37.8848870  61.9211460  58.9908780  38.4210130  61.0778580  60.1281180
  39.0516080  63.4862880  56.3459240  38.6444160  63.6277470  55.4912840
  39.9429090  63.2023040  56.1430450  55.0078220  63.9326790  64.6831480
  55.1341280  63.6938670  63.7648660  55.0499600  63.1011330  65.1553560
  48.8694960  67.6354790  63.2526290  49.3839630  67.5462800  64.0548720
  48.0264040  67.9814490  63.5454200  43.3237740  67.7008660  54.4581910
  43.1480220  66.7844200  54.2449710  42.4693480  68.0595950  54.6979710
  54.8602230  55.9859250  65.6481220  54.2446500  56.4938920  65.1196680
  54.5398650  55.0857580  65.5907160  37.8627970  62.8276860  62.4747520
  38.0259010  62.3582220  61.6566890  38.3280420  62.3200420  63.1396360
  42.6346740  51.9582620  57.5108090  42.1914890  52.7392160  57.1792610
  43.1931730  52.2812510  58.2179030  46.9216550  54.8251140  63.1143410
  46.4595920  55.0334160  63.9263350  46.5194660  54.0110490  62.8114080
  51.9221060  56.0460090  64.2440070  51.0714650  55.7465840  64.5649140
  51.7622850  56.2902100  63.3323890  49.0170770  57.5461840  66.3438860
  49.3424180  56.7125590  66.0041090  49.8051100  58.0690360  66.4917190
  44.6722640  52.5029950  59.3697690  44.9694970  53.4092780  59.2889710
  45.2208200  52.0148730  58.7557260  42.4260960  57.0816190  55.2389340
  42.2001880  56.8653360  56.1435960  41.6453490  57.5144650  54.8935310
  44.8660170  57.9801770  65.9049610  44.7703770  57.0396500  65.7550010
  45.7092150  58.2016840  65.5097680  48.2623590  55.7243100  55.8683270
  48.6553160  56.0415300  55.0551960  48.6240440  54.8454980  55.9827790
  39.9970710  54.3915440  64.0583390  39.6034100  55.2390650  64.2656170
  39.3089110  53.7541810  64.2492030  46.5715760  54.4750410  67.1280130
  45.8814080  54.2822610  67.7626220  47.3148060  54.7585050  67.6604430
  37.2987760  52.3143900  58.0913470  37.0100810  52.8846760  58.8038450
  38.0433520  51.8348350  58.4544700  48.8478730  58.3148850  59.9634050
  48.1159850  58.8235660  60.3124150  48.4503070  57.4978830  59.6622830
  45.2856120  54.9903050  58.3686540  45.2892180  54.5493000  57.5191080
  46.1807240  55.3120380  58.4758360  41.1358500  54.8729540  57.3280750
  40.7958550  55.3504770  58.0847800  40.3735820  54.4194660  56.9681850
  49.3104640  53.7682530  59.3756990  49.3277380  54.2191180  60.2198840
  49.0620220  52.8688170  59.5890430  52.7375390  51.1814710  65.2143370
  53.0621160  50.4504370  65.7401350  52.7731900  50.8628350  64.3124360
  39.4366950  62.2028290  64.6343330  39.0521740  61.5621960  65.2326290
  39.7479140  62.9064410  65.2038060  45.5864090  59.0504830  60.1151950
  45.9534220  58.5763400  60.8613290  45.3969150  59.9246400  60.4560290
  38.4504580  53.7948520  56.2445420  38.1651500  53.4304190  57.0824040
  38.3883440  53.0628980  55.6308560  43.3763460  58.0913470  62.4336160
  43.0720530  58.9705450  62.6586520  44.3309920  58.1513260  62.4693600
  52.6633230  61.2939820  58.8229400  53.3832350  61.7895110  58.4325510
  52.4615050  60.6157710  58.1783270  48.0452030  61.3648880  64.7098400
  47.9789340  60.4444550  64.4555990  47.4157170  61.4624320  65.4243040
  41.9482650  61.9654840  56.6681820  42.4661320  61.1623100  56.6138710
  41.4966670  61.9033980  57.5098650  39.4327190  58.9316210  63.5807520
  39.0742130  59.5970060  64.1680860  39.1381750  58.0999760  63.9520140
  42.6340310  59.3900450  66.4647070  42.3340450  59.5357630  65.5674890
  43.4051550  58.8305740  66.3720460  47.9768760  64.1869450  64.4602200
  47.9913300  63.2550410  64.2421110  47.2693860  64.2729210  65.0991970
  54.1879970  60.8276790  63.8070780  53.4628160  61.4205570  63.6100170
  54.7155430  60.8200330  63.0084150  49.7179560  62.5536960  57.3054630
  50.0703380  61.9565090  56.6456000  48.8341890  62.2281190  57.4762880
  45.8042840  63.3134650  54.7125040  46.4913970  63.8603860  55.0932630
  45.0175260  63.8575380  54.7474650  47.4102660  65.8287020  61.5542700
  48.0544880  66.0346400  62.2316120  47.7732100  65.0675420  61.1013550
  41.0081830  50.6618330  54.7972920  40.8796460  50.6536230  55.7457840
  40.1843850  51.0001420  54.4463930  48.6834740  63.8319370  60.2720150
  49.3256970  63.1312530  60.3852320  49.2084090  64.6117810  60.0917040
  50.4572360  64.6314270  63.4756210  50.7928600  65.2180960  64.1534130
  49.5372700  64.5006980  63.7054000  38.0075760  52.4209450  64.2579620
  37.2934280  52.6206370  64.8632230  38.4270800  51.6449020  64.6294420
  38.2948350  66.4089710  65.2446150  38.4039470  65.4684450  65.1041540
  37.6428910  66.6744460  64.5959880  46.2860940  64.6805600  66.6444270
  45.9657810  63.9614840  67.1889960  45.6119300  65.3560670  66.7180330
  49.5014540  54.9131760  62.0081070  49.8695360  54.0926970  62.3360640
  48.6412740  54.9733650  62.4236720  52.8676570  53.8688700  52.8168630
  52.2389730  53.9734370  52.1026860  52.3728490  54.0885480  53.6062510
  46.4616530  57.5671350  62.2319040  46.9601780  58.0417170  62.8970890
  46.6039480  56.6434870  62.4389070  48.8676030  52.8725310  55.6722300
  48.7443810  52.8911440  54.7231810  49.8160590  52.9204250  55.7920700
  45.9552820  68.1080610  54.9450280  46.2094320  68.0702000  54.0229650
  45.0065300  67.9813940  54.9378530  53.6683390  53.7839310  63.0747430
  53.1656990  54.5244710  63.4141240  54.4840050  54.1723310  62.7584220
  51.9605400  59.0272490  56.5208790  51.0195540  59.0422720  56.6956480
  52.2749470  58.2408450  56.9669090  53.9630980  66.1981340  58.1963050
  54.0878400  67.0212510  58.6686860  54.8296540  65.9872070  57.8487200
  41.4348510  68.2912550  57.8680180  42.1710990  67.7428010  58.1388750
  41.8189430  69.1568560  57.7286170  40.4406790  67.4758620  67.0565760
  41.2419520  67.7970670  67.4701160  39.9258610  67.1154200  67.7785670
  49.2771420  63.5838490  67.0041170  48.6709580  63.6070090  66.2636920
  48.9725530  62.8521530  67.5408420  50.7071790  67.3118780  65.6150580
  51.6593540  67.2276800  65.5650820  50.5600010  67.9760490  66.2884370
  38.1604600  59.9632080  66.0001810  38.6643620  59.3839360  66.5718040
  37.4212020  60.2472310  66.5378180  45.2142540  61.3703070  65.5337330
  44.4488210  61.9388070  65.4492000  45.3958500  61.0779280  64.6405560
  52.3565890  63.1008400  66.0912350  53.0975360  63.4384160  65.5879810
  51.5938570  63.2700460  65.5382120  40.1927680  58.1061670  66.8951880
  40.2333020  57.8075540  67.8037110  41.0473180  58.5069280  66.7359400
  42.1333490  56.6853770  64.8626370  41.6029950  56.1944720  64.2349710
  42.8021560  57.1137970  64.3284300  51.0311550  61.1523230  64.6267560
  51.4452570  61.3068310  65.4757980  50.0962550  61.2778450  64.7893340
  51.5033720  58.4919390  66.6306710  52.0854490  57.7371710  66.5427190
  51.6795490  59.0226830  65.8538190  42.6205790  53.6516140  64.9423660
  42.5262660  53.0336890  64.2174530  42.0403180  54.3782430  64.7153570
  45.3867230  52.2089380  61.9751050  44.9384530  52.2313640  61.1296600
  44.7532430  51.8108400  62.5721350  45.7926780  61.1043710  62.5963490
  46.2114890  61.9476440  62.4239730  44.8735410  61.2415750  62.3670270
  48.1290680  58.8359890  63.9801330  48.2486890  58.2401030  64.7196170
  48.9884680  58.8729580  63.5602630  50.4678580  59.3897080  62.5563840
  49.9413800  59.9139700  61.9528980  50.8109920  60.0224470  63.1873570
  43.6434200  67.4096720  63.7121220  43.1055290  68.1342780  63.3929920
  43.8968160  66.9327060  62.9218560  44.8959450  55.3781240  65.2377150
  45.4859140  55.0697090  65.9254970  44.0779690  54.9060990  65.3937050
  49.7152880  54.9947050  65.4710170  49.0268400  54.3328590  65.4060160
  50.4358900  54.5485320  65.9158630  46.4996410  68.6447930  63.9707870
  46.4255110  69.5483070  64.2780240  45.5975250  68.3259830  63.9429940
  37.9023700  65.9722520  57.2741490  38.2326710  65.1043580  57.0420130
  38.3314700  66.1781040  58.1046450  42.4985620  64.3031530  54.9343460
  42.1981160  64.1796500  55.8347370  42.3923110  63.4440120  54.5259190
  38.3913910  66.8393110  60.0123120  37.9544900  67.0193910  60.8447270
  38.9591590  67.5967730  59.8704840  54.0276090  66.3410110  64.3000430
  53.4278080  66.4002670  63.5564350  54.1569990  65.4015090  64.4297280
  38.2238340  59.3513340  56.3712000  37.5687180  59.0824980  55.7271700
  39.0616290  59.2417820  55.9213980  55.7293970  61.6825510  56.9846270
  56.1002800  60.8992830  56.5782240  56.3695900  62.3714610  56.8063570
  52.7127730  63.0662090  62.3976590  51.8987570  63.4959250  62.6602380
  53.1201930  63.6780500  61.7845640  54.6718510  59.0578770  54.2906290
  54.2962110  58.2906700  53.8587580  53.9421630  59.4401470  54.7781220
  39.2614270  59.7365910  60.9115340  39.6287310  59.6493310  61.7911360
  38.6925090  58.9732460  60.8122200  54.0618130  58.2050290  63.9245810
  53.8304220  57.9763040  63.0243760  54.3222680  59.1249840  63.8790700
  38.8130270  56.6475000  64.8173760  37.9186320  56.6141760  65.1567470
  39.3527820  56.8461790  65.5825010  52.5006200  53.4306720  66.7025510
  53.3776380  53.4390120  67.0859510  52.5127040  52.6937560  66.0917860
  53.9469470  57.2836260  57.5913530  54.4706950  56.7898910  56.9603700
  54.5328890  57.4186620  58.3361100  54.1259190  57.3676130  61.1133080
  53.1761900  57.3339670  61.2278070  54.3072200  58.2776240  60.8782850
  53.4369440  56.5409610  53.5305940  53.9328560  56.3080480  54.3154820
  53.2385510  55.7021450  53.1143580  39.3169980  50.9223330  59.1656980
  39.9646170  50.3720710  58.7252140  39.7371820  51.1766480  59.9872790
  54.8656600  55.1770560  56.0643620  54.7555880  55.0226600  57.0025890
  55.6264190  54.6491500  55.8219030  53.2122320  51.1164690  62.5226620
  53.8494540  51.7298830  62.8885810  53.3597210  51.1525350  61.5775850
  55.7546870  53.0078480  49.3049760  56.6796180  52.8759660  49.0968050
  55.7322660  53.0871300  50.2586210  55.8285360  53.7789140  51.9306470
  55.0336860  53.7134260  52.4599380  56.0328640  54.7139780  51.9191820
  39.0701980  51.0779000  61.9082300  38.7216800  51.5342820  62.6740480
  38.7389680  50.1836130  61.9904730  40.6766350  64.2498600  66.0735490
  40.6335980  63.8791510  66.9549950  40.8077360  65.1876170  66.2137310
  44.3772380  65.8058190  61.6745210  44.1363740  66.0732750  60.7875730
  45.3175020  65.9763920  61.7296070  46.5826800  52.2690880  65.4301720
  46.5215690  52.8612710  66.1797130  47.5227180  52.1616840  65.2851980
  49.2201360  51.9260940  65.0694010  49.8341770  52.2440230  64.4075090
  49.7650920  51.4409530  65.6889870  55.6376540  67.8252570  62.4755850
  55.1434820  68.2221440  61.7582980  55.0289830  67.2001780  62.8693130
  39.7422620  50.6055200  65.1833070  40.2905610  50.4243250  64.4199180
  39.8077930  49.8149310  65.7189380  40.5154380  67.1960850  63.1933270
  39.9214700  67.0645550  63.9323310  40.5078220  66.3598990  62.7275370
  49.9609400  50.4893080  61.3963300  49.0869240  50.8228190  61.1936230
  49.8520150  50.0166260  62.2215170  50.8681380  52.6963950  62.7805020
  50.5394740  51.8815710  62.4006750  51.8163680  52.6533760  62.6570710
  53.3215990  68.4675990  59.7542590  52.8618960  69.2191800  59.3800610
  52.6928450  67.7482460  59.6957390  40.1466610  64.5619230  62.1441310
  39.4200670  63.9424520  62.0767260  40.2075760  64.9559840  61.2739390
  43.7511710  66.7764230  58.9290720  44.2676730  66.1651590  58.4038980
  44.4009090  67.2793010  59.4201730  46.4907210  67.6672720  59.7559700
  46.7785020  67.4127020  58.8792710  47.0030430  67.1150080  60.3465270
  47.7084220  51.4062920  60.3356210  46.9256010  51.8808420  60.6152970
  47.4147150  50.5017750  60.2269390  52.2605290  52.1086020  58.3805300
  52.7013380  52.0531120  57.5326900  51.9912880  53.0244030  58.4515480
  54.1243860  51.7401260  56.3914120  54.0632260  50.7962480  56.2445140
  54.9035890  51.8481350  56.9367580  38.4296610  67.8793620  55.3538070
  38.2618650  67.2464300  56.0519960  37.5631120  68.0853020  55.0032260
  45.5938440  53.8249670  55.8472240  44.7812950  53.4506560  55.5068120
  46.0980080  53.0694750  56.1493430  50.0963420  50.4892120  57.0855310
  50.6992790  51.0612330  57.5603830  49.3556410  51.0531560  56.8629210
  46.5579570  68.5888820  67.1227900  47.4846880  68.3533090  67.1663860
  46.5430000  69.4160820  66.6413930  43.7443180  51.2533570  66.8869780
  43.4627450  51.7567170  66.1230600  44.1262880  50.4555320  66.5211910
  50.3458640  50.6687150  67.4650250  50.2324090  50.9881760  68.3601770
  51.1628380  51.0699660  67.1687530  53.1257130  67.8158680  66.9468940
  53.9182450  67.3207910  66.7394900  53.4190280  68.4948820  67.5544550
  55.9272660  55.4603400  43.4405320  55.2224830  55.8485110  42.9220430
  56.1930580  56.1553690  44.0426250  54.9421510  54.8291820  40.0398440
  53.9946420  54.8630800  40.1713870  55.2671500  55.6430770  40.4247800
  53.6500940  51.2487750  30.8963590  53.3373600  51.3414580  31.7962660
  54.4113410  51.8268780  30.8461020  54.8602230  55.9859250  46.8737730
  54.2446500  56.4938920  46.3453190  54.5398650  55.0857580  46.8163670
  52.8676570  53.8688700  34.0425140  52.2389730  53.9734370  33.3283370
  52.3728490  54.0885480  34.8319020  53.6683390  53.7839310  44.3003940
  53.1656990  54.5244710  44.6397750  54.4840050  54.1723310  43.9840730
  54.0618130  58.2050290  45.1502320  53.8304220  57.9763040  44.2500270
  54.3222680  59.1249840  45.1047210  52.5006200  53.4306720  47.9282020
  53.3776380  53.4390120  48.3116020  52.5127040  52.6937560  47.3174370
  53.9469470  57.2836260  38.8170040  54.4706950  56.7898910  38.1860210
  54.5328890  57.4186620  39.5617610  54.1259190  57.3676130  42.3389590
  53.1761900  57.3339670  42.4534580  54.3072200  58.2776240  42.1039360
  53.4369440  56.5409610  34.7562450  53.9328560  56.3080480  35.5411330
  53.2385510  55.7021450  34.3400090  54.8656600  55.1770560  37.2900130
  54.7555880  55.0226600  38.2282400  55.6264190  54.6491500  37.0475540
  55.7546870  53.0078480  30.5306270  56.6796180  52.8759660  30.3224560
  55.7322660  53.0871300  31.4842720  55.8285360  53.7789140  33.1562980
  55.0336860  53.7134260  33.6855890  56.0328640  54.7139780  33.1448330
  52.2605290  52.1086020  39.6061810  52.7013380  52.0531120  38.7583410
  51.9912880  53.0244030  39.6771990  54.1243860  51.7401260  37.6170630
  54.0632260  50.7962480  37.4701650  54.9035890  51.8481350  38.1624090
  53.2398020  50.8913680  33.5852100  53.4348650  51.7897130  33.8519530
  52.4527890  50.6600760  34.0785050  49.2516790  58.6879620  19.0541500
  49.1710840  57.7734230  18.7833210  48.8381210  59.1846690  18.3481210
  47.3834830  60.4658640  20.9350770  46.6076930  59.9859080  21.2249340
  48.0347760  59.7864290  20.7606930  41.4000660  60.7778450  21.8126530
  40.5685540  60.5227160  22.2123040  42.0081640  60.8489220  22.5484450
  51.4042260  64.8718830  19.7149900  50.9423790  64.1006070  20.0437070
  52.2167810  64.8984900  20.2202350  41.3801920  64.8118540  22.0084550
  41.6829960  63.9216280  21.8294770  42.1245510  65.3688760  21.7806800
  39.8092610  55.7380340  15.5968920  38.9209310  56.0796310  15.4948800
  40.0933800  55.5380660  14.7049750  37.7725620  58.3385990  21.4808620
  38.3441730  57.5708190  21.4812260  37.7727160  58.6374750  20.5715230
  47.6305570  67.1576840  19.3353890  47.0117010  67.6134340  18.7648330
  48.4857350  67.3128300  18.9343590  46.8243820  63.1415830  20.9420930
  46.7552100  62.2005770  20.7810060  47.5863680  63.2317240  21.5143500
  47.8548990  55.9486210  21.1689860  48.2313810  55.0758090  21.0563530
  47.7568500  56.2844910  20.2780300  41.9854000  54.3211840  16.6307300
  42.0920750  55.2215570  16.9376060  41.0746360  54.2729810  16.3401950
  51.6373110  53.4436650  18.1018200  52.4582730  52.9533220  18.1443680
  51.6707190  54.0334310  18.8550040  39.6337160  56.2430850  21.8759890
  40.3147270  56.5069220  22.4947290  39.3185210  55.4031720  22.2097900
  43.8261730  57.2898210  20.9632480  44.3339950  57.7879180  21.6037500
  44.3574970  56.5133410  20.7871840  55.9272660  55.4603400  24.6661830
  55.2224830  55.8485110  24.1476940  56.1930580  56.1553690  25.2682760
  48.4968920  62.0416080  16.7285800  47.8786190  62.5065530  16.1648520
  49.0092170  62.7343560  17.1455310  51.8734590  55.3837030  20.8745740
  51.1690160  55.6721920  21.4548850  52.2346750  56.1937140  20.5145300
  37.8652120  62.7272610  14.1025430  37.4880100  63.2159710  13.3710330
  38.1225190  63.3997890  14.7331960  54.9421510  54.8291820  21.2654950
  53.9946420  54.8630800  21.3970380  55.2671500  55.6430770  21.6504310
  45.4741050  51.1289000  19.5610940  45.7816030  50.5735890  18.8446440
  44.5441750  51.2633460  19.3783930  51.0256110  66.8456290  21.8518400
  51.0383270  66.4418580  20.9840660  50.4731330  67.6203580  21.7479830
  52.3201530  63.5672510  16.9408570  52.2097860  62.6246840  17.0657990
  52.3169780  63.9288150  17.8271330  50.4241550  61.7486130  23.1801010
  50.8410340  61.5346240  22.3454470  51.1481370  62.0058920  23.7509630
  47.8621810  59.1937830  16.2971060  46.9351090  59.1275210  16.5259530
  48.0146630  60.1317960  16.1826300  47.8490890  55.4654830  13.2938220
  46.9094560  55.6268790  13.3790680  48.1674150  56.1840510  12.7474210
  54.3703650  60.1473350  23.2717250  53.5422280  60.2166440  22.7967380
  54.9654130  60.7327660  22.8033080  51.8919100  60.7558130  16.8006310
  51.2731520  60.4177680  16.1532610  51.8743550  60.1117890  17.5085500
  51.3345660  56.9342670  24.2172120  50.9216840  57.7596380  24.4712110
  50.6021610  56.3487710  24.0248480  43.4678450  59.7202570  19.0790790
  43.0635450  59.0079820  18.5836690  43.5541570  59.3755810  19.9678830
  43.9360150  63.4070130  21.2430000  43.6388440  62.8015600  20.5637780
  44.8859970  63.4447440  21.1319360  42.1807070  56.4945780  22.8589830
  42.7321660  56.6041120  22.0843080  42.6950580  56.8683380  23.5745060
  50.0683800  59.9944940  13.8079060  50.5077080  59.1567370  13.6616880
  50.7812220  60.6274340  13.8943200  48.1779180  64.9341010  17.7760300
  48.6175090  65.6765340  17.3615690  48.1166070  65.1767580  18.6999260
  53.6500940  51.2487750  12.1220100  53.3373600  51.3414580  13.0219170
  54.4113410  51.8268780  12.0717530  40.1683080  58.6147550  16.5797440
  40.0480680  59.3409640  15.9678710  39.8583970  57.8450460  16.1025350
  39.0516080  63.4862880  18.7972260  38.6444160  63.6277470  17.9425860
  39.9429090  63.2023040  18.5943470  50.8449360  67.9210130  15.1323310
  50.6850500  67.6313070  16.0305140  50.6796070  67.1450260  14.5968540
  43.3237740  67.7008660  16.9094930  43.1480220  66.7844200  16.6962730
  42.4693480  68.0595950  17.1492730  50.5475490  65.4297690  13.6921310
  49.8540650  65.4274980  13.0323590  51.2898350  65.0057010  13.2615480
  50.1125420  67.0560400  17.7669800  50.5682370  66.2749780  18.0808420
  50.4517940  67.7667220  18.3110980  54.8602230  55.9859250  28.0994240
  54.2446500  56.4938920  27.5709700  54.5398650  55.0857580  28.0420180
  42.6346740  51.9582620  19.9621110  42.1914890  52.7392160  19.6305630
  43.1931730  52.2812510  20.6692050  45.7505560  51.5793320  14.8426940
  45.1259740  51.5753190  15.5680250  45.6635680  50.7124280  14.4462910
  44.6722640  52.5029950  21.8210710  44.9694970  53.4092780  21.7402730
  45.2208200  52.0148730  21.2070280  42.4260960  57.0816190  17.6902360
  42.2001880  56.8653360  18.5948980  41.6453490  57.5144650  17.3448330
  49.6558720  57.0879560  16.2893010  49.0567610  57.8115360  16.1056630
  50.2038330  57.0256340  15.5069460  48.2623590  55.7243100  18.3196290
  48.6553160  56.0415300  17.5064980  48.6240440  54.8454980  18.4340810
  37.2987760  52.3143900  20.5426490  37.0100810  52.8846760  21.2551470
  38.0433520  51.8348350  20.9057720  37.4857990  56.2564020  11.7529210
  37.4032660  57.1994780  11.8944200  37.1341050  56.1138930  10.8741560
  48.8478730  58.3148850  22.4147070  48.1159850  58.8235660  22.7637170
  48.4503070  57.4978830  22.1135850  45.2856120  54.9903050  20.8199560
  45.2892180  54.5493000  19.9704100  46.1807240  55.3120380  20.9271380
  41.1358500  54.8729540  19.7793770  40.7958550  55.3504770  20.5360820
  40.3735820  54.4194660  19.4194870  45.3476270  55.9915130  13.8106320
  45.4689090  55.9501610  14.7592140  44.9624780  56.8539280  13.6553050
  49.3104640  53.7682530  21.8270010  49.3277380  54.2191180  22.6711860
  49.0620220  52.8688170  22.0403450  44.3597770  58.3016270  13.2089620
  43.7914670  57.8534520  12.5825530  45.0686770  58.6609050  12.6754770
  52.7375390  51.1814710  27.6656390  53.0621160  50.4504370  28.1914370
  52.7731900  50.8628350  26.7637380  45.5864090  59.0504830  22.5664970
  45.9534220  58.5763400  23.3126310  45.3969150  59.9246400  22.9073310
  38.4504580  53.7948520  18.6958440  38.1651500  53.4304190  19.5337060
  38.3883440  53.0628980  18.0821580  41.9045250  62.2974460  15.4816030
  41.1307510  61.7572080  15.3214750  42.6339880  61.7781070  15.1433790
  52.6633230  61.2939820  21.2742420  53.3832350  61.7895110  20.8838530
  52.4615050  60.6157710  20.6296290  48.1243170  52.6877780  15.4171810
  47.3107780  52.1890950  15.3417120  47.9305120  53.5276030  15.0008160
  50.8391560  57.0597430  13.7133970  51.7271180  57.3714660  13.5385310
  50.8096650  56.1869680  13.3214550  41.9482650  61.9654840  19.1194840
  42.4661320  61.1623100  19.0651730  41.4966670  61.9033980  19.9611670
  46.8352150  63.2321120  14.3922140  47.1767850  63.9763350  13.8965460
  46.0064860  63.5452240  14.7546970  53.1105830  58.3709270  13.1813830
  53.0269550  58.8023490  12.3310270  53.8300020  58.8307620  13.6140650
  54.1393080  65.2251530  15.9095960  53.4969240  64.5707150  16.1839680
  53.7523740  65.6306620  15.1336630  49.7179560  62.5536960  19.7567650
  50.0703380  61.9565090  19.0969020  48.8341890  62.2281190  19.9275900
  45.8042840  63.3134650  17.1638060  46.4913970  63.8603860  17.5445650
  45.0175260  63.8575380  17.1987670  37.9435240  58.9307470  12.6555140
  38.8130090  59.2132270  12.9391060  37.4525560  59.7443340  12.5403950
  45.1070050  60.3180680  16.7763420  45.5632830  61.1285930  17.0023610
  44.7558260  60.0003820  17.6081910  41.0081830  50.6618330  17.2485940
  40.8796460  50.6536230  18.1970860  40.1843850  51.0001420  16.8976950
  48.6834740  63.8319370  22.7233170  49.3256970  63.1312530  22.8365340
  49.2084090  64.6117810  22.5430060  52.5290460  64.1167990  12.4472310
  52.3028040  63.3998430  13.0396950  52.1386660  63.8680430  11.6094060
  38.3106490  68.1434850  13.2216770  38.6704130  68.7424190  12.5674040
  38.1698830  68.6894740  13.9951800  52.1106710  62.0339930  14.1086470
  51.8228410  62.4952620  14.8964350  52.9058880  61.5737700  14.3770690
  44.3275110  65.5266050  14.0390440  44.3185210  66.2595740  13.4234950
  43.4073470  65.2797630  14.1317400  39.9281750  60.7480940  14.7837200
  39.3209700  61.4879840  14.7932500  40.4031100  60.8380300  13.9575400
  52.8676570  53.8688700  15.2681650  52.2389730  53.9734370  14.5539880
  52.3728490  54.0885480  16.0575530  47.3134710  65.5894290  12.7015630
  47.4146690  65.3858280  11.7717610  46.4136450  65.3352570  12.9063410
  44.8360600  56.1474650  16.6839530  44.1276750  56.6160990  17.1253140
  45.1205080  55.4896660  17.3184720  48.8676030  52.8725310  18.1235320
  48.7443810  52.8911440  17.1744830  49.8160590  52.9204250  18.2433720
  45.9552820  68.1080610  17.3963300  46.2094320  68.0702000  16.4742670
  45.0065300  67.9813940  17.3891550  43.0395620  54.4559730  14.0590240
  43.8886150  54.8929880  13.9930430  42.6726890  54.7679990  14.8862300
  53.6683390  53.7839310  25.5260450  53.1656990  54.5244710  25.8654260
  54.4840050  54.1723310  25.2097240  51.9605400  59.0272490  18.9721810
  51.0195540  59.0422720  19.1469500  52.2749470  58.2408450  19.4182110
  41.9387040  60.7092090  12.5325770  42.7050310  60.5973450  13.0951200
  42.0161730  60.0130060  11.8802540  40.6333800  58.1417160  13.2158660
  40.7137390  57.1944670  13.3276060  41.5253550  58.4724040  13.3219320
  53.9630980  66.1981340  20.6476070  54.0878400  67.0212510  21.1199880
  54.8296540  65.9872070  20.3000220  41.4348510  68.2912550  20.3193200
  42.1710990  67.7428010  20.5901770  41.8189430  69.1568560  20.1799190
  38.3193990  64.3586120  16.1934710  37.3933770  64.6007260  16.1840120
  38.7850420  65.1860380  16.0719460  44.5450820  67.4642860  12.1418770
  45.3379430  67.7531690  11.6900560  44.0255170  67.0335030  11.4631250
  53.5980990  66.6912990  13.5655510  53.3122500  66.2778130  12.7509690
  53.4000540  67.6200700  13.4456030  45.0628220  62.6846270  12.0061120
  44.9578860  62.0698620  12.7322500  44.8952440  62.1612160  11.2224130
  48.3030950  61.7466300  12.6103110  47.7541050  62.1935600  13.2545850
  48.9250210  61.2415550  13.1340780  43.9706070  60.7057220  14.5068410
  44.3922490  60.5397090  15.3499800  44.0956910  59.8957450  14.0123550
  46.4833710  59.7294830  11.7545510  47.0039370  59.0143850  11.3886660
  47.1302110  60.3680700  12.0546020  42.8664970  56.7790450  11.4526570
  42.6654030  55.9157810  11.8139910  42.6957020  56.6923810  10.5148170
  50.3453280  51.5898680  13.9813450  50.6255570  50.7466580  14.3372870
  49.5719010  51.8221790  14.4952200  41.6647770  53.8791070  11.4404450
  41.9673670  53.8858500  10.5323600  42.4042360  53.5288930  11.9372110
  44.8832700  52.8225690  12.4260650  44.5354700  52.1449680  11.8463100
  45.0845470  52.3615200  13.2404040  47.0481740  67.8106440  14.0447250
  47.9432530  68.1491410  14.0666010  47.0799370  67.0885850  13.4171530
  40.6877900  63.1833490  12.2734250  41.1252770  63.7263160  12.9291830
  41.1725630  62.3580440  12.2830590  37.9023700  65.9722520  19.7254510
  38.2326710  65.1043580  19.4933150  38.3314700  66.1781040  20.5559470
  42.4985620  64.3031530  17.3856480  42.1981160  64.1796500  18.2860390
  42.3923110  63.4440120  16.9772210  55.2677540  64.0827930  12.0883160
  54.4370500  64.1504580  12.5590390  55.4449370  64.9732050  11.7850020
  54.7234000  60.8275410  14.5917360  55.4852910  61.3972060  14.6977050
  54.7388370  60.2602610  15.3625670  38.2238340  59.3513340  18.8225020
  37.5687180  59.0824980  18.1784720  39.0616290  59.2417820  18.3727000
  55.7293970  61.6825510  19.4359290  56.1002800  60.8992830  19.0295260
  56.3695900  62.3714610  19.2576590  54.7753170  61.1209780  11.7489880
  55.0502010  62.0288660  11.6209100  54.5863910  61.0572310  12.6851870
  51.1728780  54.1454630  13.0443510  51.5913660  53.9585610  12.2040170
  50.8664840  53.2933680  13.3546440  54.6718510  59.0578770  16.7419310
  54.2962110  58.2906700  16.3100600  53.9421630  59.4401470  17.2294240
  54.0618130  58.2050290  26.3758830  53.8304220  57.9763040  25.4756780
  54.3222680  59.1249840  26.3303720  52.5006200  53.4306720  29.1538530
  53.3776380  53.4390120  29.5372530  52.5127040  52.6937560  28.5430880
  37.4376420  56.5612270  14.7650350  36.5340500  56.8242470  14.5902010
  37.9217040  56.8323440  13.9850310  53.9469470  57.2836260  20.0426550
  54.4706950  56.7898910  19.4116720  54.5328890  57.4186620  20.7874120
  54.1259190  57.3676130  23.5646100  53.1761900  57.3339670  23.6791090
  54.3072200  58.2776240  23.3295870  39.9803630  55.6177810  12.6744730
  40.6895330  55.1961030  12.1892010  39.2643570  55.6853040  12.0428080
  39.6277790  51.6717140  11.7147380  40.3505920  52.2126080  12.0328600
  39.9002310  51.3980560  10.8388920  53.4369440  56.5409610  15.9818960
  53.9328560  56.3080480  16.7667840  53.2385510  55.7021450  15.5656600
  39.3169980  50.9223330  21.6170000  39.9646170  50.3720710  21.1765160
  39.7371820  51.1766480  22.4385810  54.8656600  55.1770560  18.5156640
  54.7555880  55.0226600  19.4538910  55.6264190  54.6491500  18.2732050
  53.2122320  51.1164690  24.9739640  53.8494540  51.7298830  25.3398830
  53.3597210  51.1525350  24.0288870  55.7546870  53.0078480  11.7562780
  56.6796180  52.8759660  11.5481070  55.7322660  53.0871300  12.7099230
  55.8285360  53.7789140  14.3819490  55.0336860  53.7134260  14.9112400
  56.0328640  54.7139780  14.3704840  52.7703780  67.8180690  18.3757880
  53.3662850  67.4965260  17.6992300  53.0281930  67.3452510  19.1671150
  49.9609400  50.4893080  23.8476320  49.0869240  50.8228190  23.6449250
  49.8520150  50.0166260  24.6728190  50.8681380  52.6963950  25.2318040
  50.5394740  51.8815710  24.8519770  51.8163680  52.6533760  25.1083730
  53.3215990  68.4675990  22.2055610  52.8618960  69.2191800  21.8313630
  52.6928450  67.7482460  22.1470410  46.4907210  67.6672720  22.2072720
  46.7785020  67.4127020  21.3305730  47.0030430  67.1150080  22.7978290
  52.2605290  52.1086020  20.8318320  52.7013380  52.0531120  19.9839920
  51.9912880  53.0244030  20.9028500  54.1243860  51.7401260  18.8427140
  54.0632260  50.7962480  18.6958160  54.9035890  51.8481350  19.3880600
  38.4296610  67.8793620  17.8051090  38.2618650  67.2464300  18.5032980
  37.5631120  68.0853020  17.4545280  39.0524630  51.7110400  15.3082950
  39.8103990  51.8239280  14.7346980  38.5901800  52.5479600  15.2626380
  45.5938440  53.8249670  18.2985260  44.7812950  53.4506560  17.9581140
  46.0980080  53.0694750  18.6006450  50.0963420  50.4892120  19.5368330
  50.6992790  51.0612330  20.0116850  49.3556410  51.0531560  19.3142230
  53.2398020  50.8913680  14.8108610  53.4348650  51.7897130  15.0776040
  52.4527890  50.6600760  15.3041560  40.0359310  66.5726850  15.2501230
  39.5106930  66.9534880  14.5463190  39.9603890  67.1977620  15.9710940
  41.4249780  52.2374450  13.8484920  41.9542540  51.4504250  13.7192870
  42.0578100  52.9165640  14.0820450  43.6187620  51.9749590  16.9030310
  42.9890360  51.2736900  17.0700440  43.0792760  52.7353720  16.6863470
  54.7924630  68.1314390  16.5715170  54.9676820  67.4452130  15.9276090
  54.0946200  68.6561440  16.1791840  42.6352280  68.5209230  14.1250480
  43.3671100  68.2368510  13.5774370  42.8945950  68.2822510  15.0149860
  41.7967070  64.6373960  14.1296810  41.1675950  65.1059060  14.6782640
  41.9114900  63.7923180  14.5643000  47.3834830  60.4658640   2.1607280
  46.6076930  59.9859080   2.4505850  48.0347760  59.7864290   1.9863440
  41.4000660  60.7778450   3.0383040  40.5685540  60.5227160   3.4379550
  42.0081640  60.8489220   3.7740960  41.3801920  64.8118540   3.2341060
  41.6829960  63.9216280   3.0551280  42.1245510  65.3688760   3.0063310
  37.7725620  58.3385990   2.7065130  38.3441730  57.5708190   2.7068770
  37.7727160  58.6374750   1.7971740  46.8243820  63.1415830   2.1677440
  46.7552100  62.2005770   2.0066570  47.5863680  63.2317240   2.7400010
  39.0150490  53.7470350   4.4934060  38.8353330  52.8496100   4.7736820
  38.6130570  54.2942220   5.1681010  47.8548990  55.9486210   2.3946370
  48.2313810  55.0758090   2.2820040  47.7568500  56.2844910   1.5036810
  39.6337160  56.2430850   3.1016400  40.3147270  56.5069220   3.7203800
  39.3185210  55.4031720   3.4354410  43.8261730  57.2898210   2.1888990
  44.3339950  57.7879180   2.8294010  44.3574970  56.5133410   2.0128350
  55.9272660  55.4603400   5.8918340  55.2224830  55.8485110   5.3733450
  56.1930580  56.1553690   6.4939270  42.1097830  51.9296770   6.4552410
  42.1116270  52.4469160   5.6498310  41.2802140  51.4526950   6.4322340
  43.3600680  61.5691950   4.6325910  43.0270060  62.1960870   5.2746980
  43.5367360  62.0953830   3.8527580  51.8734590  55.3837030   2.1002250
  51.1690160  55.6721920   2.6805360  52.2346750  56.1937140   1.7401810
  41.7913160  53.6406730   4.4622860  42.1329970  54.4848780   4.1676730
  40.8528970  53.7890470   4.5788200  42.5719780  63.5372750   6.4475090
  43.1893780  64.2123830   6.1659540  41.7112900  63.9460730   6.3562590
  53.4897370  65.0012160   4.3629730  52.8060890  65.6711270   4.3546400
  54.0291660  65.1992810   3.5974590  54.9421510  54.8291820   2.4911460
  53.9946420  54.8630800   2.6226890  55.2671500  55.6430770   2.8760820
  51.0256110  66.8456290   3.0774910  51.0383270  66.4418580   2.2097170
  50.4731330  67.6203580   2.9736340  50.4241550  61.7486130   4.4057520
  50.8410340  61.5346240   3.5710980  51.1481370  62.0058920   4.9766140
  54.3703650  60.1473350   4.4973760  53.5422280  60.2166440   4.0223890
  54.9654130  60.7327660   4.0289590  51.3345660  56.9342670   5.4428630
  50.9216840  57.7596380   5.6968620  50.6021610  56.3487710   5.2504990
  43.9360150  63.4070130   2.4686510  43.6388440  62.8015600   1.7894290
  44.8859970  63.4447440   2.3575870  42.1807070  56.4945780   4.0846340
  42.7321660  56.6041120   3.3099590  42.6950580  56.8683380   4.8001570
  52.0245760  66.9802000   6.1309610  51.5476320  67.7874190   5.9382220
  51.3407550  66.3280330   6.2835820  43.0278580  63.1451820   9.1194310
  42.1307110  63.3691790   9.3667710  43.0531450  63.2686760   8.1705710
  41.8549800  60.0165140   7.6951680  41.7157570  60.8887940   8.0639080
  40.9731160  59.6737950   7.5499620  43.6530150  65.9586840   9.9036830
  43.6245580  66.3629790   9.0365260  43.4895120  65.0297200   9.7408430
  55.6044970  66.7413940  11.2001000  56.0804690  67.2196830  11.8790080
  56.2252130  66.6731430  10.4746500  37.8068450  61.7862690   3.6122590
  37.8848870  61.9211460   2.6678310  38.4210130  61.0778580   3.8050710
  55.0078220  63.9326790   8.3601010  55.1341280  63.6938670   7.4418190
  55.0499600  63.1011330   8.8323090  48.8694960  67.6354790   6.9295820
  49.3839630  67.5462800   7.7318250  48.0264040  67.9814490   7.2223730
  54.8602230  55.9859250   9.3250750  54.2446500  56.4938920   8.7966210
  54.5398650  55.0857580   9.2676690  37.8627970  62.8276860   6.1517050
  38.0259010  62.3582220   5.3336420  38.3280420  62.3200420   6.8165890
  46.9216550  54.8251140   6.7912940  46.4595920  55.0334160   7.6032880
  46.5194660  54.0110490   6.4883610  51.9221060  56.0460090   7.9209600
  51.0714650  55.7465840   8.2418670  51.7622850  56.2902100   7.0093420
  49.0170770  57.5461840  10.0208390  49.3424180  56.7125590   9.6810620
  49.8051100  58.0690360  10.1686720  44.6722640  52.5029950   3.0467220
  44.9694970  53.4092780   2.9659240  45.2208200  52.0148730   2.4326790
  44.8660170  57.9801770   9.5819140  44.7703770  57.0396500   9.4319540
  45.7092150  58.2016840   9.1867210  39.9970710  54.3915440   7.7352920
  39.6034100  55.2390650   7.9425700  39.3089110  53.7541810   7.9261560
  46.5715760  54.4750410  10.8049660  45.8814080  54.2822610  11.4395750
  47.3148060  54.7585050  11.3373960  37.2987760  52.3143900   1.7683000
  37.0100810  52.8846760   2.4807980  38.0433520  51.8348350   2.1314230
  48.8478730  58.3148850   3.6403580  48.1159850  58.8235660   3.9893680
  48.4503070  57.4978830   3.3392360  49.3104640  53.7682530   3.0526520
  49.3277380  54.2191180   3.8968370  49.0620220  52.8688170   3.2659960
  52.7375390  51.1814710   8.8912900  53.0621160  50.4504370   9.4170880
  52.7731900  50.8628350   7.9893890  39.4366950  62.2028290   8.3112860
  39.0521740  61.5621960   8.9095820  39.7479140  62.9064410   8.8807590
  45.5864090  59.0504830   3.7921480  45.9534220  58.5763400   4.5382820
  45.3969150  59.9246400   4.1329820  43.3763460  58.0913470   6.1105690
  43.0720530  58.9705450   6.3356050  44.3309920  58.1513260   6.1463130
  52.6633230  61.2939820   2.4998930  53.3832350  61.7895110   2.1095040
  52.4615050  60.6157710   1.8552800  48.0452030  61.3648880   8.3867930
  47.9789340  60.4444550   8.1325520  47.4157170  61.4624320   9.1012570
  39.4327190  58.9316210   7.2577050  39.0742130  59.5970060   7.8450390
  39.1381750  58.0999760   7.6289670  42.6340310  59.3900450  10.1416600
  42.3340450  59.5357630   9.2444420  43.4051550  58.8305740  10.0489990
  47.9768760  64.1869450   8.1371730  47.9913300  63.2550410   7.9190640
  47.2693860  64.2729210   8.7761500  54.1879970  60.8276790   7.4840310
  53.4628160  61.4205570   7.2869700  54.7155430  60.8200330   6.6853680
  47.4102660  65.8287020   5.2312230  48.0544880  66.0346400   5.9085650
  47.7732100  65.0675420   4.7783080  48.6834740  63.8319370   3.9489680
  49.3256970  63.1312530   4.0621850  49.2084090  64.6117810   3.7686570
  50.4572360  64.6314270   7.1525740  50.7928600  65.2180960   7.8303660
  49.5372700  64.5006980   7.3823530  38.0075760  52.4209450   7.9349150
  37.2934280  52.6206370   8.5401760  38.4270800  51.6449020   8.3063950
  38.2948350  66.4089710   8.9215680  38.4039470  65.4684450   8.7811070
  37.6428910  66.6744460   8.2729410  46.2860940  64.6805600  10.3213800
  45.9657810  63.9614840  10.8659490  45.6119300  65.3560670  10.3949860
  49.5014540  54.9131760   5.6850600  49.8695360  54.0926970   6.0130170
  48.6412740  54.9733650   6.1006250  46.4616530  57.5671350   5.9088570
  46.9601780  58.0417170   6.5740420  46.6039480  56.6434870   6.1158600
  53.6683390  53.7839310   6.7516960  53.1656990  54.5244710   7.0910770
  54.4840050  54.1723310   6.4353750  53.9630980  66.1981340   1.8732580
  54.0878400  67.0212510   2.3456390  54.8296540  65.9872070   1.5256730
  40.4406790  67.4758620  10.7335290  41.2419520  67.7970670  11.1470690
  39.9258610  67.1154200  11.4555200  49.2771420  63.5838490  10.6810700
  48.6709580  63.6070090   9.9406450  48.9725530  62.8521530  11.2177950
  50.7071790  67.3118780   9.2920110  51.6593540  67.2276800   9.2420350
  50.5600010  67.9760490   9.9653900  38.1604600  59.9632080   9.6771340
  38.6643620  59.3839360  10.2487570  37.4212020  60.2472310  10.2147710
  45.2142540  61.3703070   9.2106860  44.4488210  61.9388070   9.1261530
  45.3958500  61.0779280   8.3175090  52.3565890  63.1008400   9.7681880
  53.0975360  63.4384160   9.2649340  51.5938570  63.2700460   9.2151650
  40.1927680  58.1061670  10.5721410  40.2333020  57.8075540  11.4806640
  41.0473180  58.5069280  10.4128930  42.1333490  56.6853770   8.5395900
  41.6029950  56.1944720   7.9119240  42.8021560  57.1137970   8.0053830
  51.0311550  61.1523230   8.3037090  51.4452570  61.3068310   9.1527510
  50.0962550  61.2778450   8.4662870  51.5033720  58.4919390  10.3076240
  52.0854490  57.7371710  10.2196720  51.6795490  59.0226830   9.5307720
  42.6205790  53.6516140   8.6193190  42.5262660  53.0336890   7.8944060
  42.0403180  54.3782430   8.3923100  45.3867230  52.2089380   5.6520580
  44.9384530  52.2313640   4.8066130  44.7532430  51.8108400   6.2490880
  45.7926780  61.1043710   6.2733020  46.2114890  61.9476440   6.1009260
  44.8735410  61.2415750   6.0439800  48.1290680  58.8359890   7.6570860
  48.2486890  58.2401030   8.3965700  48.9884680  58.8729580   7.2372160
  50.4678580  59.3897080   6.2333370  49.9413800  59.9139700   5.6298510
  50.8109920  60.0224470   6.8643100  43.6434200  67.4096720   7.3890750
  43.1055290  68.1342780   7.0699450  43.8968160  66.9327060   6.5988090
  44.8959450  55.3781240   8.9146680  45.4859140  55.0697090   9.6024500
  44.0779690  54.9060990   9.0706580  49.7152880  54.9947050   9.1479700
  49.0268400  54.3328590   9.0829690  50.4358900  54.5485320   9.5928160
  46.4996410  68.6447930   7.6477400  46.4255110  69.5483070   7.9549770
  45.5975250  68.3259830   7.6199470  38.3913910  66.8393110   3.6892650
  37.9544900  67.0193910   4.5216800  38.9591590  67.5967730   3.5474370
  54.0276090  66.3410110   7.9769960  53.4278080  66.4002670   7.2333880
  54.1569990  65.4015090   8.1066810  52.7127730  63.0662090   6.0746120
  51.8987570  63.4959250   6.3371910  53.1201930  63.6780500   5.4615170
  39.2614270  59.7365910   4.5884870  39.6287310  59.6493310   5.4680890
  38.6925090  58.9732460   4.4891730  54.0618130  58.2050290   7.6015340
  53.8304220  57.9763040   6.7013290  54.3222680  59.1249840   7.5560230
  38.8130270  56.6475000   8.4943290  37.9186320  56.6141760   8.8337000
  39.3527820  56.8461790   9.2594540  52.5006200  53.4306720  10.3795040
  53.3776380  53.4390120  10.7629040  52.5127040  52.6937560   9.7687390
  54.1259190  57.3676130   4.7902610  53.1761900  57.3339670   4.9047600
  54.3072200  58.2776240   4.5552380  39.3169980  50.9223330   2.8426510
  39.9646170  50.3720710   2.4021670  39.7371820  51.1766480   3.6642320
  53.2122320  51.1164690   6.1996150  53.8494540  51.7298830   6.5655340
  53.3597210  51.1525350   5.2545380  39.0701980  51.0779000   5.5851830
  38.7216800  51.5342820   6.3510010  38.7389680  50.1836130   5.6674260
  40.6766350  64.2498600   9.7505020  40.6335980  63.8791510  10.6319480
  40.8077360  65.1876170   9.8906840  44.3772380  65.8058190   5.3514740
  44.1363740  66.0732750   4.4645260  45.3175020  65.9763920   5.4065600
  46.5826800  52.2690880   9.1071250  46.5215690  52.8612710   9.8566660
  47.5227180  52.1616840   8.9621510  49.2201360  51.9260940   8.7463540
  49.8341770  52.2440230   8.0844620  49.7650920  51.4409530   9.3659400
  55.6376540  67.8252570   6.1525380  55.1434820  68.2221440   5.4352510
  55.0289830  67.2001780   6.5462660  39.7422620  50.6055200   8.8602600
  40.2905610  50.4243250   8.0968710  39.8077930  49.8149310   9.3958910
  40.5154380  67.1960850   6.8702800  39.9214700  67.0645550   7.6092840
  40.5078220  66.3598990   6.4044900  49.9609400  50.4893080   5.0732830
  49.0869240  50.8228190   4.8705760  49.8520150  50.0166260   5.8984700
  50.8681380  52.6963950   6.4574550  50.5394740  51.8815710   6.0776280
  51.8163680  52.6533760   6.3340240  53.3215990  68.4675990   3.4312120
  52.8618960  69.2191800   3.0570140  52.6928450  67.7482460   3.3726920
  40.1466610  64.5619230   5.8210840  39.4200670  63.9424520   5.7536790
  40.2075760  64.9559840   4.9508920  43.7511710  66.7764230   2.6060250
  44.2676730  66.1651590   2.0808510  44.4009090  67.2793010   3.0971260
  46.4907210  67.6672720   3.4329230  46.7785020  67.4127020   2.5562240
  47.0030430  67.1150080   4.0234800  47.7084220  51.4062920   4.0125740
  46.9256010  51.8808420   4.2922500  47.4147150  50.5017750   3.9038920
  46.5579570  68.5888820  10.7997430  47.4846880  68.3533090  10.8433390
  46.5430000  69.4160820  10.3183460  43.7443180  51.2533570  10.5639310
  43.4627450  51.7567170   9.8000130  44.1262880  50.4555320  10.1981440
  50.3458640  50.6687150  11.1419780  50.2324090  50.9881760  12.0371300
  51.1628380  51.0699660  10.8457060  53.1257130  67.8158680  10.6238470
  53.9182450  67.3207910  10.4164430  53.4190280  68.4948820  11.2314080
  49.2516790  39.9136130  75.3771970  49.1710840  38.9990740  75.1063680
  48.8381210  40.4103200  74.6711680  51.4042260  46.0975340  76.0380370
  50.9423790  45.3262580  76.3667540  52.2167810  46.1241410  76.5432820
  39.8092610  36.9636850  71.9199390  38.9209310  37.3052820  71.8179270
  40.0933800  36.7637170  71.0280220  47.6305570  48.3833350  75.6584360
  47.0117010  48.8390850  75.0878800  48.4857350  48.5384810  75.2574060
  41.9854000  35.5468350  72.9537770  42.0920750  36.4472080  73.2606530
  41.0746360  35.4986320  72.6632420  51.6373110  34.6693160  74.4248670
  52.4582730  34.1789730  74.4674150  51.6707190  35.2590820  75.1780510
  48.4968920  43.2672590  73.0516270  47.8786190  43.7322040  72.4878990
  49.0092170  43.9600070  73.4685780  37.8652120  43.9529120  70.4255900
  37.4880100  44.4416220  69.6940800  38.1225190  44.6254400  71.0562430
  45.4741050  32.3545510  75.8841410  45.7816030  31.7992400  75.1676910
  44.5441750  32.4889970  75.7014400  52.3201530  44.7929020  73.2639040
  52.2097860  43.8503350  73.3888460  52.3169780  45.1544660  74.1501800
  47.8621810  40.4194340  72.6201530  46.9351090  40.3531720  72.8490000
  48.0146630  41.3574470  72.5056770  47.8490890  36.6911340  69.6168690
  46.9094560  36.8525300  69.7021150  48.1674150  37.4097020  69.0704680
  51.8919100  41.9814640  73.1236780  51.2731520  41.6434190  72.4763080
  51.8743550  41.3374400  73.8315970  43.4678450  40.9459080  75.4021260
  43.0635450  40.2336330  74.9067160  43.5541570  40.6012320  76.2909300
  50.0683800  41.2201450  70.1309530  50.5077080  40.3823880  69.9847350
  50.7812220  41.8530850  70.2173670  48.1779180  46.1597520  74.0990770
  48.6175090  46.9021850  73.6846160  48.1166070  46.4024090  75.0229730
  53.6500940  32.4744260  68.4450570  53.3373600  32.5671090  69.3449640
  54.4113410  33.0525290  68.3948000  40.1683080  39.8404060  72.9027910
  40.0480680  40.5666150  72.2909180  39.8583970  39.0706970  72.4255820
  39.0516080  44.7119390  75.1202730  38.6444160  44.8533980  74.2656330
  39.9429090  44.4279550  74.9173940  50.8449360  49.1466640  71.4553780
  50.6850500  48.8569580  72.3535610  50.6796070  48.3706770  70.9199010
  43.3237740  48.9265170  73.2325400  43.1480220  48.0100710  73.0193200
  42.4693480  49.2852460  73.4723200  50.5475490  46.6554200  70.0151780
  49.8540650  46.6531490  69.3554060  51.2898350  46.2313520  69.5845950
  50.1125420  48.2816910  74.0900270  50.5682370  47.5006290  74.4038890
  50.4517940  48.9923730  74.6341450  42.6346740  33.1839130  76.2851580
  42.1914890  33.9648670  75.9536100  43.1931730  33.5069020  76.9922520
  45.7505560  32.8049830  71.1657410  45.1259740  32.8009700  71.8910720
  45.6635680  31.9380790  70.7693380  42.4260960  38.3072700  74.0132830
  42.2001880  38.0909870  74.9179450  41.6453490  38.7401160  73.6678800
  49.6558720  38.3136070  72.6123480  49.0567610  39.0371870  72.4287100
  50.2038330  38.2512850  71.8299930  48.2623590  36.9499610  74.6426760
  48.6553160  37.2671810  73.8295450  48.6240440  36.0711490  74.7571280
  37.4857990  37.4820530  68.0759680  37.4032660  38.4251290  68.2174670
  37.1341050  37.3395440  67.1972030  45.2856120  36.2159560  77.1430030
  45.2892180  35.7749510  76.2934570  46.1807240  36.5376890  77.2501850
  41.1358500  36.0986050  76.1024240  40.7958550  36.5761280  76.8591290
  40.3735820  35.6451170  75.7425340  45.3476270  37.2171640  70.1336790
  45.4689090  37.1758120  71.0822610  44.9624780  38.0795790  69.9783520
  44.3597770  39.5272780  69.5320090  43.7914670  39.0791030  68.9056000
  45.0686770  39.8865560  68.9985240  38.4504580  35.0205030  75.0188910
  38.1651500  34.6560700  75.8567530  38.3883440  34.2885490  74.4052050
  41.9045250  43.5230970  71.8046500  41.1307510  42.9828590  71.6445220
  42.6339880  43.0037580  71.4664260  48.1243170  33.9134290  71.7402280
  47.3107780  33.4147460  71.6647590  47.9305120  34.7532540  71.3238630
  50.8391560  38.2853940  70.0364440  51.7271180  38.5971170  69.8615780
  50.8096650  37.4126190  69.6445020  41.9482650  43.1911350  75.4425310
  42.4661320  42.3879610  75.3882200  41.4966670  43.1290490  76.2842140
  46.8352150  44.4577630  70.7152610  47.1767850  45.2019860  70.2195930
  46.0064860  44.7708750  71.0777440  53.1105830  39.5965780  69.5044300
  53.0269550  40.0280000  68.6540740  53.8300020  40.0564130  69.9371120
  54.1393080  46.4508040  72.2326430  53.4969240  45.7963660  72.5070150
  53.7523740  46.8563130  71.4567100  49.7179560  43.7793470  76.0798120
  50.0703380  43.1821600  75.4199490  48.8341890  43.4537700  76.2506370
  45.8042840  44.5391160  73.4868530  46.4913970  45.0860370  73.8676120
  45.0175260  45.0831890  73.5218140  37.9435240  40.1563980  68.9785610
  38.8130090  40.4388780  69.2621530  37.4525560  40.9699850  68.8634420
  45.1070050  41.5437190  73.0993890  45.5632830  42.3542440  73.3254080
  44.7558260  41.2260330  73.9312380  41.0081830  31.8874840  73.5716410
  40.8796460  31.8792740  74.5201330  40.1843850  32.2257930  73.2207420
  52.5290460  45.3424500  68.7702780  52.3028040  44.6254940  69.3627420
  52.1386660  45.0936940  67.9324530  38.3106490  49.3691360  69.5447240
  38.6704130  49.9680700  68.8904510  38.1698830  49.9151250  70.3182270
  52.1106710  43.2596440  70.4316940  51.8228410  43.7209130  71.2194820
  52.9058880  42.7994210  70.7001160  44.3275110  46.7522560  70.3620910
  44.3185210  47.4852250  69.7465420  43.4073470  46.5054140  70.4547870
  39.9281750  41.9737450  71.1067670  39.3209700  42.7136350  71.1162970
  40.4031100  42.0636810  70.2805870  52.8676570  35.0945210  71.5912120
  52.2389730  35.1990880  70.8770350  52.3728490  35.3141990  72.3806000
  47.3134710  46.8150800  69.0246100  47.4146690  46.6114790  68.0948080
  46.4136450  46.5609080  69.2293880  44.8360600  37.3731160  73.0070000
  44.1276750  37.8417500  73.4483610  45.1205080  36.7153170  73.6415190
  48.8676030  34.0981820  74.4465790  48.7443810  34.1167950  73.4975300
  49.8160590  34.1460760  74.5664190  45.9552820  49.3337120  73.7193770
  46.2094320  49.2958510  72.7973140  45.0065300  49.2070450  73.7122020
  43.0395620  35.6816240  70.3820710  43.8886150  36.1186390  70.3160900
  42.6726890  35.9936500  71.2092770  51.9605400  40.2529000  75.2952280
  51.0195540  40.2679230  75.4699970  52.2749470  39.4664960  75.7412580
  41.9387040  41.9348600  68.8556240  42.7050310  41.8229960  69.4181670
  42.0161730  41.2386570  68.2033010  40.6333800  39.3673670  69.5389130
  40.7137390  38.4201180  69.6506530  41.5253550  39.6980550  69.6449790
  41.4348510  49.5169060  76.6423670  42.1710990  48.9684520  76.9132240
  41.8189430  50.3825070  76.5029660  38.3193990  45.5842630  72.5165180
  37.3933770  45.8263770  72.5070590  38.7850420  46.4116890  72.3949930
  44.5450820  48.6899370  68.4649240  45.3379430  48.9788200  68.0131030
  44.0255170  48.2591540  67.7861720  53.5980990  47.9169500  69.8885980
  53.3122500  47.5034640  69.0740160  53.4000540  48.8457210  69.7686500
  45.0628220  43.9102780  68.3291590  44.9578860  43.2955130  69.0552970
  44.8952440  43.3868670  67.5454600  48.3030950  42.9722810  68.9333580
  47.7541050  43.4192110  69.5776320  48.9250210  42.4672060  69.4571250
  43.9706070  41.9313730  70.8298880  44.3922490  41.7653600  71.6730270
  44.0956910  41.1213960  70.3354020  46.4833710  40.9551340  68.0775980
  47.0039370  40.2400360  67.7117130  47.1302110  41.5937210  68.3776490
  42.8664970  38.0046960  67.7757040  42.6654030  37.1414320  68.1370380
  42.6957020  37.9180320  66.8378640  50.3453280  32.8155190  70.3043920
  50.6255570  31.9723090  70.6603340  49.5719010  33.0478300  70.8182670
  41.6647770  35.1047580  67.7634920  41.9673670  35.1115010  66.8554070
  42.4042360  34.7545440  68.2602580  44.8832700  34.0482200  68.7491120
  44.5354700  33.3706190  68.1693570  45.0845470  33.5871710  69.5634510
  47.0481740  49.0362950  70.3677720  47.9432530  49.3747920  70.3896480
  47.0799370  48.3142360  69.7402000  40.6877900  44.4090000  68.5964720
  41.1252770  44.9519670  69.2522300  41.1725630  43.5836950  68.6061060
  37.9023700  47.1979030  76.0484980  38.2326710  46.3300090  75.8163620
  38.3314700  47.4037550  76.8789940  42.4985620  45.5288040  73.7086950
  42.1981160  45.4053010  74.6090860  42.3923110  44.6696630  73.3002680
  55.2677540  45.3084440  68.4113630  54.4370500  45.3761090  68.8820860
  55.4449370  46.1988560  68.1080490  54.7234000  42.0531920  70.9147830
  55.4852910  42.6228570  71.0207520  54.7388370  41.4859120  71.6856140
  38.2238340  40.5769850  75.1455490  37.5687180  40.3081490  74.5015190
  39.0616290  40.4674330  74.6957470  55.7293970  42.9082020  75.7589760
  56.1002800  42.1249340  75.3525730  56.3695900  43.5971120  75.5807060
  54.7753170  42.3466290  68.0720350  55.0502010  43.2545170  67.9439570
  54.5863910  42.2828820  69.0082340  51.1728780  35.3711140  69.3673980
  51.5913660  35.1842120  68.5270640  50.8664840  34.5190190  69.6776910
  54.6718510  40.2835280  73.0649780  54.2962110  39.5163210  72.6331070
  53.9421630  40.6657980  73.5524710  37.4376420  37.7868780  71.0880820
  36.5340500  38.0498980  70.9132480  37.9217040  38.0579950  70.3080780
  53.9469470  38.5092770  76.3657020  54.4706950  38.0155420  75.7347190
  54.5328890  38.6443130  77.1104590  39.9803630  36.8434320  68.9975200
  40.6895330  36.4217540  68.5122480  39.2643570  36.9109550  68.3658550
  39.6277790  32.8973650  68.0377850  40.3505920  33.4382590  68.3559070
  39.9002310  32.6237070  67.1619390  53.4369440  37.7666120  72.3049430
  53.9328560  37.5336990  73.0898310  53.2385510  36.9277960  71.8887070
  54.8656600  36.4027070  74.8387110  54.7555880  36.2483110  75.7769380
  55.6264190  35.8748010  74.5962520  55.7546870  34.2334990  68.0793250
  56.6796180  34.1016170  67.8711540  55.7322660  34.3127810  69.0329700
  55.8285360  35.0045650  70.7049960  55.0336860  34.9390770  71.2342870
  56.0328640  35.9396290  70.6935310  52.7703780  49.0437200  74.6988350
  53.3662850  48.7221770  74.0222770  53.0281930  48.5709020  75.4901620
  52.2605290  33.3342530  77.1548790  52.7013380  33.2787630  76.3070390
  51.9912880  34.2500540  77.2258970  54.1243860  32.9657770  75.1657610
  54.0632260  32.0218990  75.0188630  54.9035890  33.0737860  75.7111070
  38.4296610  49.1050130  74.1281560  38.2618650  48.4720810  74.8263450
  37.5631120  49.3109530  73.7775750  39.0524630  32.9366910  71.6313420
  39.8103990  33.0495790  71.0577450  38.5901800  33.7736110  71.5856850
  45.5938440  35.0506180  74.6215730  44.7812950  34.6763070  74.2811610
  46.0980080  34.2951260  74.9236920  50.0963420  31.7148630  75.8598800
  50.6992790  32.2868840  76.3347320  49.3556410  32.2788070  75.6372700
  53.2398020  32.1170190  71.1339080  53.4348650  33.0153640  71.4006510
  52.4527890  31.8857270  71.6272030  40.0359310  47.7983360  71.5731700
  39.5106930  48.1791390  70.8693660  39.9603890  48.4234130  72.2941410
  41.4249780  33.4630960  70.1715390  41.9542540  32.6760760  70.0423340
  42.0578100  34.1422150  70.4050920  43.6187620  33.2006100  73.2260780
  42.9890360  32.4993410  73.3930910  43.0792760  33.9610230  73.0093940
  54.7924630  49.3570900  72.8945640  54.9676820  48.6708640  72.2506560
  54.0946200  49.8817950  72.5022310  42.6352280  49.7465740  70.4480950
  43.3671100  49.4625020  69.9004840  42.8945950  49.5079020  71.3380330
  41.7967070  45.8630470  70.4527280  41.1675950  46.3315570  71.0013110
  41.9114900  45.0179690  70.8873470  49.2516790  39.9136130  56.6028480
  49.1710840  38.9990740  56.3320190  48.8381210  40.4103200  55.8968190
  47.3834830  41.6915150  58.4837750  46.6076930  41.2115590  58.7736320
  48.0347760  41.0120800  58.3093910  41.4000660  42.0034960  59.3613510
  40.5685540  41.7483670  59.7610020  42.0081640  42.0745730  60.0971430
  51.4042260  46.0975340  57.2636880  50.9423790  45.3262580  57.5924050
  52.2167810  46.1241410  57.7689330  41.3801920  46.0375050  59.5571530
  41.6829960  45.1472790  59.3781750  42.1245510  46.5945270  59.3293780
  37.7725620  39.5642500  59.0295600  38.3441730  38.7964700  59.0299240
  37.7727160  39.8631260  58.1202210  47.6305570  48.3833350  56.8840870
  47.0117010  48.8390850  56.3135310  48.4857350  48.5384810  56.4830570
  46.8243820  44.3672340  58.4907910  46.7552100  43.4262280  58.3297040
  47.5863680  44.4573750  59.0630480  39.0150490  34.9726860  60.8164530
  38.8353330  34.0752610  61.0967290  38.6130570  35.5198730  61.4911480
  47.8548990  37.1742720  58.7176840  48.2313810  36.3014600  58.6050510
  47.7568500  37.5101420  57.8267280  51.6373110  34.6693160  55.6505180
  52.4582730  34.1789730  55.6930660  51.6707190  35.2590820  56.4037020
  39.6337160  37.4687360  59.4246870  40.3147270  37.7325730  60.0434270
  39.3185210  36.6288230  59.7584880  43.8261730  38.5154720  58.5119460
  44.3339950  39.0135690  59.1524480  44.3574970  37.7389920  58.3358820
  55.9272660  36.6859910  62.2148810  55.2224830  37.0741620  61.6963920
  56.1930580  37.3810200  62.8169740  42.1097830  33.1553280  62.7782880
  42.1116270  33.6725670  61.9728780  41.2802140  32.6783460  62.7552810
  48.4968920  43.2672590  54.2772780  47.8786190  43.7322040  53.7135500
  49.0092170  43.9600070  54.6942290  43.3600680  42.7948460  60.9556380
  43.0270060  43.4217380  61.5977450  43.5367360  43.3210340  60.1758050
  51.8734590  36.6093540  58.4232720  51.1690160  36.8978430  59.0035830
  52.2346750  37.4193650  58.0632280  41.7913160  34.8663240  60.7853330
  42.1329970  35.7105290  60.4907200  40.8528970  35.0146980  60.9018670
  42.5719780  44.7629260  62.7705560  43.1893780  45.4380340  62.4890010
  41.7112900  45.1717240  62.6793060  53.4897370  46.2268670  60.6860200
  52.8060890  46.8967780  60.6776870  54.0291660  46.4249320  59.9205060
  54.9421510  36.0548330  58.8141930  53.9946420  36.0887310  58.9457360
  55.2671500  36.8687280  59.1991290  45.4741050  32.3545510  57.1097920
  45.7816030  31.7992400  56.3933420  44.5441750  32.4889970  56.9270910
  51.0256110  48.0712800  59.4005380  51.0383270  47.6675090  58.5327640
  50.4731330  48.8460090  59.2966810  52.3201530  44.7929020  54.4895550
  52.2097860  43.8503350  54.6144970  52.3169780  45.1544660  55.3758310
  50.4241550  42.9742640  60.7287990  50.8410340  42.7602750  59.8941450
  51.1481370  43.2315430  61.2996610  54.3703650  41.3729860  60.8204230
  53.5422280  41.4422950  60.3454360  54.9654130  41.9584170  60.3520060
  51.8919100  41.9814640  54.3493290  51.2731520  41.6434190  53.7019590
  51.8743550  41.3374400  55.0572480  51.3345660  38.1599180  61.7659100
  50.9216840  38.9852890  62.0199090  50.6021610  37.5744220  61.5735460
  43.4678450  40.9459080  56.6277770  43.0635450  40.2336330  56.1323670
  43.5541570  40.6012320  57.5165810  43.9360150  44.6326640  58.7916980
  43.6388440  44.0272110  58.1124760  44.8859970  44.6703950  58.6806340
  42.1807070  37.7202290  60.4076810  42.7321660  37.8297630  59.6330060
  42.6950580  38.0939890  61.1232040  52.0245760  48.2058510  62.4540080
  51.5476320  49.0130700  62.2612690  51.3407550  47.5536840  62.6066290
  43.0278580  44.3708330  65.4424780  42.1307110  44.5948300  65.6898180
  43.0531450  44.4943270  64.4936180  41.8549800  41.2421650  64.0182150
  41.7157570  42.1144450  64.3869550  40.9731160  40.8994460  63.8730090
  48.1779180  46.1597520  55.3247280  48.6175090  46.9021850  54.9102670
  48.1166070  46.4024090  56.2486240  43.6530150  47.1843350  66.2267300
  43.6245580  47.5886300  65.3595730  43.4895120  46.2553710  66.0638900
  55.6044970  47.9670450  67.5231470  56.0804690  48.4453340  68.2020550
  56.2252130  47.8987940  66.7976970  37.8068450  43.0119200  59.9353060
  37.8848870  43.1467970  58.9908780  38.4210130  42.3035090  60.1281180
  39.0516080  44.7119390  56.3459240  38.6444160  44.8533980  55.4912840
  39.9429090  44.4279550  56.1430450  55.0078220  45.1583300  64.6831480
  55.1341280  44.9195180  63.7648660  55.0499600  44.3267840  65.1553560
  48.8694960  48.8611300  63.2526290  49.3839630  48.7719310  64.0548720
  48.0264040  49.2071000  63.5454200  50.1125420  48.2816910  55.3156780
  50.5682370  47.5006290  55.6295400  50.4517940  48.9923730  55.8597960
  54.8602230  37.2115760  65.6481220  54.2446500  37.7195430  65.1196680
  54.5398650  36.3114090  65.5907160  37.8627970  44.0533370  62.4747520
  38.0259010  43.5838730  61.6566890  38.3280420  43.5456930  63.1396360
  42.6346740  33.1839130  57.5108090  42.1914890  33.9648670  57.1792610
  43.1931730  33.5069020  58.2179030  46.9216550  36.0507650  63.1143410
  46.4595920  36.2590670  63.9263350  46.5194660  35.2367000  62.8114080
  51.9221060  37.2716600  64.2440070  51.0714650  36.9722350  64.5649140
  51.7622850  37.5158610  63.3323890  49.0170770  38.7718350  66.3438860
  49.3424180  37.9382100  66.0041090  49.8051100  39.2946870  66.4917190
  44.6722640  33.7286460  59.3697690  44.9694970  34.6349290  59.2889710
  45.2208200  33.2405240  58.7557260  42.4260960  38.3072700  55.2389340
  42.2001880  38.0909870  56.1435960  41.6453490  38.7401160  54.8935310
  44.8660170  39.2058280  65.9049610  44.7703770  38.2653010  65.7550010
  45.7092150  39.4273350  65.5097680  48.2623590  36.9499610  55.8683270
  48.6553160  37.2671810  55.0551960  48.6240440  36.0711490  55.9827790
  39.9970710  35.6171950  64.0583390  39.6034100  36.4647160  64.2656170
  39.3089110  34.9798320  64.2492030  46.5715760  35.7006920  67.1280130
  45.8814080  35.5079120  67.7626220  47.3148060  35.9841560  67.6604430
  37.2987760  33.5400410  58.0913470  37.0100810  34.1103270  58.8038450
  38.0433520  33.0604860  58.4544700  48.8478730  39.5405360  59.9634050
  48.1159850  40.0492170  60.3124150  48.4503070  38.7235340  59.6622830
  45.2856120  36.2159560  58.3686540  45.2892180  35.7749510  57.5191080
  46.1807240  36.5376890  58.4758360  41.1358500  36.0986050  57.3280750
  40.7958550  36.5761280  58.0847800  40.3735820  35.6451170  56.9681850
  49.3104640  34.9939040  59.3756990  49.3277380  35.4447690  60.2198840
  49.0620220  34.0944680  59.5890430  52.7375390  32.4071220  65.2143370
  53.0621160  31.6760880  65.7401350  52.7731900  32.0884860  64.3124360
  39.4366950  43.4284800  64.6343330  39.0521740  42.7878470  65.2326290
  39.7479140  44.1320920  65.2038060  45.5864090  40.2761340  60.1151950
  45.9534220  39.8019910  60.8613290  45.3969150  41.1502910  60.4560290
  38.4504580  35.0205030  56.2445420  38.1651500  34.6560700  57.0824040
  38.3883440  34.2885490  55.6308560  43.3763460  39.3169980  62.4336160
  43.0720530  40.1961960  62.6586520  44.3309920  39.3769770  62.4693600
  52.6633230  42.5196330  58.8229400  53.3832350  43.0151620  58.4325510
  52.4615050  41.8414220  58.1783270  48.0452030  42.5905390  64.7098400
  47.9789340  41.6701060  64.4555990  47.4157170  42.6880830  65.4243040
  41.9482650  43.1911350  56.6681820  42.4661320  42.3879610  56.6138710
  41.4966670  43.1290490  57.5098650  39.4327190  40.1572720  63.5807520
  39.0742130  40.8226570  64.1680860  39.1381750  39.3256270  63.9520140
  42.6340310  40.6156960  66.4647070  42.3340450  40.7614140  65.5674890
  43.4051550  40.0562250  66.3720460  47.9768760  45.4125960  64.4602200
  47.9913300  44.4806920  64.2421110  47.2693860  45.4985720  65.0991970
  53.1105830  39.5965780  50.7300810  53.0269550  40.0280000  49.8797250
  53.8300020  40.0564130  51.1627630  54.1879970  42.0533300  63.8070780
  53.4628160  42.6462080  63.6100170  54.7155430  42.0456840  63.0084150
  54.1393080  46.4508040  53.4582940  53.4969240  45.7963660  53.7326660
  53.7523740  46.8563130  52.6823610  49.7179560  43.7793470  57.3054630
  50.0703380  43.1821600  56.6456000  48.8341890  43.4537700  57.4762880
  47.4102660  47.0543530  61.5542700  48.0544880  47.2602910  62.2316120
  47.7732100  46.2931930  61.1013550  41.0081830  31.8874840  54.7972920
  40.8796460  31.8792740  55.7457840  40.1843850  32.2257930  54.4463930
  48.6834740  45.0575880  60.2720150  49.3256970  44.3569040  60.3852320
  49.2084090  45.8374320  60.0917040  50.4572360  45.8570780  63.4756210
  50.7928600  46.4437470  64.1534130  49.5372700  45.7263490  63.7054000
  38.0075760  33.6465960  64.2579620  37.2934280  33.8462880  64.8632230
  38.4270800  32.8705530  64.6294420  52.1106710  43.2596440  51.6573450
  51.8228410  43.7209130  52.4451330  52.9058880  42.7994210  51.9257670
  38.2948350  47.6346220  65.2446150  38.4039470  46.6940960  65.1041540
  37.6428910  47.9000970  64.5959880  46.2860940  45.9062110  66.6444270
  45.9657810  45.1871350  67.1889960  45.6119300  46.5817180  66.7180330
  49.5014540  36.1388270  62.0081070  49.8695360  35.3183480  62.3360640
  48.6412740  36.1990160  62.4236720  46.4616530  38.7927860  62.2319040
  46.9601780  39.2673680  62.8970890  46.6039480  37.8691380  62.4389070
  48.8676030  34.0981820  55.6722300  48.7443810  34.1167950  54.7231810
  49.8160590  34.1460760  55.7920700  53.6683390  35.0095820  63.0747430
  53.1656990  35.7501220  63.4141240  54.4840050  35.3979820  62.7584220
  51.9605400  40.2529000  56.5208790  51.0195540  40.2679230  56.6956480
  52.2749470  39.4664960  56.9669090  53.9630980  47.4237850  58.1963050
  54.0878400  48.2469020  58.6686860  54.8296540  47.2128580  57.8487200
  41.4348510  49.5169060  57.8680180  42.1710990  48.9684520  58.1388750
  41.8189430  50.3825070  57.7286170  38.3193990  45.5842630  53.7421690
  37.3933770  45.8263770  53.7327100  38.7850420  46.4116890  53.6206440
  40.4406790  48.7015130  67.0565760  41.2419520  49.0227180  67.4701160
  39.9258610  48.3410710  67.7785670  49.2771420  44.8095000  67.0041170
  48.6709580  44.8326600  66.2636920  48.9725530  44.0778040  67.5408420
  50.7071790  48.5375290  65.6150580  51.6593540  48.4533310  65.5650820
  50.5600010  49.2017000  66.2884370  38.1604600  41.1888590  66.0001810
  38.6643620  40.6095870  66.5718040  37.4212020  41.4728820  66.5378180
  45.2142540  42.5959580  65.5337330  44.4488210  43.1644580  65.4492000
  45.3958500  42.3035790  64.6405560  52.3565890  44.3264910  66.0912350
  53.0975360  44.6640670  65.5879810  51.5938570  44.4956970  65.5382120
  40.1927680  39.3318180  66.8951880  40.2333020  39.0332050  67.8037110
  41.0473180  39.7325790  66.7359400  42.1333490  37.9110280  64.8626370
  41.6029950  37.4201230  64.2349710  42.8021560  38.3394480  64.3284300
  51.0311550  42.3779740  64.6267560  51.4452570  42.5324820  65.4757980
  50.0962550  42.5034960  64.7893340  51.5033720  39.7175900  66.6306710
  52.0854490  38.9628220  66.5427190  51.6795490  40.2483340  65.8538190
  42.6205790  34.8772650  64.9423660  42.5262660  34.2593400  64.2174530
  42.0403180  35.6038940  64.7153570  45.3867230  33.4345890  61.9751050
  44.9384530  33.4570150  61.1296600  44.7532430  33.0364910  62.5721350
  45.7926780  42.3300220  62.5963490  46.2114890  43.1732950  62.4239730
  44.8735410  42.4672260  62.3670270  48.1290680  40.0616400  63.9801330
  48.2486890  39.4657540  64.7196170  48.9884680  40.0986090  63.5602630
  50.4678580  40.6153590  62.5563840  49.9413800  41.1396210  61.9528980
  50.8109920  41.2480980  63.1873570  43.6434200  48.6353230  63.7121220
  43.1055290  49.3599290  63.3929920  43.8968160  48.1583570  62.9218560
  44.8959450  36.6037750  65.2377150  45.4859140  36.2953600  65.9254970
  44.0779690  36.1317500  65.3937050  49.7152880  36.2203560  65.4710170
  49.0268400  35.5585100  65.4060160  50.4358900  35.7741830  65.9158630
  46.4996410  49.8704440  63.9707870  46.4255110  50.7739580  64.2780240
  45.5975250  49.5516340  63.9429940  37.9023700  47.1979030  57.2741490
  38.2326710  46.3300090  57.0420130  38.3314700  47.4037550  58.1046450
  42.4985620  45.5288040  54.9343460  42.1981160  45.4053010  55.8347370
  42.3923110  44.6696630  54.5259190  38.3913910  48.0649620  60.0123120
  37.9544900  48.2450420  60.8447270  38.9591590  48.8224240  59.8704840
  54.0276090  47.5666620  64.3000430  53.4278080  47.6259180  63.5564350
  54.1569990  46.6271600  64.4297280  55.2677540  45.3084440  49.6370140
  54.4370500  45.3761090  50.1077370  55.4449370  46.1988560  49.3337000
  54.7234000  42.0531920  52.1404340  55.4852910  42.6228570  52.2464030
  54.7388370  41.4859120  52.9112650  38.2238340  40.5769850  56.3712000
  37.5687180  40.3081490  55.7271700  39.0616290  40.4674330  55.9213980
  55.7293970  42.9082020  56.9846270  56.1002800  42.1249340  56.5782240
  56.3695900  43.5971120  56.8063570  52.7127730  44.2918600  62.3976590
  51.8987570  44.7215760  62.6602380  53.1201930  44.9037010  61.7845640
  54.7753170  42.3466290  49.2976860  55.0502010  43.2545170  49.1696080
  54.5863910  42.2828820  50.2338850  54.6718510  40.2835280  54.2906290
  54.2962110  39.5163210  53.8587580  53.9421630  40.6657980  54.7781220
  39.2614270  40.9622420  60.9115340  39.6287310  40.8749820  61.7911360
  38.6925090  40.1988970  60.8122200  54.0618130  39.4306800  63.9245810
  53.8304220  39.2019550  63.0243760  54.3222680  40.3506350  63.8790700
  38.8130270  37.8731510  64.8173760  37.9186320  37.8398270  65.1567470
  39.3527820  38.0718300  65.5825010  52.5006200  34.6563230  66.7025510
  53.3776380  34.6646630  67.0859510  52.5127040  33.9194070  66.0917860
  53.9469470  38.5092770  57.5913530  54.4706950  38.0155420  56.9603700
  54.5328890  38.6443130  58.3361100  54.1259190  38.5932640  61.1133080
  53.1761900  38.5596180  61.2278070  54.3072200  39.5032750  60.8782850
  53.4369440  37.7666120  53.5305940  53.9328560  37.5336990  54.3154820
  53.2385510  36.9277960  53.1143580  39.3169980  32.1479840  59.1656980
  39.9646170  31.5977220  58.7252140  39.7371820  32.4022990  59.9872790
  54.8656600  36.4027070  56.0643620  54.7555880  36.2483110  57.0025890
  55.6264190  35.8748010  55.8219030  53.2122320  32.3421200  62.5226620
  53.8494540  32.9555340  62.8885810  53.3597210  32.3781860  61.5775850
  55.7546870  34.2334990  49.3049760  56.6796180  34.1016170  49.0968050
  55.7322660  34.3127810  50.2586210  55.8285360  35.0045650  51.9306470
  55.0336860  34.9390770  52.4599380  56.0328640  35.9396290  51.9191820
  52.7703780  49.0437200  55.9244860  53.3662850  48.7221770  55.2479280
  53.0281930  48.5709020  56.7158130  39.0701980  32.3035510  61.9082300
  38.7216800  32.7599330  62.6740480  38.7389680  31.4092640  61.9904730
  40.6766350  45.4755110  66.0735490  40.6335980  45.1048020  66.9549950
  40.8077360  46.4132680  66.2137310  44.3772380  47.0314700  61.6745210
  44.1363740  47.2989260  60.7875730  45.3175020  47.2020430  61.7296070
  46.5826800  33.4947390  65.4301720  46.5215690  34.0869220  66.1797130
  47.5227180  33.3873350  65.2851980  49.2201360  33.1517450  65.0694010
  49.8341770  33.4696740  64.4075090  49.7650920  32.6666040  65.6889870
  55.6376540  49.0509080  62.4755850  55.1434820  49.4477950  61.7582980
  55.0289830  48.4258290  62.8693130  39.7422620  31.8311710  65.1833070
  40.2905610  31.6499760  64.4199180  39.8077930  31.0405820  65.7189380
  40.5154380  48.4217360  63.1933270  39.9214700  48.2902060  63.9323310
  40.5078220  47.5855500  62.7275370  49.9609400  31.7149590  61.3963300
  49.0869240  32.0484700  61.1936230  49.8520150  31.2422770  62.2215170
  50.8681380  33.9220460  62.7805020  50.5394740  33.1072220  62.4006750
  51.8163680  33.8790270  62.6570710  53.3215990  49.6932500  59.7542590
  52.8618960  50.4448310  59.3800610  52.6928450  48.9738970  59.6957390
  40.1466610  45.7875740  62.1441310  39.4200670  45.1681030  62.0767260
  40.2075760  46.1816350  61.2739390  43.7511710  48.0020740  58.9290720
  44.2676730  47.3908100  58.4038980  44.4009090  48.5049520  59.4201730
  46.4907210  48.8929230  59.7559700  46.7785020  48.6383530  58.8792710
  47.0030430  48.3406590  60.3465270  47.7084220  32.6319430  60.3356210
  46.9256010  33.1064930  60.6152970  47.4147150  31.7274260  60.2269390
  52.2605290  33.3342530  58.3805300  52.7013380  33.2787630  57.5326900
  51.9912880  34.2500540  58.4515480  54.1243860  32.9657770  56.3914120
  54.0632260  32.0218990  56.2445140  54.9035890  33.0737860  56.9367580
  38.4296610  49.1050130  55.3538070  38.2618650  48.4720810  56.0519960
  37.5631120  49.3109530  55.0032260  45.5938440  35.0506180  55.8472240
  44.7812950  34.6763070  55.5068120  46.0980080  34.2951260  56.1493430
  50.0963420  31.7148630  57.0855310  50.6992790  32.2868840  57.5603830
  49.3556410  32.2788070  56.8629210  46.5579570  49.8145330  67.1227900
  47.4846880  49.5789600  67.1663860  46.5430000  50.6417330  66.6413930
  54.7924630  49.3570900  54.1202150  54.9676820  48.6708640  53.4763070
  54.0946200  49.8817950  53.7278820  43.7443180  32.4790080  66.8869780
  43.4627450  32.9823680  66.1230600  44.1262880  31.6811830  66.5211910
  50.3458640  31.8943660  67.4650250  50.2324090  32.2138270  68.3601770
  51.1628380  32.2956170  67.1687530  53.1257130  49.0415190  66.9468940
  53.9182450  48.5464420  66.7394900  53.4190280  49.7205330  67.5544550
  55.9272660  36.6859910  43.4405320  55.2224830  37.0741620  42.9220430
  56.1930580  37.3810200  44.0426250  51.8734590  36.6093540  39.6489230
  51.1690160  36.8978430  40.2292340  52.2346750  37.4193650  39.2888790
  54.9421510  36.0548330  40.0398440  53.9946420  36.0887310  40.1713870
  55.2671500  36.8687280  40.4247800  52.3201530  44.7929020  35.7152060
  52.2097860  43.8503350  35.8401480  52.3169780  45.1544660  36.6014820
  50.4241550  42.9742640  41.9544500  50.8410340  42.7602750  41.1197960
  51.1481370  43.2315430  42.5253120  54.3703650  41.3729860  42.0460740
  53.5422280  41.4422950  41.5710870  54.9654130  41.9584170  41.5776570
  51.8919100  41.9814640  35.5749800  51.2731520  41.6434190  34.9276100
  51.8743550  41.3374400  36.2828990  51.3345660  38.1599180  42.9915610
  50.9216840  38.9852890  43.2455600  50.6021610  37.5744220  42.7991970
  50.0683800  41.2201450  32.5822550  50.5077080  40.3823880  32.4360370
  50.7812220  41.8530850  32.6686690  53.6500940  32.4744260  30.8963590
  53.3373600  32.5671090  31.7962660  54.4113410  33.0525290  30.8461020
  55.6044970  47.9670450  48.7487980  56.0804690  48.4453340  49.4277060
  56.2252130  47.8987940  48.0233480  55.0078220  45.1583300  45.9087990
  55.1341280  44.9195180  44.9905170  55.0499600  44.3267840  46.3810070
  54.8602230  37.2115760  46.8737730  54.2446500  37.7195430  46.3453190
  54.5398650  36.3114090  46.8163670  52.6633230  42.5196330  40.0485910
  53.3832350  43.0151620  39.6582020  52.4615050  41.8414220  39.4039780
  50.8391560  38.2853940  32.4877460  51.7271180  38.5971170  32.3128800
  50.8096650  37.4126190  32.0958040  53.1105830  39.5965780  31.9557320
  53.0269550  40.0280000  31.1053760  53.8300020  40.0564130  32.3884140
  54.1879970  42.0533300  45.0327290  53.4628160  42.6462080  44.8356680
  54.7155430  42.0456840  44.2340660  54.1393080  46.4508040  34.6839450
  53.4969240  45.7963660  34.9583170  53.7523740  46.8563130  33.9080120
  49.7179560  43.7793470  38.5311140  50.0703380  43.1821600  37.8712510
  48.8341890  43.4537700  38.7019390  52.5290460  45.3424500  31.2215800
  52.3028040  44.6254940  31.8140440  52.1386660  45.0936940  30.3837550
  52.1106710  43.2596440  32.8829960  51.8228410  43.7209130  33.6707840
  52.9058880  42.7994210  33.1514180  52.8676570  35.0945210  34.0425140
  52.2389730  35.1990880  33.3283370  52.3728490  35.3141990  34.8319020
  53.6683390  35.0095820  44.3003940  53.1656990  35.7501220  44.6397750
  54.4840050  35.3979820  43.9840730  51.9605400  40.2529000  37.7465300
  51.0195540  40.2679230  37.9212990  52.2749470  39.4664960  38.1925600
  53.9630980  47.4237850  39.4219560  54.0878400  48.2469020  39.8943370
  54.8296540  47.2128580  39.0743710  53.5980990  47.9169500  32.3399000
  53.3122500  47.5034640  31.5253180  53.4000540  48.8457210  32.2199520
  52.3565890  44.3264910  47.3168860  53.0975360  44.6640670  46.8136320
  51.5938570  44.4956970  46.7638630  51.0311550  42.3779740  45.8524070
  51.4452570  42.5324820  46.7014490  50.0962550  42.5034960  46.0149850
  54.0276090  47.5666620  45.5256940  53.4278080  47.6259180  44.7820860
  54.1569990  46.6271600  45.6553790  55.2677540  45.3084440  30.8626650
  54.4370500  45.3761090  31.3333880  55.4449370  46.1988560  30.5593510
  54.7234000  42.0531920  33.3660850  55.4852910  42.6228570  33.4720540
  54.7388370  41.4859120  34.1369160  55.7293970  42.9082020  38.2102780
  56.1002800  42.1249340  37.8038750  56.3695900  43.5971120  38.0320080
  52.7127730  44.2918600  43.6233100  51.8987570  44.7215760  43.8858890
  53.1201930  44.9037010  43.0102150  54.7753170  42.3466290  30.5233370
  55.0502010  43.2545170  30.3952590  54.5863910  42.2828820  31.4595360
  51.1728780  35.3711140  31.8187000  51.5913660  35.1842120  30.9783660
  50.8664840  34.5190190  32.1289930  54.6718510  40.2835280  35.5162800
  54.2962110  39.5163210  35.0844090  53.9421630  40.6657980  36.0037730
  54.0618130  39.4306800  45.1502320  53.8304220  39.2019550  44.2500270
  54.3222680  40.3506350  45.1047210  53.9469470  38.5092770  38.8170040
  54.4706950  38.0155420  38.1860210  54.5328890  38.6443130  39.5617610
  54.1259190  38.5932640  42.3389590  53.1761900  38.5596180  42.4534580
  54.3072200  39.5032750  42.1039360  53.4369440  37.7666120  34.7562450
  53.9328560  37.5336990  35.5411330  53.2385510  36.9277960  34.3400090
  54.8656600  36.4027070  37.2900130  54.7555880  36.2483110  38.2282400
  55.6264190  35.8748010  37.0475540  55.7546870  34.2334990  30.5306270
  56.6796180  34.1016170  30.3224560  55.7322660  34.3127810  31.4842720
  55.8285360  35.0045650  33.1562980  55.0336860  34.9390770  33.6855890
  56.0328640  35.9396290  33.1448330  55.6376540  49.0509080  43.7012360
  55.1434820  49.4477950  42.9839490  55.0289830  48.4258290  44.0949640
  54.1243860  32.9657770  37.6170630  54.0632260  32.0218990  37.4701650
  54.9035890  33.0737860  38.1624090  53.2398020  32.1170190  33.5852100
  53.4348650  33.0153640  33.8519530  52.4527890  31.8857270  34.0785050
  54.7924630  49.3570900  35.3458660  54.9676820  48.6708640  34.7019580
  54.0946200  49.8817950  34.9535330  49.2516790  39.9136130  19.0541500
  49.1710840  38.9990740  18.7833210  48.8381210  40.4103200  18.3481210
  47.3834830  41.6915150  20.9350770  46.6076930  41.2115590  21.2249340
  48.0347760  41.0120800  20.7606930  41.4000660  42.0034960  21.8126530
  40.5685540  41.7483670  22.2123040  42.0081640  42.0745730  22.5484450
  51.4042260  46.0975340  19.7149900  50.9423790  45.3262580  20.0437070
  52.2167810  46.1241410  20.2202350  41.3801920  46.0375050  22.0084550
  41.6829960  45.1472790  21.8294770  42.1245510  46.5945270  21.7806800
  39.8092610  36.9636850  15.5968920  38.9209310  37.3052820  15.4948800
  40.0933800  36.7637170  14.7049750  47.6305570  48.3833350  19.3353890
  47.0117010  48.8390850  18.7648330  48.4857350  48.5384810  18.9343590
  46.8243820  44.3672340  20.9420930  46.7552100  43.4262280  20.7810060
  47.5863680  44.4573750  21.5143500  47.8548990  37.1742720  21.1689860
  48.2313810  36.3014600  21.0563530  47.7568500  37.5101420  20.2780300
  41.9854000  35.5468350  16.6307300  42.0920750  36.4472080  16.9376060
  41.0746360  35.4986320  16.3401950  51.6373110  34.6693160  18.1018200
  52.4582730  34.1789730  18.1443680  51.6707190  35.2590820  18.8550040
  43.8261730  38.5154720  20.9632480  44.3339950  39.0135690  21.6037500
  44.3574970  37.7389920  20.7871840  55.9272660  36.6859910  24.6661830
  55.2224830  37.0741620  24.1476940  56.1930580  37.3810200  25.2682760
  48.4968920  43.2672590  16.7285800  47.8786190  43.7322040  16.1648520
  49.0092170  43.9600070  17.1455310  51.8734590  36.6093540  20.8745740
  51.1690160  36.8978430  21.4548850  52.2346750  37.4193650  20.5145300
  37.8652120  43.9529120  14.1025430  37.4880100  44.4416220  13.3710330
  38.1225190  44.6254400  14.7331960  53.4897370  46.2268670  23.1373220
  52.8060890  46.8967780  23.1289890  54.0291660  46.4249320  22.3718080
  54.9421510  36.0548330  21.2654950  53.9946420  36.0887310  21.3970380
  55.2671500  36.8687280  21.6504310  45.4741050  32.3545510  19.5610940
  45.7816030  31.7992400  18.8446440  44.5441750  32.4889970  19.3783930
  51.0256110  48.0712800  21.8518400  51.0383270  47.6675090  20.9840660
  50.4731330  48.8460090  21.7479830  52.3201530  44.7929020  16.9408570
  52.2097860  43.8503350  17.0657990  52.3169780  45.1544660  17.8271330
  50.4241550  42.9742640  23.1801010  50.8410340  42.7602750  22.3454470
  51.1481370  43.2315430  23.7509630  47.8621810  40.4194340  16.2971060
  46.9351090  40.3531720  16.5259530  48.0146630  41.3574470  16.1826300
  47.8490890  36.6911340  13.2938220  46.9094560  36.8525300  13.3790680
  48.1674150  37.4097020  12.7474210  54.3703650  41.3729860  23.2717250
  53.5422280  41.4422950  22.7967380  54.9654130  41.9584170  22.8033080
  51.8919100  41.9814640  16.8006310  51.2731520  41.6434190  16.1532610
  51.8743550  41.3374400  17.5085500  51.3345660  38.1599180  24.2172120
  50.9216840  38.9852890  24.4712110  50.6021610  37.5744220  24.0248480
  43.4678450  40.9459080  19.0790790  43.0635450  40.2336330  18.5836690
  43.5541570  40.6012320  19.9678830  43.9360150  44.6326640  21.2430000
  43.6388440  44.0272110  20.5637780  44.8859970  44.6703950  21.1319360
  52.0245760  48.2058510  24.9053100  51.5476320  49.0130700  24.7125710
  51.3407550  47.5536840  25.0579310  50.0683800  41.2201450  13.8079060
  50.5077080  40.3823880  13.6616880  50.7812220  41.8530850  13.8943200
  48.1779180  46.1597520  17.7760300  48.6175090  46.9021850  17.3615690
  48.1166070  46.4024090  18.6999260  53.6500940  32.4744260  12.1220100
  53.3373600  32.5671090  13.0219170  54.4113410  33.0525290  12.0717530
  40.1683080  39.8404060  16.5797440  40.0480680  40.5666150  15.9678710
  39.8583970  39.0706970  16.1025350  55.6044970  47.9670450  29.9744490
  56.0804690  48.4453340  30.6533570  56.2252130  47.8987940  29.2489990
  39.0516080  44.7119390  18.7972260  38.6444160  44.8533980  17.9425860
  39.9429090  44.4279550  18.5943470  55.0078220  45.1583300  27.1344500
  55.1341280  44.9195180  26.2161680  55.0499600  44.3267840  27.6066580
  50.8449360  49.1466640  15.1323310  50.6850500  48.8569580  16.0305140
  50.6796070  48.3706770  14.5968540  43.3237740  48.9265170  16.9094930
  43.1480220  48.0100710  16.6962730  42.4693480  49.2852460  17.1492730
  50.5475490  46.6554200  13.6921310  49.8540650  46.6531490  13.0323590
  51.2898350  46.2313520  13.2615480  50.1125420  48.2816910  17.7669800
  50.5682370  47.5006290  18.0808420  50.4517940  48.9923730  18.3110980
  54.8602230  37.2115760  28.0994240  54.2446500  37.7195430  27.5709700
  54.5398650  36.3114090  28.0420180  42.6346740  33.1839130  19.9621110
  42.1914890  33.9648670  19.6305630  43.1931730  33.5069020  20.6692050
  51.9221060  37.2716600  26.6953090  51.0714650  36.9722350  27.0162160
  51.7622850  37.5158610  25.7836910  45.7505560  32.8049830  14.8426940
  45.1259740  32.8009700  15.5680250  45.6635680  31.9380790  14.4462910
  44.6722640  33.7286460  21.8210710  44.9694970  34.6349290  21.7402730
  45.2208200  33.2405240  21.2070280  42.4260960  38.3072700  17.6902360
  42.2001880  38.0909870  18.5948980  41.6453490  38.7401160  17.3448330
  49.6558720  38.3136070  16.2893010  49.0567610  39.0371870  16.1056630
  50.2038330  38.2512850  15.5069460  48.2623590  36.9499610  18.3196290
  48.6553160  37.2671810  17.5064980  48.6240440  36.0711490  18.4340810
  37.2987760  33.5400410  20.5426490  37.0100810  34.1103270  21.2551470
  38.0433520  33.0604860  20.9057720  37.4857990  37.4820530  11.7529210
  37.4032660  38.4251290  11.8944200  37.1341050  37.3395440  10.8741560
  48.8478730  39.5405360  22.4147070  48.1159850  40.0492170  22.7637170
  48.4503070  38.7235340  22.1135850  45.2856120  36.2159560  20.8199560
  45.2892180  35.7749510  19.9704100  46.1807240  36.5376890  20.9271380
  41.1358500  36.0986050  19.7793770  40.7958550  36.5761280  20.5360820
  40.3735820  35.6451170  19.4194870  45.3476270  37.2171640  13.8106320
  45.4689090  37.1758120  14.7592140  44.9624780  38.0795790  13.6553050
  49.3104640  34.9939040  21.8270010  49.3277380  35.4447690  22.6711860
  49.0620220  34.0944680  22.0403450  44.3597770  39.5272780  13.2089620
  43.7914670  39.0791030  12.5825530  45.0686770  39.8865560  12.6754770
  52.7375390  32.4071220  27.6656390  53.0621160  31.6760880  28.1914370
  52.7731900  32.0884860  26.7637380  45.5864090  40.2761340  22.5664970
  45.9534220  39.8019910  23.3126310  45.3969150  41.1502910  22.9073310
  38.4504580  35.0205030  18.6958440  38.1651500  34.6560700  19.5337060
  38.3883440  34.2885490  18.0821580  41.9045250  43.5230970  15.4816030
  41.1307510  42.9828590  15.3214750  42.6339880  43.0037580  15.1433790
  52.6633230  42.5196330  21.2742420  53.3832350  43.0151620  20.8838530
  52.4615050  41.8414220  20.6296290  48.1243170  33.9134290  15.4171810
  47.3107780  33.4147460  15.3417120  47.9305120  34.7532540  15.0008160
  50.8391560  38.2853940  13.7133970  51.7271180  38.5971170  13.5385310
  50.8096650  37.4126190  13.3214550  41.9482650  43.1911350  19.1194840
  42.4661320  42.3879610  19.0651730  41.4966670  43.1290490  19.9611670
  46.8352150  44.4577630  14.3922140  47.1767850  45.2019860  13.8965460
  46.0064860  44.7708750  14.7546970  53.1105830  39.5965780  13.1813830
  53.0269550  40.0280000  12.3310270  53.8300020  40.0564130  13.6140650
  54.1879970  42.0533300  26.2583800  53.4628160  42.6462080  26.0613190
  54.7155430  42.0456840  25.4597170  54.1393080  46.4508040  15.9095960
  53.4969240  45.7963660  16.1839680  53.7523740  46.8563130  15.1336630
  49.7179560  43.7793470  19.7567650  50.0703380  43.1821600  19.0969020
  48.8341890  43.4537700  19.9275900  45.8042840  44.5391160  17.1638060
  46.4913970  45.0860370  17.5445650  45.0175260  45.0831890  17.1987670
  37.9435240  40.1563980  12.6555140  38.8130090  40.4388780  12.9391060
  37.4525560  40.9699850  12.5403950  45.1070050  41.5437190  16.7763420
  45.5632830  42.3542440  17.0023610  44.7558260  41.2260330  17.6081910
  41.0081830  31.8874840  17.2485940  40.8796460  31.8792740  18.1970860
  40.1843850  32.2257930  16.8976950  48.6834740  45.0575880  22.7233170
  49.3256970  44.3569040  22.8365340  49.2084090  45.8374320  22.5430060
  52.5290460  45.3424500  12.4472310  52.3028040  44.6254940  13.0396950
  52.1386660  45.0936940  11.6094060  38.3106490  49.3691360  13.2216770
  38.6704130  49.9680700  12.5674040  38.1698830  49.9151250  13.9951800
  52.1106710  43.2596440  14.1086470  51.8228410  43.7209130  14.8964350
  52.9058880  42.7994210  14.3770690  44.3275110  46.7522560  14.0390440
  44.3185210  47.4852250  13.4234950  43.4073470  46.5054140  14.1317400
  39.9281750  41.9737450  14.7837200  39.3209700  42.7136350  14.7932500
  40.4031100  42.0636810  13.9575400  49.5014540  36.1388270  24.4594090
  49.8695360  35.3183480  24.7873660  48.6412740  36.1990160  24.8749740
  52.8676570  35.0945210  15.2681650  52.2389730  35.1990880  14.5539880
  52.3728490  35.3141990  16.0575530  47.3134710  46.8150800  12.7015630
  47.4146690  46.6114790  11.7717610  46.4136450  46.5609080  12.9063410
  44.8360600  37.3731160  16.6839530  44.1276750  37.8417500  17.1253140
  45.1205080  36.7153170  17.3184720  48.8676030  34.0981820  18.1235320
  48.7443810  34.1167950  17.1744830  49.8160590  34.1460760  18.2433720
  45.9552820  49.3337120  17.3963300  46.2094320  49.2958510  16.4742670
  45.0065300  49.2070450  17.3891550  43.0395620  35.6816240  14.0590240
  43.8886150  36.1186390  13.9930430  42.6726890  35.9936500  14.8862300
  53.6683390  35.0095820  25.5260450  53.1656990  35.7501220  25.8654260
  54.4840050  35.3979820  25.2097240  51.9605400  40.2529000  18.9721810
  51.0195540  40.2679230  19.1469500  52.2749470  39.4664960  19.4182110
  41.9387040  41.9348600  12.5325770  42.7050310  41.8229960  13.0951200
  42.0161730  41.2386570  11.8802540  40.6333800  39.3673670  13.2158660
  40.7137390  38.4201180  13.3276060  41.5253550  39.6980550  13.3219320
  53.9630980  47.4237850  20.6476070  54.0878400  48.2469020  21.1199880
  54.8296540  47.2128580  20.3000220  41.4348510  49.5169060  20.3193200
  42.1710990  48.9684520  20.5901770  41.8189430  50.3825070  20.1799190
  38.3193990  45.5842630  16.1934710  37.3933770  45.8263770  16.1840120
  38.7850420  46.4116890  16.0719460  44.5450820  48.6899370  12.1418770
  45.3379430  48.9788200  11.6900560  44.0255170  48.2591540  11.4631250
  53.5980990  47.9169500  13.5655510  53.3122500  47.5034640  12.7509690
  53.4000540  48.8457210  13.4456030  45.0628220  43.9102780  12.0061120
  44.9578860  43.2955130  12.7322500  44.8952440  43.3868670  11.2224130
  48.3030950  42.9722810  12.6103110  47.7541050  43.4192110  13.2545850
  48.9250210  42.4672060  13.1340780  52.3565890  44.3264910  28.5425370
  53.0975360  44.6640670  28.0392830  51.5938570  44.4956970  27.9895140
  43.9706070  41.9313730  14.5068410  44.3922490  41.7653600  15.3499800
  44.0956910  41.1213960  14.0123550  46.4833710  40.9551340  11.7545510
  47.0039370  40.2400360  11.3886660  47.1302110  41.5937210  12.0546020
  51.0311550  42.3779740  27.0780580  51.4452570  42.5324820  27.9271000
  50.0962550  42.5034960  27.2406360  51.5033720  39.7175900  29.0819730
  52.0854490  38.9628220  28.9940210  51.6795490  40.2483340  28.3051210
  50.4678580  40.6153590  25.0076860  49.9413800  41.1396210  24.4042000
  50.8109920  41.2480980  25.6386590  42.8664970  38.0046960  11.4526570
  42.6654030  37.1414320  11.8139910  42.6957020  37.9180320  10.5148170
  49.7152880  36.2203560  27.9223190  49.0268400  35.5585100  27.8573180
  50.4358900  35.7741830  28.3671650  50.3453280  32.8155190  13.9813450
  50.6255570  31.9723090  14.3372870  49.5719010  33.0478300  14.4952200
  41.6647770  35.1047580  11.4404450  41.9673670  35.1115010  10.5323600
  42.4042360  34.7545440  11.9372110  44.8832700  34.0482200  12.4260650
  44.5354700  33.3706190  11.8463100  45.0845470  33.5871710  13.2404040
  47.0481740  49.0362950  14.0447250  47.9432530  49.3747920  14.0666010
  47.0799370  48.3142360  13.4171530  40.6877900  44.4090000  12.2734250
  41.1252770  44.9519670  12.9291830  41.1725630  43.5836950  12.2830590
  37.9023700  47.1979030  19.7254510  38.2326710  46.3300090  19.4933150
  38.3314700  47.4037550  20.5559470  42.4985620  45.5288040  17.3856480
  42.1981160  45.4053010  18.2860390  42.3923110  44.6696630  16.9772210
  38.3913910  48.0649620  22.4636140  37.9544900  48.2450420  23.2960290
  38.9591590  48.8224240  22.3217860  54.0276090  47.5666620  26.7513450
  53.4278080  47.6259180  26.0077370  54.1569990  46.6271600  26.8810300
  55.2677540  45.3084440  12.0883160  54.4370500  45.3761090  12.5590390
  55.4449370  46.1988560  11.7850020  54.7234000  42.0531920  14.5917360
  55.4852910  42.6228570  14.6977050  54.7388370  41.4859120  15.3625670
  38.2238340  40.5769850  18.8225020  37.5687180  40.3081490  18.1784720
  39.0616290  40.4674330  18.3727000  55.7293970  42.9082020  19.4359290
  56.1002800  42.1249340  19.0295260  56.3695900  43.5971120  19.2576590
  52.7127730  44.2918600  24.8489610  51.8987570  44.7215760  25.1115400
  53.1201930  44.9037010  24.2358660  54.7753170  42.3466290  11.7489880
  55.0502010  43.2545170  11.6209100  54.5863910  42.2828820  12.6851870
  51.1728780  35.3711140  13.0443510  51.5913660  35.1842120  12.2040170
  50.8664840  34.5190190  13.3546440  54.6718510  40.2835280  16.7419310
  54.2962110  39.5163210  16.3100600  53.9421630  40.6657980  17.2294240
  54.0618130  39.4306800  26.3758830  53.8304220  39.2019550  25.4756780
  54.3222680  40.3506350  26.3303720  52.5006200  34.6563230  29.1538530
  53.3776380  34.6646630  29.5372530  52.5127040  33.9194070  28.5430880
  37.4376420  37.7868780  14.7650350  36.5340500  38.0498980  14.5902010
  37.9217040  38.0579950  13.9850310  53.9469470  38.5092770  20.0426550
  54.4706950  38.0155420  19.4116720  54.5328890  38.6443130  20.7874120
  54.1259190  38.5932640  23.5646100  53.1761900  38.5596180  23.6791090
  54.3072200  39.5032750  23.3295870  39.9803630  36.8434320  12.6744730
  40.6895330  36.4217540  12.1892010  39.2643570  36.9109550  12.0428080
  39.6277790  32.8973650  11.7147380  40.3505920  33.4382590  12.0328600
  39.9002310  32.6237070  10.8388920  53.4369440  37.7666120  15.9818960
  53.9328560  37.5336990  16.7667840  53.2385510  36.9277960  15.5656600
  39.3169980  32.1479840  21.6170000  39.9646170  31.5977220  21.1765160
  39.7371820  32.4022990  22.4385810  54.8656600  36.4027070  18.5156640
  54.7555880  36.2483110  19.4538910  55.6264190  35.8748010  18.2732050
  53.2122320  32.3421200  24.9739640  53.8494540  32.9555340  25.3398830
  53.3597210  32.3781860  24.0288870  55.7546870  34.2334990  11.7562780
  56.6796180  34.1016170  11.5481070  55.7322660  34.3127810  12.7099230
  55.8285360  35.0045650  14.3819490  55.0336860  34.9390770  14.9112400
  56.0328640  35.9396290  14.3704840  52.7703780  49.0437200  18.3757880
  53.3662850  48.7221770  17.6992300  53.0281930  48.5709020  19.1671150
  55.6376540  49.0509080  24.9268870  55.1434820  49.4477950  24.2096000
  55.0289830  48.4258290  25.3206150  49.9609400  31.7149590  23.8476320
  49.0869240  32.0484700  23.6449250  49.8520150  31.2422770  24.6728190
  50.8681380  33.9220460  25.2318040  50.5394740  33.1072220  24.8519770
  51.8163680  33.8790270  25.1083730  53.3215990  49.6932500  22.2055610
  52.8618960  50.4448310  21.8313630  52.6928450  48.9738970  22.1470410
  43.7511710  48.0020740  21.3803740  44.2676730  47.3908100  20.8552000
  44.4009090  48.5049520  21.8714750  46.4907210  48.8929230  22.2072720
  46.7785020  48.6383530  21.3305730  47.0030430  48.3406590  22.7978290
  47.7084220  32.6319430  22.7869230  46.9256010  33.1064930  23.0665990
  47.4147150  31.7274260  22.6782410  52.2605290  33.3342530  20.8318320
  52.7013380  33.2787630  19.9839920  51.9912880  34.2500540  20.9028500
  54.1243860  32.9657770  18.8427140  54.0632260  32.0218990  18.6958160
  54.9035890  33.0737860  19.3880600  38.4296610  49.1050130  17.8051090
  38.2618650  48.4720810  18.5032980  37.5631120  49.3109530  17.4545280
  39.0524630  32.9366910  15.3082950  39.8103990  33.0495790  14.7346980
  38.5901800  33.7736110  15.2626380  45.5938440  35.0506180  18.2985260
  44.7812950  34.6763070  17.9581140  46.0980080  34.2951260  18.6006450
  50.0963420  31.7148630  19.5368330  50.6992790  32.2868840  20.0116850
  49.3556410  32.2788070  19.3142230  53.2398020  32.1170190  14.8108610
  53.4348650  33.0153640  15.0776040  52.4527890  31.8857270  15.3041560
  40.0359310  47.7983360  15.2501230  39.5106930  48.1791390  14.5463190
  39.9603890  48.4234130  15.9710940  41.4249780  33.4630960  13.8484920
  41.9542540  32.6760760  13.7192870  42.0578100  34.1422150  14.0820450
  43.6187620  33.2006100  16.9030310  42.9890360  32.4993410  17.0700440
  43.0792760  33.9610230  16.6863470  54.7924630  49.3570900  16.5715170
  54.9676820  48.6708640  15.9276090  54.0946200  49.8817950  16.1791840
  42.6352280  49.7465740  14.1250480  43.3671100  49.4625020  13.5774370
  42.8945950  49.5079020  15.0149860  41.7967070  45.8630470  14.1296810
  41.1675950  46.3315570  14.6782640  41.9114900  45.0179690  14.5643000
  53.1257130  49.0415190  29.3981960  53.9182450  48.5464420  29.1907920
  53.4190280  49.7205330  30.0057570  47.3834830  41.6915150   2.1607280
  46.6076930  41.2115590   2.4505850  48.0347760  41.0120800   1.9863440
  41.4000660  42.0034960   3.0383040  40.5685540  41.7483670   3.4379550
  42.0081640  42.0745730   3.7740960  41.3801920  46.0375050   3.2341060
  41.6829960  45.1472790   3.0551280  42.1245510  46.5945270   3.0063310
  37.7725620  39.5642500   2.7065130  38.3441730  38.7964700   2.7068770
  37.7727160  39.8631260   1.7971740  46.8243820  44.3672340   2.1677440
  46.7552100  43.4262280   2.0066570  47.5863680  44.4573750   2.7400010
  39.0150490  34.9726860   4.4934060  38.8353330  34.0752610   4.7736820
  38.6130570  35.5198730   5.1681010  47.8548990  37.1742720   2.3946370
  48.2313810  36.3014600   2.2820040  47.7568500  37.5101420   1.5036810
  39.6337160  37.4687360   3.1016400  40.3147270  37.7325730   3.7203800
  39.3185210  36.6288230   3.4354410  43.8261730  38.5154720   2.1888990
  44.3339950  39.0135690   2.8294010  44.3574970  37.7389920   2.0128350
  55.9272660  36.6859910   5.8918340  55.2224830  37.0741620   5.3733450
  56.1930580  37.3810200   6.4939270  42.1097830  33.1553280   6.4552410
  42.1116270  33.6725670   5.6498310  41.2802140  32.6783460   6.4322340
  43.3600680  42.7948460   4.6325910  43.0270060  43.4217380   5.2746980
  43.5367360  43.3210340   3.8527580  51.8734590  36.6093540   2.1002250
  51.1690160  36.8978430   2.6805360  52.2346750  37.4193650   1.7401810
  41.7913160  34.8663240   4.4622860  42.1329970  35.7105290   4.1676730
  40.8528970  35.0146980   4.5788200  42.5719780  44.7629260   6.4475090
  43.1893780  45.4380340   6.1659540  41.7112900  45.1717240   6.3562590
  53.4897370  46.2268670   4.3629730  52.8060890  46.8967780   4.3546400
  54.0291660  46.4249320   3.5974590  54.9421510  36.0548330   2.4911460
  53.9946420  36.0887310   2.6226890  55.2671500  36.8687280   2.8760820
  51.0256110  48.0712800   3.0774910  51.0383270  47.6675090   2.2097170
  50.4731330  48.8460090   2.9736340  50.4241550  42.9742640   4.4057520
  50.8410340  42.7602750   3.5710980  51.1481370  43.2315430   4.9766140
  54.3703650  41.3729860   4.4973760  53.5422280  41.4422950   4.0223890
  54.9654130  41.9584170   4.0289590  51.3345660  38.1599180   5.4428630
  50.9216840  38.9852890   5.6968620  50.6021610  37.5744220   5.2504990
  43.9360150  44.6326640   2.4686510  43.6388440  44.0272110   1.7894290
  44.8859970  44.6703950   2.3575870  42.1807070  37.7202290   4.0846340
  42.7321660  37.8297630   3.3099590  42.6950580  38.0939890   4.8001570
  52.0245760  48.2058510   6.1309610  51.5476320  49.0130700   5.9382220
  51.3407550  47.5536840   6.2835820  43.0278580  44.3708330   9.1194310
  42.1307110  44.5948300   9.3667710  43.0531450  44.4943270   8.1705710
  41.8549800  41.2421650   7.6951680  41.7157570  42.1144450   8.0639080
  40.9731160  40.8994460   7.5499620  43.6530150  47.1843350   9.9036830
  43.6245580  47.5886300   9.0365260  43.4895120  46.2553710   9.7408430
  55.6044970  47.9670450  11.2001000  56.0804690  48.4453340  11.8790080
  56.2252130  47.8987940  10.4746500  37.8068450  43.0119200   3.6122590
  37.8848870  43.1467970   2.6678310  38.4210130  42.3035090   3.8050710
  55.0078220  45.1583300   8.3601010  55.1341280  44.9195180   7.4418190
  55.0499600  44.3267840   8.8323090  48.8694960  48.8611300   6.9295820
  49.3839630  48.7719310   7.7318250  48.0264040  49.2071000   7.2223730
  54.8602230  37.2115760   9.3250750  54.2446500  37.7195430   8.7966210
  54.5398650  36.3114090   9.2676690  37.8627970  44.0533370   6.1517050
  38.0259010  43.5838730   5.3336420  38.3280420  43.5456930   6.8165890
  46.9216550  36.0507650   6.7912940  46.4595920  36.2590670   7.6032880
  46.5194660  35.2367000   6.4883610  51.9221060  37.2716600   7.9209600
  51.0714650  36.9722350   8.2418670  51.7622850  37.5158610   7.0093420
  49.0170770  38.7718350  10.0208390  49.3424180  37.9382100   9.6810620
  49.8051100  39.2946870  10.1686720  44.6722640  33.7286460   3.0467220
  44.9694970  34.6349290   2.9659240  45.2208200  33.2405240   2.4326790
  44.8660170  39.2058280   9.5819140  44.7703770  38.2653010   9.4319540
  45.7092150  39.4273350   9.1867210  39.9970710  35.6171950   7.7352920
  39.6034100  36.4647160   7.9425700  39.3089110  34.9798320   7.9261560
  46.5715760  35.7006920  10.8049660  45.8814080  35.5079120  11.4395750
  47.3148060  35.9841560  11.3373960  37.2987760  33.5400410   1.7683000
  37.0100810  34.1103270   2.4807980  38.0433520  33.0604860   2.1314230
  48.8478730  39.5405360   3.6403580  48.1159850  40.0492170   3.9893680
  48.4503070  38.7235340   3.3392360  49.3104640  34.9939040   3.0526520
  49.3277380  35.4447690   3.8968370  49.0620220  34.0944680   3.2659960
  52.7375390  32.4071220   8.8912900  53.0621160  31.6760880   9.4170880
  52.7731900  32.0884860   7.9893890  39.4366950  43.4284800   8.3112860
  39.0521740  42.7878470   8.9095820  39.7479140  44.1320920   8.8807590
  45.5864090  40.2761340   3.7921480  45.9534220  39.8019910   4.5382820
  45.3969150  41.1502910   4.1329820  43.3763460  39.3169980   6.1105690
  43.0720530  40.1961960   6.3356050  44.3309920  39.3769770   6.1463130
  52.6633230  42.5196330   2.4998930  53.3832350  43.0151620   2.1095040
  52.4615050  41.8414220   1.8552800  48.0452030  42.5905390   8.3867930
  47.9789340  41.6701060   8.1325520  47.4157170  42.6880830   9.1012570
  39.4327190  40.1572720   7.2577050  39.0742130  40.8226570   7.8450390
  39.1381750  39.3256270   7.6289670  42.6340310  40.6156960  10.1416600
  42.3340450  40.7614140   9.2444420  43.4051550  40.0562250  10.0489990
  47.9768760  45.4125960   8.1371730  47.9913300  44.4806920   7.9190640
  47.2693860  45.4985720   8.7761500  54.1879970  42.0533300   7.4840310
  53.4628160  42.6462080   7.2869700  54.7155430  42.0456840   6.6853680
  47.4102660  47.0543530   5.2312230  48.0544880  47.2602910   5.9085650
  47.7732100  46.2931930   4.7783080  48.6834740  45.0575880   3.9489680
  49.3256970  44.3569040   4.0621850  49.2084090  45.8374320   3.7686570
  50.4572360  45.8570780   7.1525740  50.7928600  46.4437470   7.8303660
  49.5372700  45.7263490   7.3823530  38.0075760  33.6465960   7.9349150
  37.2934280  33.8462880   8.5401760  38.4270800  32.8705530   8.3063950
  38.2948350  47.6346220   8.9215680  38.4039470  46.6940960   8.7811070
  37.6428910  47.9000970   8.2729410  46.2860940  45.9062110  10.3213800
  45.9657810  45.1871350  10.8659490  45.6119300  46.5817180  10.3949860
  49.5014540  36.1388270   5.6850600  49.8695360  35.3183480   6.0130170
  48.6412740  36.1990160   6.1006250  46.4616530  38.7927860   5.9088570
  46.9601780  39.2673680   6.5740420  46.6039480  37.8691380   6.1158600
  53.6683390  35.0095820   6.7516960  53.1656990  35.7501220   7.0910770
  54.4840050  35.3979820   6.4353750  53.9630980  47.4237850   1.8732580
  54.0878400  48.2469020   2.3456390  54.8296540  47.2128580   1.5256730
  40.4406790  48.7015130  10.7335290  41.2419520  49.0227180  11.1470690
  39.9258610  48.3410710  11.4555200  49.2771420  44.8095000  10.6810700
  48.6709580  44.8326600   9.9406450  48.9725530  44.0778040  11.2177950
  50.7071790  48.5375290   9.2920110  51.6593540  48.4533310   9.2420350
  50.5600010  49.2017000   9.9653900  38.1604600  41.1888590   9.6771340
  38.6643620  40.6095870  10.2487570  37.4212020  41.4728820  10.2147710
  45.2142540  42.5959580   9.2106860  44.4488210  43.1644580   9.1261530
  45.3958500  42.3035790   8.3175090  52.3565890  44.3264910   9.7681880
  53.0975360  44.6640670   9.2649340  51.5938570  44.4956970   9.2151650
  40.1927680  39.3318180  10.5721410  40.2333020  39.0332050  11.4806640
  41.0473180  39.7325790  10.4128930  42.1333490  37.9110280   8.5395900
  41.6029950  37.4201230   7.9119240  42.8021560  38.3394480   8.0053830
  51.0311550  42.3779740   8.3037090  51.4452570  42.5324820   9.1527510
  50.0962550  42.5034960   8.4662870  51.5033720  39.7175900  10.3076240
  52.0854490  38.9628220  10.2196720  51.6795490  40.2483340   9.5307720
  42.6205790  34.8772650   8.6193190  42.5262660  34.2593400   7.8944060
  42.0403180  35.6038940   8.3923100  45.3867230  33.4345890   5.6520580
  44.9384530  33.4570150   4.8066130  44.7532430  33.0364910   6.2490880
  45.7926780  42.3300220   6.2733020  46.2114890  43.1732950   6.1009260
  44.8735410  42.4672260   6.0439800  48.1290680  40.0616400   7.6570860
  48.2486890  39.4657540   8.3965700  48.9884680  40.0986090   7.2372160
  50.4678580  40.6153590   6.2333370  49.9413800  41.1396210   5.6298510
  50.8109920  41.2480980   6.8643100  43.6434200  48.6353230   7.3890750
  43.1055290  49.3599290   7.0699450  43.8968160  48.1583570   6.5988090
  44.8959450  36.6037750   8.9146680  45.4859140  36.2953600   9.6024500
  44.0779690  36.1317500   9.0706580  49.7152880  36.2203560   9.1479700
  49.0268400  35.5585100   9.0829690  50.4358900  35.7741830   9.5928160
  46.4996410  49.8704440   7.6477400  46.4255110  50.7739580   7.9549770
  45.5975250  49.5516340   7.6199470  38.3913910  48.0649620   3.6892650
  37.9544900  48.2450420   4.5216800  38.9591590  48.8224240   3.5474370
  54.0276090  47.5666620   7.9769960  53.4278080  47.6259180   7.2333880
  54.1569990  46.6271600   8.1066810  52.7127730  44.2918600   6.0746120
  51.8987570  44.7215760   6.3371910  53.1201930  44.9037010   5.4615170
  39.2614270  40.9622420   4.5884870  39.6287310  40.8749820   5.4680890
  38.6925090  40.1988970   4.4891730  54.0618130  39.4306800   7.6015340
  53.8304220  39.2019550   6.7013290  54.3222680  40.3506350   7.5560230
  38.8130270  37.8731510   8.4943290  37.9186320  37.8398270   8.8337000
  39.3527820  38.0718300   9.2594540  52.5006200  34.6563230  10.3795040
  53.3776380  34.6646630  10.7629040  52.5127040  33.9194070   9.7687390
  54.1259190  38.5932640   4.7902610  53.1761900  38.5596180   4.9047600
  54.3072200  39.5032750   4.5552380  39.3169980  32.1479840   2.8426510
  39.9646170  31.5977220   2.4021670  39.7371820  32.4022990   3.6642320
  53.2122320  32.3421200   6.1996150  53.8494540  32.9555340   6.5655340
  53.3597210  32.3781860   5.2545380  39.0701980  32.3035510   5.5851830
  38.7216800  32.7599330   6.3510010  38.7389680  31.4092640   5.6674260
  40.6766350  45.4755110   9.7505020  40.6335980  45.1048020  10.6319480
  40.8077360  46.4132680   9.8906840  44.3772380  47.0314700   5.3514740
  44.1363740  47.2989260   4.4645260  45.3175020  47.2020430   5.4065600
  46.5826800  33.4947390   9.1071250  46.5215690  34.0869220   9.8566660
  47.5227180  33.3873350   8.9621510  49.2201360  33.1517450   8.7463540
  49.8341770  33.4696740   8.0844620  49.7650920  32.6666040   9.3659400
  55.6376540  49.0509080   6.1525380  55.1434820  49.4477950   5.4352510
  55.0289830  48.4258290   6.5462660  39.7422620  31.8311710   8.8602600
  40.2905610  31.6499760   8.0968710  39.8077930  31.0405820   9.3958910
  40.5154380  48.4217360   6.8702800  39.9214700  48.2902060   7.6092840
  40.5078220  47.5855500   6.4044900  49.9609400  31.7149590   5.0732830
  49.0869240  32.0484700   4.8705760  49.8520150  31.2422770   5.8984700
  50.8681380  33.9220460   6.4574550  50.5394740  33.1072220   6.0776280
  51.8163680  33.8790270   6.3340240  53.3215990  49.6932500   3.4312120
  52.8618960  50.4448310   3.0570140  52.6928450  48.9738970   3.3726920
  40.1466610  45.7875740   5.8210840  39.4200670  45.1681030   5.7536790
  40.2075760  46.1816350   4.9508920  43.7511710  48.0020740   2.6060250
  44.2676730  47.3908100   2.0808510  44.4009090  48.5049520   3.0971260
  46.4907210  48.8929230   3.4329230  46.7785020  48.6383530   2.5562240
  47.0030430  48.3406590   4.0234800  47.7084220  32.6319430   4.0125740
  46.9256010  33.1064930   4.2922500  47.4147150  31.7274260   3.9038920
  46.5579570  49.8145330  10.7997430  47.4846880  49.5789600  10.8433390
  46.5430000  50.6417330  10.3183460  43.7443180  32.4790080  10.5639310
  43.4627450  32.9823680   9.8000130  44.1262880  31.6811830  10.1981440
  50.3458640  31.8943660  11.1419780  50.2324090  32.2138270  12.0371300
  51.1628380  32.2956170  10.8457060  53.1257130  49.0415190  10.6238470
  53.9182450  48.5464420  10.4164430  53.4190280  49.7205330  11.2314080
  49.2516790  21.1392640  75.3771970  49.1710840  20.2247250  75.1063680
  48.8381210  21.6359710  74.6711680  51.4042260  27.3231850  76.0380370
  50.9423790  26.5519090  76.3667540  52.2167810  27.3497920  76.5432820
  39.8092610  18.1893360  71.9199390  38.9209310  18.5309330  71.8179270
  40.0933800  17.9893680  71.0280220  47.6305570  29.6089860  75.6584360
  47.0117010  30.0647360  75.0878800  48.4857350  29.7641320  75.2574060
  41.9854000  16.7724860  72.9537770  42.0920750  17.6728590  73.2606530
  41.0746360  16.7242830  72.6632420  51.6373110  15.8949670  74.4248670
  52.4582730  15.4046240  74.4674150  51.6707190  16.4847330  75.1780510
  48.4968920  24.4929100  73.0516270  47.8786190  24.9578550  72.4878990
  49.0092170  25.1856580  73.4685780  37.8652120  25.1785630  70.4255900
  37.4880100  25.6672730  69.6940800  38.1225190  25.8510910  71.0562430
  45.4741050  13.5802020  75.8841410  45.7816030  13.0248910  75.1676910
  44.5441750  13.7146480  75.7014400  52.3201530  26.0185530  73.2639040
  52.2097860  25.0759860  73.3888460  52.3169780  26.3801170  74.1501800
  47.8621810  21.6450850  72.6201530  46.9351090  21.5788230  72.8490000
  48.0146630  22.5830980  72.5056770  47.8490890  17.9167850  69.6168690
  46.9094560  18.0781810  69.7021150  48.1674150  18.6353530  69.0704680
  51.8919100  23.2071150  73.1236780  51.2731520  22.8690700  72.4763080
  51.8743550  22.5630910  73.8315970  43.4678450  22.1715590  75.4021260
  43.0635450  21.4592840  74.9067160  43.5541570  21.8268830  76.2909300
  50.0683800  22.4457960  70.1309530  50.5077080  21.6080390  69.9847350
  50.7812220  23.0787360  70.2173670  48.1779180  27.3854030  74.0990770
  48.6175090  28.1278360  73.6846160  48.1166070  27.6280600  75.0229730
  53.6500940  13.7000770  68.4450570  53.3373600  13.7927600  69.3449640
  54.4113410  14.2781800  68.3948000  40.1683080  21.0660570  72.9027910
  40.0480680  21.7922660  72.2909180  39.8583970  20.2963480  72.4255820
  39.0516080  25.9375900  75.1202730  38.6444160  26.0790490  74.2656330
  39.9429090  25.6536060  74.9173940  50.8449360  30.3723150  71.4553780
  50.6850500  30.0826090  72.3535610  50.6796070  29.5963280  70.9199010
  43.3237740  30.1521680  73.2325400  43.1480220  29.2357220  73.0193200
  42.4693480  30.5108970  73.4723200  50.5475490  27.8810710  70.0151780
  49.8540650  27.8788000  69.3554060  51.2898350  27.4570030  69.5845950
  50.1125420  29.5073420  74.0900270  50.5682370  28.7262800  74.4038890
  50.4517940  30.2180240  74.6341450  42.6346740  14.4095640  76.2851580
  42.1914890  15.1905180  75.9536100  43.1931730  14.7325530  76.9922520
  45.7505560  14.0306340  71.1657410  45.1259740  14.0266210  71.8910720
  45.6635680  13.1637300  70.7693380  42.4260960  19.5329210  74.0132830
  42.2001880  19.3166380  74.9179450  41.6453490  19.9657670  73.6678800
  49.6558720  19.5392580  72.6123480  49.0567610  20.2628380  72.4287100
  50.2038330  19.4769360  71.8299930  48.2623590  18.1756120  74.6426760
  48.6553160  18.4928320  73.8295450  48.6240440  17.2968000  74.7571280
  37.4857990  18.7077040  68.0759680  37.4032660  19.6507800  68.2174670
  37.1341050  18.5651950  67.1972030  45.2856120  17.4416070  77.1430030
  45.2892180  17.0006020  76.2934570  46.1807240  17.7633400  77.2501850
  41.1358500  17.3242560  76.1024240  40.7958550  17.8017790  76.8591290
  40.3735820  16.8707680  75.7425340  45.3476270  18.4428150  70.1336790
  45.4689090  18.4014630  71.0822610  44.9624780  19.3052300  69.9783520
  44.3597770  20.7529290  69.5320090  43.7914670  20.3047540  68.9056000
  45.0686770  21.1122070  68.9985240  38.4504580  16.2461540  75.0188910
  38.1651500  15.8817210  75.8567530  38.3883440  15.5142000  74.4052050
  41.9045250  24.7487480  71.8046500  41.1307510  24.2085100  71.6445220
  42.6339880  24.2294090  71.4664260  48.1243170  15.1390800  71.7402280
  47.3107780  14.6403970  71.6647590  47.9305120  15.9789050  71.3238630
  50.8391560  19.5110450  70.0364440  51.7271180  19.8227680  69.8615780
  50.8096650  18.6382700  69.6445020  41.9482650  24.4167860  75.4425310
  42.4661320  23.6136120  75.3882200  41.4966670  24.3547000  76.2842140
  46.8352150  25.6834140  70.7152610  47.1767850  26.4276370  70.2195930
  46.0064860  25.9965260  71.0777440  53.1105830  20.8222290  69.5044300
  53.0269550  21.2536510  68.6540740  53.8300020  21.2820640  69.9371120
  54.1393080  27.6764550  72.2326430  53.4969240  27.0220170  72.5070150
  53.7523740  28.0819640  71.4567100  49.7179560  25.0049980  76.0798120
  50.0703380  24.4078110  75.4199490  48.8341890  24.6794210  76.2506370
  45.8042840  25.7647670  73.4868530  46.4913970  26.3116880  73.8676120
  45.0175260  26.3088400  73.5218140  37.9435240  21.3820490  68.9785610
  38.8130090  21.6645290  69.2621530  37.4525560  22.1956360  68.8634420
  45.1070050  22.7693700  73.0993890  45.5632830  23.5798950  73.3254080
  44.7558260  22.4516840  73.9312380  41.0081830  13.1131350  73.5716410
  40.8796460  13.1049250  74.5201330  40.1843850  13.4514440  73.2207420
  52.5290460  26.5681010  68.7702780  52.3028040  25.8511450  69.3627420
  52.1386660  26.3193450  67.9324530  38.3106490  30.5947870  69.5447240
  38.6704130  31.1937210  68.8904510  38.1698830  31.1407760  70.3182270
  52.1106710  24.4852950  70.4316940  51.8228410  24.9465640  71.2194820
  52.9058880  24.0250720  70.7001160  44.3275110  27.9779070  70.3620910
  44.3185210  28.7108760  69.7465420  43.4073470  27.7310650  70.4547870
  39.9281750  23.1993960  71.1067670  39.3209700  23.9392860  71.1162970
  40.4031100  23.2893320  70.2805870  52.8676570  16.3201720  71.5912120
  52.2389730  16.4247390  70.8770350  52.3728490  16.5398500  72.3806000
  47.3134710  28.0407310  69.0246100  47.4146690  27.8371300  68.0948080
  46.4136450  27.7865590  69.2293880  44.8360600  18.5987670  73.0070000
  44.1276750  19.0674010  73.4483610  45.1205080  17.9409680  73.6415190
  48.8676030  15.3238330  74.4465790  48.7443810  15.3424460  73.4975300
  49.8160590  15.3717270  74.5664190  45.9552820  30.5593630  73.7193770
  46.2094320  30.5215020  72.7973140  45.0065300  30.4326960  73.7122020
  43.0395620  16.9072750  70.3820710  43.8886150  17.3442900  70.3160900
  42.6726890  17.2193010  71.2092770  51.9605400  21.4785510  75.2952280
  51.0195540  21.4935740  75.4699970  52.2749470  20.6921470  75.7412580
  41.9387040  23.1605110  68.8556240  42.7050310  23.0486470  69.4181670
  42.0161730  22.4643080  68.2033010  40.6333800  20.5930180  69.5389130
  40.7137390  19.6457690  69.6506530  41.5253550  20.9237060  69.6449790
  41.4348510  30.7425570  76.6423670  42.1710990  30.1941030  76.9132240
  41.8189430  31.6081580  76.5029660  38.3193990  26.8099140  72.5165180
  37.3933770  27.0520280  72.5070590  38.7850420  27.6373400  72.3949930
  44.5450820  29.9155880  68.4649240  45.3379430  30.2044710  68.0131030
  44.0255170  29.4848050  67.7861720  53.5980990  29.1426010  69.8885980
  53.3122500  28.7291150  69.0740160  53.4000540  30.0713720  69.7686500
  45.0628220  25.1359290  68.3291590  44.9578860  24.5211640  69.0552970
  44.8952440  24.6125180  67.5454600  48.3030950  24.1979320  68.9333580
  47.7541050  24.6448620  69.5776320  48.9250210  23.6928570  69.4571250
  43.9706070  23.1570240  70.8298880  44.3922490  22.9910110  71.6730270
  44.0956910  22.3470470  70.3354020  46.4833710  22.1807850  68.0775980
  47.0039370  21.4656870  67.7117130  47.1302110  22.8193720  68.3776490
  42.8664970  19.2303470  67.7757040  42.6654030  18.3670830  68.1370380
  42.6957020  19.1436830  66.8378640  50.3453280  14.0411700  70.3043920
  50.6255570  13.1979600  70.6603340  49.5719010  14.2734810  70.8182670
  41.6647770  16.3304090  67.7634920  41.9673670  16.3371520  66.8554070
  42.4042360  15.9801950  68.2602580  44.8832700  15.2738710  68.7491120
  44.5354700  14.5962700  68.1693570  45.0845470  14.8128220  69.5634510
  47.0481740  30.2619460  70.3677720  47.9432530  30.6004430  70.3896480
  47.0799370  29.5398870  69.7402000  40.6877900  25.6346510  68.5964720
  41.1252770  26.1776180  69.2522300  41.1725630  24.8093460  68.6061060
  37.9023700  28.4235540  76.0484980  38.2326710  27.5556600  75.8163620
  38.3314700  28.6294060  76.8789940  42.4985620  26.7544550  73.7086950
  42.1981160  26.6309520  74.6090860  42.3923110  25.8953140  73.3002680
  55.2677540  26.5340950  68.4113630  54.4370500  26.6017600  68.8820860
  55.4449370  27.4245070  68.1080490  54.7234000  23.2788430  70.9147830
  55.4852910  23.8485080  71.0207520  54.7388370  22.7115630  71.6856140
  38.2238340  21.8026360  75.1455490  37.5687180  21.5338000  74.5015190
  39.0616290  21.6930840  74.6957470  55.7293970  24.1338530  75.7589760
  56.1002800  23.3505850  75.3525730  56.3695900  24.8227630  75.5807060
  54.7753170  23.5722800  68.0720350  55.0502010  24.4801680  67.9439570
  54.5863910  23.5085330  69.0082340  51.1728780  16.5967650  69.3673980
  51.5913660  16.4098630  68.5270640  50.8664840  15.7446700  69.6776910
  54.6718510  21.5091790  73.0649780  54.2962110  20.7419720  72.6331070
  53.9421630  21.8914490  73.5524710  37.4376420  19.0125290  71.0880820
  36.5340500  19.2755490  70.9132480  37.9217040  19.2836460  70.3080780
  53.9469470  19.7349280  76.3657020  54.4706950  19.2411930  75.7347190
  54.5328890  19.8699640  77.1104590  39.9803630  18.0690830  68.9975200
  40.6895330  17.6474050  68.5122480  39.2643570  18.1366060  68.3658550
  39.6277790  14.1230160  68.0377850  40.3505920  14.6639100  68.3559070
  39.9002310  13.8493580  67.1619390  53.4369440  18.9922630  72.3049430
  53.9328560  18.7593500  73.0898310  53.2385510  18.1534470  71.8887070
  54.8656600  17.6283580  74.8387110  54.7555880  17.4739620  75.7769380
  55.6264190  17.1004520  74.5962520  55.7546870  15.4591500  68.0793250
  56.6796180  15.3272680  67.8711540  55.7322660  15.5384320  69.0329700
  55.8285360  16.2302160  70.7049960  55.0336860  16.1647280  71.2342870
  56.0328640  17.1652800  70.6935310  52.7703780  30.2693710  74.6988350
  53.3662850  29.9478280  74.0222770  53.0281930  29.7965530  75.4901620
  52.2605290  14.5599040  77.1548790  52.7013380  14.5044140  76.3070390
  51.9912880  15.4757050  77.2258970  54.1243860  14.1914280  75.1657610
  54.0632260  13.2475500  75.0188630  54.9035890  14.2994370  75.7111070
  38.4296610  30.3306640  74.1281560  38.2618650  29.6977320  74.8263450
  37.5631120  30.5366040  73.7775750  39.0524630  14.1623420  71.6313420
  39.8103990  14.2752300  71.0577450  38.5901800  14.9992620  71.5856850
  45.5938440  16.2762690  74.6215730  44.7812950  15.9019580  74.2811610
  46.0980080  15.5207770  74.9236920  50.0963420  12.9405140  75.8598800
  50.6992790  13.5125350  76.3347320  49.3556410  13.5044580  75.6372700
  53.2398020  13.3426700  71.1339080  53.4348650  14.2410150  71.4006510
  52.4527890  13.1113780  71.6272030  40.0359310  29.0239870  71.5731700
  39.5106930  29.4047900  70.8693660  39.9603890  29.6490640  72.2941410
  41.4249780  14.6887470  70.1715390  41.9542540  13.9017270  70.0423340
  42.0578100  15.3678660  70.4050920  43.6187620  14.4262610  73.2260780
  42.9890360  13.7249920  73.3930910  43.0792760  15.1866740  73.0093940
  54.7924630  30.5827410  72.8945640  54.9676820  29.8965150  72.2506560
  54.0946200  31.1074460  72.5022310  42.6352280  30.9722250  70.4480950
  43.3671100  30.6881530  69.9004840  42.8945950  30.7335530  71.3380330
  41.7967070  27.0886980  70.4527280  41.1675950  27.5572080  71.0013110
  41.9114900  26.2436200  70.8873470  49.2516790  21.1392640  56.6028480
  49.1710840  20.2247250  56.3320190  48.8381210  21.6359710  55.8968190
  47.3834830  22.9171660  58.4837750  46.6076930  22.4372100  58.7736320
  48.0347760  22.2377310  58.3093910  41.4000660  23.2291470  59.3613510
  40.5685540  22.9740180  59.7610020  42.0081640  23.3002240  60.0971430
  51.4042260  27.3231850  57.2636880  50.9423790  26.5519090  57.5924050
  52.2167810  27.3497920  57.7689330  41.3801920  27.2631560  59.5571530
  41.6829960  26.3729300  59.3781750  42.1245510  27.8201780  59.3293780
  39.8092610  18.1893360  53.1455900  38.9209310  18.5309330  53.0435780
  40.0933800  17.9893680  52.2536730  37.7725620  20.7899010  59.0295600
  38.3441730  20.0221210  59.0299240  37.7727160  21.0887770  58.1202210
  47.6305570  29.6089860  56.8840870  47.0117010  30.0647360  56.3135310
  48.4857350  29.7641320  56.4830570  46.8243820  25.5928850  58.4907910
  46.7552100  24.6518790  58.3297040  47.5863680  25.6830260  59.0630480
  39.0150490  16.1983370  60.8164530  38.8353330  15.3009120  61.0967290
  38.6130570  16.7455240  61.4911480  47.8548990  18.3999230  58.7176840
  48.2313810  17.5271110  58.6050510  47.7568500  18.7357930  57.8267280
  41.9854000  16.7724860  54.1794280  42.0920750  17.6728590  54.4863040
  41.0746360  16.7242830  53.8888930  51.6373110  15.8949670  55.6505180
  52.4582730  15.4046240  55.6930660  51.6707190  16.4847330  56.4037020
  39.6337160  18.6943870  59.4246870  40.3147270  18.9582240  60.0434270
  39.3185210  17.8544740  59.7584880  43.8261730  19.7411230  58.5119460
  44.3339950  20.2392200  59.1524480  44.3574970  18.9646430  58.3358820
  55.9272660  17.9116420  62.2148810  55.2224830  18.2998130  61.6963920
  56.1930580  18.6066710  62.8169740  42.1097830  14.3809790  62.7782880
  42.1116270  14.8982180  61.9728780  41.2802140  13.9039970  62.7552810
  48.4968920  24.4929100  54.2772780  47.8786190  24.9578550  53.7135500
  49.0092170  25.1856580  54.6942290  43.3600680  24.0204970  60.9556380
  43.0270060  24.6473890  61.5977450  43.5367360  24.5466850  60.1758050
  51.8734590  17.8350050  58.4232720  51.1690160  18.1234940  59.0035830
  52.2346750  18.6450160  58.0632280  41.7913160  16.0919750  60.7853330
  42.1329970  16.9361800  60.4907200  40.8528970  16.2403490  60.9018670
  42.5719780  25.9885770  62.7705560  43.1893780  26.6636850  62.4890010
  41.7112900  26.3973750  62.6793060  53.4897370  27.4525180  60.6860200
  52.8060890  28.1224290  60.6776870  54.0291660  27.6505830  59.9205060
  54.9421510  17.2804840  58.8141930  53.9946420  17.3143820  58.9457360
  55.2671500  18.0943790  59.1991290  45.4741050  13.5802020  57.1097920
  45.7816030  13.0248910  56.3933420  44.5441750  13.7146480  56.9270910
  51.0256110  29.2969310  59.4005380  51.0383270  28.8931600  58.5327640
  50.4731330  30.0716600  59.2966810  52.3201530  26.0185530  54.4895550
  52.2097860  25.0759860  54.6144970  52.3169780  26.3801170  55.3758310
  50.4241550  24.1999150  60.7287990  50.8410340  23.9859260  59.8941450
  51.1481370  24.4571940  61.2996610  47.8621810  21.6450850  53.8458040
  46.9351090  21.5788230  54.0746510  48.0146630  22.5830980  53.7313280
  47.8490890  17.9167850  50.8425200  46.9094560  18.0781810  50.9277660
  48.1674150  18.6353530  50.2961190  54.3703650  22.5986370  60.8204230
  53.5422280  22.6679460  60.3454360  54.9654130  23.1840680  60.3520060
  51.8919100  23.2071150  54.3493290  51.2731520  22.8690700  53.7019590
  51.8743550  22.5630910  55.0572480  51.3345660  19.3855690  61.7659100
  50.9216840  20.2109400  62.0199090  50.6021610  18.8000730  61.5735460
  43.4678450  22.1715590  56.6277770  43.0635450  21.4592840  56.1323670
  43.5541570  21.8268830  57.5165810  43.9360150  25.8583150  58.7916980
  43.6388440  25.2528620  58.1124760  44.8859970  25.8960460  58.6806340
  42.1807070  18.9458800  60.4076810  42.7321660  19.0554140  59.6330060
  42.6950580  19.3196400  61.1232040  52.0245760  29.4315020  62.4540080
  51.5476320  30.2387210  62.2612690  51.3407550  28.7793350  62.6066290
  43.0278580  25.5964840  65.4424780  42.1307110  25.8204810  65.6898180
  43.0531450  25.7199780  64.4936180  50.0683800  22.4457960  51.3566040
  50.5077080  21.6080390  51.2103860  50.7812220  23.0787360  51.4430180
  41.8549800  22.4678160  64.0182150  41.7157570  23.3400960  64.3869550
  40.9731160  22.1250970  63.8730090  48.1779180  27.3854030  55.3247280
  48.6175090  28.1278360  54.9102670  48.1166070  27.6280600  56.2486240
  43.6530150  28.4099860  66.2267300  43.6245580  28.8142810  65.3595730
  43.4895120  27.4810220  66.0638900  53.6500940  13.7000770  49.6707080
  53.3373600  13.7927600  50.5706150  54.4113410  14.2781800  49.6204510
  40.1683080  21.0660570  54.1284420  40.0480680  21.7922660  53.5165690
  39.8583970  20.2963480  53.6512330  55.6044970  29.1926960  67.5231470
  56.0804690  29.6709850  68.2020550  56.2252130  29.1244450  66.7976970
  37.8068450  24.2375710  59.9353060  37.8848870  24.3724480  58.9908780
  38.4210130  23.5291600  60.1281180  39.0516080  25.9375900  56.3459240
  38.6444160  26.0790490  55.4912840  39.9429090  25.6536060  56.1430450
  55.0078220  26.3839810  64.6831480  55.1341280  26.1451690  63.7648660
  55.0499600  25.5524350  65.1553560  48.8694960  30.0867810  63.2526290
  49.3839630  29.9975820  64.0548720  48.0264040  30.4327510  63.5454200
  50.1125420  29.5073420  55.3156780  50.5682370  28.7262800  55.6295400
  50.4517940  30.2180240  55.8597960  54.8602230  18.4372270  65.6481220
  54.2446500  18.9451940  65.1196680  54.5398650  17.5370600  65.5907160
  37.8627970  25.2789880  62.4747520  38.0259010  24.8095240  61.6566890
  38.3280420  24.7713440  63.1396360  42.6346740  14.4095640  57.5108090
  42.1914890  15.1905180  57.1792610  43.1931730  14.7325530  58.2179030
  46.9216550  17.2764160  63.1143410  46.4595920  17.4847180  63.9263350
  46.5194660  16.4623510  62.8114080  51.9221060  18.4973110  64.2440070
  51.0714650  18.1978860  64.5649140  51.7622850  18.7415120  63.3323890
  49.0170770  19.9974860  66.3438860  49.3424180  19.1638610  66.0041090
  49.8051100  20.5203380  66.4917190  45.7505560  14.0306340  52.3913920
  45.1259740  14.0266210  53.1167230  45.6635680  13.1637300  51.9949890
  44.6722640  14.9542970  59.3697690  44.9694970  15.8605800  59.2889710
  45.2208200  14.4661750  58.7557260  42.4260960  19.5329210  55.2389340
  42.2001880  19.3166380  56.1435960  41.6453490  19.9657670  54.8935310
  49.6558720  19.5392580  53.8379990  49.0567610  20.2628380  53.6543610
  50.2038330  19.4769360  53.0556440  44.8660170  20.4314790  65.9049610
  44.7703770  19.4909520  65.7550010  45.7092150  20.6529860  65.5097680
  48.2623590  18.1756120  55.8683270  48.6553160  18.4928320  55.0551960
  48.6240440  17.2968000  55.9827790  39.9970710  16.8428460  64.0583390
  39.6034100  17.6903670  64.2656170  39.3089110  16.2054830  64.2492030
  46.5715760  16.9263430  67.1280130  45.8814080  16.7335630  67.7626220
  47.3148060  17.2098070  67.6604430  37.2987760  14.7656920  58.0913470
  37.0100810  15.3359780  58.8038450  38.0433520  14.2861370  58.4544700
  37.4857990  18.7077040  49.3016190  37.4032660  19.6507800  49.4431180
  37.1341050  18.5651950  48.4228540  48.8478730  20.7661870  59.9634050
  48.1159850  21.2748680  60.3124150  48.4503070  19.9491850  59.6622830
  45.2856120  17.4416070  58.3686540  45.2892180  17.0006020  57.5191080
  46.1807240  17.7633400  58.4758360  41.1358500  17.3242560  57.3280750
  40.7958550  17.8017790  58.0847800  40.3735820  16.8707680  56.9681850
  45.3476270  18.4428150  51.3593300  45.4689090  18.4014630  52.3079120
  44.9624780  19.3052300  51.2040030  49.3104640  16.2195550  59.3756990
  49.3277380  16.6704200  60.2198840  49.0620220  15.3201190  59.5890430
  44.3597770  20.7529290  50.7576600  43.7914670  20.3047540  50.1312510
  45.0686770  21.1122070  50.2241750  52.7375390  13.6327730  65.2143370
  53.0621160  12.9017390  65.7401350  52.7731900  13.3141370  64.3124360
  39.4366950  24.6541310  64.6343330  39.0521740  24.0134980  65.2326290
  39.7479140  25.3577430  65.2038060  45.5864090  21.5017850  60.1151950
  45.9534220  21.0276420  60.8613290  45.3969150  22.3759420  60.4560290
  38.4504580  16.2461540  56.2445420  38.1651500  15.8817210  57.0824040
  38.3883440  15.5142000  55.6308560  43.3763460  20.5426490  62.4336160
  43.0720530  21.4218470  62.6586520  44.3309920  20.6026280  62.4693600
  52.6633230  23.7452840  58.8229400  53.3832350  24.2408130  58.4325510
  52.4615050  23.0670730  58.1783270  48.1243170  15.1390800  52.9658790
  47.3107780  14.6403970  52.8904100  47.9305120  15.9789050  52.5495140
  48.0452030  23.8161900  64.7098400  47.9789340  22.8957570  64.4555990
  47.4157170  23.9137340  65.4243040  50.8391560  19.5110450  51.2620950
  51.7271180  19.8227680  51.0872290  50.8096650  18.6382700  50.8701530
  41.9482650  24.4167860  56.6681820  42.4661320  23.6136120  56.6138710
  41.4966670  24.3547000  57.5098650  39.4327190  21.3829230  63.5807520
  39.0742130  22.0483080  64.1680860  39.1381750  20.5512780  63.9520140
  42.6340310  21.8413470  66.4647070  42.3340450  21.9870650  65.5674890
  43.4051550  21.2818760  66.3720460  47.9768760  26.6382470  64.4602200
  47.9913300  25.7063430  64.2421110  47.2693860  26.7242230  65.0991970
  53.1105830  20.8222290  50.7300810  53.0269550  21.2536510  49.8797250
  53.8300020  21.2820640  51.1627630  54.1879970  23.2789810  63.8070780
  53.4628160  23.8718590  63.6100170  54.7155430  23.2713350  63.0084150
  54.1393080  27.6764550  53.4582940  53.4969240  27.0220170  53.7326660
  53.7523740  28.0819640  52.6823610  49.7179560  25.0049980  57.3054630
  50.0703380  24.4078110  56.6456000  48.8341890  24.6794210  57.4762880
  45.1070050  22.7693700  54.3250400  45.5632830  23.5798950  54.5510590
  44.7558260  22.4516840  55.1568890  47.4102660  28.2800040  61.5542700
  48.0544880  28.4859420  62.2316120  47.7732100  27.5188440  61.1013550
  41.0081830  13.1131350  54.7972920  40.8796460  13.1049250  55.7457840
  40.1843850  13.4514440  54.4463930  48.6834740  26.2832390  60.2720150
  49.3256970  25.5825550  60.3852320  49.2084090  27.0630830  60.0917040
  52.5290460  26.5681010  49.9959290  52.3028040  25.8511450  50.5883930
  52.1386660  26.3193450  49.1581040  50.4572360  27.0827290  63.4756210
  50.7928600  27.6693980  64.1534130  49.5372700  26.9520000  63.7054000
  38.0075760  14.8722470  64.2579620  37.2934280  15.0719390  64.8632230
  38.4270800  14.0962040  64.6294420  52.1106710  24.4852950  51.6573450
  51.8228410  24.9465640  52.4451330  52.9058880  24.0250720  51.9257670
  38.2948350  28.8602730  65.2446150  38.4039470  27.9197470  65.1041540
  37.6428910  29.1257480  64.5959880  46.2860940  27.1318620  66.6444270
  45.9657810  26.4127860  67.1889960  45.6119300  27.8073690  66.7180330
  49.5014540  17.3644780  62.0081070  49.8695360  16.5439990  62.3360640
  48.6412740  17.4246670  62.4236720  52.8676570  16.3201720  52.8168630
  52.2389730  16.4247390  52.1026860  52.3728490  16.5398500  53.6062510
  44.8360600  18.5987670  54.2326510  44.1276750  19.0674010  54.6740120
  45.1205080  17.9409680  54.8671700  46.4616530  20.0184370  62.2319040
  46.9601780  20.4930190  62.8970890  46.6039480  19.0947890  62.4389070
  48.8676030  15.3238330  55.6722300  48.7443810  15.3424460  54.7231810
  49.8160590  15.3717270  55.7920700  43.0395620  16.9072750  51.6077220
  43.8886150  17.3442900  51.5417410  42.6726890  17.2193010  52.4349280
  53.6683390  16.2352330  63.0747430  53.1656990  16.9757730  63.4141240
  54.4840050  16.6236330  62.7584220  51.9605400  21.4785510  56.5208790
  51.0195540  21.4935740  56.6956480  52.2749470  20.6921470  56.9669090
  41.9387040  23.1605110  50.0812750  42.7050310  23.0486470  50.6438180
  42.0161730  22.4643080  49.4289520  40.6333800  20.5930180  50.7645640
  40.7137390  19.6457690  50.8763040  41.5253550  20.9237060  50.8706300
  53.9630980  28.6494360  58.1963050  54.0878400  29.4725530  58.6686860
  54.8296540  28.4385090  57.8487200  41.4348510  30.7425570  57.8680180
  42.1710990  30.1941030  58.1388750  41.8189430  31.6081580  57.7286170
  40.4406790  29.9271640  67.0565760  41.2419520  30.2483690  67.4701160
  39.9258610  29.5667220  67.7785670  49.2771420  26.0351510  67.0041170
  48.6709580  26.0583110  66.2636920  48.9725530  25.3034550  67.5408420
  50.7071790  29.7631800  65.6150580  51.6593540  29.6789820  65.5650820
  50.5600010  30.4273510  66.2884370  38.1604600  22.4145100  66.0001810
  38.6643620  21.8352380  66.5718040  37.4212020  22.6985330  66.5378180
  45.2142540  23.8216090  65.5337330  44.4488210  24.3901090  65.4492000
  45.3958500  23.5292300  64.6405560  48.3030950  24.1979320  50.1590090
  47.7541050  24.6448620  50.8032830  48.9250210  23.6928570  50.6827760
  52.3565890  25.5521420  66.0912350  53.0975360  25.8897180  65.5879810
  51.5938570  25.7213480  65.5382120  40.1927680  20.5574690  66.8951880
  40.2333020  20.2588560  67.8037110  41.0473180  20.9582300  66.7359400
  43.9706070  23.1570240  52.0555390  44.3922490  22.9910110  52.8986780
  44.0956910  22.3470470  51.5610530  42.1333490  19.1366790  64.8626370
  41.6029950  18.6457740  64.2349710  42.8021560  19.5650990  64.3284300
  46.4833710  22.1807850  49.3032490  47.0039370  21.4656870  48.9373640
  47.1302110  22.8193720  49.6033000  51.0311550  23.6036250  64.6267560
  51.4452570  23.7581330  65.4757980  50.0962550  23.7291470  64.7893340
  51.5033720  20.9432410  66.6306710  52.0854490  20.1884730  66.5427190
  51.6795490  21.4739850  65.8538190  42.6205790  16.1029160  64.9423660
  42.5262660  15.4849910  64.2174530  42.0403180  16.8295450  64.7153570
  45.3867230  14.6602400  61.9751050  44.9384530  14.6826660  61.1296600
  44.7532430  14.2621420  62.5721350  45.7926780  23.5556730  62.5963490
  46.2114890  24.3989460  62.4239730  44.8735410  23.6928770  62.3670270
  48.1290680  21.2872910  63.9801330  48.2486890  20.6914050  64.7196170
  48.9884680  21.3242600  63.5602630  50.4678580  21.8410100  62.5563840
  49.9413800  22.3652720  61.9528980  50.8109920  22.4737490  63.1873570
  42.8664970  19.2303470  49.0013550  42.6654030  18.3670830  49.3626890
  42.6957020  19.1436830  48.0635150  43.6434200  29.8609740  63.7121220
  43.1055290  30.5855800  63.3929920  43.8968160  29.3840080  62.9218560
  44.8959450  17.8294260  65.2377150  45.4859140  17.5210110  65.9254970
  44.0779690  17.3574010  65.3937050  49.7152880  17.4460070  65.4710170
  49.0268400  16.7841610  65.4060160  50.4358900  16.9998340  65.9158630
  50.3453280  14.0411700  51.5300430  50.6255570  13.1979600  51.8859850
  49.5719010  14.2734810  52.0439180  41.6647770  16.3304090  48.9891430
  41.9673670  16.3371520  48.0810580  42.4042360  15.9801950  49.4859090
  46.4996410  31.0960950  63.9707870  46.4255110  31.9996090  64.2780240
  45.5975250  30.7772850  63.9429940  44.8832700  15.2738710  49.9747630
  44.5354700  14.5962700  49.3950080  45.0845470  14.8128220  50.7891020
  37.9023700  28.4235540  57.2741490  38.2326710  27.5556600  57.0420130
  38.3314700  28.6294060  58.1046450  38.3913910  29.2906130  60.0123120
  37.9544900  29.4706930  60.8447270  38.9591590  30.0480750  59.8704840
  54.0276090  28.7923130  64.3000430  53.4278080  28.8515690  63.5564350
  54.1569990  27.8528110  64.4297280  55.2677540  26.5340950  49.6370140
  54.4370500  26.6017600  50.1077370  55.4449370  27.4245070  49.3337000
  54.7234000  23.2788430  52.1404340  55.4852910  23.8485080  52.2464030
  54.7388370  22.7115630  52.9112650  38.2238340  21.8026360  56.3712000
  37.5687180  21.5338000  55.7271700  39.0616290  21.6930840  55.9213980
  55.7293970  24.1338530  56.9846270  56.1002800  23.3505850  56.5782240
  56.3695900  24.8227630  56.8063570  52.7127730  25.5175110  62.3976590
  51.8987570  25.9472270  62.6602380  53.1201930  26.1293520  61.7845640
  54.7753170  23.5722800  49.2976860  55.0502010  24.4801680  49.1696080
  54.5863910  23.5085330  50.2338850  51.1728780  16.5967650  50.5930490
  51.5913660  16.4098630  49.7527150  50.8664840  15.7446700  50.9033420
  54.6718510  21.5091790  54.2906290  54.2962110  20.7419720  53.8587580
  53.9421630  21.8914490  54.7781220  39.2614270  22.1878930  60.9115340
  39.6287310  22.1006330  61.7911360  38.6925090  21.4245480  60.8122200
  54.0618130  20.6563310  63.9245810  53.8304220  20.4276060  63.0243760
  54.3222680  21.5762860  63.8790700  38.8130270  19.0988020  64.8173760
  37.9186320  19.0654780  65.1567470  39.3527820  19.2974810  65.5825010
  52.5006200  15.8819740  66.7025510  53.3776380  15.8903140  67.0859510
  52.5127040  15.1450580  66.0917860  37.4376420  19.0125290  52.3137330
  36.5340500  19.2755490  52.1388990  37.9217040  19.2836460  51.5337290
  53.9469470  19.7349280  57.5913530  54.4706950  19.2411930  56.9603700
  54.5328890  19.8699640  58.3361100  54.1259190  19.8189150  61.1133080
  53.1761900  19.7852690  61.2278070  54.3072200  20.7289260  60.8782850
  39.9803630  18.0690830  50.2231710  40.6895330  17.6474050  49.7378990
  39.2643570  18.1366060  49.5915060  39.6277790  14.1230160  49.2634360
  40.3505920  14.6639100  49.5815580  39.9002310  13.8493580  48.3875900
  53.4369440  18.9922630  53.5305940  53.9328560  18.7593500  54.3154820
  53.2385510  18.1534470  53.1143580  39.3169980  13.3736350  59.1656980
  39.9646170  12.8233730  58.7252140  39.7371820  13.6279500  59.9872790
  54.8656600  17.6283580  56.0643620  54.7555880  17.4739620  57.0025890
  55.6264190  17.1004520  55.8219030  53.2122320  13.5677710  62.5226620
  53.8494540  14.1811850  62.8885810  53.3597210  13.6038370  61.5775850
  55.7546870  15.4591500  49.3049760  56.6796180  15.3272680  49.0968050
  55.7322660  15.5384320  50.2586210  55.8285360  16.2302160  51.9306470
  55.0336860  16.1647280  52.4599380  56.0328640  17.1652800  51.9191820
  52.7703780  30.2693710  55.9244860  53.3662850  29.9478280  55.2479280
  53.0281930  29.7965530  56.7158130  39.0701980  13.5292020  61.9082300
  38.7216800  13.9855840  62.6740480  38.7389680  12.6349150  61.9904730
  40.6766350  26.7011620  66.0735490  40.6335980  26.3304530  66.9549950
  40.8077360  27.6389190  66.2137310  44.3772380  28.2571210  61.6745210
  44.1363740  28.5245770  60.7875730  45.3175020  28.4276940  61.7296070
  46.5826800  14.7203900  65.4301720  46.5215690  15.3125730  66.1797130
  47.5227180  14.6129860  65.2851980  49.2201360  14.3773960  65.0694010
  49.8341770  14.6953250  64.4075090  49.7650920  13.8922550  65.6889870
  55.6376540  30.2765590  62.4755850  55.1434820  30.6734460  61.7582980
  55.0289830  29.6514800  62.8693130  39.7422620  13.0568220  65.1833070
  40.2905610  12.8756270  64.4199180  39.8077930  12.2662330  65.7189380
  40.5154380  29.6473870  63.1933270  39.9214700  29.5158570  63.9323310
  40.5078220  28.8112010  62.7275370  49.9609400  12.9406100  61.3963300
  49.0869240  13.2741210  61.1936230  49.8520150  12.4679280  62.2215170
  50.8681380  15.1476970  62.7805020  50.5394740  14.3328730  62.4006750
  51.8163680  15.1046780  62.6570710  53.3215990  30.9189010  59.7542590
  52.8618960  31.6704820  59.3800610  52.6928450  30.1995480  59.6957390
  40.1466610  27.0132250  62.1441310  39.4200670  26.3937540  62.0767260
  40.2075760  27.4072860  61.2739390  43.7511710  29.2277250  58.9290720
  44.2676730  28.6164610  58.4038980  44.4009090  29.7306030  59.4201730
  46.4907210  30.1185740  59.7559700  46.7785020  29.8640040  58.8792710
  47.0030430  29.5663100  60.3465270  47.7084220  13.8575940  60.3356210
  46.9256010  14.3321440  60.6152970  47.4147150  12.9530770  60.2269390
  52.2605290  14.5599040  58.3805300  52.7013380  14.5044140  57.5326900
  51.9912880  15.4757050  58.4515480  54.1243860  14.1914280  56.3914120
  54.0632260  13.2475500  56.2445140  54.9035890  14.2994370  56.9367580
  38.4296610  30.3306640  55.3538070  38.2618650  29.6977320  56.0519960
  37.5631120  30.5366040  55.0032260  39.0524630  14.1623420  52.8569930
  39.8103990  14.2752300  52.2833960  38.5901800  14.9992620  52.8113360
  45.5938440  16.2762690  55.8472240  44.7812950  15.9019580  55.5068120
  46.0980080  15.5207770  56.1493430  50.0963420  12.9405140  57.0855310
  50.6992790  13.5125350  57.5603830  49.3556410  13.5044580  56.8629210
  53.2398020  13.3426700  52.3595590  53.4348650  14.2410150  52.6263020
  52.4527890  13.1113780  52.8528540  41.4249780  14.6887470  51.3971900
  41.9542540  13.9017270  51.2679850  42.0578100  15.3678660  51.6307430
  43.6187620  14.4262610  54.4517290  42.9890360  13.7249920  54.6187420
  43.0792760  15.1866740  54.2350450  46.5579570  31.0401840  67.1227900
  47.4846880  30.8046110  67.1663860  46.5430000  31.8673840  66.6413930
  54.7924630  30.5827410  54.1202150  54.9676820  29.8965150  53.4763070
  54.0946200  31.1074460  53.7278820  43.7443180  13.7046590  66.8869780
  43.4627450  14.2080190  66.1230600  44.1262880  12.9068340  66.5211910
  50.3458640  13.1200170  67.4650250  50.2324090  13.4394780  68.3601770
  51.1628380  13.5212680  67.1687530  53.1257130  30.2671700  66.9468940
  53.9182450  29.7720930  66.7394900  53.4190280  30.9461840  67.5544550
  49.2516790  21.1392640  37.8284990  49.1710840  20.2247250  37.5576700
  48.8381210  21.6359710  37.1224700  47.3834830  22.9171660  39.7094260
  46.6076930  22.4372100  39.9992830  48.0347760  22.2377310  39.5350420
  41.4000660  23.2291470  40.5870020  40.5685540  22.9740180  40.9866530
  42.0081640  23.3002240  41.3227940  51.4042260  27.3231850  38.4893390
  50.9423790  26.5519090  38.8180560  52.2167810  27.3497920  38.9945840
  39.8092610  18.1893360  34.3712410  38.9209310  18.5309330  34.2692290
  40.0933800  17.9893680  33.4793240  37.7725620  20.7899010  40.2552110
  38.3441730  20.0221210  40.2555750  37.7727160  21.0887770  39.3458720
  46.8243820  25.5928850  39.7164420  46.7552100  24.6518790  39.5553550
  47.5863680  25.6830260  40.2886990  39.0150490  16.1983370  42.0421040
  38.8353330  15.3009120  42.3223800  38.6130570  16.7455240  42.7167990
  47.8548990  18.3999230  39.9433350  48.2313810  17.5271110  39.8307020
  47.7568500  18.7357930  39.0523790  41.9854000  16.7724860  35.4050790
  42.0920750  17.6728590  35.7119550  41.0746360  16.7242830  35.1145440
  51.6373110  15.8949670  36.8761690  52.4582730  15.4046240  36.9187170
  51.6707190  16.4847330  37.6293530  39.6337160  18.6943870  40.6503380
  40.3147270  18.9582240  41.2690780  39.3185210  17.8544740  40.9841390
  43.8261730  19.7411230  39.7375970  44.3339950  20.2392200  40.3780990
  44.3574970  18.9646430  39.5615330  55.9272660  17.9116420  43.4405320
  55.2224830  18.2998130  42.9220430  56.1930580  18.6066710  44.0426250
  42.1097830  14.3809790  44.0039390  42.1116270  14.8982180  43.1985290
  41.2802140  13.9039970  43.9809320  48.4968920  24.4929100  35.5029290
  47.8786190  24.9578550  34.9392010  49.0092170  25.1856580  35.9198800
  43.3600680  24.0204970  42.1812890  43.0270060  24.6473890  42.8233960
  43.5367360  24.5466850  41.4014560  51.8734590  17.8350050  39.6489230
  51.1690160  18.1234940  40.2292340  52.2346750  18.6450160  39.2888790
  41.7913160  16.0919750  42.0109840  42.1329970  16.9361800  41.7163710
  40.8528970  16.2403490  42.1275180  53.4897370  27.4525180  41.9116710
  52.8060890  28.1224290  41.9033380  54.0291660  27.6505830  41.1461570
  54.9421510  17.2804840  40.0398440  53.9946420  17.3143820  40.1713870
  55.2671500  18.0943790  40.4247800  45.4741050  13.5802020  38.3354430
  45.7816030  13.0248910  37.6189930  44.5441750  13.7146480  38.1527420
  52.3201530  26.0185530  35.7152060  52.2097860  25.0759860  35.8401480
  52.3169780  26.3801170  36.6014820  50.4241550  24.1999150  41.9544500
  50.8410340  23.9859260  41.1197960  51.1481370  24.4571940  42.5253120
  47.8621810  21.6450850  35.0714550  46.9351090  21.5788230  35.3003020
  48.0146630  22.5830980  34.9569790  47.8490890  17.9167850  32.0681710
  46.9094560  18.0781810  32.1534170  48.1674150  18.6353530  31.5217700
  54.3703650  22.5986370  42.0460740  53.5422280  22.6679460  41.5710870
  54.9654130  23.1840680  41.5776570  51.8919100  23.2071150  35.5749800
  51.2731520  22.8690700  34.9276100  51.8743550  22.5630910  36.2828990
  51.3345660  19.3855690  42.9915610  50.9216840  20.2109400  43.2455600
  50.6021610  18.8000730  42.7991970  43.4678450  22.1715590  37.8534280
  43.0635450  21.4592840  37.3580180  43.5541570  21.8268830  38.7422320
  42.1807070  18.9458800  41.6333320  42.7321660  19.0554140  40.8586570
  42.6950580  19.3196400  42.3488550  50.0683800  22.4457960  32.5822550
  50.5077080  21.6080390  32.4360370  50.7812220  23.0787360  32.6686690
  41.8549800  22.4678160  45.2438660  41.7157570  23.3400960  45.6126060
  40.9731160  22.1250970  45.0986600  53.6500940  13.7000770  30.8963590
  53.3373600  13.7927600  31.7962660  54.4113410  14.2781800  30.8461020
  40.1683080  21.0660570  35.3540930  40.0480680  21.7922660  34.7422200
  39.8583970  20.2963480  34.8768840  55.6044970  29.1926960  48.7487980
  56.0804690  29.6709850  49.4277060  56.2252130  29.1244450  48.0233480
  55.0078220  26.3839810  45.9087990  55.1341280  26.1451690  44.9905170
  55.0499600  25.5524350  46.3810070  50.5475490  27.8810710  32.4664800
  49.8540650  27.8788000  31.8067080  51.2898350  27.4570030  32.0358970
  54.8602230  18.4372270  46.8737730  54.2446500  18.9451940  46.3453190
  54.5398650  17.5370600  46.8163670  42.6346740  14.4095640  38.7364600
  42.1914890  15.1905180  38.4049120  43.1931730  14.7325530  39.4435540
  46.9216550  17.2764160  44.3399920  46.4595920  17.4847180  45.1519860
  46.5194660  16.4623510  44.0370590  51.9221060  18.4973110  45.4696580
  51.0714650  18.1978860  45.7905650  51.7622850  18.7415120  44.5580400
  49.0170770  19.9974860  47.5695370  49.3424180  19.1638610  47.2297600
  49.8051100  20.5203380  47.7173700  45.7505560  14.0306340  33.6170430
  45.1259740  14.0266210  34.3423740  45.6635680  13.1637300  33.2206400
  44.6722640  14.9542970  40.5954200  44.9694970  15.8605800  40.5146220
  45.2208200  14.4661750  39.9813770  42.4260960  19.5329210  36.4645850
  42.2001880  19.3166380  37.3692470  41.6453490  19.9657670  36.1191820
  49.6558720  19.5392580  35.0636500  49.0567610  20.2628380  34.8800120
  50.2038330  19.4769360  34.2812950  44.8660170  20.4314790  47.1306120
  44.7703770  19.4909520  46.9806520  45.7092150  20.6529860  46.7354190
  48.2623590  18.1756120  37.0939780  48.6553160  18.4928320  36.2808470
  48.6240440  17.2968000  37.2084300  39.9970710  16.8428460  45.2839900
  39.6034100  17.6903670  45.4912680  39.3089110  16.2054830  45.4748540
  46.5715760  16.9263430  48.3536640  45.8814080  16.7335630  48.9882730
  47.3148060  17.2098070  48.8860940  37.2987760  14.7656920  39.3169980
  37.0100810  15.3359780  40.0294960  38.0433520  14.2861370  39.6801210
  37.4857990  18.7077040  30.5272700  37.4032660  19.6507800  30.6687690
  37.1341050  18.5651950  29.6485050  48.8478730  20.7661870  41.1890560
  48.1159850  21.2748680  41.5380660  48.4503070  19.9491850  40.8879340
  45.2856120  17.4416070  39.5943050  45.2892180  17.0006020  38.7447590
  46.1807240  17.7633400  39.7014870  41.1358500  17.3242560  38.5537260
  40.7958550  17.8017790  39.3104310  40.3735820  16.8707680  38.1938360
  45.3476270  18.4428150  32.5849810  45.4689090  18.4014630  33.5335630
  44.9624780  19.3052300  32.4296540  49.3104640  16.2195550  40.6013500
  49.3277380  16.6704200  41.4455350  49.0620220  15.3201190  40.8146940
  44.3597770  20.7529290  31.9833110  43.7914670  20.3047540  31.3569020
  45.0686770  21.1122070  31.4498260  52.7375390  13.6327730  46.4399880
  53.0621160  12.9017390  46.9657860  52.7731900  13.3141370  45.5380870
  45.5864090  21.5017850  41.3408460  45.9534220  21.0276420  42.0869800
  45.3969150  22.3759420  41.6816800  38.4504580  16.2461540  37.4701930
  38.1651500  15.8817210  38.3080550  38.3883440  15.5142000  36.8565070
  43.3763460  20.5426490  43.6592670  43.0720530  21.4218470  43.8843030
  44.3309920  20.6026280  43.6950110  52.6633230  23.7452840  40.0485910
  53.3832350  24.2408130  39.6582020  52.4615050  23.0670730  39.4039780
  48.1243170  15.1390800  34.1915300  47.3107780  14.6403970  34.1160610
  47.9305120  15.9789050  33.7751650  48.0452030  23.8161900  45.9354910
  47.9789340  22.8957570  45.6812500  47.4157170  23.9137340  46.6499550
  50.8391560  19.5110450  32.4877460  51.7271180  19.8227680  32.3128800
  50.8096650  18.6382700  32.0958040  46.8352150  25.6834140  33.1665630
  47.1767850  26.4276370  32.6708950  46.0064860  25.9965260  33.5290460
  39.4327190  21.3829230  44.8064030  39.0742130  22.0483080  45.3937370
  39.1381750  20.5512780  45.1776650  42.6340310  21.8413470  47.6903580
  42.3340450  21.9870650  46.7931400  43.4051550  21.2818760  47.5976970
  47.9768760  26.6382470  45.6858710  47.9913300  25.7063430  45.4677620
  47.2693860  26.7242230  46.3248480  53.1105830  20.8222290  31.9557320
  53.0269550  21.2536510  31.1053760  53.8300020  21.2820640  32.3884140
  54.1879970  23.2789810  45.0327290  53.4628160  23.8718590  44.8356680
  54.7155430  23.2713350  44.2340660  54.1393080  27.6764550  34.6839450
  53.4969240  27.0220170  34.9583170  53.7523740  28.0819640  33.9080120
  49.7179560  25.0049980  38.5311140  50.0703380  24.4078110  37.8712510
  48.8341890  24.6794210  38.7019390  45.8042840  25.7647670  35.9381550
  46.4913970  26.3116880  36.3189140  45.0175260  26.3088400  35.9731160
  37.9435240  21.3820490  31.4298630  38.8130090  21.6645290  31.7134550
  37.4525560  22.1956360  31.3147440  45.1070050  22.7693700  35.5506910
  45.5632830  23.5798950  35.7767100  44.7558260  22.4516840  36.3825400
  41.0081830  13.1131350  36.0229430  40.8796460  13.1049250  36.9714350
  40.1843850  13.4514440  35.6720440  48.6834740  26.2832390  41.4976660
  49.3256970  25.5825550  41.6108830  49.2084090  27.0630830  41.3173550
  52.5290460  26.5681010  31.2215800  52.3028040  25.8511450  31.8140440
  52.1386660  26.3193450  30.3837550  50.4572360  27.0827290  44.7012720
  50.7928600  27.6693980  45.3790640  49.5372700  26.9520000  44.9310510
  38.0075760  14.8722470  45.4836130  37.2934280  15.0719390  46.0888740
  38.4270800  14.0962040  45.8550930  52.1106710  24.4852950  32.8829960
  51.8228410  24.9465640  33.6707840  52.9058880  24.0250720  33.1514180
  39.9281750  23.1993960  33.5580690  39.3209700  23.9392860  33.5675990
  40.4031100  23.2893320  32.7318890  49.5014540  17.3644780  43.2337580
  49.8695360  16.5439990  43.5617150  48.6412740  17.4246670  43.6493230
  52.8676570  16.3201720  34.0425140  52.2389730  16.4247390  33.3283370
  52.3728490  16.5398500  34.8319020  44.8360600  18.5987670  35.4583020
  44.1276750  19.0674010  35.8996630  45.1205080  17.9409680  36.0928210
  46.4616530  20.0184370  43.4575550  46.9601780  20.4930190  44.1227400
  46.6039480  19.0947890  43.6645580  48.8676030  15.3238330  36.8978810
  48.7443810  15.3424460  35.9488320  49.8160590  15.3717270  37.0177210
  43.0395620  16.9072750  32.8333730  43.8886150  17.3442900  32.7673920
  42.6726890  17.2193010  33.6605790  53.6683390  16.2352330  44.3003940
  53.1656990  16.9757730  44.6397750  54.4840050  16.6236330  43.9840730
  51.9605400  21.4785510  37.7465300  51.0195540  21.4935740  37.9212990
  52.2749470  20.6921470  38.1925600  41.9387040  23.1605110  31.3069260
  42.7050310  23.0486470  31.8694690  42.0161730  22.4643080  30.6546030
  40.6333800  20.5930180  31.9902150  40.7137390  19.6457690  32.1019550
  41.5253550  20.9237060  32.0962810  53.9630980  28.6494360  39.4219560
  54.0878400  29.4725530  39.8943370  54.8296540  28.4385090  39.0743710
  49.2771420  26.0351510  48.2297680  48.6709580  26.0583110  47.4893430
  48.9725530  25.3034550  48.7664930  53.5980990  29.1426010  32.3399000
  53.3122500  28.7291150  31.5253180  53.4000540  30.0713720  32.2199520
  45.0628220  25.1359290  30.7804610  44.9578860  24.5211640  31.5065990
  44.8952440  24.6125180  29.9967620  45.2142540  23.8216090  46.7593840
  44.4488210  24.3901090  46.6748510  45.3958500  23.5292300  45.8662070
  48.3030950  24.1979320  31.3846600  47.7541050  24.6448620  32.0289340
  48.9250210  23.6928570  31.9084270  52.3565890  25.5521420  47.3168860
  53.0975360  25.8897180  46.8136320  51.5938570  25.7213480  46.7638630
  40.1927680  20.5574690  48.1208390  40.2333020  20.2588560  49.0293620
  41.0473180  20.9582300  47.9615910  43.9706070  23.1570240  33.2811900
  44.3922490  22.9910110  34.1243290  44.0956910  22.3470470  32.7867040
  42.1333490  19.1366790  46.0882880  41.6029950  18.6457740  45.4606220
  42.8021560  19.5650990  45.5540810  46.4833710  22.1807850  30.5289000
  47.0039370  21.4656870  30.1630150  47.1302110  22.8193720  30.8289510
  51.0311550  23.6036250  45.8524070  51.4452570  23.7581330  46.7014490
  50.0962550  23.7291470  46.0149850  51.5033720  20.9432410  47.8563220
  52.0854490  20.1884730  47.7683700  51.6795490  21.4739850  47.0794700
  42.6205790  16.1029160  46.1680170  42.5262660  15.4849910  45.4431040
  42.0403180  16.8295450  45.9410080  45.3867230  14.6602400  43.2007560
  44.9384530  14.6826660  42.3553110  44.7532430  14.2621420  43.7977860
  45.7926780  23.5556730  43.8220000  46.2114890  24.3989460  43.6496240
  44.8735410  23.6928770  43.5926780  48.1290680  21.2872910  45.2057840
  48.2486890  20.6914050  45.9452680  48.9884680  21.3242600  44.7859140
  50.4678580  21.8410100  43.7820350  49.9413800  22.3652720  43.1785490
  50.8109920  22.4737490  44.4130080  42.8664970  19.2303470  30.2270060
  42.6654030  18.3670830  30.5883400  42.6957020  19.1436830  29.2891660
  44.8959450  17.8294260  46.4633660  45.4859140  17.5210110  47.1511480
  44.0779690  17.3574010  46.6193560  49.7152880  17.4460070  46.6966680
  49.0268400  16.7841610  46.6316670  50.4358900  16.9998340  47.1415140
  50.3453280  14.0411700  32.7556940  50.6255570  13.1979600  33.1116360
  49.5719010  14.2734810  33.2695690  41.6647770  16.3304090  30.2147940
  41.9673670  16.3371520  29.3067090  42.4042360  15.9801950  30.7115600
  44.8832700  15.2738710  31.2004140  44.5354700  14.5962700  30.6206590
  45.0845470  14.8128220  32.0147530  54.0276090  28.7923130  45.5256940
  53.4278080  28.8515690  44.7820860  54.1569990  27.8528110  45.6553790
  55.2677540  26.5340950  30.8626650  54.4370500  26.6017600  31.3333880
  55.4449370  27.4245070  30.5593510  54.7234000  23.2788430  33.3660850
  55.4852910  23.8485080  33.4720540  54.7388370  22.7115630  34.1369160
  38.2238340  21.8026360  37.5968510  37.5687180  21.5338000  36.9528210
  39.0616290  21.6930840  37.1470490  55.7293970  24.1338530  38.2102780
  56.1002800  23.3505850  37.8038750  56.3695900  24.8227630  38.0320080
  52.7127730  25.5175110  43.6233100  51.8987570  25.9472270  43.8858890
  53.1201930  26.1293520  43.0102150  54.7753170  23.5722800  30.5233370
  55.0502010  24.4801680  30.3952590  54.5863910  23.5085330  31.4595360
  51.1728780  16.5967650  31.8187000  51.5913660  16.4098630  30.9783660
  50.8664840  15.7446700  32.1289930  54.6718510  21.5091790  35.5162800
  54.2962110  20.7419720  35.0844090  53.9421630  21.8914490  36.0037730
  39.2614270  22.1878930  42.1371850  39.6287310  22.1006330  43.0167870
  38.6925090  21.4245480  42.0378710  54.0618130  20.6563310  45.1502320
  53.8304220  20.4276060  44.2500270  54.3222680  21.5762860  45.1047210
  38.8130270  19.0988020  46.0430270  37.9186320  19.0654780  46.3823980
  39.3527820  19.2974810  46.8081520  52.5006200  15.8819740  47.9282020
  53.3776380  15.8903140  48.3116020  52.5127040  15.1450580  47.3174370
  37.4376420  19.0125290  33.5393840  36.5340500  19.2755490  33.3645500
  37.9217040  19.2836460  32.7593800  53.9469470  19.7349280  38.8170040
  54.4706950  19.2411930  38.1860210  54.5328890  19.8699640  39.5617610
  54.1259190  19.8189150  42.3389590  53.1761900  19.7852690  42.4534580
  54.3072200  20.7289260  42.1039360  39.9803630  18.0690830  31.4488220
  40.6895330  17.6474050  30.9635500  39.2643570  18.1366060  30.8171570
  39.6277790  14.1230160  30.4890870  40.3505920  14.6639100  30.8072090
  39.9002310  13.8493580  29.6132410  53.4369440  18.9922630  34.7562450
  53.9328560  18.7593500  35.5411330  53.2385510  18.1534470  34.3400090
  39.3169980  13.3736350  40.3913490  39.9646170  12.8233730  39.9508650
  39.7371820  13.6279500  41.2129300  54.8656600  17.6283580  37.2900130
  54.7555880  17.4739620  38.2282400  55.6264190  17.1004520  37.0475540
  53.2122320  13.5677710  43.7483130  53.8494540  14.1811850  44.1142320
  53.3597210  13.6038370  42.8032360  55.7546870  15.4591500  30.5306270
  56.6796180  15.3272680  30.3224560  55.7322660  15.5384320  31.4842720
  55.8285360  16.2302160  33.1562980  55.0336860  16.1647280  33.6855890
  56.0328640  17.1652800  33.1448330  39.0701980  13.5292020  43.1338810
  38.7216800  13.9855840  43.8996990  38.7389680  12.6349150  43.2161240
  46.5826800  14.7203900  46.6558230  46.5215690  15.3125730  47.4053640
  47.5227180  14.6129860  46.5108490  49.2201360  14.3773960  46.2950520
  49.8341770  14.6953250  45.6331600  49.7650920  13.8922550  46.9146380
  55.6376540  30.2765590  43.7012360  55.1434820  30.6734460  42.9839490
  55.0289830  29.6514800  44.0949640  39.7422620  13.0568220  46.4089580
  40.2905610  12.8756270  45.6455690  39.8077930  12.2662330  46.9445890
  49.9609400  12.9406100  42.6219810  49.0869240  13.2741210  42.4192740
  49.8520150  12.4679280  43.4471680  50.8681380  15.1476970  44.0061530
  50.5394740  14.3328730  43.6263260  51.8163680  15.1046780  43.8827220
  47.7084220  13.8575940  41.5612720  46.9256010  14.3321440  41.8409480
  47.4147150  12.9530770  41.4525900  52.2605290  14.5599040  39.6061810
  52.7013380  14.5044140  38.7583410  51.9912880  15.4757050  39.6771990
  54.1243860  14.1914280  37.6170630  54.0632260  13.2475500  37.4701650
  54.9035890  14.2994370  38.1624090  39.0524630  14.1623420  34.0826440
  39.8103990  14.2752300  33.5090470  38.5901800  14.9992620  34.0369870
  45.5938440  16.2762690  37.0728750  44.7812950  15.9019580  36.7324630
  46.0980080  15.5207770  37.3749940  50.0963420  12.9405140  38.3111820
  50.6992790  13.5125350  38.7860340  49.3556410  13.5044580  38.0885720
  53.2398020  13.3426700  33.5852100  53.4348650  14.2410150  33.8519530
  52.4527890  13.1113780  34.0785050  41.4249780  14.6887470  32.6228410
  41.9542540  13.9017270  32.4936360  42.0578100  15.3678660  32.8563940
  43.6187620  14.4262610  35.6773800  42.9890360  13.7249920  35.8443930
  43.0792760  15.1866740  35.4606960  54.7924630  30.5827410  35.3458660
  54.9676820  29.8965150  34.7019580  54.0946200  31.1074460  34.9535330
  43.7443180  13.7046590  48.1126290  43.4627450  14.2080190  47.3487110
  44.1262880  12.9068340  47.7468420  50.3458640  13.1200170  48.6906760
  50.2324090  13.4394780  49.5858280  51.1628380  13.5212680  48.3944040
  49.2516790  21.1392640  19.0541500  49.1710840  20.2247250  18.7833210
  48.8381210  21.6359710  18.3481210  47.3834830  22.9171660  20.9350770
  46.6076930  22.4372100  21.2249340  48.0347760  22.2377310  20.7606930
  41.4000660  23.2291470  21.8126530  40.5685540  22.9740180  22.2123040
  42.0081640  23.3002240  22.5484450  51.4042260  27.3231850  19.7149900
  50.9423790  26.5519090  20.0437070  52.2167810  27.3497920  20.2202350
  41.3801920  27.2631560  22.0084550  41.6829960  26.3729300  21.8294770
  42.1245510  27.8201780  21.7806800  39.8092610  18.1893360  15.5968920
  38.9209310  18.5309330  15.4948800  40.0933800  17.9893680  14.7049750
  37.7725620  20.7899010  21.4808620  38.3441730  20.0221210  21.4812260
  37.7727160  21.0887770  20.5715230  47.6305570  29.6089860  19.3353890
  47.0117010  30.0647360  18.7648330  48.4857350  29.7641320  18.9343590
  46.8243820  25.5928850  20.9420930  46.7552100  24.6518790  20.7810060
  47.5863680  25.6830260  21.5143500  39.0150490  16.1983370  23.2677550
  38.8353330  15.3009120  23.5480310  38.6130570  16.7455240  23.9424500
  47.8548990  18.3999230  21.1689860  48.2313810  17.5271110  21.0563530
  47.7568500  18.7357930  20.2780300  41.9854000  16.7724860  16.6307300
  42.0920750  17.6728590  16.9376060  41.0746360  16.7242830  16.3401950
  51.6373110  15.8949670  18.1018200  52.4582730  15.4046240  18.1443680
  51.6707190  16.4847330  18.8550040  39.6337160  18.6943870  21.8759890
  40.3147270  18.9582240  22.4947290  39.3185210  17.8544740  22.2097900
  43.8261730  19.7411230  20.9632480  44.3339950  20.2392200  21.6037500
  44.3574970  18.9646430  20.7871840  55.9272660  17.9116420  24.6661830
  55.2224830  18.2998130  24.1476940  56.1930580  18.6066710  25.2682760
  42.1097830  14.3809790  25.2295900  42.1116270  14.8982180  24.4241800
  41.2802140  13.9039970  25.2065830  48.4968920  24.4929100  16.7285800
  47.8786190  24.9578550  16.1648520  49.0092170  25.1856580  17.1455310
  43.3600680  24.0204970  23.4069400  43.0270060  24.6473890  24.0490470
  43.5367360  24.5466850  22.6271070  51.8734590  17.8350050  20.8745740
  51.1690160  18.1234940  21.4548850  52.2346750  18.6450160  20.5145300
  41.7913160  16.0919750  23.2366350  42.1329970  16.9361800  22.9420220
  40.8528970  16.2403490  23.3531690  42.5719780  25.9885770  25.2218580
  43.1893780  26.6636850  24.9403030  41.7112900  26.3973750  25.1306080
  37.8652120  25.1785630  14.1025430  37.4880100  25.6672730  13.3710330
  38.1225190  25.8510910  14.7331960  53.4897370  27.4525180  23.1373220
  52.8060890  28.1224290  23.1289890  54.0291660  27.6505830  22.3718080
  54.9421510  17.2804840  21.2654950  53.9946420  17.3143820  21.3970380
  55.2671500  18.0943790  21.6504310  45.4741050  13.5802020  19.5610940
  45.7816030  13.0248910  18.8446440  44.5441750  13.7146480  19.3783930
  51.0256110  29.2969310  21.8518400  51.0383270  28.8931600  20.9840660
  50.4731330  30.0716600  21.7479830  52.3201530  26.0185530  16.9408570
  52.2097860  25.0759860  17.0657990  52.3169780  26.3801170  17.8271330
  50.4241550  24.1999150  23.1801010  50.8410340  23.9859260  22.3454470
  51.1481370  24.4571940  23.7509630  47.8621810  21.6450850  16.2971060
  46.9351090  21.5788230  16.5259530  48.0146630  22.5830980  16.1826300
  47.8490890  17.9167850  13.2938220  46.9094560  18.0781810  13.3790680
  48.1674150  18.6353530  12.7474210  54.3703650  22.5986370  23.2717250
  53.5422280  22.6679460  22.7967380  54.9654130  23.1840680  22.8033080
  51.8919100  23.2071150  16.8006310  51.2731520  22.8690700  16.1532610
  51.8743550  22.5630910  17.5085500  51.3345660  19.3855690  24.2172120
  50.9216840  20.2109400  24.4712110  50.6021610  18.8000730  24.0248480
  43.4678450  22.1715590  19.0790790  43.0635450  21.4592840  18.5836690
  43.5541570  21.8268830  19.9678830  43.9360150  25.8583150  21.2430000
  43.6388440  25.2528620  20.5637780  44.8859970  25.8960460  21.1319360
  42.1807070  18.9458800  22.8589830  42.7321660  19.0554140  22.0843080
  42.6950580  19.3196400  23.5745060  52.0245760  29.4315020  24.9053100
  51.5476320  30.2387210  24.7125710  51.3407550  28.7793350  25.0579310
  43.0278580  25.5964840  27.8937800  42.1307110  25.8204810  28.1411200
  43.0531450  25.7199780  26.9449200  50.0683800  22.4457960  13.8079060
  50.5077080  21.6080390  13.6616880  50.7812220  23.0787360  13.8943200
  41.8549800  22.4678160  26.4695170  41.7157570  23.3400960  26.8382570
  40.9731160  22.1250970  26.3243110  48.1779180  27.3854030  17.7760300
  48.6175090  28.1278360  17.3615690  48.1166070  27.6280600  18.6999260
  53.6500940  13.7000770  12.1220100  53.3373600  13.7927600  13.0219170
  54.4113410  14.2781800  12.0717530  40.1683080  21.0660570  16.5797440
  40.0480680  21.7922660  15.9678710  39.8583970  20.2963480  16.1025350
  55.6044970  29.1926960  29.9744490  56.0804690  29.6709850  30.6533570
  56.2252130  29.1244450  29.2489990  37.8068450  24.2375710  22.3866080
  37.8848870  24.3724480  21.4421800  38.4210130  23.5291600  22.5794200
  39.0516080  25.9375900  18.7972260  38.6444160  26.0790490  17.9425860
  39.9429090  25.6536060  18.5943470  55.0078220  26.3839810  27.1344500
  55.1341280  26.1451690  26.2161680  55.0499600  25.5524350  27.6066580
  50.8449360  30.3723150  15.1323310  50.6850500  30.0826090  16.0305140
  50.6796070  29.5963280  14.5968540  43.3237740  30.1521680  16.9094930
  43.1480220  29.2357220  16.6962730  42.4693480  30.5108970  17.1492730
  50.5475490  27.8810710  13.6921310  49.8540650  27.8788000  13.0323590
  51.2898350  27.4570030  13.2615480  50.1125420  29.5073420  17.7669800
  50.5682370  28.7262800  18.0808420  50.4517940  30.2180240  18.3110980
  54.8602230  18.4372270  28.0994240  54.2446500  18.9451940  27.5709700
  54.5398650  17.5370600  28.0420180  37.8627970  25.2789880  24.9260540
  38.0259010  24.8095240  24.1079910  38.3280420  24.7713440  25.5909380
  42.6346740  14.4095640  19.9621110  42.1914890  15.1905180  19.6305630
  43.1931730  14.7325530  20.6692050  46.9216550  17.2764160  25.5656430
  46.4595920  17.4847180  26.3776370  46.5194660  16.4623510  25.2627100
  51.9221060  18.4973110  26.6953090  51.0714650  18.1978860  27.0162160
  51.7622850  18.7415120  25.7836910  49.0170770  19.9974860  28.7951880
  49.3424180  19.1638610  28.4554110  49.8051100  20.5203380  28.9430210
  45.7505560  14.0306340  14.8426940  45.1259740  14.0266210  15.5680250
  45.6635680  13.1637300  14.4462910  44.6722640  14.9542970  21.8210710
  44.9694970  15.8605800  21.7402730  45.2208200  14.4661750  21.2070280
  42.4260960  19.5329210  17.6902360  42.2001880  19.3166380  18.5948980
  41.6453490  19.9657670  17.3448330  49.6558720  19.5392580  16.2893010
  49.0567610  20.2628380  16.1056630  50.2038330  19.4769360  15.5069460
  44.8660170  20.4314790  28.3562630  44.7703770  19.4909520  28.2063030
  45.7092150  20.6529860  27.9610700  48.2623590  18.1756120  18.3196290
  48.6553160  18.4928320  17.5064980  48.6240440  17.2968000  18.4340810
  39.9970710  16.8428460  26.5096410  39.6034100  17.6903670  26.7169190
  39.3089110  16.2054830  26.7005050  46.5715760  16.9263430  29.5793150
  45.8814080  16.7335630  30.2139240  47.3148060  17.2098070  30.1117450
  37.2987760  14.7656920  20.5426490  37.0100810  15.3359780  21.2551470
  38.0433520  14.2861370  20.9057720  37.4857990  18.7077040  11.7529210
  37.4032660  19.6507800  11.8944200  37.1341050  18.5651950  10.8741560
  48.8478730  20.7661870  22.4147070  48.1159850  21.2748680  22.7637170
  48.4503070  19.9491850  22.1135850  45.2856120  17.4416070  20.8199560
  45.2892180  17.0006020  19.9704100  46.1807240  17.7633400  20.9271380
  41.1358500  17.3242560  19.7793770  40.7958550  17.8017790  20.5360820
  40.3735820  16.8707680  19.4194870  45.3476270  18.4428150  13.8106320
  45.4689090  18.4014630  14.7592140  44.9624780  19.3052300  13.6553050
  49.3104640  16.2195550  21.8270010  49.3277380  16.6704200  22.6711860
  49.0620220  15.3201190  22.0403450  44.3597770  20.7529290  13.2089620
  43.7914670  20.3047540  12.5825530  45.0686770  21.1122070  12.6754770
  52.7375390  13.6327730  27.6656390  53.0621160  12.9017390  28.1914370
  52.7731900  13.3141370  26.7637380  39.4366950  24.6541310  27.0856350
  39.0521740  24.0134980  27.6839310  39.7479140  25.3577430  27.6551080
  45.5864090  21.5017850  22.5664970  45.9534220  21.0276420  23.3126310
  45.3969150  22.3759420  22.9073310  38.4504580  16.2461540  18.6958440
  38.1651500  15.8817210  19.5337060  38.3883440  15.5142000  18.0821580
  43.3763460  20.5426490  24.8849180  43.0720530  21.4218470  25.1099540
  44.3309920  20.6026280  24.9206620  41.9045250  24.7487480  15.4816030
  41.1307510  24.2085100  15.3214750  42.6339880  24.2294090  15.1433790
  52.6633230  23.7452840  21.2742420  53.3832350  24.2408130  20.8838530
  52.4615050  23.0670730  20.6296290  48.1243170  15.1390800  15.4171810
  47.3107780  14.6403970  15.3417120  47.9305120  15.9789050  15.0008160
  48.0452030  23.8161900  27.1611420  47.9789340  22.8957570  26.9069010
  47.4157170  23.9137340  27.8756060  50.8391560  19.5110450  13.7133970
  51.7271180  19.8227680  13.5385310  50.8096650  18.6382700  13.3214550
  41.9482650  24.4167860  19.1194840  42.4661320  23.6136120  19.0651730
  41.4966670  24.3547000  19.9611670  46.8352150  25.6834140  14.3922140
  47.1767850  26.4276370  13.8965460  46.0064860  25.9965260  14.7546970
  39.4327190  21.3829230  26.0320540  39.0742130  22.0483080  26.6193880
  39.1381750  20.5512780  26.4033160  42.6340310  21.8413470  28.9160090
  42.3340450  21.9870650  28.0187910  43.4051550  21.2818760  28.8233480
  47.9768760  26.6382470  26.9115220  47.9913300  25.7063430  26.6934130
  47.2693860  26.7242230  27.5504990  53.1105830  20.8222290  13.1813830
  53.0269550  21.2536510  12.3310270  53.8300020  21.2820640  13.6140650
  54.1879970  23.2789810  26.2583800  53.4628160  23.8718590  26.0613190
  54.7155430  23.2713350  25.4597170  54.1393080  27.6764550  15.9095960
  53.4969240  27.0220170  16.1839680  53.7523740  28.0819640  15.1336630
  49.7179560  25.0049980  19.7567650  50.0703380  24.4078110  19.0969020
  48.8341890  24.6794210  19.9275900  45.8042840  25.7647670  17.1638060
  46.4913970  26.3116880  17.5445650  45.0175260  26.3088400  17.1987670
  37.9435240  21.3820490  12.6555140  38.8130090  21.6645290  12.9391060
  37.4525560  22.1956360  12.5403950  45.1070050  22.7693700  16.7763420
  45.5632830  23.5798950  17.0023610  44.7558260  22.4516840  17.6081910
  47.4102660  28.2800040  24.0055720  48.0544880  28.4859420  24.6829140
  47.7732100  27.5188440  23.5526570  41.0081830  13.1131350  17.2485940
  40.8796460  13.1049250  18.1970860  40.1843850  13.4514440  16.8976950
  48.6834740  26.2832390  22.7233170  49.3256970  25.5825550  22.8365340
  49.2084090  27.0630830  22.5430060  52.5290460  26.5681010  12.4472310
  52.3028040  25.8511450  13.0396950  52.1386660  26.3193450  11.6094060
  50.4572360  27.0827290  25.9269230  50.7928600  27.6693980  26.6047150
  49.5372700  26.9520000  26.1567020  38.3106490  30.5947870  13.2216770
  38.6704130  31.1937210  12.5674040  38.1698830  31.1407760  13.9951800
  38.0075760  14.8722470  26.7092640  37.2934280  15.0719390  27.3145250
  38.4270800  14.0962040  27.0807440  52.1106710  24.4852950  14.1086470
  51.8228410  24.9465640  14.8964350  52.9058880  24.0250720  14.3770690
  46.2860940  27.1318620  29.0957290  45.9657810  26.4127860  29.6402980
  45.6119300  27.8073690  29.1693350  44.3275110  27.9779070  14.0390440
  44.3185210  28.7108760  13.4234950  43.4073470  27.7310650  14.1317400
  39.9281750  23.1993960  14.7837200  39.3209700  23.9392860  14.7932500
  40.4031100  23.2893320  13.9575400  49.5014540  17.3644780  24.4594090
  49.8695360  16.5439990  24.7873660  48.6412740  17.4246670  24.8749740
  52.8676570  16.3201720  15.2681650  52.2389730  16.4247390  14.5539880
  52.3728490  16.5398500  16.0575530  47.3134710  28.0407310  12.7015630
  47.4146690  27.8371300  11.7717610  46.4136450  27.7865590  12.9063410
  44.8360600  18.5987670  16.6839530  44.1276750  19.0674010  17.1253140
  45.1205080  17.9409680  17.3184720  46.4616530  20.0184370  24.6832060
  46.9601780  20.4930190  25.3483910  46.6039480  19.0947890  24.8902090
  48.8676030  15.3238330  18.1235320  48.7443810  15.3424460  17.1744830
  49.8160590  15.3717270  18.2433720  45.9552820  30.5593630  17.3963300
  46.2094320  30.5215020  16.4742670  45.0065300  30.4326960  17.3891550
  43.0395620  16.9072750  14.0590240  43.8886150  17.3442900  13.9930430
  42.6726890  17.2193010  14.8862300  53.6683390  16.2352330  25.5260450
  53.1656990  16.9757730  25.8654260  54.4840050  16.6236330  25.2097240
  51.9605400  21.4785510  18.9721810  51.0195540  21.4935740  19.1469500
  52.2749470  20.6921470  19.4182110  41.9387040  23.1605110  12.5325770
  42.7050310  23.0486470  13.0951200  42.0161730  22.4643080  11.8802540
  40.6333800  20.5930180  13.2158660  40.7137390  19.6457690  13.3276060
  41.5253550  20.9237060  13.3219320  53.9630980  28.6494360  20.6476070
  54.0878400  29.4725530  21.1199880  54.8296540  28.4385090  20.3000220
  41.4348510  30.7425570  20.3193200  42.1710990  30.1941030  20.5901770
  41.8189430  31.6081580  20.1799190  38.3193990  26.8099140  16.1934710
  37.3933770  27.0520280  16.1840120  38.7850420  27.6373400  16.0719460
  44.5450820  29.9155880  12.1418770  45.3379430  30.2044710  11.6900560
  44.0255170  29.4848050  11.4631250  49.2771420  26.0351510  29.4554190
  48.6709580  26.0583110  28.7149940  48.9725530  25.3034550  29.9921440
  53.5980990  29.1426010  13.5655510  53.3122500  28.7291150  12.7509690
  53.4000540  30.0713720  13.4456030  38.1604600  22.4145100  28.4514830
  38.6643620  21.8352380  29.0231060  37.4212020  22.6985330  28.9891200
  45.0628220  25.1359290  12.0061120  44.9578860  24.5211640  12.7322500
  44.8952440  24.6125180  11.2224130  45.2142540  23.8216090  27.9850350
  44.4488210  24.3901090  27.9005020  45.3958500  23.5292300  27.0918580
  48.3030950  24.1979320  12.6103110  47.7541050  24.6448620  13.2545850
  48.9250210  23.6928570  13.1340780  52.3565890  25.5521420  28.5425370
  53.0975360  25.8897180  28.0392830  51.5938570  25.7213480  27.9895140
  40.1927680  20.5574690  29.3464900  40.2333020  20.2588560  30.2550130
  41.0473180  20.9582300  29.1872420  43.9706070  23.1570240  14.5068410
  44.3922490  22.9910110  15.3499800  44.0956910  22.3470470  14.0123550
  42.1333490  19.1366790  27.3139390  41.6029950  18.6457740  26.6862730
  42.8021560  19.5650990  26.7797320  46.4833710  22.1807850  11.7545510
  47.0039370  21.4656870  11.3886660  47.1302110  22.8193720  12.0546020
  51.0311550  23.6036250  27.0780580  51.4452570  23.7581330  27.9271000
  50.0962550  23.7291470  27.2406360  51.5033720  20.9432410  29.0819730
  52.0854490  20.1884730  28.9940210  51.6795490  21.4739850  28.3051210
  42.6205790  16.1029160  27.3936680  42.5262660  15.4849910  26.6687550
  42.0403180  16.8295450  27.1666590  45.3867230  14.6602400  24.4264070
  44.9384530  14.6826660  23.5809620  44.7532430  14.2621420  25.0234370
  45.7926780  23.5556730  25.0476510  46.2114890  24.3989460  24.8752750
  44.8735410  23.6928770  24.8183290  48.1290680  21.2872910  26.4314350
  48.2486890  20.6914050  27.1709190  48.9884680  21.3242600  26.0115650
  50.4678580  21.8410100  25.0076860  49.9413800  22.3652720  24.4042000
  50.8109920  22.4737490  25.6386590  42.8664970  19.2303470  11.4526570
  42.6654030  18.3670830  11.8139910  42.6957020  19.1436830  10.5148170
  44.8959450  17.8294260  27.6890170  45.4859140  17.5210110  28.3767990
  44.0779690  17.3574010  27.8450070  49.7152880  17.4460070  27.9223190
  49.0268400  16.7841610  27.8573180  50.4358900  16.9998340  28.3671650
  50.3453280  14.0411700  13.9813450  50.6255570  13.1979600  14.3372870
  49.5719010  14.2734810  14.4952200  41.6647770  16.3304090  11.4404450
  41.9673670  16.3371520  10.5323600  42.4042360  15.9801950  11.9372110
  44.8832700  15.2738710  12.4260650  44.5354700  14.5962700  11.8463100
  45.0845470  14.8128220  13.2404040  47.0481740  30.2619460  14.0447250
  47.9432530  30.6004430  14.0666010  47.0799370  29.5398870  13.4171530
  40.6877900  25.6346510  12.2734250  41.1252770  26.1776180  12.9291830
  41.1725630  24.8093460  12.2830590  37.9023700  28.4235540  19.7254510
  38.2326710  27.5556600  19.4933150  38.3314700  28.6294060  20.5559470
  42.4985620  26.7544550  17.3856480  42.1981160  26.6309520  18.2860390
  42.3923110  25.8953140  16.9772210  38.3913910  29.2906130  22.4636140
  37.9544900  29.4706930  23.2960290  38.9591590  30.0480750  22.3217860
  54.0276090  28.7923130  26.7513450  53.4278080  28.8515690  26.0077370
  54.1569990  27.8528110  26.8810300  55.2677540  26.5340950  12.0883160
  54.4370500  26.6017600  12.5590390  55.4449370  27.4245070  11.7850020
  54.7234000  23.2788430  14.5917360  55.4852910  23.8485080  14.6977050
  54.7388370  22.7115630  15.3625670  38.2238340  21.8026360  18.8225020
  37.5687180  21.5338000  18.1784720  39.0616290  21.6930840  18.3727000
  55.7293970  24.1338530  19.4359290  56.1002800  23.3505850  19.0295260
  56.3695900  24.8227630  19.2576590  52.7127730  25.5175110  24.8489610
  51.8987570  25.9472270  25.1115400  53.1201930  26.1293520  24.2358660
  54.7753170  23.5722800  11.7489880  55.0502010  24.4801680  11.6209100
  54.5863910  23.5085330  12.6851870  51.1728780  16.5967650  13.0443510
  51.5913660  16.4098630  12.2040170  50.8664840  15.7446700  13.3546440
  54.6718510  21.5091790  16.7419310  54.2962110  20.7419720  16.3100600
  53.9421630  21.8914490  17.2294240  39.2614270  22.1878930  23.3628360
  39.6287310  22.1006330  24.2424380  38.6925090  21.4245480  23.2635220
  54.0618130  20.6563310  26.3758830  53.8304220  20.4276060  25.4756780
  54.3222680  21.5762860  26.3303720  38.8130270  19.0988020  27.2686780
  37.9186320  19.0654780  27.6080490  39.3527820  19.2974810  28.0338030
  52.5006200  15.8819740  29.1538530  53.3776380  15.8903140  29.5372530
  52.5127040  15.1450580  28.5430880  37.4376420  19.0125290  14.7650350
  36.5340500  19.2755490  14.5902010  37.9217040  19.2836460  13.9850310
  53.9469470  19.7349280  20.0426550  54.4706950  19.2411930  19.4116720
  54.5328890  19.8699640  20.7874120  54.1259190  19.8189150  23.5646100
  53.1761900  19.7852690  23.6791090  54.3072200  20.7289260  23.3295870
  39.9803630  18.0690830  12.6744730  40.6895330  17.6474050  12.1892010
  39.2643570  18.1366060  12.0428080  39.6277790  14.1230160  11.7147380
  40.3505920  14.6639100  12.0328600  39.9002310  13.8493580  10.8388920
  53.4369440  18.9922630  15.9818960  53.9328560  18.7593500  16.7667840
  53.2385510  18.1534470  15.5656600  39.3169980  13.3736350  21.6170000
  39.9646170  12.8233730  21.1765160  39.7371820  13.6279500  22.4385810
  54.8656600  17.6283580  18.5156640  54.7555880  17.4739620  19.4538910
  55.6264190  17.1004520  18.2732050  53.2122320  13.5677710  24.9739640
  53.8494540  14.1811850  25.3398830  53.3597210  13.6038370  24.0288870
  55.7546870  15.4591500  11.7562780  56.6796180  15.3272680  11.5481070
  55.7322660  15.5384320  12.7099230  55.8285360  16.2302160  14.3819490
  55.0336860  16.1647280  14.9112400  56.0328640  17.1652800  14.3704840
  52.7703780  30.2693710  18.3757880  53.3662850  29.9478280  17.6992300
  53.0281930  29.7965530  19.1671150  39.0701980  13.5292020  24.3595320
  38.7216800  13.9855840  25.1253500  38.7389680  12.6349150  24.4417750
  44.3772380  28.2571210  24.1258230  44.1363740  28.5245770  23.2388750
  45.3175020  28.4276940  24.1809090  46.5826800  14.7203900  27.8814740
  46.5215690  15.3125730  28.6310150  47.5227180  14.6129860  27.7365000
  49.2201360  14.3773960  27.5207030  49.8341770  14.6953250  26.8588110
  49.7650920  13.8922550  28.1402890  55.6376540  30.2765590  24.9268870
  55.1434820  30.6734460  24.2096000  55.0289830  29.6514800  25.3206150
  39.7422620  13.0568220  27.6346090  40.2905610  12.8756270  26.8712200
  39.8077930  12.2662330  28.1702400  49.9609400  12.9406100  23.8476320
  49.0869240  13.2741210  23.6449250  49.8520150  12.4679280  24.6728190
  50.8681380  15.1476970  25.2318040  50.5394740  14.3328730  24.8519770
  51.8163680  15.1046780  25.1083730  53.3215990  30.9189010  22.2055610
  52.8618960  31.6704820  21.8313630  52.6928450  30.1995480  22.1470410
  40.1466610  27.0132250  24.5954330  39.4200670  26.3937540  24.5280280
  40.2075760  27.4072860  23.7252410  43.7511710  29.2277250  21.3803740
  44.2676730  28.6164610  20.8552000  44.4009090  29.7306030  21.8714750
  46.4907210  30.1185740  22.2072720  46.7785020  29.8640040  21.3305730
  47.0030430  29.5663100  22.7978290  47.7084220  13.8575940  22.7869230
  46.9256010  14.3321440  23.0665990  47.4147150  12.9530770  22.6782410
  52.2605290  14.5599040  20.8318320  52.7013380  14.5044140  19.9839920
  51.9912880  15.4757050  20.9028500  54.1243860  14.1914280  18.8427140
  54.0632260  13.2475500  18.6958160  54.9035890  14.2994370  19.3880600
  38.4296610  30.3306640  17.8051090  38.2618650  29.6977320  18.5032980
  37.5631120  30.5366040  17.4545280  39.0524630  14.1623420  15.3082950
  39.8103990  14.2752300  14.7346980  38.5901800  14.9992620  15.2626380
  45.5938440  16.2762690  18.2985260  44.7812950  15.9019580  17.9581140
  46.0980080  15.5207770  18.6006450  50.0963420  12.9405140  19.5368330
  50.6992790  13.5125350  20.0116850  49.3556410  13.5044580  19.3142230
  53.2398020  13.3426700  14.8108610  53.4348650  14.2410150  15.0776040
  52.4527890  13.1113780  15.3041560  40.0359310  29.0239870  15.2501230
  39.5106930  29.4047900  14.5463190  39.9603890  29.6490640  15.9710940
  41.4249780  14.6887470  13.8484920  41.9542540  13.9017270  13.7192870
  42.0578100  15.3678660  14.0820450  43.6187620  14.4262610  16.9030310
  42.9890360  13.7249920  17.0700440  43.0792760  15.1866740  16.6863470
  54.7924630  30.5827410  16.5715170  54.9676820  29.8965150  15.9276090
  54.0946200  31.1074460  16.1791840  43.7443180  13.7046590  29.3382800
  43.4627450  14.2080190  28.5743620  44.1262880  12.9068340  28.9724930
  42.6352280  30.9722250  14.1250480  43.3671100  30.6881530  13.5774370
  42.8945950  30.7335530  15.0149860  41.7967070  27.0886980  14.1296810
  41.1675950  27.5572080  14.6782640  41.9114900  26.2436200  14.5643000
  50.3458640  13.1200170  29.9163270  50.2324090  13.4394780  30.8114790
  51.1628380  13.5212680  29.6200550  53.1257130  30.2671700  29.3981960
  53.9182450  29.7720930  29.1907920  53.4190280  30.9461840  30.0057570
  47.3834830  22.9171660   2.1607280  46.6076930  22.4372100   2.4505850
  48.0347760  22.2377310   1.9863440  41.4000660  23.2291470   3.0383040
  40.5685540  22.9740180   3.4379550  42.0081640  23.3002240   3.7740960
  41.3801920  27.2631560   3.2341060  41.6829960  26.3729300   3.0551280
  42.1245510  27.8201780   3.0063310  37.7725620  20.7899010   2.7065130
  38.3441730  20.0221210   2.7068770  37.7727160  21.0887770   1.7971740
  46.8243820  25.5928850   2.1677440  46.7552100  24.6518790   2.0066570
  47.5863680  25.6830260   2.7400010  39.0150490  16.1983370   4.4934060
  38.8353330  15.3009120   4.7736820  38.6130570  16.7455240   5.1681010
  47.8548990  18.3999230   2.3946370  48.2313810  17.5271110   2.2820040
  47.7568500  18.7357930   1.5036810  39.6337160  18.6943870   3.1016400
  40.3147270  18.9582240   3.7203800  39.3185210  17.8544740   3.4354410
  43.8261730  19.7411230   2.1888990  44.3339950  20.2392200   2.8294010
  44.3574970  18.9646430   2.0128350  55.9272660  17.9116420   5.8918340
  55.2224830  18.2998130   5.3733450  56.1930580  18.6066710   6.4939270
  42.1097830  14.3809790   6.4552410  42.1116270  14.8982180   5.6498310
  41.2802140  13.9039970   6.4322340  43.3600680  24.0204970   4.6325910
  43.0270060  24.6473890   5.2746980  43.5367360  24.5466850   3.8527580
  51.8734590  17.8350050   2.1002250  51.1690160  18.1234940   2.6805360
  52.2346750  18.6450160   1.7401810  41.7913160  16.0919750   4.4622860
  42.1329970  16.9361800   4.1676730  40.8528970  16.2403490   4.5788200
  42.5719780  25.9885770   6.4475090  43.1893780  26.6636850   6.1659540
  41.7112900  26.3973750   6.3562590  53.4897370  27.4525180   4.3629730
  52.8060890  28.1224290   4.3546400  54.0291660  27.6505830   3.5974590
  54.9421510  17.2804840   2.4911460  53.9946420  17.3143820   2.6226890
  55.2671500  18.0943790   2.8760820  51.0256110  29.2969310   3.0774910
  51.0383270  28.8931600   2.2097170  50.4731330  30.0716600   2.9736340
  50.4241550  24.1999150   4.4057520  50.8410340  23.9859260   3.5710980
  51.1481370  24.4571940   4.9766140  54.3703650  22.5986370   4.4973760
  53.5422280  22.6679460   4.0223890  54.9654130  23.1840680   4.0289590
  51.3345660  19.3855690   5.4428630  50.9216840  20.2109400   5.6968620
  50.6021610  18.8000730   5.2504990  43.9360150  25.8583150   2.4686510
  43.6388440  25.2528620   1.7894290  44.8859970  25.8960460   2.3575870
  42.1807070  18.9458800   4.0846340  42.7321660  19.0554140   3.3099590
  42.6950580  19.3196400   4.8001570  52.0245760  29.4315020   6.1309610
  51.5476320  30.2387210   5.9382220  51.3407550  28.7793350   6.2835820
  43.0278580  25.5964840   9.1194310  42.1307110  25.8204810   9.3667710
  43.0531450  25.7199780   8.1705710  41.8549800  22.4678160   7.6951680
  41.7157570  23.3400960   8.0639080  40.9731160  22.1250970   7.5499620
  43.6530150  28.4099860   9.9036830  43.6245580  28.8142810   9.0365260
  43.4895120  27.4810220   9.7408430  55.6044970  29.1926960  11.2001000
  56.0804690  29.6709850  11.8790080  56.2252130  29.1244450  10.4746500
  37.8068450  24.2375710   3.6122590  37.8848870  24.3724480   2.6678310
  38.4210130  23.5291600   3.8050710  55.0078220  26.3839810   8.3601010
  55.1341280  26.1451690   7.4418190  55.0499600  25.5524350   8.8323090
  48.8694960  30.0867810   6.9295820  49.3839630  29.9975820   7.7318250
  48.0264040  30.4327510   7.2223730  54.8602230  18.4372270   9.3250750
  54.2446500  18.9451940   8.7966210  54.5398650  17.5370600   9.2676690
  37.8627970  25.2789880   6.1517050  38.0259010  24.8095240   5.3336420
  38.3280420  24.7713440   6.8165890  46.9216550  17.2764160   6.7912940
  46.4595920  17.4847180   7.6032880  46.5194660  16.4623510   6.4883610
  51.9221060  18.4973110   7.9209600  51.0714650  18.1978860   8.2418670
  51.7622850  18.7415120   7.0093420  49.0170770  19.9974860  10.0208390
  49.3424180  19.1638610   9.6810620  49.8051100  20.5203380  10.1686720
  44.6722640  14.9542970   3.0467220  44.9694970  15.8605800   2.9659240
  45.2208200  14.4661750   2.4326790  44.8660170  20.4314790   9.5819140
  44.7703770  19.4909520   9.4319540  45.7092150  20.6529860   9.1867210
  39.9970710  16.8428460   7.7352920  39.6034100  17.6903670   7.9425700
  39.3089110  16.2054830   7.9261560  46.5715760  16.9263430  10.8049660
  45.8814080  16.7335630  11.4395750  47.3148060  17.2098070  11.3373960
  37.2987760  14.7656920   1.7683000  37.0100810  15.3359780   2.4807980
  38.0433520  14.2861370   2.1314230  48.8478730  20.7661870   3.6403580
  48.1159850  21.2748680   3.9893680  48.4503070  19.9491850   3.3392360
  49.3104640  16.2195550   3.0526520  49.3277380  16.6704200   3.8968370
  49.0620220  15.3201190   3.2659960  52.7375390  13.6327730   8.8912900
  53.0621160  12.9017390   9.4170880  52.7731900  13.3141370   7.9893890
  39.4366950  24.6541310   8.3112860  39.0521740  24.0134980   8.9095820
  39.7479140  25.3577430   8.8807590  45.5864090  21.5017850   3.7921480
  45.9534220  21.0276420   4.5382820  45.3969150  22.3759420   4.1329820
  43.3763460  20.5426490   6.1105690  43.0720530  21.4218470   6.3356050
  44.3309920  20.6026280   6.1463130  52.6633230  23.7452840   2.4998930
  53.3832350  24.2408130   2.1095040  52.4615050  23.0670730   1.8552800
  48.0452030  23.8161900   8.3867930  47.9789340  22.8957570   8.1325520
  47.4157170  23.9137340   9.1012570  39.4327190  21.3829230   7.2577050
  39.0742130  22.0483080   7.8450390  39.1381750  20.5512780   7.6289670
  42.6340310  21.8413470  10.1416600  42.3340450  21.9870650   9.2444420
  43.4051550  21.2818760  10.0489990  47.9768760  26.6382470   8.1371730
  47.9913300  25.7063430   7.9190640  47.2693860  26.7242230   8.7761500
  54.1879970  23.2789810   7.4840310  53.4628160  23.8718590   7.2869700
  54.7155430  23.2713350   6.6853680  47.4102660  28.2800040   5.2312230
  48.0544880  28.4859420   5.9085650  47.7732100  27.5188440   4.7783080
  48.6834740  26.2832390   3.9489680  49.3256970  25.5825550   4.0621850
  49.2084090  27.0630830   3.7686570  50.4572360  27.0827290   7.1525740
  50.7928600  27.6693980   7.8303660  49.5372700  26.9520000   7.3823530
  38.0075760  14.8722470   7.9349150  37.2934280  15.0719390   8.5401760
  38.4270800  14.0962040   8.3063950  38.2948350  28.8602730   8.9215680
  38.4039470  27.9197470   8.7811070  37.6428910  29.1257480   8.2729410
  46.2860940  27.1318620  10.3213800  45.9657810  26.4127860  10.8659490
  45.6119300  27.8073690  10.3949860  49.5014540  17.3644780   5.6850600
  49.8695360  16.5439990   6.0130170  48.6412740  17.4246670   6.1006250
  46.4616530  20.0184370   5.9088570  46.9601780  20.4930190   6.5740420
  46.6039480  19.0947890   6.1158600  53.6683390  16.2352330   6.7516960
  53.1656990  16.9757730   7.0910770  54.4840050  16.6236330   6.4353750
  53.9630980  28.6494360   1.8732580  54.0878400  29.4725530   2.3456390
  54.8296540  28.4385090   1.5256730  40.4406790  29.9271640  10.7335290
  41.2419520  30.2483690  11.1470690  39.9258610  29.5667220  11.4555200
  49.2771420  26.0351510  10.6810700  48.6709580  26.0583110   9.9406450
  48.9725530  25.3034550  11.2177950  50.7071790  29.7631800   9.2920110
  51.6593540  29.6789820   9.2420350  50.5600010  30.4273510   9.9653900
  38.1604600  22.4145100   9.6771340  38.6643620  21.8352380  10.2487570
  37.4212020  22.6985330  10.2147710  45.2142540  23.8216090   9.2106860
  44.4488210  24.3901090   9.1261530  45.3958500  23.5292300   8.3175090
  52.3565890  25.5521420   9.7681880  53.0975360  25.8897180   9.2649340
  51.5938570  25.7213480   9.2151650  40.1927680  20.5574690  10.5721410
  40.2333020  20.2588560  11.4806640  41.0473180  20.9582300  10.4128930
  42.1333490  19.1366790   8.5395900  41.6029950  18.6457740   7.9119240
  42.8021560  19.5650990   8.0053830  51.0311550  23.6036250   8.3037090
  51.4452570  23.7581330   9.1527510  50.0962550  23.7291470   8.4662870
  51.5033720  20.9432410  10.3076240  52.0854490  20.1884730  10.2196720
  51.6795490  21.4739850   9.5307720  42.6205790  16.1029160   8.6193190
  42.5262660  15.4849910   7.8944060  42.0403180  16.8295450   8.3923100
  45.3867230  14.6602400   5.6520580  44.9384530  14.6826660   4.8066130
  44.7532430  14.2621420   6.2490880  45.7926780  23.5556730   6.2733020
  46.2114890  24.3989460   6.1009260  44.8735410  23.6928770   6.0439800
  48.1290680  21.2872910   7.6570860  48.2486890  20.6914050   8.3965700
  48.9884680  21.3242600   7.2372160  50.4678580  21.8410100   6.2333370
  49.9413800  22.3652720   5.6298510  50.8109920  22.4737490   6.8643100
  43.6434200  29.8609740   7.3890750  43.1055290  30.5855800   7.0699450
  43.8968160  29.3840080   6.5988090  44.8959450  17.8294260   8.9146680
  45.4859140  17.5210110   9.6024500  44.0779690  17.3574010   9.0706580
  49.7152880  17.4460070   9.1479700  49.0268400  16.7841610   9.0829690
  50.4358900  16.9998340   9.5928160  46.4996410  31.0960950   7.6477400
  46.4255110  31.9996090   7.9549770  45.5975250  30.7772850   7.6199470
  38.3913910  29.2906130   3.6892650  37.9544900  29.4706930   4.5216800
  38.9591590  30.0480750   3.5474370  54.0276090  28.7923130   7.9769960
  53.4278080  28.8515690   7.2333880  54.1569990  27.8528110   8.1066810
  52.7127730  25.5175110   6.0746120  51.8987570  25.9472270   6.3371910
  53.1201930  26.1293520   5.4615170  39.2614270  22.1878930   4.5884870
  39.6287310  22.1006330   5.4680890  38.6925090  21.4245480   4.4891730
  54.0618130  20.6563310   7.6015340  53.8304220  20.4276060   6.7013290
  54.3222680  21.5762860   7.5560230  38.8130270  19.0988020   8.4943290
  37.9186320  19.0654780   8.8337000  39.3527820  19.2974810   9.2594540
  52.5006200  15.8819740  10.3795040  53.3776380  15.8903140  10.7629040
  52.5127040  15.1450580   9.7687390  54.1259190  19.8189150   4.7902610
  53.1761900  19.7852690   4.9047600  54.3072200  20.7289260   4.5552380
  39.3169980  13.3736350   2.8426510  39.9646170  12.8233730   2.4021670
  39.7371820  13.6279500   3.6642320  53.2122320  13.5677710   6.1996150
  53.8494540  14.1811850   6.5655340  53.3597210  13.6038370   5.2545380
  39.0701980  13.5292020   5.5851830  38.7216800  13.9855840   6.3510010
  38.7389680  12.6349150   5.6674260  40.6766350  26.7011620   9.7505020
  40.6335980  26.3304530  10.6319480  40.8077360  27.6389190   9.8906840
  44.3772380  28.2571210   5.3514740  44.1363740  28.5245770   4.4645260
  45.3175020  28.4276940   5.4065600  46.5826800  14.7203900   9.1071250
  46.5215690  15.3125730   9.8566660  47.5227180  14.6129860   8.9621510
  49.2201360  14.3773960   8.7463540  49.8341770  14.6953250   8.0844620
  49.7650920  13.8922550   9.3659400  55.6376540  30.2765590   6.1525380
  55.1434820  30.6734460   5.4352510  55.0289830  29.6514800   6.5462660
  39.7422620  13.0568220   8.8602600  40.2905610  12.8756270   8.0968710
  39.8077930  12.2662330   9.3958910  40.5154380  29.6473870   6.8702800
  39.9214700  29.5158570   7.6092840  40.5078220  28.8112010   6.4044900
  49.9609400  12.9406100   5.0732830  49.0869240  13.2741210   4.8705760
  49.8520150  12.4679280   5.8984700  50.8681380  15.1476970   6.4574550
  50.5394740  14.3328730   6.0776280  51.8163680  15.1046780   6.3340240
  53.3215990  30.9189010   3.4312120  52.8618960  31.6704820   3.0570140
  52.6928450  30.1995480   3.3726920  40.1466610  27.0132250   5.8210840
  39.4200670  26.3937540   5.7536790  40.2075760  27.4072860   4.9508920
  43.7511710  29.2277250   2.6060250  44.2676730  28.6164610   2.0808510
  44.4009090  29.7306030   3.0971260  46.4907210  30.1185740   3.4329230
  46.7785020  29.8640040   2.5562240  47.0030430  29.5663100   4.0234800
  47.7084220  13.8575940   4.0125740  46.9256010  14.3321440   4.2922500
  47.4147150  12.9530770   3.9038920  46.5579570  31.0401840  10.7997430
  47.4846880  30.8046110  10.8433390  46.5430000  31.8673840  10.3183460
  43.7443180  13.7046590  10.5639310  43.4627450  14.2080190   9.8000130
  44.1262880  12.9068340  10.1981440  50.3458640  13.1200170  11.1419780
  50.2324090  13.4394780  12.0371300  51.1628380  13.5212680  10.8457060
  53.1257130  30.2671700  10.6238470  53.9182450  29.7720930  10.4164430
  53.4190280  30.9461840  11.2314080  51.4042260   8.5488360  76.0380370
  50.9423790   7.7775600  76.3667540  52.2167810   8.5754430  76.5432820
  47.6305570  10.8346370  75.6584360  47.0117010  11.2903870  75.0878800
  48.4857350  10.9897830  75.2574060  48.4968920   5.7185610  73.0516270
  47.8786190   6.1835060  72.4878990  49.0092170   6.4113090  73.4685780
  37.8652120   6.4042140  70.4255900  37.4880100   6.8929240  69.6940800
  38.1225190   7.0767420  71.0562430  52.3201530   7.2442040  73.2639040
  52.2097860   6.3016370  73.3888460  52.3169780   7.6057680  74.1501800
  47.8621810   2.8707360  72.6201530  46.9351090   2.8044740  72.8490000
  48.0146630   3.8087490  72.5056770  51.8919100   4.4327660  73.1236780
  51.2731520   4.0947210  72.4763080  51.8743550   3.7887420  73.8315970
  43.4678450   3.3972100  75.4021260  43.0635450   2.6849350  74.9067160
  43.5541570   3.0525340  76.2909300  50.0683800   3.6714470  70.1309530
  50.5077080   2.8336900  69.9847350  50.7812220   4.3043870  70.2173670
  48.1779180   8.6110540  74.0990770  48.6175090   9.3534870  73.6846160
  48.1166070   8.8537110  75.0229730  40.1683080   2.2917080  72.9027910
  40.0480680   3.0179170  72.2909180  39.8583970   1.5219990  72.4255820
  39.0516080   7.1632410  75.1202730  38.6444160   7.3047000  74.2656330
  39.9429090   6.8792570  74.9173940  50.8449360  11.5979660  71.4553780
  50.6850500  11.3082600  72.3535610  50.6796070  10.8219790  70.9199010
  43.3237740  11.3778190  73.2325400  43.1480220  10.4613730  73.0193200
  42.4693480  11.7365480  73.4723200  50.5475490   9.1067220  70.0151780
  49.8540650   9.1044510  69.3554060  51.2898350   8.6826540  69.5845950
  50.1125420  10.7329930  74.0900270  50.5682370   9.9519310  74.4038890
  50.4517940  11.4436750  74.6341450  44.3597770   1.9785800  69.5320090
  43.7914670   1.5304050  68.9056000  45.0686770   2.3378580  68.9985240
  41.9045250   5.9743990  71.8046500  41.1307510   5.4341610  71.6445220
  42.6339880   5.4550600  71.4664260  41.9482650   5.6424370  75.4425310
  42.4661320   4.8392630  75.3882200  41.4966670   5.5803510  76.2842140
  46.8352150   6.9090650  70.7152610  47.1767850   7.6532880  70.2195930
  46.0064860   7.2221770  71.0777440  53.1105830   2.0478800  69.5044300
  53.0269550   2.4793020  68.6540740  53.8300020   2.5077150  69.9371120
  54.1393080   8.9021060  72.2326430  53.4969240   8.2476680  72.5070150
  53.7523740   9.3076150  71.4567100  49.7179560   6.2306490  76.0798120
  50.0703380   5.6334620  75.4199490  48.8341890   5.9050720  76.2506370
  45.8042840   6.9904180  73.4868530  46.4913970   7.5373390  73.8676120
  45.0175260   7.5344910  73.5218140  37.9435240   2.6077000  68.9785610
  38.8130090   2.8901800  69.2621530  37.4525560   3.4212870  68.8634420
  45.1070050   3.9950210  73.0993890  45.5632830   4.8055460  73.3254080
  44.7558260   3.6773350  73.9312380  52.5290460   7.7937520  68.7702780
  52.3028040   7.0767960  69.3627420  52.1386660   7.5449960  67.9324530
  38.3106490  11.8204380  69.5447240  38.6704130  12.4193720  68.8904510
  38.1698830  12.3664270  70.3182270  52.1106710   5.7109460  70.4316940
  51.8228410   6.1722150  71.2194820  52.9058880   5.2507230  70.7001160
  44.3275110   9.2035580  70.3620910  44.3185210   9.9365270  69.7465420
  43.4073470   8.9567160  70.4547870  39.9281750   4.4250470  71.1067670
  39.3209700   5.1649370  71.1162970  40.4031100   4.5149830  70.2805870
  47.3134710   9.2663820  69.0246100  47.4146690   9.0627810  68.0948080
  46.4136450   9.0122100  69.2293880  45.9552820  11.7850140  73.7193770
  46.2094320  11.7471530  72.7973140  45.0065300  11.6583470  73.7122020
  51.9605400   2.7042020  75.2952280  51.0195540   2.7192250  75.4699970
  52.2749470   1.9177980  75.7412580  41.9387040   4.3861620  68.8556240
  42.7050310   4.2742980  69.4181670  42.0161730   3.6899590  68.2033010
  41.4348510  11.9682080  76.6423670  42.1710990  11.4197540  76.9132240
  41.8189430  12.8338090  76.5029660  38.3193990   8.0355650  72.5165180
  37.3933770   8.2776790  72.5070590  38.7850420   8.8629910  72.3949930
  44.5450820  11.1412390  68.4649240  45.3379430  11.4301220  68.0131030
  44.0255170  10.7104560  67.7861720  53.5980990  10.3682520  69.8885980
  53.3122500   9.9547660  69.0740160  53.4000540  11.2970230  69.7686500
  45.0628220   6.3615800  68.3291590  44.9578860   5.7468150  69.0552970
  44.8952440   5.8381690  67.5454600  48.3030950   5.4235830  68.9333580
  47.7541050   5.8705130  69.5776320  48.9250210   4.9185080  69.4571250
  43.9706070   4.3826750  70.8298880  44.3922490   4.2166620  71.6730270
  44.0956910   3.5726980  70.3354020  46.4833710   3.4064360  68.0775980
  47.0039370   2.6913380  67.7117130  47.1302110   4.0450230  68.3776490
  47.0481740  11.4875970  70.3677720  47.9432530  11.8260940  70.3896480
  47.0799370  10.7655380  69.7402000  40.6877900   6.8603020  68.5964720
  41.1252770   7.4032690  69.2522300  41.1725630   6.0349970  68.6061060
  37.9023700   9.6492050  76.0484980  38.2326710   8.7813110  75.8163620
  38.3314700   9.8550570  76.8789940  42.4985620   7.9801060  73.7086950
  42.1981160   7.8566030  74.6090860  42.3923110   7.1209650  73.3002680
  55.2677540   7.7597460  68.4113630  54.4370500   7.8274110  68.8820860
  55.4449370   8.6501580  68.1080490  54.7234000   4.5044940  70.9147830
  55.4852910   5.0741590  71.0207520  54.7388370   3.9372140  71.6856140
  38.2238340   3.0282870  75.1455490  37.5687180   2.7594510  74.5015190
  39.0616290   2.9187350  74.6957470  55.7293970   5.3595040  75.7589760
  56.1002800   4.5762360  75.3525730  56.3695900   6.0484140  75.5807060
  54.7753170   4.7979310  68.0720350  55.0502010   5.7058190  67.9439570
  54.5863910   4.7341840  69.0082340  54.6718510   2.7348300  73.0649780
  54.2962110   1.9676230  72.6331070  53.9421630   3.1171000  73.5524710
  52.7703780  11.4950220  74.6988350  53.3662850  11.1734790  74.0222770
  53.0281930  11.0222040  75.4901620  38.4296610  11.5563150  74.1281560
  38.2618650  10.9233830  74.8263450  37.5631120  11.7622550  73.7775750
  40.0359310  10.2496380  71.5731700  39.5106930  10.6304410  70.8693660
  39.9603890  10.8747150  72.2941410  54.7924630  11.8083920  72.8945640
  54.9676820  11.1221660  72.2506560  54.0946200  12.3330970  72.5022310
  42.6352280  12.1978760  70.4480950  43.3671100  11.9138040  69.9004840
  42.8945950  11.9592040  71.3380330  41.7967070   8.3143490  70.4527280
  41.1675950   8.7828590  71.0013110  41.9114900   7.4692710  70.8873470
  47.3834830   4.1428170  58.4837750  46.6076930   3.6628610  58.7736320
  48.0347760   3.4633820  58.3093910  41.4000660   4.4547980  59.3613510
  40.5685540   4.1996690  59.7610020  42.0081640   4.5258750  60.0971430
  51.4042260   8.5488360  57.2636880  50.9423790   7.7775600  57.5924050
  52.2167810   8.5754430  57.7689330  41.3801920   8.4888070  59.5571530
  41.6829960   7.5985810  59.3781750  42.1245510   9.0458290  59.3293780
  47.6305570  10.8346370  56.8840870  47.0117010  11.2903870  56.3135310
  48.4857350  10.9897830  56.4830570  46.8243820   6.8185360  58.4907910
  46.7552100   5.8775300  58.3297040  47.5863680   6.9086770  59.0630480
  48.4968920   5.7185610  54.2772780  47.8786190   6.1835060  53.7135500
  49.0092170   6.4113090  54.6942290  43.3600680   5.2461480  60.9556380
  43.0270060   5.8730400  61.5977450  43.5367360   5.7723360  60.1758050
  42.5719780   7.2142280  62.7705560  43.1893780   7.8893360  62.4890010
  41.7112900   7.6230260  62.6793060  37.8652120   6.4042140  51.6512410
  37.4880100   6.8929240  50.9197310  38.1225190   7.0767420  52.2818940
  53.4897370   8.6781690  60.6860200  52.8060890   9.3480800  60.6776870
  54.0291660   8.8762340  59.9205060  51.0256110  10.5225820  59.4005380
  51.0383270  10.1188110  58.5327640  50.4731330  11.2973110  59.2966810
  52.3201530   7.2442040  54.4895550  52.2097860   6.3016370  54.6144970
  52.3169780   7.6057680  55.3758310  50.4241550   5.4255660  60.7287990
  50.8410340   5.2115770  59.8941450  51.1481370   5.6828450  61.2996610
  47.8621810   2.8707360  53.8458040  46.9351090   2.8044740  54.0746510
  48.0146630   3.8087490  53.7313280  54.3703650   3.8242880  60.8204230
  53.5422280   3.8935970  60.3454360  54.9654130   4.4097190  60.3520060
  51.8919100   4.4327660  54.3493290  51.2731520   4.0947210  53.7019590
  51.8743550   3.7887420  55.0572480  43.4678450   3.3972100  56.6277770
  43.0635450   2.6849350  56.1323670  43.5541570   3.0525340  57.5165810
  43.9360150   7.0839660  58.7916980  43.6388440   6.4785130  58.1124760
  44.8859970   7.1216970  58.6806340  52.0245760  10.6571530  62.4540080
  51.5476320  11.4643720  62.2612690  51.3407550  10.0049860  62.6066290
  43.0278580   6.8221350  65.4424780  42.1307110   7.0461320  65.6898180
  43.0531450   6.9456290  64.4936180  50.0683800   3.6714470  51.3566040
  50.5077080   2.8336900  51.2103860  50.7812220   4.3043870  51.4430180
  41.8549800   3.6934670  64.0182150  41.7157570   4.5657470  64.3869550
  40.9731160   3.3507480  63.8730090  48.1779180   8.6110540  55.3247280
  48.6175090   9.3534870  54.9102670  48.1166070   8.8537110  56.2486240
  43.6530150   9.6356370  66.2267300  43.6245580  10.0399320  65.3595730
  43.4895120   8.7066730  66.0638900  40.1683080   2.2917080  54.1284420
  40.0480680   3.0179170  53.5165690  39.8583970   1.5219990  53.6512330
  55.6044970  10.4183470  67.5231470  56.0804690  10.8966360  68.2020550
  56.2252130  10.3500960  66.7976970  37.8068450   5.4632220  59.9353060
  37.8848870   5.5980990  58.9908780  38.4210130   4.7548110  60.1281180
  39.0516080   7.1632410  56.3459240  38.6444160   7.3047000  55.4912840
  39.9429090   6.8792570  56.1430450  55.0078220   7.6096320  64.6831480
  55.1341280   7.3708200  63.7648660  55.0499600   6.7780860  65.1553560
  48.8694960  11.3124320  63.2526290  49.3839630  11.2232330  64.0548720
  48.0264040  11.6584020  63.5454200  50.8449360  11.5979660  52.6810290
  50.6850500  11.3082600  53.5792120  50.6796070  10.8219790  52.1455520
  43.3237740  11.3778190  54.4581910  43.1480220  10.4613730  54.2449710
  42.4693480  11.7365480  54.6979710  50.5475490   9.1067220  51.2408290
  49.8540650   9.1044510  50.5810570  51.2898350   8.6826540  50.8102460
  50.1125420  10.7329930  55.3156780  50.5682370   9.9519310  55.6295400
  50.4517940  11.4436750  55.8597960  37.8627970   6.5046390  62.4747520
  38.0259010   6.0351750  61.6566890  38.3280420   5.9969950  63.1396360
  44.3597770   1.9785800  50.7576600  43.7914670   1.5304050  50.1312510
  45.0686770   2.3378580  50.2241750  39.4366950   5.8797820  64.6343330
  39.0521740   5.2391490  65.2326290  39.7479140   6.5833940  65.2038060
  45.5864090   2.7274360  60.1151950  45.9534220   2.2532930  60.8613290
  45.3969150   3.6015930  60.4560290  43.3763460   1.7683000  62.4336160
  43.0720530   2.6474980  62.6586520  44.3309920   1.8282790  62.4693600
  41.9045250   5.9743990  53.0303010  41.1307510   5.4341610  52.8701730
  42.6339880   5.4550600  52.6920770  52.6633230   4.9709350  58.8229400
  53.3832350   5.4664640  58.4325510  52.4615050   4.2927240  58.1783270
  48.0452030   5.0418410  64.7098400  47.9789340   4.1214080  64.4555990
  47.4157170   5.1393850  65.4243040  41.9482650   5.6424370  56.6681820
  42.4661320   4.8392630  56.6138710  41.4966670   5.5803510  57.5098650
  46.8352150   6.9090650  51.9409120  47.1767850   7.6532880  51.4452440
  46.0064860   7.2221770  52.3033950  39.4327190   2.6085740  63.5807520
  39.0742130   3.2739590  64.1680860  39.1381750   1.7769290  63.9520140
  42.6340310   3.0669980  66.4647070  42.3340450   3.2127160  65.5674890
  43.4051550   2.5075270  66.3720460  47.9768760   7.8638980  64.4602200
  47.9913300   6.9319940  64.2421110  47.2693860   7.9498740  65.0991970
  53.1105830   2.0478800  50.7300810  53.0269550   2.4793020  49.8797250
  53.8300020   2.5077150  51.1627630  54.1879970   4.5046320  63.8070780
  53.4628160   5.0975100  63.6100170  54.7155430   4.4969860  63.0084150
  54.1393080   8.9021060  53.4582940  53.4969240   8.2476680  53.7326660
  53.7523740   9.3076150  52.6823610  49.7179560   6.2306490  57.3054630
  50.0703380   5.6334620  56.6456000  48.8341890   5.9050720  57.4762880
  45.8042840   6.9904180  54.7125040  46.4913970   7.5373390  55.0932630
  45.0175260   7.5344910  54.7474650  37.9435240   2.6077000  50.2042120
  38.8130090   2.8901800  50.4878040  37.4525560   3.4212870  50.0890930
  45.1070050   3.9950210  54.3250400  45.5632830   4.8055460  54.5510590
  44.7558260   3.6773350  55.1568890  47.4102660   9.5056550  61.5542700
  48.0544880   9.7115930  62.2316120  47.7732100   8.7444950  61.1013550
  48.6834740   7.5088900  60.2720150  49.3256970   6.8082060  60.3852320
  49.2084090   8.2887340  60.0917040  52.5290460   7.7937520  49.9959290
  52.3028040   7.0767960  50.5883930  52.1386660   7.5449960  49.1581040
  50.4572360   8.3083800  63.4756210  50.7928600   8.8950490  64.1534130
  49.5372700   8.1776510  63.7054000  38.3106490  11.8204380  50.7703750
  38.6704130  12.4193720  50.1161020  38.1698830  12.3664270  51.5438780
  52.1106710   5.7109460  51.6573450  51.8228410   6.1722150  52.4451330
  52.9058880   5.2507230  51.9257670  38.2948350  10.0859240  65.2446150
  38.4039470   9.1453980  65.1041540  37.6428910  10.3513990  64.5959880
  46.2860940   8.3575130  66.6444270  45.9657810   7.6384370  67.1889960
  45.6119300   9.0330200  66.7180330  44.3275110   9.2035580  51.5877420
  44.3185210   9.9365270  50.9721930  43.4073470   8.9567160  51.6804380
  39.9281750   4.4250470  52.3324180  39.3209700   5.1649370  52.3419480
  40.4031100   4.5149830  51.5062380  47.3134710   9.2663820  50.2502610
  47.4146690   9.0627810  49.3204590  46.4136450   9.0122100  50.4550390
  45.9552820  11.7850140  54.9450280  46.2094320  11.7471530  54.0229650
  45.0065300  11.6583470  54.9378530  51.9605400   2.7042020  56.5208790
  51.0195540   2.7192250  56.6956480  52.2749470   1.9177980  56.9669090
  41.9387040   4.3861620  50.0812750  42.7050310   4.2742980  50.6438180
  42.0161730   3.6899590  49.4289520  53.9630980   9.8750870  58.1963050
  54.0878400  10.6982040  58.6686860  54.8296540   9.6641600  57.8487200
  41.4348510  11.9682080  57.8680180  42.1710990  11.4197540  58.1388750
  41.8189430  12.8338090  57.7286170  38.3193990   8.0355650  53.7421690
  37.3933770   8.2776790  53.7327100  38.7850420   8.8629910  53.6206440
  40.4406790  11.1528150  67.0565760  41.2419520  11.4740200  67.4701160
  39.9258610  10.7923730  67.7785670  44.5450820  11.1412390  49.6905750
  45.3379430  11.4301220  49.2387540  44.0255170  10.7104560  49.0118230
  49.2771420   7.2608020  67.0041170  48.6709580   7.2839620  66.2636920
  48.9725530   6.5291060  67.5408420  50.7071790  10.9888310  65.6150580
  51.6593540  10.9046330  65.5650820  50.5600010  11.6530020  66.2884370
  53.5980990  10.3682520  51.1142490  53.3122500   9.9547660  50.2996670
  53.4000540  11.2970230  50.9943010  38.1604600   3.6401610  66.0001810
  38.6643620   3.0608890  66.5718040  37.4212020   3.9241840  66.5378180
  45.0628220   6.3615800  49.5548100  44.9578860   5.7468150  50.2809480
  44.8952440   5.8381690  48.7711110  45.2142540   5.0472600  65.5337330
  44.4488210   5.6157600  65.4492000  45.3958500   4.7548810  64.6405560
  48.3030950   5.4235830  50.1590090  47.7541050   5.8705130  50.8032830
  48.9250210   4.9185080  50.6827760  52.3565890   6.7777930  66.0912350
  53.0975360   7.1153690  65.5879810  51.5938570   6.9469990  65.5382120
  40.1927680   1.7831200  66.8951880  40.2333020   1.4845070  67.8037110
  41.0473180   2.1838810  66.7359400  43.9706070   4.3826750  52.0555390
  44.3922490   4.2166620  52.8986780  44.0956910   3.5726980  51.5610530
  46.4833710   3.4064360  49.3032490  47.0039370   2.6913380  48.9373640
  47.1302110   4.0450230  49.6033000  51.0311550   4.8292760  64.6267560
  51.4452570   4.9837840  65.4757980  50.0962550   4.9547980  64.7893340
  45.7926780   4.7813240  62.5963490  46.2114890   5.6245970  62.4239730
  44.8735410   4.9185280  62.3670270  48.1290680   2.5129420  63.9801330
  48.2486890   1.9170560  64.7196170  48.9884680   2.5499110  63.5602630
  50.4678580   3.0666610  62.5563840  49.9413800   3.5909230  61.9528980
  50.8109920   3.6994000  63.1873570  43.6434200  11.0866250  63.7121220
  43.1055290  11.8112310  63.3929920  43.8968160  10.6096590  62.9218560
  46.4996410  12.3217460  63.9707870  46.4255110  13.2252600  64.2780240
  45.5975250  12.0029360  63.9429940  47.0481740  11.4875970  51.5934230
  47.9432530  11.8260940  51.6152990  47.0799370  10.7655380  50.9658510
  40.6877900   6.8603020  49.8221230  41.1252770   7.4032690  50.4778810
  41.1725630   6.0349970  49.8317570  37.9023700   9.6492050  57.2741490
  38.2326710   8.7813110  57.0420130  38.3314700   9.8550570  58.1046450
  42.4985620   7.9801060  54.9343460  42.1981160   7.8566030  55.8347370
  42.3923110   7.1209650  54.5259190  38.3913910  10.5162640  60.0123120
  37.9544900  10.6963440  60.8447270  38.9591590  11.2737260  59.8704840
  54.0276090  10.0179640  64.3000430  53.4278080  10.0772200  63.5564350
  54.1569990   9.0784620  64.4297280  55.2677540   7.7597460  49.6370140
  54.4370500   7.8274110  50.1077370  55.4449370   8.6501580  49.3337000
  54.7234000   4.5044940  52.1404340  55.4852910   5.0741590  52.2464030
  54.7388370   3.9372140  52.9112650  38.2238340   3.0282870  56.3712000
  37.5687180   2.7594510  55.7271700  39.0616290   2.9187350  55.9213980
  55.7293970   5.3595040  56.9846270  56.1002800   4.5762360  56.5782240
  56.3695900   6.0484140  56.8063570  52.7127730   6.7431620  62.3976590
  51.8987570   7.1728780  62.6602380  53.1201930   7.3550030  61.7845640
  54.7753170   4.7979310  49.2976860  55.0502010   5.7058190  49.1696080
  54.5863910   4.7341840  50.2338850  54.6718510   2.7348300  54.2906290
  54.2962110   1.9676230  53.8587580  53.9421630   3.1171000  54.7781220
  39.2614270   3.4135440  60.9115340  39.6287310   3.3262840  61.7911360
  38.6925090   2.6501990  60.8122200  54.0618130   1.8819820  63.9245810
  53.8304220   1.6532570  63.0243760  54.3222680   2.8019370  63.8790700
  52.7703780  11.4950220  55.9244860  53.3662850  11.1734790  55.2479280
  53.0281930  11.0222040  56.7158130  40.6766350   7.9268130  66.0735490
  40.6335980   7.5561040  66.9549950  40.8077360   8.8645700  66.2137310
  44.3772380   9.4827720  61.6745210  44.1363740   9.7502280  60.7875730
  45.3175020   9.6533450  61.7296070  55.6376540  11.5022100  62.4755850
  55.1434820  11.8990970  61.7582980  55.0289830  10.8771310  62.8693130
  40.5154380  10.8730380  63.1933270  39.9214700  10.7415080  63.9323310
  40.5078220  10.0368520  62.7275370  53.3215990  12.1445520  59.7542590
  52.8618960  12.8961330  59.3800610  52.6928450  11.4251990  59.6957390
  40.1466610   8.2388760  62.1441310  39.4200670   7.6194050  62.0767260
  40.2075760   8.6329370  61.2739390  43.7511710  10.4533760  58.9290720
  44.2676730   9.8421120  58.4038980  44.4009090  10.9562540  59.4201730
  46.4907210  11.3442250  59.7559700  46.7785020  11.0896550  58.8792710
  47.0030430  10.7919610  60.3465270  38.4296610  11.5563150  55.3538070
  38.2618650  10.9233830  56.0519960  37.5631120  11.7622550  55.0032260
  40.0359310  10.2496380  52.7988210  39.5106930  10.6304410  52.0950170
  39.9603890  10.8747150  53.5197920  46.5579570  12.2658350  67.1227900
  47.4846880  12.0302620  67.1663860  46.5430000  13.0930350  66.6413930
  54.7924630  11.8083920  54.1202150  54.9676820  11.1221660  53.4763070
  54.0946200  12.3330970  53.7278820  42.6352280  12.1978760  51.6737460
  43.3671100  11.9138040  51.1261350  42.8945950  11.9592040  52.5636840
  41.7967070   8.3143490  51.6783790  41.1675950   8.7828590  52.2269620
  41.9114900   7.4692710  52.1129980  53.1257130  11.4928210  66.9468940
  53.9182450  10.9977440  66.7394900  53.4190280  12.1718350  67.5544550
  47.3834830   4.1428170  39.7094260  46.6076930   3.6628610  39.9992830
  48.0347760   3.4633820  39.5350420  41.4000660   4.4547980  40.5870020
  40.5685540   4.1996690  40.9866530  42.0081640   4.5258750  41.3227940
  51.4042260   8.5488360  38.4893390  50.9423790   7.7775600  38.8180560
  52.2167810   8.5754430  38.9945840  41.3801920   8.4888070  40.7828040
  41.6829960   7.5985810  40.6038260  42.1245510   9.0458290  40.5550290
  47.6305570  10.8346370  38.1097380  47.0117010  11.2903870  37.5391820
  48.4857350  10.9897830  37.7087080  46.8243820   6.8185360  39.7164420
  46.7552100   5.8775300  39.5553550  47.5863680   6.9086770  40.2886990
  48.4968920   5.7185610  35.5029290  47.8786190   6.1835060  34.9392010
  49.0092170   6.4113090  35.9198800  43.3600680   5.2461480  42.1812890
  43.0270060   5.8730400  42.8233960  43.5367360   5.7723360  41.4014560
  42.5719780   7.2142280  43.9962070  43.1893780   7.8893360  43.7146520
  41.7112900   7.6230260  43.9049570  37.8652120   6.4042140  32.8768920
  37.4880100   6.8929240  32.1453820  38.1225190   7.0767420  33.5075450
  53.4897370   8.6781690  41.9116710  52.8060890   9.3480800  41.9033380
  54.0291660   8.8762340  41.1461570  51.0256110  10.5225820  40.6261890
  51.0383270  10.1188110  39.7584150  50.4731330  11.2973110  40.5223320
  52.3201530   7.2442040  35.7152060  52.2097860   6.3016370  35.8401480
  52.3169780   7.6057680  36.6014820  50.4241550   5.4255660  41.9544500
  50.8410340   5.2115770  41.1197960  51.1481370   5.6828450  42.5253120
  47.8621810   2.8707360  35.0714550  46.9351090   2.8044740  35.3003020
  48.0146630   3.8087490  34.9569790  54.3703650   3.8242880  42.0460740
  53.5422280   3.8935970  41.5710870  54.9654130   4.4097190  41.5776570
  51.8919100   4.4327660  35.5749800  51.2731520   4.0947210  34.9276100
  51.8743550   3.7887420  36.2828990  43.4678450   3.3972100  37.8534280
  43.0635450   2.6849350  37.3580180  43.5541570   3.0525340  38.7422320
  43.9360150   7.0839660  40.0173490  43.6388440   6.4785130  39.3381270
  44.8859970   7.1216970  39.9062850  52.0245760  10.6571530  43.6796590
  51.5476320  11.4643720  43.4869200  51.3407550  10.0049860  43.8322800
  43.0278580   6.8221350  46.6681290  42.1307110   7.0461320  46.9154690
  43.0531450   6.9456290  45.7192690  50.0683800   3.6714470  32.5822550
  50.5077080   2.8336900  32.4360370  50.7812220   4.3043870  32.6686690
  41.8549800   3.6934670  45.2438660  41.7157570   4.5657470  45.6126060
  40.9731160   3.3507480  45.0986600  48.1779180   8.6110540  36.5503790
  48.6175090   9.3534870  36.1359180  48.1166070   8.8537110  37.4742750
  43.6530150   9.6356370  47.4523810  43.6245580  10.0399320  46.5852240
  43.4895120   8.7066730  47.2895410  40.1683080   2.2917080  35.3540930
  40.0480680   3.0179170  34.7422200  39.8583970   1.5219990  34.8768840
  55.6044970  10.4183470  48.7487980  56.0804690  10.8966360  49.4277060
  56.2252130  10.3500960  48.0233480  37.8068450   5.4632220  41.1609570
  37.8848870   5.5980990  40.2165290  38.4210130   4.7548110  41.3537690
  39.0516080   7.1632410  37.5715750  38.6444160   7.3047000  36.7169350
  39.9429090   6.8792570  37.3686960  55.0078220   7.6096320  45.9087990
  55.1341280   7.3708200  44.9905170  55.0499600   6.7780860  46.3810070
  48.8694960  11.3124320  44.4782800  49.3839630  11.2232330  45.2805230
  48.0264040  11.6584020  44.7710710  50.8449360  11.5979660  33.9066800
  50.6850500  11.3082600  34.8048630  50.6796070  10.8219790  33.3712030
  43.3237740  11.3778190  35.6838420  43.1480220  10.4613730  35.4706220
  42.4693480  11.7365480  35.9236220  50.5475490   9.1067220  32.4664800
  49.8540650   9.1044510  31.8067080  51.2898350   8.6826540  32.0358970
  50.1125420  10.7329930  36.5413290  50.5682370   9.9519310  36.8551910
  50.4517940  11.4436750  37.0854470  37.8627970   6.5046390  43.7004030
  38.0259010   6.0351750  42.8823400  38.3280420   5.9969950  44.3652870
  44.3597770   1.9785800  31.9833110  43.7914670   1.5304050  31.3569020
  45.0686770   2.3378580  31.4498260  39.4366950   5.8797820  45.8599840
  39.0521740   5.2391490  46.4582800  39.7479140   6.5833940  46.4294570
  45.5864090   2.7274360  41.3408460  45.9534220   2.2532930  42.0869800
  45.3969150   3.6015930  41.6816800  43.3763460   1.7683000  43.6592670
  43.0720530   2.6474980  43.8843030  44.3309920   1.8282790  43.6950110
  41.9045250   5.9743990  34.2559520  41.1307510   5.4341610  34.0958240
  42.6339880   5.4550600  33.9177280  52.6633230   4.9709350  40.0485910
  53.3832350   5.4664640  39.6582020  52.4615050   4.2927240  39.4039780
  48.0452030   5.0418410  45.9354910  47.9789340   4.1214080  45.6812500
  47.4157170   5.1393850  46.6499550  41.9482650   5.6424370  37.8938330
  42.4661320   4.8392630  37.8395220  41.4966670   5.5803510  38.7355160
  46.8352150   6.9090650  33.1665630  47.1767850   7.6532880  32.6708950
  46.0064860   7.2221770  33.5290460  39.4327190   2.6085740  44.8064030
  39.0742130   3.2739590  45.3937370  39.1381750   1.7769290  45.1776650
  42.6340310   3.0669980  47.6903580  42.3340450   3.2127160  46.7931400
  43.4051550   2.5075270  47.5976970  47.9768760   7.8638980  45.6858710
  47.9913300   6.9319940  45.4677620  47.2693860   7.9498740  46.3248480
  53.1105830   2.0478800  31.9557320  53.0269550   2.4793020  31.1053760
  53.8300020   2.5077150  32.3884140  54.1879970   4.5046320  45.0327290
  53.4628160   5.0975100  44.8356680  54.7155430   4.4969860  44.2340660
  54.1393080   8.9021060  34.6839450  53.4969240   8.2476680  34.9583170
  53.7523740   9.3076150  33.9080120  49.7179560   6.2306490  38.5311140
  50.0703380   5.6334620  37.8712510  48.8341890   5.9050720  38.7019390
  45.8042840   6.9904180  35.9381550  46.4913970   7.5373390  36.3189140
  45.0175260   7.5344910  35.9731160  37.9435240   2.6077000  31.4298630
  38.8130090   2.8901800  31.7134550  37.4525560   3.4212870  31.3147440
  45.1070050   3.9950210  35.5506910  45.5632830   4.8055460  35.7767100
  44.7558260   3.6773350  36.3825400  47.4102660   9.5056550  42.7799210
  48.0544880   9.7115930  43.4572630  47.7732100   8.7444950  42.3270060
  48.6834740   7.5088900  41.4976660  49.3256970   6.8082060  41.6108830
  49.2084090   8.2887340  41.3173550  52.5290460   7.7937520  31.2215800
  52.3028040   7.0767960  31.8140440  52.1386660   7.5449960  30.3837550
  50.4572360   8.3083800  44.7012720  50.7928600   8.8950490  45.3790640
  49.5372700   8.1776510  44.9310510  38.3106490  11.8204380  31.9960260
  38.6704130  12.4193720  31.3417530  38.1698830  12.3664270  32.7695290
  52.1106710   5.7109460  32.8829960  51.8228410   6.1722150  33.6707840
  52.9058880   5.2507230  33.1514180  38.2948350  10.0859240  46.4702660
  38.4039470   9.1453980  46.3298050  37.6428910  10.3513990  45.8216390
  46.2860940   8.3575130  47.8700780  45.9657810   7.6384370  48.4146470
  45.6119300   9.0330200  47.9436840  44.3275110   9.2035580  32.8133930
  44.3185210   9.9365270  32.1978440  43.4073470   8.9567160  32.9060890
  39.9281750   4.4250470  33.5580690  39.3209700   5.1649370  33.5675990
  40.4031100   4.5149830  32.7318890  47.3134710   9.2663820  31.4759120
  47.4146690   9.0627810  30.5461100  46.4136450   9.0122100  31.6806900
  45.9552820  11.7850140  36.1706790  46.2094320  11.7471530  35.2486160
  45.0065300  11.6583470  36.1635040  51.9605400   2.7042020  37.7465300
  51.0195540   2.7192250  37.9212990  52.2749470   1.9177980  38.1925600
  41.9387040   4.3861620  31.3069260  42.7050310   4.2742980  31.8694690
  42.0161730   3.6899590  30.6546030  53.9630980   9.8750870  39.4219560
  54.0878400  10.6982040  39.8943370  54.8296540   9.6641600  39.0743710
  41.4348510  11.9682080  39.0936690  42.1710990  11.4197540  39.3645260
  41.8189430  12.8338090  38.9542680  38.3193990   8.0355650  34.9678200
  37.3933770   8.2776790  34.9583610  38.7850420   8.8629910  34.8462950
  40.4406790  11.1528150  48.2822270  41.2419520  11.4740200  48.6957670
  39.9258610  10.7923730  49.0042180  44.5450820  11.1412390  30.9162260
  45.3379430  11.4301220  30.4644050  44.0255170  10.7104560  30.2374740
  49.2771420   7.2608020  48.2297680  48.6709580   7.2839620  47.4893430
  48.9725530   6.5291060  48.7664930  50.7071790  10.9888310  46.8407090
  51.6593540  10.9046330  46.7907330  50.5600010  11.6530020  47.5140880
  53.5980990  10.3682520  32.3399000  53.3122500   9.9547660  31.5253180
  53.4000540  11.2970230  32.2199520  38.1604600   3.6401610  47.2258320
  38.6643620   3.0608890  47.7974550  37.4212020   3.9241840  47.7634690
  45.0628220   6.3615800  30.7804610  44.9578860   5.7468150  31.5065990
  44.8952440   5.8381690  29.9967620  45.2142540   5.0472600  46.7593840
  44.4488210   5.6157600  46.6748510  45.3958500   4.7548810  45.8662070
  48.3030950   5.4235830  31.3846600  47.7541050   5.8705130  32.0289340
  48.9250210   4.9185080  31.9084270  52.3565890   6.7777930  47.3168860
  53.0975360   7.1153690  46.8136320  51.5938570   6.9469990  46.7638630
  40.1927680   1.7831200  48.1208390  40.2333020   1.4845070  49.0293620
  41.0473180   2.1838810  47.9615910  43.9706070   4.3826750  33.2811900
  44.3922490   4.2166620  34.1243290  44.0956910   3.5726980  32.7867040
  46.4833710   3.4064360  30.5289000  47.0039370   2.6913380  30.1630150
  47.1302110   4.0450230  30.8289510  51.0311550   4.8292760  45.8524070
  51.4452570   4.9837840  46.7014490  50.0962550   4.9547980  46.0149850
  45.7926780   4.7813240  43.8220000  46.2114890   5.6245970  43.6496240
  44.8735410   4.9185280  43.5926780  48.1290680   2.5129420  45.2057840
  48.2486890   1.9170560  45.9452680  48.9884680   2.5499110  44.7859140
  50.4678580   3.0666610  43.7820350  49.9413800   3.5909230  43.1785490
  50.8109920   3.6994000  44.4130080  43.6434200  11.0866250  44.9377730
  43.1055290  11.8112310  44.6186430  43.8968160  10.6096590  44.1475070
  46.4996410  12.3217460  45.1964380  46.4255110  13.2252600  45.5036750
  45.5975250  12.0029360  45.1686450  47.0481740  11.4875970  32.8190740
  47.9432530  11.8260940  32.8409500  47.0799370  10.7655380  32.1915020
  40.6877900   6.8603020  31.0477740  41.1252770   7.4032690  31.7035320
  41.1725630   6.0349970  31.0574080  37.9023700   9.6492050  38.4998000
  38.2326710   8.7813110  38.2676640  38.3314700   9.8550570  39.3302960
  42.4985620   7.9801060  36.1599970  42.1981160   7.8566030  37.0603880
  42.3923110   7.1209650  35.7515700  38.3913910  10.5162640  41.2379630
  37.9544900  10.6963440  42.0703780  38.9591590  11.2737260  41.0961350
  54.0276090  10.0179640  45.5256940  53.4278080  10.0772200  44.7820860
  54.1569990   9.0784620  45.6553790  55.2677540   7.7597460  30.8626650
  54.4370500   7.8274110  31.3333880  55.4449370   8.6501580  30.5593510
  54.7234000   4.5044940  33.3660850  55.4852910   5.0741590  33.4720540
  54.7388370   3.9372140  34.1369160  38.2238340   3.0282870  37.5968510
  37.5687180   2.7594510  36.9528210  39.0616290   2.9187350  37.1470490
  55.7293970   5.3595040  38.2102780  56.1002800   4.5762360  37.8038750
  56.3695900   6.0484140  38.0320080  52.7127730   6.7431620  43.6233100
  51.8987570   7.1728780  43.8858890  53.1201930   7.3550030  43.0102150
  54.7753170   4.7979310  30.5233370  55.0502010   5.7058190  30.3952590
  54.5863910   4.7341840  31.4595360  54.6718510   2.7348300  35.5162800
  54.2962110   1.9676230  35.0844090  53.9421630   3.1171000  36.0037730
  39.2614270   3.4135440  42.1371850  39.6287310   3.3262840  43.0167870
  38.6925090   2.6501990  42.0378710  54.0618130   1.8819820  45.1502320
  53.8304220   1.6532570  44.2500270  54.3222680   2.8019370  45.1047210
  52.7703780  11.4950220  37.1501370  53.3662850  11.1734790  36.4735790
  53.0281930  11.0222040  37.9414640  40.6766350   7.9268130  47.2992000
  40.6335980   7.5561040  48.1806460  40.8077360   8.8645700  47.4393820
  44.3772380   9.4827720  42.9001720  44.1363740   9.7502280  42.0132240
  45.3175020   9.6533450  42.9552580  55.6376540  11.5022100  43.7012360
  55.1434820  11.8990970  42.9839490  55.0289830  10.8771310  44.0949640
  40.5154380  10.8730380  44.4189780  39.9214700  10.7415080  45.1579820
  40.5078220  10.0368520  43.9531880  53.3215990  12.1445520  40.9799100
  52.8618960  12.8961330  40.6057120  52.6928450  11.4251990  40.9213900
  40.1466610   8.2388760  43.3697820  39.4200670   7.6194050  43.3023770
  40.2075760   8.6329370  42.4995900  43.7511710  10.4533760  40.1547230
  44.2676730   9.8421120  39.6295490  44.4009090  10.9562540  40.6458240
  46.4907210  11.3442250  40.9816210  46.7785020  11.0896550  40.1049220
  47.0030430  10.7919610  41.5721780  38.4296610  11.5563150  36.5794580
  38.2618650  10.9233830  37.2776470  37.5631120  11.7622550  36.2288770
  40.0359310  10.2496380  34.0244720  39.5106930  10.6304410  33.3206680
  39.9603890  10.8747150  34.7454430  46.5579570  12.2658350  48.3484410
  47.4846880  12.0302620  48.3920370  46.5430000  13.0930350  47.8670440
  54.7924630  11.8083920  35.3458660  54.9676820  11.1221660  34.7019580
  54.0946200  12.3330970  34.9535330  42.6352280  12.1978760  32.8993970
  43.3671100  11.9138040  32.3517860  42.8945950  11.9592040  33.7893350
  41.7967070   8.3143490  32.9040300  41.1675950   8.7828590  33.4526130
  41.9114900   7.4692710  33.3386490  53.1257130  11.4928210  48.1725450
  53.9182450  10.9977440  47.9651410  53.4190280  12.1718350  48.7801060
  47.3834830   4.1428170  20.9350770  46.6076930   3.6628610  21.2249340
  48.0347760   3.4633820  20.7606930  41.4000660   4.4547980  21.8126530
  40.5685540   4.1996690  22.2123040  42.0081640   4.5258750  22.5484450
  51.4042260   8.5488360  19.7149900  50.9423790   7.7775600  20.0437070
  52.2167810   8.5754430  20.2202350  41.3801920   8.4888070  22.0084550
  41.6829960   7.5985810  21.8294770  42.1245510   9.0458290  21.7806800
  47.6305570  10.8346370  19.3353890  47.0117010  11.2903870  18.7648330
  48.4857350  10.9897830  18.9343590  46.8243820   6.8185360  20.9420930
  46.7552100   5.8775300  20.7810060  47.5863680   6.9086770  21.5143500
  48.4968920   5.7185610  16.7285800  47.8786190   6.1835060  16.1648520
  49.0092170   6.4113090  17.1455310  43.3600680   5.2461480  23.4069400
  43.0270060   5.8730400  24.0490470  43.5367360   5.7723360  22.6271070
  42.5719780   7.2142280  25.2218580  43.1893780   7.8893360  24.9403030
  41.7112900   7.6230260  25.1306080  37.8652120   6.4042140  14.1025430
  37.4880100   6.8929240  13.3710330  38.1225190   7.0767420  14.7331960
  53.4897370   8.6781690  23.1373220  52.8060890   9.3480800  23.1289890
  54.0291660   8.8762340  22.3718080  51.0256110  10.5225820  21.8518400
  51.0383270  10.1188110  20.9840660  50.4731330  11.2973110  21.7479830
  52.3201530   7.2442040  16.9408570  52.2097860   6.3016370  17.0657990
  52.3169780   7.6057680  17.8271330  50.4241550   5.4255660  23.1801010
  50.8410340   5.2115770  22.3454470  51.1481370   5.6828450  23.7509630
  47.8621810   2.8707360  16.2971060  46.9351090   2.8044740  16.5259530
  48.0146630   3.8087490  16.1826300  54.3703650   3.8242880  23.2717250
  53.5422280   3.8935970  22.7967380  54.9654130   4.4097190  22.8033080
  51.8919100   4.4327660  16.8006310  51.2731520   4.0947210  16.1532610
  51.8743550   3.7887420  17.5085500  43.4678450   3.3972100  19.0790790
  43.0635450   2.6849350  18.5836690  43.5541570   3.0525340  19.9678830
  43.9360150   7.0839660  21.2430000  43.6388440   6.4785130  20.5637780
  44.8859970   7.1216970  21.1319360  52.0245760  10.6571530  24.9053100
  51.5476320  11.4643720  24.7125710  51.3407550  10.0049860  25.0579310
  43.0278580   6.8221350  27.8937800  42.1307110   7.0461320  28.1411200
  43.0531450   6.9456290  26.9449200  50.0683800   3.6714470  13.8079060
  50.5077080   2.8336900  13.6616880  50.7812220   4.3043870  13.8943200
  41.8549800   3.6934670  26.4695170  41.7157570   4.5657470  26.8382570
  40.9731160   3.3507480  26.3243110  48.1779180   8.6110540  17.7760300
  48.6175090   9.3534870  17.3615690  48.1166070   8.8537110  18.6999260
  43.6530150   9.6356370  28.6780320  43.6245580  10.0399320  27.8108750
  43.4895120   8.7066730  28.5151920  40.1683080   2.2917080  16.5797440
  40.0480680   3.0179170  15.9678710  39.8583970   1.5219990  16.1025350
  55.6044970  10.4183470  29.9744490  56.0804690  10.8966360  30.6533570
  56.2252130  10.3500960  29.2489990  37.8068450   5.4632220  22.3866080
  37.8848870   5.5980990  21.4421800  38.4210130   4.7548110  22.5794200
  39.0516080   7.1632410  18.7972260  38.6444160   7.3047000  17.9425860
  39.9429090   6.8792570  18.5943470  55.0078220   7.6096320  27.1344500
  55.1341280   7.3708200  26.2161680  55.0499600   6.7780860  27.6066580
  48.8694960  11.3124320  25.7039310  49.3839630  11.2232330  26.5061740
  48.0264040  11.6584020  25.9967220  50.8449360  11.5979660  15.1323310
  50.6850500  11.3082600  16.0305140  50.6796070  10.8219790  14.5968540
  43.3237740  11.3778190  16.9094930  43.1480220  10.4613730  16.6962730
  42.4693480  11.7365480  17.1492730  50.5475490   9.1067220  13.6921310
  49.8540650   9.1044510  13.0323590  51.2898350   8.6826540  13.2615480
  50.1125420  10.7329930  17.7669800  50.5682370   9.9519310  18.0808420
  50.4517940  11.4436750  18.3110980  37.8627970   6.5046390  24.9260540
  38.0259010   6.0351750  24.1079910  38.3280420   5.9969950  25.5909380
  44.3597770   1.9785800  13.2089620  43.7914670   1.5304050  12.5825530
  45.0686770   2.3378580  12.6754770  39.4366950   5.8797820  27.0856350
  39.0521740   5.2391490  27.6839310  39.7479140   6.5833940  27.6551080
  45.5864090   2.7274360  22.5664970  45.9534220   2.2532930  23.3126310
  45.3969150   3.6015930  22.9073310  43.3763460   1.7683000  24.8849180
  43.0720530   2.6474980  25.1099540  44.3309920   1.8282790  24.9206620
  41.9045250   5.9743990  15.4816030  41.1307510   5.4341610  15.3214750
  42.6339880   5.4550600  15.1433790  52.6633230   4.9709350  21.2742420
  53.3832350   5.4664640  20.8838530  52.4615050   4.2927240  20.6296290
  48.0452030   5.0418410  27.1611420  47.9789340   4.1214080  26.9069010
  47.4157170   5.1393850  27.8756060  41.9482650   5.6424370  19.1194840
  42.4661320   4.8392630  19.0651730  41.4966670   5.5803510  19.9611670
  46.8352150   6.9090650  14.3922140  47.1767850   7.6532880  13.8965460
  46.0064860   7.2221770  14.7546970  39.4327190   2.6085740  26.0320540
  39.0742130   3.2739590  26.6193880  39.1381750   1.7769290  26.4033160
  42.6340310   3.0669980  28.9160090  42.3340450   3.2127160  28.0187910
  43.4051550   2.5075270  28.8233480  47.9768760   7.8638980  26.9115220
  47.9913300   6.9319940  26.6934130  47.2693860   7.9498740  27.5504990
  53.1105830   2.0478800  13.1813830  53.0269550   2.4793020  12.3310270
  53.8300020   2.5077150  13.6140650  54.1879970   4.5046320  26.2583800
  53.4628160   5.0975100  26.0613190  54.7155430   4.4969860  25.4597170
  54.1393080   8.9021060  15.9095960  53.4969240   8.2476680  16.1839680
  53.7523740   9.3076150  15.1336630  49.7179560   6.2306490  19.7567650
  50.0703380   5.6334620  19.0969020  48.8341890   5.9050720  19.9275900
  45.8042840   6.9904180  17.1638060  46.4913970   7.5373390  17.5445650
  45.0175260   7.5344910  17.1987670  37.9435240   2.6077000  12.6555140
  38.8130090   2.8901800  12.9391060  37.4525560   3.4212870  12.5403950
  45.1070050   3.9950210  16.7763420  45.5632830   4.8055460  17.0023610
  44.7558260   3.6773350  17.6081910  47.4102660   9.5056550  24.0055720
  48.0544880   9.7115930  24.6829140  47.7732100   8.7444950  23.5526570
  48.6834740   7.5088900  22.7233170  49.3256970   6.8082060  22.8365340
  49.2084090   8.2887340  22.5430060  52.5290460   7.7937520  12.4472310
  52.3028040   7.0767960  13.0396950  52.1386660   7.5449960  11.6094060
  50.4572360   8.3083800  25.9269230  50.7928600   8.8950490  26.6047150
  49.5372700   8.1776510  26.1567020  38.3106490  11.8204380  13.2216770
  38.6704130  12.4193720  12.5674040  38.1698830  12.3664270  13.9951800
  52.1106710   5.7109460  14.1086470  51.8228410   6.1722150  14.8964350
  52.9058880   5.2507230  14.3770690  38.2948350  10.0859240  27.6959170
  38.4039470   9.1453980  27.5554560  37.6428910  10.3513990  27.0472900
  46.2860940   8.3575130  29.0957290  45.9657810   7.6384370  29.6402980
  45.6119300   9.0330200  29.1693350  44.3275110   9.2035580  14.0390440
  44.3185210   9.9365270  13.4234950  43.4073470   8.9567160  14.1317400
  39.9281750   4.4250470  14.7837200  39.3209700   5.1649370  14.7932500
  40.4031100   4.5149830  13.9575400  47.3134710   9.2663820  12.7015630
  47.4146690   9.0627810  11.7717610  46.4136450   9.0122100  12.9063410
  45.9552820  11.7850140  17.3963300  46.2094320  11.7471530  16.4742670
  45.0065300  11.6583470  17.3891550  51.9605400   2.7042020  18.9721810
  51.0195540   2.7192250  19.1469500  52.2749470   1.9177980  19.4182110
  41.9387040   4.3861620  12.5325770  42.7050310   4.2742980  13.0951200
  42.0161730   3.6899590  11.8802540  53.9630980   9.8750870  20.6476070
  54.0878400  10.6982040  21.1199880  54.8296540   9.6641600  20.3000220
  41.4348510  11.9682080  20.3193200  42.1710990  11.4197540  20.5901770
  41.8189430  12.8338090  20.1799190  38.3193990   8.0355650  16.1934710
  37.3933770   8.2776790  16.1840120  38.7850420   8.8629910  16.0719460
  40.4406790  11.1528150  29.5078780  41.2419520  11.4740200  29.9214180
  39.9258610  10.7923730  30.2298690  44.5450820  11.1412390  12.1418770
  45.3379430  11.4301220  11.6900560  44.0255170  10.7104560  11.4631250
  49.2771420   7.2608020  29.4554190  48.6709580   7.2839620  28.7149940
  48.9725530   6.5291060  29.9921440  50.7071790  10.9888310  28.0663600
  51.6593540  10.9046330  28.0163840  50.5600010  11.6530020  28.7397390
  53.5980990  10.3682520  13.5655510  53.3122500   9.9547660  12.7509690
  53.4000540  11.2970230  13.4456030  38.1604600   3.6401610  28.4514830
  38.6643620   3.0608890  29.0231060  37.4212020   3.9241840  28.9891200
  45.0628220   6.3615800  12.0061120  44.9578860   5.7468150  12.7322500
  44.8952440   5.8381690  11.2224130  45.2142540   5.0472600  27.9850350
  44.4488210   5.6157600  27.9005020  45.3958500   4.7548810  27.0918580
  48.3030950   5.4235830  12.6103110  47.7541050   5.8705130  13.2545850
  48.9250210   4.9185080  13.1340780  52.3565890   6.7777930  28.5425370
  53.0975360   7.1153690  28.0392830  51.5938570   6.9469990  27.9895140
  40.1927680   1.7831200  29.3464900  40.2333020   1.4845070  30.2550130
  41.0473180   2.1838810  29.1872420  43.9706070   4.3826750  14.5068410
  44.3922490   4.2166620  15.3499800  44.0956910   3.5726980  14.0123550
  46.4833710   3.4064360  11.7545510  47.0039370   2.6913380  11.3886660
  47.1302110   4.0450230  12.0546020  51.0311550   4.8292760  27.0780580
  51.4452570   4.9837840  27.9271000  50.0962550   4.9547980  27.2406360
  45.7926780   4.7813240  25.0476510  46.2114890   5.6245970  24.8752750
  44.8735410   4.9185280  24.8183290  48.1290680   2.5129420  26.4314350
  48.2486890   1.9170560  27.1709190  48.9884680   2.5499110  26.0115650
  50.4678580   3.0666610  25.0076860  49.9413800   3.5909230  24.4042000
  50.8109920   3.6994000  25.6386590  43.6434200  11.0866250  26.1634240
  43.1055290  11.8112310  25.8442940  43.8968160  10.6096590  25.3731580
  46.4996410  12.3217460  26.4220890  46.4255110  13.2252600  26.7293260
  45.5975250  12.0029360  26.3942960  47.0481740  11.4875970  14.0447250
  47.9432530  11.8260940  14.0666010  47.0799370  10.7655380  13.4171530
  40.6877900   6.8603020  12.2734250  41.1252770   7.4032690  12.9291830
  41.1725630   6.0349970  12.2830590  37.9023700   9.6492050  19.7254510
  38.2326710   8.7813110  19.4933150  38.3314700   9.8550570  20.5559470
  42.4985620   7.9801060  17.3856480  42.1981160   7.8566030  18.2860390
  42.3923110   7.1209650  16.9772210  38.3913910  10.5162640  22.4636140
  37.9544900  10.6963440  23.2960290  38.9591590  11.2737260  22.3217860
  54.0276090  10.0179640  26.7513450  53.4278080  10.0772200  26.0077370
  54.1569990   9.0784620  26.8810300  55.2677540   7.7597460  12.0883160
  54.4370500   7.8274110  12.5590390  55.4449370   8.6501580  11.7850020
  54.7234000   4.5044940  14.5917360  55.4852910   5.0741590  14.6977050
  54.7388370   3.9372140  15.3625670  38.2238340   3.0282870  18.8225020
  37.5687180   2.7594510  18.1784720  39.0616290   2.9187350  18.3727000
  55.7293970   5.3595040  19.4359290  56.1002800   4.5762360  19.0295260
  56.3695900   6.0484140  19.2576590  52.7127730   6.7431620  24.8489610
  51.8987570   7.1728780  25.1115400  53.1201930   7.3550030  24.2358660
  54.7753170   4.7979310  11.7489880  55.0502010   5.7058190  11.6209100
  54.5863910   4.7341840  12.6851870  54.6718510   2.7348300  16.7419310
  54.2962110   1.9676230  16.3100600  53.9421630   3.1171000  17.2294240
  39.2614270   3.4135440  23.3628360  39.6287310   3.3262840  24.2424380
  38.6925090   2.6501990  23.2635220  54.0618130   1.8819820  26.3758830
  53.8304220   1.6532570  25.4756780  54.3222680   2.8019370  26.3303720
  52.7703780  11.4950220  18.3757880  53.3662850  11.1734790  17.6992300
  53.0281930  11.0222040  19.1671150  40.6766350   7.9268130  28.5248510
  40.6335980   7.5561040  29.4062970  40.8077360   8.8645700  28.6650330
  44.3772380   9.4827720  24.1258230  44.1363740   9.7502280  23.2388750
  45.3175020   9.6533450  24.1809090  55.6376540  11.5022100  24.9268870
  55.1434820  11.8990970  24.2096000  55.0289830  10.8771310  25.3206150
  40.5154380  10.8730380  25.6446290  39.9214700  10.7415080  26.3836330
  40.5078220  10.0368520  25.1788390  53.3215990  12.1445520  22.2055610
  52.8618960  12.8961330  21.8313630  52.6928450  11.4251990  22.1470410
  40.1466610   8.2388760  24.5954330  39.4200670   7.6194050  24.5280280
  40.2075760   8.6329370  23.7252410  43.7511710  10.4533760  21.3803740
  44.2676730   9.8421120  20.8552000  44.4009090  10.9562540  21.8714750
  46.4907210  11.3442250  22.2072720  46.7785020  11.0896550  21.3305730
  47.0030430  10.7919610  22.7978290  38.4296610  11.5563150  17.8051090
  38.2618650  10.9233830  18.5032980  37.5631120  11.7622550  17.4545280
  40.0359310  10.2496380  15.2501230  39.5106930  10.6304410  14.5463190
  39.9603890  10.8747150  15.9710940  46.5579570  12.2658350  29.5740920
  47.4846880  12.0302620  29.6176880  46.5430000  13.0930350  29.0926950
  54.7924630  11.8083920  16.5715170  54.9676820  11.1221660  15.9276090
  54.0946200  12.3330970  16.1791840  42.6352280  12.1978760  14.1250480
  43.3671100  11.9138040  13.5774370  42.8945950  11.9592040  15.0149860
  41.7967070   8.3143490  14.1296810  41.1675950   8.7828590  14.6782640
  41.9114900   7.4692710  14.5643000  53.1257130  11.4928210  29.3981960
  53.9182450  10.9977440  29.1907920  53.4190280  12.1718350  30.0057570
  47.3834830   4.1428170   2.1607280  46.6076930   3.6628610   2.4505850
  48.0347760   3.4633820   1.9863440  41.4000660   4.4547980   3.0383040
  40.5685540   4.1996690   3.4379550  42.0081640   4.5258750   3.7740960
  41.3801920   8.4888070   3.2341060  41.6829960   7.5985810   3.0551280
  42.1245510   9.0458290   3.0063310  46.8243820   6.8185360   2.1677440
  46.7552100   5.8775300   2.0066570  47.5863680   6.9086770   2.7400010
  43.3600680   5.2461480   4.6325910  43.0270060   5.8730400   5.2746980
  43.5367360   5.7723360   3.8527580  42.5719780   7.2142280   6.4475090
  43.1893780   7.8893360   6.1659540  41.7112900   7.6230260   6.3562590
  53.4897370   8.6781690   4.3629730  52.8060890   9.3480800   4.3546400
  54.0291660   8.8762340   3.5974590  51.0256110  10.5225820   3.0774910
  51.0383270  10.1188110   2.2097170  50.4731330  11.2973110   2.9736340
  50.4241550   5.4255660   4.4057520  50.8410340   5.2115770   3.5710980
  51.1481370   5.6828450   4.9766140  54.3703650   3.8242880   4.4973760
  53.5422280   3.8935970   4.0223890  54.9654130   4.4097190   4.0289590
  43.9360150   7.0839660   2.4686510  43.6388440   6.4785130   1.7894290
  44.8859970   7.1216970   2.3575870  52.0245760  10.6571530   6.1309610
  51.5476320  11.4643720   5.9382220  51.3407550  10.0049860   6.2835820
  43.0278580   6.8221350   9.1194310  42.1307110   7.0461320   9.3667710
  43.0531450   6.9456290   8.1705710  41.8549800   3.6934670   7.6951680
  41.7157570   4.5657470   8.0639080  40.9731160   3.3507480   7.5499620
  43.6530150   9.6356370   9.9036830  43.6245580  10.0399320   9.0365260
  43.4895120   8.7066730   9.7408430  55.6044970  10.4183470  11.2001000
  56.0804690  10.8966360  11.8790080  56.2252130  10.3500960  10.4746500
  37.8068450   5.4632220   3.6122590  37.8848870   5.5980990   2.6678310
  38.4210130   4.7548110   3.8050710  55.0078220   7.6096320   8.3601010
  55.1341280   7.3708200   7.4418190  55.0499600   6.7780860   8.8323090
  48.8694960  11.3124320   6.9295820  49.3839630  11.2232330   7.7318250
  48.0264040  11.6584020   7.2223730  37.8627970   6.5046390   6.1517050
  38.0259010   6.0351750   5.3336420  38.3280420   5.9969950   6.8165890
  39.4366950   5.8797820   8.3112860  39.0521740   5.2391490   8.9095820
  39.7479140   6.5833940   8.8807590  45.5864090   2.7274360   3.7921480
  45.9534220   2.2532930   4.5382820  45.3969150   3.6015930   4.1329820
  43.3763460   1.7683000   6.1105690  43.0720530   2.6474980   6.3356050
  44.3309920   1.8282790   6.1463130  52.6633230   4.9709350   2.4998930
  53.3832350   5.4664640   2.1095040  52.4615050   4.2927240   1.8552800
  48.0452030   5.0418410   8.3867930  47.9789340   4.1214080   8.1325520
  47.4157170   5.1393850   9.1012570  39.4327190   2.6085740   7.2577050
  39.0742130   3.2739590   7.8450390  39.1381750   1.7769290   7.6289670
  42.6340310   3.0669980  10.1416600  42.3340450   3.2127160   9.2444420
  43.4051550   2.5075270  10.0489990  47.9768760   7.8638980   8.1371730
  47.9913300   6.9319940   7.9190640  47.2693860   7.9498740   8.7761500
  54.1879970   4.5046320   7.4840310  53.4628160   5.0975100   7.2869700
  54.7155430   4.4969860   6.6853680  47.4102660   9.5056550   5.2312230
  48.0544880   9.7115930   5.9085650  47.7732100   8.7444950   4.7783080
  48.6834740   7.5088900   3.9489680  49.3256970   6.8082060   4.0621850
  49.2084090   8.2887340   3.7686570  50.4572360   8.3083800   7.1525740
  50.7928600   8.8950490   7.8303660  49.5372700   8.1776510   7.3823530
  38.2948350  10.0859240   8.9215680  38.4039470   9.1453980   8.7811070
  37.6428910  10.3513990   8.2729410  46.2860940   8.3575130  10.3213800
  45.9657810   7.6384370  10.8659490  45.6119300   9.0330200  10.3949860
  53.9630980   9.8750870   1.8732580  54.0878400  10.6982040   2.3456390
  54.8296540   9.6641600   1.5256730  40.4406790  11.1528150  10.7335290
  41.2419520  11.4740200  11.1470690  39.9258610  10.7923730  11.4555200
  49.2771420   7.2608020  10.6810700  48.6709580   7.2839620   9.9406450
  48.9725530   6.5291060  11.2177950  50.7071790  10.9888310   9.2920110
  51.6593540  10.9046330   9.2420350  50.5600010  11.6530020   9.9653900
  38.1604600   3.6401610   9.6771340  38.6643620   3.0608890  10.2487570
  37.4212020   3.9241840  10.2147710  45.2142540   5.0472600   9.2106860
  44.4488210   5.6157600   9.1261530  45.3958500   4.7548810   8.3175090
  52.3565890   6.7777930   9.7681880  53.0975360   7.1153690   9.2649340
  51.5938570   6.9469990   9.2151650  40.1927680   1.7831200  10.5721410
  40.2333020   1.4845070  11.4806640  41.0473180   2.1838810  10.4128930
  51.0311550   4.8292760   8.3037090  51.4452570   4.9837840   9.1527510
  50.0962550   4.9547980   8.4662870  45.7926780   4.7813240   6.2733020
  46.2114890   5.6245970   6.1009260  44.8735410   4.9185280   6.0439800
  48.1290680   2.5129420   7.6570860  48.2486890   1.9170560   8.3965700
  48.9884680   2.5499110   7.2372160  50.4678580   3.0666610   6.2333370
  49.9413800   3.5909230   5.6298510  50.8109920   3.6994000   6.8643100
  43.6434200  11.0866250   7.3890750  43.1055290  11.8112310   7.0699450
  43.8968160  10.6096590   6.5988090  46.4996410  12.3217460   7.6477400
  46.4255110  13.2252600   7.9549770  45.5975250  12.0029360   7.6199470
  38.3913910  10.5162640   3.6892650  37.9544900  10.6963440   4.5216800
  38.9591590  11.2737260   3.5474370  54.0276090  10.0179640   7.9769960
  53.4278080  10.0772200   7.2333880  54.1569990   9.0784620   8.1066810
  52.7127730   6.7431620   6.0746120  51.8987570   7.1728780   6.3371910
  53.1201930   7.3550030   5.4615170  39.2614270   3.4135440   4.5884870
  39.6287310   3.3262840   5.4680890  38.6925090   2.6501990   4.4891730
  54.0618130   1.8819820   7.6015340  53.8304220   1.6532570   6.7013290
  54.3222680   2.8019370   7.5560230  40.6766350   7.9268130   9.7505020
  40.6335980   7.5561040  10.6319480  40.8077360   8.8645700   9.8906840
  44.3772380   9.4827720   5.3514740  44.1363740   9.7502280   4.4645260
  45.3175020   9.6533450   5.4065600  55.6376540  11.5022100   6.1525380
  55.1434820  11.8990970   5.4352510  55.0289830  10.8771310   6.5462660
  40.5154380  10.8730380   6.8702800  39.9214700  10.7415080   7.6092840
  40.5078220  10.0368520   6.4044900  53.3215990  12.1445520   3.4312120
  52.8618960  12.8961330   3.0570140  52.6928450  11.4251990   3.3726920
  40.1466610   8.2388760   5.8210840  39.4200670   7.6194050   5.7536790
  40.2075760   8.6329370   4.9508920  43.7511710  10.4533760   2.6060250
  44.2676730   9.8421120   2.0808510  44.4009090  10.9562540   3.0971260
  46.4907210  11.3442250   3.4329230  46.7785020  11.0896550   2.5562240
  47.0030430  10.7919610   4.0234800  46.5579570  12.2658350  10.7997430
  47.4846880  12.0302620  10.8433390  46.5430000  13.0930350  10.3183460
  53.1257130  11.4928210  10.6238470  53.9182450  10.9977440  10.4164430
  53.4190280  12.1718350  11.2314080  30.4773300  96.2366600  75.3771970
  30.3967350  95.3221210  75.1063680  30.0637720  96.7333670  74.6711680
  21.0349120  93.2867320  71.9199390  20.1465820  93.6283290  71.8179270
  21.3190310  93.0867640  71.0280220  23.2110510  91.8698820  72.9537770
  23.3177260  92.7702550  73.2606530  22.3002870  91.8216790  72.6632420
  32.8629620  90.9923630  74.4248670  33.6839240  90.5020200  74.4674150
  32.8963700  91.5821290  75.1780510  26.6997560  88.6775980  75.8841410
  27.0072540  88.1222870  75.1676910  25.7698260  88.8120440  75.7014400
  29.0878320  96.7424810  72.6201530  28.1607600  96.6762190  72.8490000
  29.2403140  97.6804940  72.5056770  29.0747400  93.0141810  69.6168690
  28.1351070  93.1755770  69.7021150  29.3930660  93.7327490  69.0704680
  33.1175610  98.3045110  73.1236780  32.4988030  97.9664660  72.4763080
  33.1000060  97.6604870  73.8315970  24.6934960  97.2689550  75.4021260
  24.2891960  96.5566800  74.9067160  24.7798080  96.9242790  76.2909300
  31.2940310  97.5431920  70.1309530  31.7333590  96.7054350  69.9847350
  32.0068730  98.1761320  70.2173670  34.8757450  88.7974730  68.4450570
  34.5630110  88.8901560  69.3449640  35.6369920  89.3755760  68.3948000
  21.3939590  96.1634530  72.9027910  21.2737190  96.8896620  72.2909180
  21.0840480  95.3937440  72.4255820  23.8603250  89.5069600  76.2851580
  23.4171400  90.2879140  75.9536100  24.4188240  89.8299490  76.9922520
  26.9762070  89.1280300  71.1657410  26.3516250  89.1240170  71.8910720
  26.8892190  88.2611260  70.7693380  23.6517470  94.6303170  74.0132830
  23.4258390  94.4140340  74.9179450  22.8710000  95.0631630  73.6678800
  30.8815230  94.6366540  72.6123480  30.2824120  95.3602340  72.4287100
  31.4294840  94.5743320  71.8299930  29.4880100  93.2730080  74.6426760
  29.8809670  93.5902280  73.8295450  29.8496950  92.3941960  74.7571280
  18.7114500  93.8051000  68.0759680  18.6289170  94.7481760  68.2174670
  18.3597560  93.6625910  67.1972030  26.5112630  92.5390030  77.1430030
  26.5148690  92.0979980  76.2934570  27.4063750  92.8607360  77.2501850
  22.3615010  92.4216520  76.1024240  22.0215060  92.8991750  76.8591290
  21.5992330  91.9681640  75.7425340  26.5732780  93.5402110  70.1336790
  26.6945600  93.4988590  71.0822610  26.1881290  94.4026260  69.9783520
  25.5854280  95.8503250  69.5320090  25.0171180  95.4021500  68.9056000
  26.2943280  96.2096030  68.9985240  19.6761090  91.3435500  75.0188910
  19.3908010  90.9791170  75.8567530  19.6139950  90.6115960  74.4052050
  29.3499680  90.2364760  71.7402280  28.5364290  89.7377930  71.6647590
  29.1561630  91.0763010  71.3238630  32.0648070  94.6084410  70.0364440
  32.9527690  94.9201640  69.8615780  32.0353160  93.7356660  69.6445020
  34.3362340  95.9196250  69.5044300  34.2526060  96.3510470  68.6540740
  35.0556530  96.3794600  69.9371120  19.1691750  96.4794450  68.9785610
  20.0386600  96.7619250  69.2621530  18.6782070  97.2930320  68.8634420
  26.3326560  97.8667660  73.0993890  26.7889340  98.6772910  73.3254080
  25.9814770  97.5490800  73.9312380  22.2338340  88.2105310  73.5716410
  22.1052970  88.2023210  74.5201330  21.4100360  88.5488400  73.2207420
  34.0933080  91.4175680  71.5912120  33.4646240  91.5221350  70.8770350
  33.5985000  91.6372460  72.3806000  26.0617110  93.6961630  73.0070000
  25.3533260  94.1647970  73.4483610  26.3461590  93.0383640  73.6415190
  30.0932540  90.4212290  74.4465790  29.9700320  90.4398420  73.4975300
  31.0417100  90.4691230  74.5664190  24.2652130  92.0046710  70.3820710
  25.1142660  92.4416860  70.3160900  23.8983400  92.3166970  71.2092770
  33.1861910  96.5759470  75.2952280  32.2452050  96.5909700  75.4699970
  33.5005980  95.7895430  75.7412580  23.1643550  98.2579070  68.8556240
  23.9306820  98.1460430  69.4181670  23.2418240  97.5617040  68.2033010
  21.8590310  95.6904140  69.5389130  21.9393900  94.7431650  69.6506530
  22.7510060  96.0211020  69.6449790  25.1962580  98.2544200  70.8298880
  25.6179000  98.0884070  71.6730270  25.3213420  97.4444430  70.3354020
  27.7090220  97.2781810  68.0775980  28.2295880  96.5630830  67.7117130
  28.3558620  97.9167680  68.3776490  24.0921480  94.3277430  67.7757040
  23.8910540  93.4644790  68.1370380  23.9213530  94.2410790  66.8378640
  31.5709790  89.1385660  70.3043920  31.8512080  88.2953560  70.6603340
  30.7975520  89.3708770  70.8182670  22.8904280  91.4278050  67.7634920
  23.1930180  91.4345480  66.8554070  23.6298870  91.0775910  68.2602580
  26.1089210  90.3712670  68.7491120  25.7611210  89.6936660  68.1693570
  26.3101980  89.9102180  69.5634510  19.4494850  96.9000320  75.1455490
  18.7943690  96.6311960  74.5015190  20.2872800  96.7904800  74.6957470
  32.3985290  91.6941610  69.3673980  32.8170170  91.5072590  68.5270640
  32.0921350  90.8420660  69.6776910  35.8975020  96.6065750  73.0649780
  35.5218620  95.8393680  72.6331070  35.1678140  96.9888450  73.5524710
  18.6632930  94.1099250  71.0880820  17.7597010  94.3729450  70.9132480
  19.1473550  94.3810420  70.3080780  35.1725980  94.8323240  76.3657020
  35.6963460  94.3385890  75.7347190  35.7585400  94.9673600  77.1104590
  21.2060140  93.1664790  68.9975200  21.9151840  92.7448010  68.5122480
  20.4900080  93.2340020  68.3658550  20.8534300  89.2204120  68.0377850
  21.5762430  89.7613060  68.3559070  21.1258820  88.9467540  67.1619390
  34.6625950  94.0896590  72.3049430  35.1585070  93.8567460  73.0898310
  34.4642020  93.2508430  71.8887070  36.0913110  92.7257540  74.8387110
  35.9812390  92.5713580  75.7769380  36.8520700  92.1978480  74.5962520
  36.9803380  90.5565460  68.0793250  37.9052690  90.4246640  67.8711540
  36.9579170  90.6358280  69.0329700  37.0541870  91.3276120  70.7049960
  36.2593370  91.2621240  71.2342870  37.2585150  92.2626760  70.6935310
  33.4861800  89.6573000  77.1548790  33.9269890  89.6018100  76.3070390
  33.2169390  90.5731010  77.2258970  35.3500370  89.2888240  75.1657610
  35.2888770  88.3449460  75.0188630  36.1292400  89.3968330  75.7111070
  20.2781140  89.2597380  71.6313420  21.0360500  89.3726260  71.0577450
  19.8158310  90.0966580  71.5856850  26.8194950  91.3736650  74.6215730
  26.0069460  90.9993540  74.2811610  27.3236590  90.6181730  74.9236920
  31.3219930  88.0379100  75.8598800  31.9249300  88.6099310  76.3347320
  30.5812920  88.6018540  75.6372700  34.4654530  88.4400660  71.1339080
  34.6605160  89.3384110  71.4006510  33.6784400  88.2087740  71.6272030
  22.6506290  89.7861430  70.1715390  23.1799050  88.9991230  70.0423340
  23.2834610  90.4652620  70.4050920  24.8444130  89.5236570  73.2260780
  24.2146870  88.8223880  73.3930910  24.3049270  90.2840700  73.0093940
  30.4773300  96.2366600  56.6028480  30.3967350  95.3221210  56.3320190
  30.0637720  96.7333670  55.8968190  28.6091340  98.0145620  58.4837750
  27.8333440  97.5346060  58.7736320  29.2604270  97.3351270  58.3093910
  22.6257170  98.3265430  59.3613510  21.7942050  98.0714140  59.7610020
  23.2338150  98.3976200  60.0971430  21.0349120  93.2867320  53.1455900
  20.1465820  93.6283290  53.0435780  21.3190310  93.0867640  52.2536730
  18.9982130  95.8872970  59.0295600  19.5698240  95.1195170  59.0299240
  18.9983670  96.1861730  58.1202210  20.2407000  91.2957330  60.8164530
  20.0609840  90.3983080  61.0967290  19.8387080  91.8429200  61.4911480
  29.0805500  93.4973190  58.7176840  29.4570320  92.6245070  58.6050510
  28.9825010  93.8331890  57.8267280  23.2110510  91.8698820  54.1794280
  23.3177260  92.7702550  54.4863040  22.3002870  91.8216790  53.8888930
  32.8629620  90.9923630  55.6505180  33.6839240  90.5020200  55.6930660
  32.8963700  91.5821290  56.4037020  20.8593670  93.7917830  59.4246870
  21.5403780  94.0556200  60.0434270  20.5441720  92.9518700  59.7584880
  25.0518240  94.8385190  58.5119460  25.5596460  95.3366160  59.1524480
  25.5831480  94.0620390  58.3358820  37.1529170  93.0090380  62.2148810
  36.4481340  93.3972090  61.6963920  37.4187090  93.7040670  62.8169740
  23.3354340  89.4783750  62.7782880  23.3372780  89.9956140  61.9728780
  22.5058650  89.0013930  62.7552810  33.0991100  92.9324010  58.4232720
  32.3946670  93.2208900  59.0035830  33.4603260  93.7424120  58.0632280
  23.0169670  91.1893710  60.7853330  23.3586480  92.0335760  60.4907200
  22.0785480  91.3377450  60.9018670  36.1678020  92.3778800  58.8141930
  35.2202930  92.4117780  58.9457360  36.4928010  93.1917750  59.1991290
  26.6997560  88.6775980  57.1097920  27.0072540  88.1222870  56.3933420
  25.7698260  88.8120440  56.9270910  29.0878320  96.7424810  53.8458040
  28.1607600  96.6762190  54.0746510  29.2403140  97.6804940  53.7313280
  29.0747400  93.0141810  50.8425200  28.1351070  93.1755770  50.9277660
  29.3930660  93.7327490  50.2961190  35.5960160  97.6960330  60.8204230
  34.7678790  97.7653420  60.3454360  36.1910640  98.2814640  60.3520060
  33.1175610  98.3045110  54.3493290  32.4988030  97.9664660  53.7019590
  33.1000060  97.6604870  55.0572480  32.5602170  94.4829650  61.7659100
  32.1473350  95.3083360  62.0199090  31.8278120  93.8974690  61.5735460
  24.6934960  97.2689550  56.6277770  24.2891960  96.5566800  56.1323670
  24.7798080  96.9242790  57.5165810  23.4063580  94.0432760  60.4076810
  23.9578170  94.1528100  59.6330060  23.9207090  94.4170360  61.1232040
  31.2940310  97.5431920  51.3566040  31.7333590  96.7054350  51.2103860
  32.0068730  98.1761320  51.4430180  23.0806310  97.5652120  64.0182150
  22.9414080  98.4374920  64.3869550  22.1987670  97.2224930  63.8730090
  34.8757450  88.7974730  49.6707080  34.5630110  88.8901560  50.5706150
  35.6369920  89.3755760  49.6204510  21.3939590  96.1634530  54.1284420
  21.2737190  96.8896620  53.5165690  21.0840480  95.3937440  53.6512330
  36.0858740  93.5346230  65.6481220  35.4703010  94.0425900  65.1196680
  35.7655160  92.6344560  65.5907160  23.8603250  89.5069600  57.5108090
  23.4171400  90.2879140  57.1792610  24.4188240  89.8299490  58.2179030
  28.1473060  92.3738120  63.1143410  27.6852430  92.5821140  63.9263350
  27.7451170  91.5597470  62.8114080  33.1477570  93.5947070  64.2440070
  32.2971160  93.2952820  64.5649140  32.9879360  93.8389080  63.3323890
  30.2427280  95.0948820  66.3438860  30.5680690  94.2612570  66.0041090
  31.0307610  95.6177340  66.4917190  26.9762070  89.1280300  52.3913920
  26.3516250  89.1240170  53.1167230  26.8892190  88.2611260  51.9949890
  25.8979150  90.0516930  59.3697690  26.1951480  90.9579760  59.2889710
  26.4464710  89.5635710  58.7557260  23.6517470  94.6303170  55.2389340
  23.4258390  94.4140340  56.1435960  22.8710000  95.0631630  54.8935310
  30.8815230  94.6366540  53.8379990  30.2824120  95.3602340  53.6543610
  31.4294840  94.5743320  53.0556440  26.0916680  95.5288750  65.9049610
  25.9960280  94.5883480  65.7550010  26.9348660  95.7503820  65.5097680
  29.4880100  93.2730080  55.8683270  29.8809670  93.5902280  55.0551960
  29.8496950  92.3941960  55.9827790  21.2227220  91.9402420  64.0583390
  20.8290610  92.7877630  64.2656170  20.5345620  91.3028790  64.2492030
  27.7972270  92.0237390  67.1280130  27.1070590  91.8309590  67.7626220
  28.5404570  92.3072030  67.6604430  18.5244270  89.8630880  58.0913470
  18.2357320  90.4333740  58.8038450  19.2690030  89.3835330  58.4544700
  18.7114500  93.8051000  49.3016190  18.6289170  94.7481760  49.4431180
  18.3597560  93.6625910  48.4228540  30.0735240  95.8635830  59.9634050
  29.3416360  96.3722640  60.3124150  29.6759580  95.0465810  59.6622830
  26.5112630  92.5390030  58.3686540  26.5148690  92.0979980  57.5191080
  27.4063750  92.8607360  58.4758360  22.3615010  92.4216520  57.3280750
  22.0215060  92.8991750  58.0847800  21.5992330  91.9681640  56.9681850
  26.5732780  93.5402110  51.3593300  26.6945600  93.4988590  52.3079120
  26.1881290  94.4026260  51.2040030  30.5361150  91.3169510  59.3756990
  30.5533890  91.7678160  60.2198840  30.2876730  90.4175150  59.5890430
  25.5854280  95.8503250  50.7576600  25.0171180  95.4021500  50.1312510
  26.2943280  96.2096030  50.2241750  33.9631900  88.7301690  65.2143370
  34.2877670  87.9991350  65.7401350  33.9988410  88.4115330  64.3124360
  26.8120600  96.5991810  60.1151950  27.1790730  96.1250380  60.8613290
  26.6225660  97.4733380  60.4560290  19.6761090  91.3435500  56.2445420
  19.3908010  90.9791170  57.0824040  19.6139950  90.6115960  55.6308560
  24.6019970  95.6400450  62.4336160  24.2977040  96.5192430  62.6586520
  25.5566430  95.7000240  62.4693600  29.3499680  90.2364760  52.9658790
  28.5364290  89.7377930  52.8904100  29.1561630  91.0763010  52.5495140
  32.0648070  94.6084410  51.2620950  32.9527690  94.9201640  51.0872290
  32.0353160  93.7356660  50.8701530  20.6583700  96.4803190  63.5807520
  20.2998640  97.1457040  64.1680860  20.3638260  95.6486740  63.9520140
  23.8596820  96.9387430  66.4647070  23.5596960  97.0844610  65.5674890
  24.6308060  96.3792720  66.3720460  34.3362340  95.9196250  50.7300810
  34.2526060  96.3510470  49.8797250  35.0556530  96.3794600  51.1627630
  19.1691750  96.4794450  50.2042120  20.0386600  96.7619250  50.4878040
  18.6782070  97.2930320  50.0890930  26.3326560  97.8667660  54.3250400
  26.7889340  98.6772910  54.5510590  25.9814770  97.5490800  55.1568890
  22.2338340  88.2105310  54.7972920  22.1052970  88.2023210  55.7457840
  21.4100360  88.5488400  54.4463930  19.2332270  89.9696430  64.2579620
  18.5190790  90.1693350  64.8632230  19.6527310  89.1936000  64.6294420
  30.7271050  92.4618740  62.0081070  31.0951870  91.6413950  62.3360640
  29.8669250  92.5220630  62.4236720  34.0933080  91.4175680  52.8168630
  33.4646240  91.5221350  52.1026860  33.5985000  91.6372460  53.6062510
  26.0617110  93.6961630  54.2326510  25.3533260  94.1647970  54.6740120
  26.3461590  93.0383640  54.8671700  27.6873040  95.1158330  62.2319040
  28.1858290  95.5904150  62.8970890  27.8295990  94.1921850  62.4389070
  30.0932540  90.4212290  55.6722300  29.9700320  90.4398420  54.7231810
  31.0417100  90.4691230  55.7920700  24.2652130  92.0046710  51.6077220
  25.1142660  92.4416860  51.5417410  23.8983400  92.3166970  52.4349280
  34.8939900  91.3326290  63.0747430  34.3913500  92.0731690  63.4141240
  35.7096560  91.7210290  62.7584220  33.1861910  96.5759470  56.5208790
  32.2452050  96.5909700  56.6956480  33.5005980  95.7895430  56.9669090
  23.1643550  98.2579070  50.0812750  23.9306820  98.1460430  50.6438180
  23.2418240  97.5617040  49.4289520  21.8590310  95.6904140  50.7645640
  21.9393900  94.7431650  50.8763040  22.7510060  96.0211020  50.8706300
  19.3861110  97.5119060  66.0001810  19.8900130  96.9326340  66.5718040
  18.6468530  97.7959290  66.5378180  21.4184190  95.6548650  66.8951880
  21.4589530  95.3562520  67.8037110  22.2729690  96.0556260  66.7359400
  25.1962580  98.2544200  52.0555390  25.6179000  98.0884070  52.8986780
  25.3213420  97.4444430  51.5610530  23.3590000  94.2340750  64.8626370
  22.8286460  93.7431700  64.2349710  24.0278070  94.6624950  64.3284300
  27.7090220  97.2781810  49.3032490  28.2295880  96.5630830  48.9373640
  28.3558620  97.9167680  49.6033000  32.7290230  96.0406370  66.6306710
  33.3111000  95.2858690  66.5427190  32.9052000  96.5713810  65.8538190
  23.8462300  91.2003120  64.9423660  23.7519170  90.5823870  64.2174530
  23.2659690  91.9269410  64.7153570  26.6123740  89.7576360  61.9751050
  26.1641040  89.7800620  61.1296600  25.9788940  89.3595380  62.5721350
  29.3547190  96.3846870  63.9801330  29.4743400  95.7888010  64.7196170
  30.2141190  96.4216560  63.5602630  31.6935090  96.9384060  62.5563840
  31.1670310  97.4626680  61.9528980  32.0366430  97.5711450  63.1873570
  24.0921480  94.3277430  49.0013550  23.8910540  93.4644790  49.3626890
  23.9213530  94.2410790  48.0635150  26.1215960  92.9268220  65.2377150
  26.7115650  92.6184070  65.9254970  25.3036200  92.4547970  65.3937050
  30.9409390  92.5434030  65.4710170  30.2524910  91.8815570  65.4060160
  31.6615410  92.0972300  65.9158630  31.5709790  89.1385660  51.5300430
  31.8512080  88.2953560  51.8859850  30.7975520  89.3708770  52.0439180
  22.8904280  91.4278050  48.9891430  23.1930180  91.4345480  48.0810580
  23.6298870  91.0775910  49.4859090  26.1089210  90.3712670  49.9747630
  25.7611210  89.6936660  49.3950080  26.3101980  89.9102180  50.7891020
  19.4494850  96.9000320  56.3712000  18.7943690  96.6311960  55.7271700
  20.2872800  96.7904800  55.9213980  32.3985290  91.6941610  50.5930490
  32.8170170  91.5072590  49.7527150  32.0921350  90.8420660  50.9033420
  35.8975020  96.6065750  54.2906290  35.5218620  95.8393680  53.8587580
  35.1678140  96.9888450  54.7781220  20.4870780  97.2852890  60.9115340
  20.8543820  97.1980290  61.7911360  19.9181600  96.5219440  60.8122200
  35.2874640  95.7537270  63.9245810  35.0560730  95.5250020  63.0243760
  35.5479190  96.6736820  63.8790700  20.0386780  94.1961980  64.8173760
  19.1442830  94.1628740  65.1567470  20.5784330  94.3948770  65.5825010
  33.7262710  90.9793700  66.7025510  34.6032890  90.9877100  67.0859510
  33.7383550  90.2424540  66.0917860  18.6632930  94.1099250  52.3137330
  17.7597010  94.3729450  52.1388990  19.1473550  94.3810420  51.5337290
  35.1725980  94.8323240  57.5913530  35.6963460  94.3385890  56.9603700
  35.7585400  94.9673600  58.3361100  35.3515700  94.9163110  61.1133080
  34.4018410  94.8826650  61.2278070  35.5328710  95.8263220  60.8782850
  21.2060140  93.1664790  50.2231710  21.9151840  92.7448010  49.7378990
  20.4900080  93.2340020  49.5915060  20.8534300  89.2204120  49.2634360
  21.5762430  89.7613060  49.5815580  21.1258820  88.9467540  48.3875900
  34.6625950  94.0896590  53.5305940  35.1585070  93.8567460  54.3154820
  34.4642020  93.2508430  53.1143580  20.5426490  88.4710310  59.1656980
  21.1902680  87.9207690  58.7252140  20.9628330  88.7253460  59.9872790
  36.0913110  92.7257540  56.0643620  35.9812390  92.5713580  57.0025890
  36.8520700  92.1978480  55.8219030  34.4378830  88.6651670  62.5226620
  35.0751050  89.2785810  62.8885810  34.5853720  88.7012330  61.5775850
  36.9803380  90.5565460  49.3049760  37.9052690  90.4246640  49.0968050
  36.9579170  90.6358280  50.2586210  37.0541870  91.3276120  51.9306470
  36.2593370  91.2621240  52.4599380  37.2585150  92.2626760  51.9191820
  20.2958490  88.6265980  61.9082300  19.9473310  89.0829800  62.6740480
  19.9646190  87.7323110  61.9904730  27.8083310  89.8177860  65.4301720
  27.7472200  90.4099690  66.1797130  28.7483690  89.7103820  65.2851980
  30.4457870  89.4747920  65.0694010  31.0598280  89.7927210  64.4075090
  30.9907430  88.9896510  65.6889870  20.9679130  88.1542180  65.1833070
  21.5162120  87.9730230  64.4199180  21.0334440  87.3636290  65.7189380
  31.1865910  88.0380060  61.3963300  30.3125750  88.3715170  61.1936230
  31.0776660  87.5653240  62.2215170  32.0937890  90.2450930  62.7805020
  31.7651250  89.4302690  62.4006750  33.0420190  90.2020740  62.6570710
  28.9340730  88.9549900  60.3356210  28.1512520  89.4295400  60.6152970
  28.6403660  88.0504730  60.2269390  33.4861800  89.6573000  58.3805300
  33.9269890  89.6018100  57.5326900  33.2169390  90.5731010  58.4515480
  35.3500370  89.2888240  56.3914120  35.2888770  88.3449460  56.2445140
  36.1292400  89.3968330  56.9367580  20.2781140  89.2597380  52.8569930
  21.0360500  89.3726260  52.2833960  19.8158310  90.0966580  52.8113360
  26.8194950  91.3736650  55.8472240  26.0069460  90.9993540  55.5068120
  27.3236590  90.6181730  56.1493430  31.3219930  88.0379100  57.0855310
  31.9249300  88.6099310  57.5603830  30.5812920  88.6018540  56.8629210
  34.4654530  88.4400660  52.3595590  34.6605160  89.3384110  52.6263020
  33.6784400  88.2087740  52.8528540  22.6506290  89.7861430  51.3971900
  23.1799050  88.9991230  51.2679850  23.2834610  90.4652620  51.6307430
  24.8444130  89.5236570  54.4517290  24.2146870  88.8223880  54.6187420
  24.3049270  90.2840700  54.2350450  24.9699690  88.8020550  66.8869780
  24.6883960  89.3054150  66.1230600  25.3519390  88.0042300  66.5211910
  31.5715150  88.2174130  67.4650250  31.4580600  88.5368740  68.3601770
  32.3884890  88.6186640  67.1687530  30.4773300  96.2366600  37.8284990
  30.3967350  95.3221210  37.5576700  30.0637720  96.7333670  37.1224700
  28.6091340  98.0145620  39.7094260  27.8333440  97.5346060  39.9992830
  29.2604270  97.3351270  39.5350420  22.6257170  98.3265430  40.5870020
  21.7942050  98.0714140  40.9866530  23.2338150  98.3976200  41.3227940
  21.0349120  93.2867320  34.3712410  20.1465820  93.6283290  34.2692290
  21.3190310  93.0867640  33.4793240  18.9982130  95.8872970  40.2552110
  19.5698240  95.1195170  40.2555750  18.9983670  96.1861730  39.3458720
  20.2407000  91.2957330  42.0421040  20.0609840  90.3983080  42.3223800
  19.8387080  91.8429200  42.7167990  29.0805500  93.4973190  39.9433350
  29.4570320  92.6245070  39.8307020  28.9825010  93.8331890  39.0523790
  23.2110510  91.8698820  35.4050790  23.3177260  92.7702550  35.7119550
  22.3002870  91.8216790  35.1145440  32.8629620  90.9923630  36.8761690
  33.6839240  90.5020200  36.9187170  32.8963700  91.5821290  37.6293530
  20.8593670  93.7917830  40.6503380  21.5403780  94.0556200  41.2690780
  20.5441720  92.9518700  40.9841390  25.0518240  94.8385190  39.7375970
  25.5596460  95.3366160  40.3780990  25.5831480  94.0620390  39.5615330
  37.1529170  93.0090380  43.4405320  36.4481340  93.3972090  42.9220430
  37.4187090  93.7040670  44.0426250  23.3354340  89.4783750  44.0039390
  23.3372780  89.9956140  43.1985290  22.5058650  89.0013930  43.9809320
  33.0991100  92.9324010  39.6489230  32.3946670  93.2208900  40.2292340
  33.4603260  93.7424120  39.2888790  23.0169670  91.1893710  42.0109840
  23.3586480  92.0335760  41.7163710  22.0785480  91.3377450  42.1275180
  36.1678020  92.3778800  40.0398440  35.2202930  92.4117780  40.1713870
  36.4928010  93.1917750  40.4247800  26.6997560  88.6775980  38.3354430
  27.0072540  88.1222870  37.6189930  25.7698260  88.8120440  38.1527420
  29.0878320  96.7424810  35.0714550  28.1607600  96.6762190  35.3003020
  29.2403140  97.6804940  34.9569790  29.0747400  93.0141810  32.0681710
  28.1351070  93.1755770  32.1534170  29.3930660  93.7327490  31.5217700
  35.5960160  97.6960330  42.0460740  34.7678790  97.7653420  41.5710870
  36.1910640  98.2814640  41.5776570  33.1175610  98.3045110  35.5749800
  32.4988030  97.9664660  34.9276100  33.1000060  97.6604870  36.2828990
  32.5602170  94.4829650  42.9915610  32.1473350  95.3083360  43.2455600
  31.8278120  93.8974690  42.7991970  24.6934960  97.2689550  37.8534280
  24.2891960  96.5566800  37.3580180  24.7798080  96.9242790  38.7422320
  23.4063580  94.0432760  41.6333320  23.9578170  94.1528100  40.8586570
  23.9207090  94.4170360  42.3488550  31.2940310  97.5431920  32.5822550
  31.7333590  96.7054350  32.4360370  32.0068730  98.1761320  32.6686690
  23.0806310  97.5652120  45.2438660  22.9414080  98.4374920  45.6126060
  22.1987670  97.2224930  45.0986600  34.8757450  88.7974730  30.8963590
  34.5630110  88.8901560  31.7962660  35.6369920  89.3755760  30.8461020
  21.3939590  96.1634530  35.3540930  21.2737190  96.8896620  34.7422200
  21.0840480  95.3937440  34.8768840  36.0858740  93.5346230  46.8737730
  35.4703010  94.0425900  46.3453190  35.7655160  92.6344560  46.8163670
  23.8603250  89.5069600  38.7364600  23.4171400  90.2879140  38.4049120
  24.4188240  89.8299490  39.4435540  28.1473060  92.3738120  44.3399920
  27.6852430  92.5821140  45.1519860  27.7451170  91.5597470  44.0370590
  33.1477570  93.5947070  45.4696580  32.2971160  93.2952820  45.7905650
  32.9879360  93.8389080  44.5580400  30.2427280  95.0948820  47.5695370
  30.5680690  94.2612570  47.2297600  31.0307610  95.6177340  47.7173700
  26.9762070  89.1280300  33.6170430  26.3516250  89.1240170  34.3423740
  26.8892190  88.2611260  33.2206400  25.8979150  90.0516930  40.5954200
  26.1951480  90.9579760  40.5146220  26.4464710  89.5635710  39.9813770
  23.6517470  94.6303170  36.4645850  23.4258390  94.4140340  37.3692470
  22.8710000  95.0631630  36.1191820  30.8815230  94.6366540  35.0636500
  30.2824120  95.3602340  34.8800120  31.4294840  94.5743320  34.2812950
  26.0916680  95.5288750  47.1306120  25.9960280  94.5883480  46.9806520
  26.9348660  95.7503820  46.7354190  29.4880100  93.2730080  37.0939780
  29.8809670  93.5902280  36.2808470  29.8496950  92.3941960  37.2084300
  21.2227220  91.9402420  45.2839900  20.8290610  92.7877630  45.4912680
  20.5345620  91.3028790  45.4748540  27.7972270  92.0237390  48.3536640
  27.1070590  91.8309590  48.9882730  28.5404570  92.3072030  48.8860940
  18.5244270  89.8630880  39.3169980  18.2357320  90.4333740  40.0294960
  19.2690030  89.3835330  39.6801210  18.7114500  93.8051000  30.5272700
  18.6289170  94.7481760  30.6687690  18.3597560  93.6625910  29.6485050
  30.0735240  95.8635830  41.1890560  29.3416360  96.3722640  41.5380660
  29.6759580  95.0465810  40.8879340  26.5112630  92.5390030  39.5943050
  26.5148690  92.0979980  38.7447590  27.4063750  92.8607360  39.7014870
  22.3615010  92.4216520  38.5537260  22.0215060  92.8991750  39.3104310
  21.5992330  91.9681640  38.1938360  26.5732780  93.5402110  32.5849810
  26.6945600  93.4988590  33.5335630  26.1881290  94.4026260  32.4296540
  30.5361150  91.3169510  40.6013500  30.5533890  91.7678160  41.4455350
  30.2876730  90.4175150  40.8146940  25.5854280  95.8503250  31.9833110
  25.0171180  95.4021500  31.3569020  26.2943280  96.2096030  31.4498260
  33.9631900  88.7301690  46.4399880  34.2877670  87.9991350  46.9657860
  33.9988410  88.4115330  45.5380870  26.8120600  96.5991810  41.3408460
  27.1790730  96.1250380  42.0869800  26.6225660  97.4733380  41.6816800
  19.6761090  91.3435500  37.4701930  19.3908010  90.9791170  38.3080550
  19.6139950  90.6115960  36.8565070  24.6019970  95.6400450  43.6592670
  24.2977040  96.5192430  43.8843030  25.5566430  95.7000240  43.6950110
  29.3499680  90.2364760  34.1915300  28.5364290  89.7377930  34.1160610
  29.1561630  91.0763010  33.7751650  32.0648070  94.6084410  32.4877460
  32.9527690  94.9201640  32.3128800  32.0353160  93.7356660  32.0958040
  20.6583700  96.4803190  44.8064030  20.2998640  97.1457040  45.3937370
  20.3638260  95.6486740  45.1776650  23.8596820  96.9387430  47.6903580
  23.5596960  97.0844610  46.7931400  24.6308060  96.3792720  47.5976970
  34.3362340  95.9196250  31.9557320  34.2526060  96.3510470  31.1053760
  35.0556530  96.3794600  32.3884140  19.1691750  96.4794450  31.4298630
  20.0386600  96.7619250  31.7134550  18.6782070  97.2930320  31.3147440
  26.3326560  97.8667660  35.5506910  26.7889340  98.6772910  35.7767100
  25.9814770  97.5490800  36.3825400  22.2338340  88.2105310  36.0229430
  22.1052970  88.2023210  36.9714350  21.4100360  88.5488400  35.6720440
  19.2332270  89.9696430  45.4836130  18.5190790  90.1693350  46.0888740
  19.6527310  89.1936000  45.8550930  30.7271050  92.4618740  43.2337580
  31.0951870  91.6413950  43.5617150  29.8669250  92.5220630  43.6493230
  34.0933080  91.4175680  34.0425140  33.4646240  91.5221350  33.3283370
  33.5985000  91.6372460  34.8319020  26.0617110  93.6961630  35.4583020
  25.3533260  94.1647970  35.8996630  26.3461590  93.0383640  36.0928210
  27.6873040  95.1158330  43.4575550  28.1858290  95.5904150  44.1227400
  27.8295990  94.1921850  43.6645580  30.0932540  90.4212290  36.8978810
  29.9700320  90.4398420  35.9488320  31.0417100  90.4691230  37.0177210
  24.2652130  92.0046710  32.8333730  25.1142660  92.4416860  32.7673920
  23.8983400  92.3166970  33.6605790  34.8939900  91.3326290  44.3003940
  34.3913500  92.0731690  44.6397750  35.7096560  91.7210290  43.9840730
  33.1861910  96.5759470  37.7465300  32.2452050  96.5909700  37.9212990
  33.5005980  95.7895430  38.1925600  23.1643550  98.2579070  31.3069260
  23.9306820  98.1460430  31.8694690  23.2418240  97.5617040  30.6546030
  21.8590310  95.6904140  31.9902150  21.9393900  94.7431650  32.1019550
  22.7510060  96.0211020  32.0962810  19.3861110  97.5119060  47.2258320
  19.8900130  96.9326340  47.7974550  18.6468530  97.7959290  47.7634690
  21.4184190  95.6548650  48.1208390  21.4589530  95.3562520  49.0293620
  22.2729690  96.0556260  47.9615910  25.1962580  98.2544200  33.2811900
  25.6179000  98.0884070  34.1243290  25.3213420  97.4444430  32.7867040
  23.3590000  94.2340750  46.0882880  22.8286460  93.7431700  45.4606220
  24.0278070  94.6624950  45.5540810  27.7090220  97.2781810  30.5289000
  28.2295880  96.5630830  30.1630150  28.3558620  97.9167680  30.8289510
  32.7290230  96.0406370  47.8563220  33.3111000  95.2858690  47.7683700
  32.9052000  96.5713810  47.0794700  23.8462300  91.2003120  46.1680170
  23.7519170  90.5823870  45.4431040  23.2659690  91.9269410  45.9410080
  26.6123740  89.7576360  43.2007560  26.1641040  89.7800620  42.3553110
  25.9788940  89.3595380  43.7977860  29.3547190  96.3846870  45.2057840
  29.4743400  95.7888010  45.9452680  30.2141190  96.4216560  44.7859140
  31.6935090  96.9384060  43.7820350  31.1670310  97.4626680  43.1785490
  32.0366430  97.5711450  44.4130080  24.0921480  94.3277430  30.2270060
  23.8910540  93.4644790  30.5883400  23.9213530  94.2410790  29.2891660
  26.1215960  92.9268220  46.4633660  26.7115650  92.6184070  47.1511480
  25.3036200  92.4547970  46.6193560  30.9409390  92.5434030  46.6966680
  30.2524910  91.8815570  46.6316670  31.6615410  92.0972300  47.1415140
  31.5709790  89.1385660  32.7556940  31.8512080  88.2953560  33.1116360
  30.7975520  89.3708770  33.2695690  22.8904280  91.4278050  30.2147940
  23.1930180  91.4345480  29.3067090  23.6298870  91.0775910  30.7115600
  26.1089210  90.3712670  31.2004140  25.7611210  89.6936660  30.6206590
  26.3101980  89.9102180  32.0147530  19.4494850  96.9000320  37.5968510
  18.7943690  96.6311960  36.9528210  20.2872800  96.7904800  37.1470490
  32.3985290  91.6941610  31.8187000  32.8170170  91.5072590  30.9783660
  32.0921350  90.8420660  32.1289930  35.8975020  96.6065750  35.5162800
  35.5218620  95.8393680  35.0844090  35.1678140  96.9888450  36.0037730
  20.4870780  97.2852890  42.1371850  20.8543820  97.1980290  43.0167870
  19.9181600  96.5219440  42.0378710  35.2874640  95.7537270  45.1502320
  35.0560730  95.5250020  44.2500270  35.5479190  96.6736820  45.1047210
  20.0386780  94.1961980  46.0430270  19.1442830  94.1628740  46.3823980
  20.5784330  94.3948770  46.8081520  33.7262710  90.9793700  47.9282020
  34.6032890  90.9877100  48.3116020  33.7383550  90.2424540  47.3174370
  18.6632930  94.1099250  33.5393840  17.7597010  94.3729450  33.3645500
  19.1473550  94.3810420  32.7593800  35.1725980  94.8323240  38.8170040
  35.6963460  94.3385890  38.1860210  35.7585400  94.9673600  39.5617610
  35.3515700  94.9163110  42.3389590  34.4018410  94.8826650  42.4534580
  35.5328710  95.8263220  42.1039360  21.2060140  93.1664790  31.4488220
  21.9151840  92.7448010  30.9635500  20.4900080  93.2340020  30.8171570
  20.8534300  89.2204120  30.4890870  21.5762430  89.7613060  30.8072090
  21.1258820  88.9467540  29.6132410  34.6625950  94.0896590  34.7562450
  35.1585070  93.8567460  35.5411330  34.4642020  93.2508430  34.3400090
  20.5426490  88.4710310  40.3913490  21.1902680  87.9207690  39.9508650
  20.9628330  88.7253460  41.2129300  36.0913110  92.7257540  37.2900130
  35.9812390  92.5713580  38.2282400  36.8520700  92.1978480  37.0475540
  34.4378830  88.6651670  43.7483130  35.0751050  89.2785810  44.1142320
  34.5853720  88.7012330  42.8032360  36.9803380  90.5565460  30.5306270
  37.9052690  90.4246640  30.3224560  36.9579170  90.6358280  31.4842720
  37.0541870  91.3276120  33.1562980  36.2593370  91.2621240  33.6855890
  37.2585150  92.2626760  33.1448330  20.2958490  88.6265980  43.1338810
  19.9473310  89.0829800  43.8996990  19.9646190  87.7323110  43.2161240
  27.8083310  89.8177860  46.6558230  27.7472200  90.4099690  47.4053640
  28.7483690  89.7103820  46.5108490  30.4457870  89.4747920  46.2950520
  31.0598280  89.7927210  45.6331600  30.9907430  88.9896510  46.9146380
  20.9679130  88.1542180  46.4089580  21.5162120  87.9730230  45.6455690
  21.0334440  87.3636290  46.9445890  31.1865910  88.0380060  42.6219810
  30.3125750  88.3715170  42.4192740  31.0776660  87.5653240  43.4471680
  32.0937890  90.2450930  44.0061530  31.7651250  89.4302690  43.6263260
  33.0420190  90.2020740  43.8827220  28.9340730  88.9549900  41.5612720
  28.1512520  89.4295400  41.8409480  28.6403660  88.0504730  41.4525900
  33.4861800  89.6573000  39.6061810  33.9269890  89.6018100  38.7583410
  33.2169390  90.5731010  39.6771990  35.3500370  89.2888240  37.6170630
  35.2888770  88.3449460  37.4701650  36.1292400  89.3968330  38.1624090
  20.2781140  89.2597380  34.0826440  21.0360500  89.3726260  33.5090470
  19.8158310  90.0966580  34.0369870  26.8194950  91.3736650  37.0728750
  26.0069460  90.9993540  36.7324630  27.3236590  90.6181730  37.3749940
  31.3219930  88.0379100  38.3111820  31.9249300  88.6099310  38.7860340
  30.5812920  88.6018540  38.0885720  34.4654530  88.4400660  33.5852100
  34.6605160  89.3384110  33.8519530  33.6784400  88.2087740  34.0785050
  22.6506290  89.7861430  32.6228410  23.1799050  88.9991230  32.4936360
  23.2834610  90.4652620  32.8563940  24.8444130  89.5236570  35.6773800
  24.2146870  88.8223880  35.8443930  24.3049270  90.2840700  35.4606960
  24.9699690  88.8020550  48.1126290  24.6883960  89.3054150  47.3487110
  25.3519390  88.0042300  47.7468420  31.5715150  88.2174130  48.6906760
  31.4580600  88.5368740  49.5858280  32.3884890  88.6186640  48.3944040
  30.4773300  96.2366600  19.0541500  30.3967350  95.3221210  18.7833210
  30.0637720  96.7333670  18.3481210  28.6091340  98.0145620  20.9350770
  27.8333440  97.5346060  21.2249340  29.2604270  97.3351270  20.7606930
  22.6257170  98.3265430  21.8126530  21.7942050  98.0714140  22.2123040
  23.2338150  98.3976200  22.5484450  21.0349120  93.2867320  15.5968920
  20.1465820  93.6283290  15.4948800  21.3190310  93.0867640  14.7049750
  18.9982130  95.8872970  21.4808620  19.5698240  95.1195170  21.4812260
  18.9983670  96.1861730  20.5715230  20.2407000  91.2957330  23.2677550
  20.0609840  90.3983080  23.5480310  19.8387080  91.8429200  23.9424500
  29.0805500  93.4973190  21.1689860  29.4570320  92.6245070  21.0563530
  28.9825010  93.8331890  20.2780300  23.2110510  91.8698820  16.6307300
  23.3177260  92.7702550  16.9376060  22.3002870  91.8216790  16.3401950
  32.8629620  90.9923630  18.1018200  33.6839240  90.5020200  18.1443680
  32.8963700  91.5821290  18.8550040  20.8593670  93.7917830  21.8759890
  21.5403780  94.0556200  22.4947290  20.5441720  92.9518700  22.2097900
  25.0518240  94.8385190  20.9632480  25.5596460  95.3366160  21.6037500
  25.5831480  94.0620390  20.7871840  37.1529170  93.0090380  24.6661830
  36.4481340  93.3972090  24.1476940  37.4187090  93.7040670  25.2682760
  23.3354340  89.4783750  25.2295900  23.3372780  89.9956140  24.4241800
  22.5058650  89.0013930  25.2065830  33.0991100  92.9324010  20.8745740
  32.3946670  93.2208900  21.4548850  33.4603260  93.7424120  20.5145300
  23.0169670  91.1893710  23.2366350  23.3586480  92.0335760  22.9420220
  22.0785480  91.3377450  23.3531690  36.1678020  92.3778800  21.2654950
  35.2202930  92.4117780  21.3970380  36.4928010  93.1917750  21.6504310
  26.6997560  88.6775980  19.5610940  27.0072540  88.1222870  18.8446440
  25.7698260  88.8120440  19.3783930  29.0878320  96.7424810  16.2971060
  28.1607600  96.6762190  16.5259530  29.2403140  97.6804940  16.1826300
  29.0747400  93.0141810  13.2938220  28.1351070  93.1755770  13.3790680
  29.3930660  93.7327490  12.7474210  35.5960160  97.6960330  23.2717250
  34.7678790  97.7653420  22.7967380  36.1910640  98.2814640  22.8033080
  33.1175610  98.3045110  16.8006310  32.4988030  97.9664660  16.1532610
  33.1000060  97.6604870  17.5085500  32.5602170  94.4829650  24.2172120
  32.1473350  95.3083360  24.4712110  31.8278120  93.8974690  24.0248480
  24.6934960  97.2689550  19.0790790  24.2891960  96.5566800  18.5836690
  24.7798080  96.9242790  19.9678830  23.4063580  94.0432760  22.8589830
  23.9578170  94.1528100  22.0843080  23.9207090  94.4170360  23.5745060
  31.2940310  97.5431920  13.8079060  31.7333590  96.7054350  13.6616880
  32.0068730  98.1761320  13.8943200  23.0806310  97.5652120  26.4695170
  22.9414080  98.4374920  26.8382570  22.1987670  97.2224930  26.3243110
  34.8757450  88.7974730  12.1220100  34.5630110  88.8901560  13.0219170
  35.6369920  89.3755760  12.0717530  21.3939590  96.1634530  16.5797440
  21.2737190  96.8896620  15.9678710  21.0840480  95.3937440  16.1025350
  36.0858740  93.5346230  28.0994240  35.4703010  94.0425900  27.5709700
  35.7655160  92.6344560  28.0420180  23.8603250  89.5069600  19.9621110
  23.4171400  90.2879140  19.6305630  24.4188240  89.8299490  20.6692050
  28.1473060  92.3738120  25.5656430  27.6852430  92.5821140  26.3776370
  27.7451170  91.5597470  25.2627100  33.1477570  93.5947070  26.6953090
  32.2971160  93.2952820  27.0162160  32.9879360  93.8389080  25.7836910
  30.2427280  95.0948820  28.7951880  30.5680690  94.2612570  28.4554110
  31.0307610  95.6177340  28.9430210  26.9762070  89.1280300  14.8426940
  26.3516250  89.1240170  15.5680250  26.8892190  88.2611260  14.4462910
  25.8979150  90.0516930  21.8210710  26.1951480  90.9579760  21.7402730
  26.4464710  89.5635710  21.2070280  23.6517470  94.6303170  17.6902360
  23.4258390  94.4140340  18.5948980  22.8710000  95.0631630  17.3448330
  30.8815230  94.6366540  16.2893010  30.2824120  95.3602340  16.1056630
  31.4294840  94.5743320  15.5069460  26.0916680  95.5288750  28.3562630
  25.9960280  94.5883480  28.2063030  26.9348660  95.7503820  27.9610700
  29.4880100  93.2730080  18.3196290  29.8809670  93.5902280  17.5064980
  29.8496950  92.3941960  18.4340810  21.2227220  91.9402420  26.5096410
  20.8290610  92.7877630  26.7169190  20.5345620  91.3028790  26.7005050
  27.7972270  92.0237390  29.5793150  27.1070590  91.8309590  30.2139240
  28.5404570  92.3072030  30.1117450  18.5244270  89.8630880  20.5426490
  18.2357320  90.4333740  21.2551470  19.2690030  89.3835330  20.9057720
  18.7114500  93.8051000  11.7529210  18.6289170  94.7481760  11.8944200
  18.3597560  93.6625910  10.8741560  30.0735240  95.8635830  22.4147070
  29.3416360  96.3722640  22.7637170  29.6759580  95.0465810  22.1135850
  26.5112630  92.5390030  20.8199560  26.5148690  92.0979980  19.9704100
  27.4063750  92.8607360  20.9271380  22.3615010  92.4216520  19.7793770
  22.0215060  92.8991750  20.5360820  21.5992330  91.9681640  19.4194870
  26.5732780  93.5402110  13.8106320  26.6945600  93.4988590  14.7592140
  26.1881290  94.4026260  13.6553050  30.5361150  91.3169510  21.8270010
  30.5533890  91.7678160  22.6711860  30.2876730  90.4175150  22.0403450
  25.5854280  95.8503250  13.2089620  25.0171180  95.4021500  12.5825530
  26.2943280  96.2096030  12.6754770  33.9631900  88.7301690  27.6656390
  34.2877670  87.9991350  28.1914370  33.9988410  88.4115330  26.7637380
  26.8120600  96.5991810  22.5664970  27.1790730  96.1250380  23.3126310
  26.6225660  97.4733380  22.9073310  19.6761090  91.3435500  18.6958440
  19.3908010  90.9791170  19.5337060  19.6139950  90.6115960  18.0821580
  24.6019970  95.6400450  24.8849180  24.2977040  96.5192430  25.1099540
  25.5566430  95.7000240  24.9206620  29.3499680  90.2364760  15.4171810
  28.5364290  89.7377930  15.3417120  29.1561630  91.0763010  15.0008160
  32.0648070  94.6084410  13.7133970  32.9527690  94.9201640  13.5385310
  32.0353160  93.7356660  13.3214550  20.6583700  96.4803190  26.0320540
  20.2998640  97.1457040  26.6193880  20.3638260  95.6486740  26.4033160
  23.8596820  96.9387430  28.9160090  23.5596960  97.0844610  28.0187910
  24.6308060  96.3792720  28.8233480  34.3362340  95.9196250  13.1813830
  34.2526060  96.3510470  12.3310270  35.0556530  96.3794600  13.6140650
  19.1691750  96.4794450  12.6555140  20.0386600  96.7619250  12.9391060
  18.6782070  97.2930320  12.5403950  26.3326560  97.8667660  16.7763420
  26.7889340  98.6772910  17.0023610  25.9814770  97.5490800  17.6081910
  22.2338340  88.2105310  17.2485940  22.1052970  88.2023210  18.1970860
  21.4100360  88.5488400  16.8976950  19.2332270  89.9696430  26.7092640
  18.5190790  90.1693350  27.3145250  19.6527310  89.1936000  27.0807440
  30.7271050  92.4618740  24.4594090  31.0951870  91.6413950  24.7873660
  29.8669250  92.5220630  24.8749740  34.0933080  91.4175680  15.2681650
  33.4646240  91.5221350  14.5539880  33.5985000  91.6372460  16.0575530
  26.0617110  93.6961630  16.6839530  25.3533260  94.1647970  17.1253140
  26.3461590  93.0383640  17.3184720  27.6873040  95.1158330  24.6832060
  28.1858290  95.5904150  25.3483910  27.8295990  94.1921850  24.8902090
  30.0932540  90.4212290  18.1235320  29.9700320  90.4398420  17.1744830
  31.0417100  90.4691230  18.2433720  24.2652130  92.0046710  14.0590240
  25.1142660  92.4416860  13.9930430  23.8983400  92.3166970  14.8862300
  34.8939900  91.3326290  25.5260450  34.3913500  92.0731690  25.8654260
  35.7096560  91.7210290  25.2097240  33.1861910  96.5759470  18.9721810
  32.2452050  96.5909700  19.1469500  33.5005980  95.7895430  19.4182110
  23.1643550  98.2579070  12.5325770  23.9306820  98.1460430  13.0951200
  23.2418240  97.5617040  11.8802540  21.8590310  95.6904140  13.2158660
  21.9393900  94.7431650  13.3276060  22.7510060  96.0211020  13.3219320
  19.3861110  97.5119060  28.4514830  19.8900130  96.9326340  29.0231060
  18.6468530  97.7959290  28.9891200  21.4184190  95.6548650  29.3464900
  21.4589530  95.3562520  30.2550130  22.2729690  96.0556260  29.1872420
  25.1962580  98.2544200  14.5068410  25.6179000  98.0884070  15.3499800
  25.3213420  97.4444430  14.0123550  23.3590000  94.2340750  27.3139390
  22.8286460  93.7431700  26.6862730  24.0278070  94.6624950  26.7797320
  27.7090220  97.2781810  11.7545510  28.2295880  96.5630830  11.3886660
  28.3558620  97.9167680  12.0546020  32.7290230  96.0406370  29.0819730
  33.3111000  95.2858690  28.9940210  32.9052000  96.5713810  28.3051210
  23.8462300  91.2003120  27.3936680  23.7519170  90.5823870  26.6687550
  23.2659690  91.9269410  27.1666590  26.6123740  89.7576360  24.4264070
  26.1641040  89.7800620  23.5809620  25.9788940  89.3595380  25.0234370
  29.3547190  96.3846870  26.4314350  29.4743400  95.7888010  27.1709190
  30.2141190  96.4216560  26.0115650  31.6935090  96.9384060  25.0076860
  31.1670310  97.4626680  24.4042000  32.0366430  97.5711450  25.6386590
  24.0921480  94.3277430  11.4526570  23.8910540  93.4644790  11.8139910
  23.9213530  94.2410790  10.5148170  26.1215960  92.9268220  27.6890170
  26.7115650  92.6184070  28.3767990  25.3036200  92.4547970  27.8450070
  30.9409390  92.5434030  27.9223190  30.2524910  91.8815570  27.8573180
  31.6615410  92.0972300  28.3671650  31.5709790  89.1385660  13.9813450
  31.8512080  88.2953560  14.3372870  30.7975520  89.3708770  14.4952200
  22.8904280  91.4278050  11.4404450  23.1930180  91.4345480  10.5323600
  23.6298870  91.0775910  11.9372110  26.1089210  90.3712670  12.4260650
  25.7611210  89.6936660  11.8463100  26.3101980  89.9102180  13.2404040
  19.4494850  96.9000320  18.8225020  18.7943690  96.6311960  18.1784720
  20.2872800  96.7904800  18.3727000  32.3985290  91.6941610  13.0443510
  32.8170170  91.5072590  12.2040170  32.0921350  90.8420660  13.3546440
  35.8975020  96.6065750  16.7419310  35.5218620  95.8393680  16.3100600
  35.1678140  96.9888450  17.2294240  20.4870780  97.2852890  23.3628360
  20.8543820  97.1980290  24.2424380  19.9181600  96.5219440  23.2635220
  35.2874640  95.7537270  26.3758830  35.0560730  95.5250020  25.4756780
  35.5479190  96.6736820  26.3303720  20.0386780  94.1961980  27.2686780
  19.1442830  94.1628740  27.6080490  20.5784330  94.3948770  28.0338030
  33.7262710  90.9793700  29.1538530  34.6032890  90.9877100  29.5372530
  33.7383550  90.2424540  28.5430880  18.6632930  94.1099250  14.7650350
  17.7597010  94.3729450  14.5902010  19.1473550  94.3810420  13.9850310
  35.1725980  94.8323240  20.0426550  35.6963460  94.3385890  19.4116720
  35.7585400  94.9673600  20.7874120  35.3515700  94.9163110  23.5646100
  34.4018410  94.8826650  23.6791090  35.5328710  95.8263220  23.3295870
  21.2060140  93.1664790  12.6744730  21.9151840  92.7448010  12.1892010
  20.4900080  93.2340020  12.0428080  20.8534300  89.2204120  11.7147380
  21.5762430  89.7613060  12.0328600  21.1258820  88.9467540  10.8388920
  34.6625950  94.0896590  15.9818960  35.1585070  93.8567460  16.7667840
  34.4642020  93.2508430  15.5656600  20.5426490  88.4710310  21.6170000
  21.1902680  87.9207690  21.1765160  20.9628330  88.7253460  22.4385810
  36.0913110  92.7257540  18.5156640  35.9812390  92.5713580  19.4538910
  36.8520700  92.1978480  18.2732050  34.4378830  88.6651670  24.9739640
  35.0751050  89.2785810  25.3398830  34.5853720  88.7012330  24.0288870
  36.9803380  90.5565460  11.7562780  37.9052690  90.4246640  11.5481070
  36.9579170  90.6358280  12.7099230  37.0541870  91.3276120  14.3819490
  36.2593370  91.2621240  14.9112400  37.2585150  92.2626760  14.3704840
  20.2958490  88.6265980  24.3595320  19.9473310  89.0829800  25.1253500
  19.9646190  87.7323110  24.4417750  27.8083310  89.8177860  27.8814740
  27.7472200  90.4099690  28.6310150  28.7483690  89.7103820  27.7365000
  30.4457870  89.4747920  27.5207030  31.0598280  89.7927210  26.8588110
  30.9907430  88.9896510  28.1402890  20.9679130  88.1542180  27.6346090
  21.5162120  87.9730230  26.8712200  21.0334440  87.3636290  28.1702400
  31.1865910  88.0380060  23.8476320  30.3125750  88.3715170  23.6449250
  31.0776660  87.5653240  24.6728190  32.0937890  90.2450930  25.2318040
  31.7651250  89.4302690  24.8519770  33.0420190  90.2020740  25.1083730
  28.9340730  88.9549900  22.7869230  28.1512520  89.4295400  23.0665990
  28.6403660  88.0504730  22.6782410  33.4861800  89.6573000  20.8318320
  33.9269890  89.6018100  19.9839920  33.2169390  90.5731010  20.9028500
  35.3500370  89.2888240  18.8427140  35.2888770  88.3449460  18.6958160
  36.1292400  89.3968330  19.3880600  20.2781140  89.2597380  15.3082950
  21.0360500  89.3726260  14.7346980  19.8158310  90.0966580  15.2626380
  26.8194950  91.3736650  18.2985260  26.0069460  90.9993540  17.9581140
  27.3236590  90.6181730  18.6006450  31.3219930  88.0379100  19.5368330
  31.9249300  88.6099310  20.0116850  30.5812920  88.6018540  19.3142230
  34.4654530  88.4400660  14.8108610  34.6605160  89.3384110  15.0776040
  33.6784400  88.2087740  15.3041560  22.6506290  89.7861430  13.8484920
  23.1799050  88.9991230  13.7192870  23.2834610  90.4652620  14.0820450
  24.8444130  89.5236570  16.9030310  24.2146870  88.8223880  17.0700440
  24.3049270  90.2840700  16.6863470  24.9699690  88.8020550  29.3382800
  24.6883960  89.3054150  28.5743620  25.3519390  88.0042300  28.9724930
  31.5715150  88.2174130  29.9163270  31.4580600  88.5368740  30.8114790
  32.3884890  88.6186640  29.6200550  28.6091340  98.0145620   2.1607280
  27.8333440  97.5346060   2.4505850  29.2604270  97.3351270   1.9863440
  22.6257170  98.3265430   3.0383040  21.7942050  98.0714140   3.4379550
  23.2338150  98.3976200   3.7740960  18.9982130  95.8872970   2.7065130
  19.5698240  95.1195170   2.7068770  18.9983670  96.1861730   1.7971740
  20.2407000  91.2957330   4.4934060  20.0609840  90.3983080   4.7736820
  19.8387080  91.8429200   5.1681010  29.0805500  93.4973190   2.3946370
  29.4570320  92.6245070   2.2820040  28.9825010  93.8331890   1.5036810
  20.8593670  93.7917830   3.1016400  21.5403780  94.0556200   3.7203800
  20.5441720  92.9518700   3.4354410  25.0518240  94.8385190   2.1888990
  25.5596460  95.3366160   2.8294010  25.5831480  94.0620390   2.0128350
  37.1529170  93.0090380   5.8918340  36.4481340  93.3972090   5.3733450
  37.4187090  93.7040670   6.4939270  23.3354340  89.4783750   6.4552410
  23.3372780  89.9956140   5.6498310  22.5058650  89.0013930   6.4322340
  33.0991100  92.9324010   2.1002250  32.3946670  93.2208900   2.6805360
  33.4603260  93.7424120   1.7401810  23.0169670  91.1893710   4.4622860
  23.3586480  92.0335760   4.1676730  22.0785480  91.3377450   4.5788200
  36.1678020  92.3778800   2.4911460  35.2202930  92.4117780   2.6226890
  36.4928010  93.1917750   2.8760820  35.5960160  97.6960330   4.4973760
  34.7678790  97.7653420   4.0223890  36.1910640  98.2814640   4.0289590
  32.5602170  94.4829650   5.4428630  32.1473350  95.3083360   5.6968620
  31.8278120  93.8974690   5.2504990  23.4063580  94.0432760   4.0846340
  23.9578170  94.1528100   3.3099590  23.9207090  94.4170360   4.8001570
  23.0806310  97.5652120   7.6951680  22.9414080  98.4374920   8.0639080
  22.1987670  97.2224930   7.5499620  36.0858740  93.5346230   9.3250750
  35.4703010  94.0425900   8.7966210  35.7655160  92.6344560   9.2676690
  28.1473060  92.3738120   6.7912940  27.6852430  92.5821140   7.6032880
  27.7451170  91.5597470   6.4883610  33.1477570  93.5947070   7.9209600
  32.2971160  93.2952820   8.2418670  32.9879360  93.8389080   7.0093420
  30.2427280  95.0948820  10.0208390  30.5680690  94.2612570   9.6810620
  31.0307610  95.6177340  10.1686720  25.8979150  90.0516930   3.0467220
  26.1951480  90.9579760   2.9659240  26.4464710  89.5635710   2.4326790
  26.0916680  95.5288750   9.5819140  25.9960280  94.5883480   9.4319540
  26.9348660  95.7503820   9.1867210  21.2227220  91.9402420   7.7352920
  20.8290610  92.7877630   7.9425700  20.5345620  91.3028790   7.9261560
  27.7972270  92.0237390  10.8049660  27.1070590  91.8309590  11.4395750
  28.5404570  92.3072030  11.3373960  18.5244270  89.8630880   1.7683000
  18.2357320  90.4333740   2.4807980  19.2690030  89.3835330   2.1314230
  30.0735240  95.8635830   3.6403580  29.3416360  96.3722640   3.9893680
  29.6759580  95.0465810   3.3392360  30.5361150  91.3169510   3.0526520
  30.5533890  91.7678160   3.8968370  30.2876730  90.4175150   3.2659960
  33.9631900  88.7301690   8.8912900  34.2877670  87.9991350   9.4170880
  33.9988410  88.4115330   7.9893890  26.8120600  96.5991810   3.7921480
  27.1790730  96.1250380   4.5382820  26.6225660  97.4733380   4.1329820
  24.6019970  95.6400450   6.1105690  24.2977040  96.5192430   6.3356050
  25.5566430  95.7000240   6.1463130  20.6583700  96.4803190   7.2577050
  20.2998640  97.1457040   7.8450390  20.3638260  95.6486740   7.6289670
  23.8596820  96.9387430  10.1416600  23.5596960  97.0844610   9.2444420
  24.6308060  96.3792720  10.0489990  19.2332270  89.9696430   7.9349150
  18.5190790  90.1693350   8.5401760  19.6527310  89.1936000   8.3063950
  30.7271050  92.4618740   5.6850600  31.0951870  91.6413950   6.0130170
  29.8669250  92.5220630   6.1006250  27.6873040  95.1158330   5.9088570
  28.1858290  95.5904150   6.5740420  27.8295990  94.1921850   6.1158600
  34.8939900  91.3326290   6.7516960  34.3913500  92.0731690   7.0910770
  35.7096560  91.7210290   6.4353750  19.3861110  97.5119060   9.6771340
  19.8900130  96.9326340  10.2487570  18.6468530  97.7959290  10.2147710
  21.4184190  95.6548650  10.5721410  21.4589530  95.3562520  11.4806640
  22.2729690  96.0556260  10.4128930  23.3590000  94.2340750   8.5395900
  22.8286460  93.7431700   7.9119240  24.0278070  94.6624950   8.0053830
  32.7290230  96.0406370  10.3076240  33.3111000  95.2858690  10.2196720
  32.9052000  96.5713810   9.5307720  23.8462300  91.2003120   8.6193190
  23.7519170  90.5823870   7.8944060  23.2659690  91.9269410   8.3923100
  26.6123740  89.7576360   5.6520580  26.1641040  89.7800620   4.8066130
  25.9788940  89.3595380   6.2490880  29.3547190  96.3846870   7.6570860
  29.4743400  95.7888010   8.3965700  30.2141190  96.4216560   7.2372160
  31.6935090  96.9384060   6.2333370  31.1670310  97.4626680   5.6298510
  32.0366430  97.5711450   6.8643100  26.1215960  92.9268220   8.9146680
  26.7115650  92.6184070   9.6024500  25.3036200  92.4547970   9.0706580
  30.9409390  92.5434030   9.1479700  30.2524910  91.8815570   9.0829690
  31.6615410  92.0972300   9.5928160  20.4870780  97.2852890   4.5884870
  20.8543820  97.1980290   5.4680890  19.9181600  96.5219440   4.4891730
  35.2874640  95.7537270   7.6015340  35.0560730  95.5250020   6.7013290
  35.5479190  96.6736820   7.5560230  20.0386780  94.1961980   8.4943290
  19.1442830  94.1628740   8.8337000  20.5784330  94.3948770   9.2594540
  33.7262710  90.9793700  10.3795040  34.6032890  90.9877100  10.7629040
  33.7383550  90.2424540   9.7687390  35.3515700  94.9163110   4.7902610
  34.4018410  94.8826650   4.9047600  35.5328710  95.8263220   4.5552380
  20.5426490  88.4710310   2.8426510  21.1902680  87.9207690   2.4021670
  20.9628330  88.7253460   3.6642320  34.4378830  88.6651670   6.1996150
  35.0751050  89.2785810   6.5655340  34.5853720  88.7012330   5.2545380
  20.2958490  88.6265980   5.5851830  19.9473310  89.0829800   6.3510010
  19.9646190  87.7323110   5.6674260  27.8083310  89.8177860   9.1071250
  27.7472200  90.4099690   9.8566660  28.7483690  89.7103820   8.9621510
  30.4457870  89.4747920   8.7463540  31.0598280  89.7927210   8.0844620
  30.9907430  88.9896510   9.3659400  20.9679130  88.1542180   8.8602600
  21.5162120  87.9730230   8.0968710  21.0334440  87.3636290   9.3958910
  31.1865910  88.0380060   5.0732830  30.3125750  88.3715170   4.8705760
  31.0776660  87.5653240   5.8984700  32.0937890  90.2450930   6.4574550
  31.7651250  89.4302690   6.0776280  33.0420190  90.2020740   6.3340240
  28.9340730  88.9549900   4.0125740  28.1512520  89.4295400   4.2922500
  28.6403660  88.0504730   3.9038920  24.9699690  88.8020550  10.5639310
  24.6883960  89.3054150   9.8000130  25.3519390  88.0042300  10.1981440
  31.5715150  88.2174130  11.1419780  31.4580600  88.5368740  12.0371300
  32.3884890  88.6186640  10.8457060  30.4773300  77.4623110  75.3771970
  30.3967350  76.5477720  75.1063680  30.0637720  77.9590180  74.6711680
  32.6298770  83.6462320  76.0380370  32.1680300  82.8749560  76.3667540
  33.4424320  83.6728390  76.5432820  21.0349120  74.5123830  71.9199390
  20.1465820  74.8539800  71.8179270  21.3190310  74.3124150  71.0280220
  28.8562080  85.9320330  75.6584360  28.2373520  86.3877830  75.0878800
  29.7113860  86.0871790  75.2574060  23.2110510  73.0955330  72.9537770
  23.3177260  73.9959060  73.2606530  22.3002870  73.0473300  72.6632420
  32.8629620  72.2180140  74.4248670  33.6839240  71.7276710  74.4674150
  32.8963700  72.8077800  75.1780510  29.7225430  80.8159570  73.0516270
  29.1042700  81.2809020  72.4878990  30.2348680  81.5087050  73.4685780
  19.0908630  81.5016100  70.4255900  18.7136610  81.9903200  69.6940800
  19.3481700  82.1741380  71.0562430  26.6997560  69.9032490  75.8841410
  27.0072540  69.3479380  75.1676910  25.7698260  70.0376950  75.7014400
  33.5458040  82.3416000  73.2639040  33.4354370  81.3990330  73.3888460
  33.5426290  82.7031640  74.1501800  29.0878320  77.9681320  72.6201530
  28.1607600  77.9018700  72.8490000  29.2403140  78.9061450  72.5056770
  29.0747400  74.2398320  69.6168690  28.1351070  74.4012280  69.7021150
  29.3930660  74.9584000  69.0704680  33.1175610  79.5301620  73.1236780
  32.4988030  79.1921170  72.4763080  33.1000060  78.8861380  73.8315970
  24.6934960  78.4946060  75.4021260  24.2891960  77.7823310  74.9067160
  24.7798080  78.1499300  76.2909300  31.2940310  78.7688430  70.1309530
  31.7333590  77.9310860  69.9847350  32.0068730  79.4017830  70.2173670
  29.4035690  83.7084500  74.0990770  29.8431600  84.4508830  73.6846160
  29.3422580  83.9511070  75.0229730  34.8757450  70.0231240  68.4450570
  34.5630110  70.1158070  69.3449640  35.6369920  70.6012270  68.3948000
  21.3939590  77.3891040  72.9027910  21.2737190  78.1153130  72.2909180
  21.0840480  76.6193950  72.4255820  20.2772590  82.2606370  75.1202730
  19.8700670  82.4020960  74.2656330  21.1685600  81.9766530  74.9173940
  32.0705870  86.6953620  71.4553780  31.9107010  86.4056560  72.3535610
  31.9052580  85.9193750  70.9199010  24.5494250  86.4752150  73.2325400
  24.3736730  85.5587690  73.0193200  23.6949990  86.8339440  73.4723200
  31.7732000  84.2041180  70.0151780  31.0797160  84.2018470  69.3554060
  32.5154860  83.7800500  69.5845950  31.3381930  85.8303890  74.0900270
  31.7938880  85.0493270  74.4038890  31.6774450  86.5410710  74.6341450
  23.8603250  70.7326110  76.2851580  23.4171400  71.5135650  75.9536100
  24.4188240  71.0556000  76.9922520  26.9762070  70.3536810  71.1657410
  26.3516250  70.3496680  71.8910720  26.8892190  69.4867770  70.7693380
  23.6517470  75.8559680  74.0132830  23.4258390  75.6396850  74.9179450
  22.8710000  76.2888140  73.6678800  30.8815230  75.8623050  72.6123480
  30.2824120  76.5858850  72.4287100  31.4294840  75.7999830  71.8299930
  29.4880100  74.4986590  74.6426760  29.8809670  74.8158790  73.8295450
  29.8496950  73.6198470  74.7571280  18.7114500  75.0307510  68.0759680
  18.6289170  75.9738270  68.2174670  18.3597560  74.8882420  67.1972030
  26.5112630  73.7646540  77.1430030  26.5148690  73.3236490  76.2934570
  27.4063750  74.0863870  77.2501850  22.3615010  73.6473030  76.1024240
  22.0215060  74.1248260  76.8591290  21.5992330  73.1938150  75.7425340
  26.5732780  74.7658620  70.1336790  26.6945600  74.7245100  71.0822610
  26.1881290  75.6282770  69.9783520  25.5854280  77.0759760  69.5320090
  25.0171180  76.6278010  68.9056000  26.2943280  77.4352540  68.9985240
  19.6761090  72.5692010  75.0188910  19.3908010  72.2047680  75.8567530
  19.6139950  71.8372470  74.4052050  23.1301760  81.0717950  71.8046500
  22.3564020  80.5315570  71.6445220  23.8596390  80.5524560  71.4664260
  29.3499680  71.4621270  71.7402280  28.5364290  70.9634440  71.6647590
  29.1561630  72.3019520  71.3238630  32.0648070  75.8340920  70.0364440
  32.9527690  76.1458150  69.8615780  32.0353160  74.9613170  69.6445020
  23.1739160  80.7398330  75.4425310  23.6917830  79.9366590  75.3882200
  22.7223180  80.6777470  76.2842140  28.0608660  82.0064610  70.7152610
  28.4024360  82.7506840  70.2195930  27.2321370  82.3195730  71.0777440
  34.3362340  77.1452760  69.5044300  34.2526060  77.5766980  68.6540740
  35.0556530  77.6051110  69.9371120  35.3649590  83.9995020  72.2326430
  34.7225750  83.3450640  72.5070150  34.9780250  84.4050110  71.4567100
  30.9436070  81.3280450  76.0798120  31.2959890  80.7308580  75.4199490
  30.0598400  81.0024680  76.2506370  27.0299350  82.0878140  73.4868530
  27.7170480  82.6347350  73.8676120  26.2431770  82.6318870  73.5218140
  19.1691750  77.7050960  68.9785610  20.0386600  77.9875760  69.2621530
  18.6782070  78.5186830  68.8634420  26.3326560  79.0924170  73.0993890
  26.7889340  79.9029420  73.3254080  25.9814770  78.7747310  73.9312380
  22.2338340  69.4361820  73.5716410  22.1052970  69.4279720  74.5201330
  21.4100360  69.7744910  73.2207420  33.7546970  82.8911480  68.7702780
  33.5284550  82.1741920  69.3627420  33.3643170  82.6423920  67.9324530
  19.5363000  86.9178340  69.5447240  19.8960640  87.5167680  68.8904510
  19.3955340  87.4638230  70.3182270  33.3363220  80.8083420  70.4316940
  33.0484920  81.2696110  71.2194820  34.1315390  80.3481190  70.7001160
  25.5531620  84.3009540  70.3620910  25.5441720  85.0339230  69.7465420
  24.6329980  84.0541120  70.4547870  21.1538260  79.5224430  71.1067670
  20.5466210  80.2623330  71.1162970  21.6287610  79.6123790  70.2805870
  34.0933080  72.6432190  71.5912120  33.4646240  72.7477860  70.8770350
  33.5985000  72.8628970  72.3806000  28.5391220  84.3637780  69.0246100
  28.6403200  84.1601770  68.0948080  27.6392960  84.1096060  69.2293880
  26.0617110  74.9218140  73.0070000  25.3533260  75.3904480  73.4483610
  26.3461590  74.2640150  73.6415190  30.0932540  71.6468800  74.4465790
  29.9700320  71.6654930  73.4975300  31.0417100  71.6947740  74.5664190
  27.1809330  86.8824100  73.7193770  27.4350830  86.8445490  72.7973140
  26.2321810  86.7557430  73.7122020  24.2652130  73.2303220  70.3820710
  25.1142660  73.6673370  70.3160900  23.8983400  73.5423480  71.2092770
  33.1861910  77.8015980  75.2952280  32.2452050  77.8166210  75.4699970
  33.5005980  77.0151940  75.7412580  23.1643550  79.4835580  68.8556240
  23.9306820  79.3716940  69.4181670  23.2418240  78.7873550  68.2033010
  21.8590310  76.9160650  69.5389130  21.9393900  75.9688160  69.6506530
  22.7510060  77.2467530  69.6449790  22.6605020  87.0656040  76.6423670
  23.3967500  86.5171500  76.9132240  23.0445940  87.9312050  76.5029660
  19.5450500  83.1329610  72.5165180  18.6190280  83.3750750  72.5070590
  20.0106930  83.9603870  72.3949930  25.7707330  86.2386350  68.4649240
  26.5635940  86.5275180  68.0131030  25.2511680  85.8078520  67.7861720
  34.8237500  85.4656480  69.8885980  34.5379010  85.0521620  69.0740160
  34.6257050  86.3944190  69.7686500  26.2884730  81.4589760  68.3291590
  26.1835370  80.8442110  69.0552970  26.1208950  80.9355650  67.5454600
  29.5287460  80.5209790  68.9333580  28.9797560  80.9679090  69.5776320
  30.1506720  80.0159040  69.4571250  25.1962580  79.4800710  70.8298880
  25.6179000  79.3140580  71.6730270  25.3213420  78.6700940  70.3354020
  27.7090220  78.5038320  68.0775980  28.2295880  77.7887340  67.7117130
  28.3558620  79.1424190  68.3776490  24.0921480  75.5533940  67.7757040
  23.8910540  74.6901300  68.1370380  23.9213530  75.4667300  66.8378640
  31.5709790  70.3642170  70.3043920  31.8512080  69.5210070  70.6603340
  30.7975520  70.5965280  70.8182670  22.8904280  72.6534560  67.7634920
  23.1930180  72.6601990  66.8554070  23.6298870  72.3032420  68.2602580
  26.1089210  71.5969180  68.7491120  25.7611210  70.9193170  68.1693570
  26.3101980  71.1358690  69.5634510  28.2738250  86.5849930  70.3677720
  29.1689040  86.9234900  70.3896480  28.3055880  85.8629340  69.7402000
  21.9134410  81.9576980  68.5964720  22.3509280  82.5006650  69.2522300
  22.3982140  81.1323930  68.6061060  19.1280210  84.7466010  76.0484980
  19.4583220  83.8787070  75.8163620  19.5571210  84.9524530  76.8789940
  23.7242130  83.0775020  73.7086950  23.4237670  82.9539990  74.6090860
  23.6179620  82.2183610  73.3002680  36.4934050  82.8571420  68.4113630
  35.6627010  82.9248070  68.8820860  36.6705880  83.7475540  68.1080490
  35.9490510  79.6018900  70.9147830  36.7109420  80.1715550  71.0207520
  35.9644880  79.0346100  71.6856140  19.4494850  78.1256830  75.1455490
  18.7943690  77.8568470  74.5015190  20.2872800  78.0161310  74.6957470
  36.9550480  80.4569000  75.7589760  37.3259310  79.6736320  75.3525730
  37.5952410  81.1458100  75.5807060  36.0009680  79.8953270  68.0720350
  36.2758520  80.8032150  67.9439570  35.8120420  79.8315800  69.0082340
  32.3985290  72.9198120  69.3673980  32.8170170  72.7329100  68.5270640
  32.0921350  72.0677170  69.6776910  35.8975020  77.8322260  73.0649780
  35.5218620  77.0650190  72.6331070  35.1678140  78.2144960  73.5524710
  18.6632930  75.3355760  71.0880820  17.7597010  75.5985960  70.9132480
  19.1473550  75.6066930  70.3080780  35.1725980  76.0579750  76.3657020
  35.6963460  75.5642400  75.7347190  35.7585400  76.1930110  77.1104590
  21.2060140  74.3921300  68.9975200  21.9151840  73.9704520  68.5122480
  20.4900080  74.4596530  68.3658550  20.8534300  70.4460630  68.0377850
  21.5762430  70.9869570  68.3559070  21.1258820  70.1724050  67.1619390
  34.6625950  75.3153100  72.3049430  35.1585070  75.0823970  73.0898310
  34.4642020  74.4764940  71.8887070  36.0913110  73.9514050  74.8387110
  35.9812390  73.7970090  75.7769380  36.8520700  73.4234990  74.5962520
  36.9803380  71.7821970  68.0793250  37.9052690  71.6503150  67.8711540
  36.9579170  71.8614790  69.0329700  37.0541870  72.5532630  70.7049960
  36.2593370  72.4877750  71.2342870  37.2585150  73.4883270  70.6935310
  33.9960290  86.5924180  74.6988350  34.5919360  86.2708750  74.0222770
  34.2538440  86.1196000  75.4901620  33.4861800  70.8829510  77.1548790
  33.9269890  70.8274610  76.3070390  33.2169390  71.7987520  77.2258970
  35.3500370  70.5144750  75.1657610  35.2888770  69.5705970  75.0188630
  36.1292400  70.6224840  75.7111070  19.6553120  86.6537110  74.1281560
  19.4875160  86.0207790  74.8263450  18.7887630  86.8596510  73.7775750
  20.2781140  70.4853890  71.6313420  21.0360500  70.5982770  71.0577450
  19.8158310  71.3223090  71.5856850  26.8194950  72.5993160  74.6215730
  26.0069460  72.2250050  74.2811610  27.3236590  71.8438240  74.9236920
  31.3219930  69.2635610  75.8598800  31.9249300  69.8355820  76.3347320
  30.5812920  69.8275050  75.6372700  34.4654530  69.6657170  71.1339080
  34.6605160  70.5640620  71.4006510  33.6784400  69.4344250  71.6272030
  21.2615820  85.3470340  71.5731700  20.7363440  85.7278370  70.8693660
  21.1860400  85.9721110  72.2941410  22.6506290  71.0117940  70.1715390
  23.1799050  70.2247740  70.0423340  23.2834610  71.6909130  70.4050920
  24.8444130  70.7493080  73.2260780  24.2146870  70.0480390  73.3930910
  24.3049270  71.5097210  73.0093940  36.0181140  86.9057880  72.8945640
  36.1933330  86.2195620  72.2506560  35.3202710  87.4304930  72.5022310
  23.8608790  87.2952720  70.4480950  24.5927610  87.0112000  69.9004840
  24.1202460  87.0566000  71.3380330  23.0223580  83.4117450  70.4527280
  22.3932460  83.8802550  71.0013110  23.1371410  82.5666670  70.8873470
  30.4773300  77.4623110  56.6028480  30.3967350  76.5477720  56.3320190
  30.0637720  77.9590180  55.8968190  28.6091340  79.2402130  58.4837750
  27.8333440  78.7602570  58.7736320  29.2604270  78.5607780  58.3093910
  22.6257170  79.5521940  59.3613510  21.7942050  79.2970650  59.7610020
  23.2338150  79.6232710  60.0971430  32.6298770  83.6462320  57.2636880
  32.1680300  82.8749560  57.5924050  33.4424320  83.6728390  57.7689330
  22.6058430  83.5862030  59.5571530  22.9086470  82.6959770  59.3781750
  23.3502020  84.1432250  59.3293780  21.0349120  74.5123830  53.1455900
  20.1465820  74.8539800  53.0435780  21.3190310  74.3124150  52.2536730
  18.9982130  77.1129480  59.0295600  19.5698240  76.3451680  59.0299240
  18.9983670  77.4118240  58.1202210  28.8562080  85.9320330  56.8840870
  28.2373520  86.3877830  56.3135310  29.7113860  86.0871790  56.4830570
  28.0500330  81.9159320  58.4907910  27.9808610  80.9749260  58.3297040
  28.8120190  82.0060730  59.0630480  20.2407000  72.5213840  60.8164530
  20.0609840  71.6239590  61.0967290  19.8387080  73.0685710  61.4911480
  29.0805500  74.7229700  58.7176840  29.4570320  73.8501580  58.6050510
  28.9825010  75.0588400  57.8267280  23.2110510  73.0955330  54.1794280
  23.3177260  73.9959060  54.4863040  22.3002870  73.0473300  53.8888930
  32.8629620  72.2180140  55.6505180  33.6839240  71.7276710  55.6930660
  32.8963700  72.8077800  56.4037020  20.8593670  75.0174340  59.4246870
  21.5403780  75.2812710  60.0434270  20.5441720  74.1775210  59.7584880
  25.0518240  76.0641700  58.5119460  25.5596460  76.5622670  59.1524480
  25.5831480  75.2876900  58.3358820  37.1529170  74.2346890  62.2148810
  36.4481340  74.6228600  61.6963920  37.4187090  74.9297180  62.8169740
  23.3354340  70.7040260  62.7782880  23.3372780  71.2212650  61.9728780
  22.5058650  70.2270440  62.7552810  29.7225430  80.8159570  54.2772780
  29.1042700  81.2809020  53.7135500  30.2348680  81.5087050  54.6942290
  24.5857190  80.3435440  60.9556380  24.2526570  80.9704360  61.5977450
  24.7623870  80.8697320  60.1758050  33.0991100  74.1580520  58.4232720
  32.3946670  74.4465410  59.0035830  33.4603260  74.9680630  58.0632280
  23.0169670  72.4150220  60.7853330  23.3586480  73.2592270  60.4907200
  22.0785480  72.5633960  60.9018670  23.7976290  82.3116240  62.7705560
  24.4150290  82.9867320  62.4890010  22.9369410  82.7204220  62.6793060
  19.0908630  81.5016100  51.6512410  18.7136610  81.9903200  50.9197310
  19.3481700  82.1741380  52.2818940  34.7153880  83.7755650  60.6860200
  34.0317400  84.4454760  60.6776870  35.2548170  83.9736300  59.9205060
  36.1678020  73.6035310  58.8141930  35.2202930  73.6374290  58.9457360
  36.4928010  74.4174260  59.1991290  26.6997560  69.9032490  57.1097920
  27.0072540  69.3479380  56.3933420  25.7698260  70.0376950  56.9270910
  32.2512620  85.6199780  59.4005380  32.2639780  85.2162070  58.5327640
  31.6987840  86.3947070  59.2966810  33.5458040  82.3416000  54.4895550
  33.4354370  81.3990330  54.6144970  33.5426290  82.7031640  55.3758310
  31.6498060  80.5229620  60.7287990  32.0666850  80.3089730  59.8941450
  32.3737880  80.7802410  61.2996610  29.0878320  77.9681320  53.8458040
  28.1607600  77.9018700  54.0746510  29.2403140  78.9061450  53.7313280
  29.0747400  74.2398320  50.8425200  28.1351070  74.4012280  50.9277660
  29.3930660  74.9584000  50.2961190  35.5960160  78.9216840  60.8204230
  34.7678790  78.9909930  60.3454360  36.1910640  79.5071150  60.3520060
  33.1175610  79.5301620  54.3493290  32.4988030  79.1921170  53.7019590
  33.1000060  78.8861380  55.0572480  32.5602170  75.7086160  61.7659100
  32.1473350  76.5339870  62.0199090  31.8278120  75.1231200  61.5735460
  24.6934960  78.4946060  56.6277770  24.2891960  77.7823310  56.1323670
  24.7798080  78.1499300  57.5165810  25.1616660  82.1813620  58.7916980
  24.8644950  81.5759090  58.1124760  26.1116480  82.2190930  58.6806340
  23.4063580  75.2689270  60.4076810  23.9578170  75.3784610  59.6330060
  23.9207090  75.6426870  61.1232040  33.2502270  85.7545490  62.4540080
  32.7732830  86.5617680  62.2612690  32.5664060  85.1023820  62.6066290
  24.2535090  81.9195310  65.4424780  23.3563620  82.1435280  65.6898180
  24.2787960  82.0430250  64.4936180  31.2940310  78.7688430  51.3566040
  31.7333590  77.9310860  51.2103860  32.0068730  79.4017830  51.4430180
  23.0806310  78.7908630  64.0182150  22.9414080  79.6631430  64.3869550
  22.1987670  78.4481440  63.8730090  29.4035690  83.7084500  55.3247280
  29.8431600  84.4508830  54.9102670  29.3422580  83.9511070  56.2486240
  24.8786660  84.7330330  66.2267300  24.8502090  85.1373280  65.3595730
  24.7151630  83.8040690  66.0638900  21.3939590  77.3891040  54.1284420
  21.2737190  78.1153130  53.5165690  21.0840480  76.6193950  53.6512330
  36.8301480  85.5157430  67.5231470  37.3061200  85.9940320  68.2020550
  37.4508640  85.4474920  66.7976970  19.0324960  80.5606180  59.9353060
  19.1105380  80.6954950  58.9908780  19.6466640  79.8522070  60.1281180
  20.2772590  82.2606370  56.3459240  19.8700670  82.4020960  55.4912840
  21.1685600  81.9766530  56.1430450  36.2334730  82.7070280  64.6831480
  36.3597790  82.4682160  63.7648660  36.2756110  81.8754820  65.1553560
  30.0951470  86.4098280  63.2526290  30.6096140  86.3206290  64.0548720
  29.2520550  86.7557980  63.5454200  32.0705870  86.6953620  52.6810290
  31.9107010  86.4056560  53.5792120  31.9052580  85.9193750  52.1455520
  24.5494250  86.4752150  54.4581910  24.3736730  85.5587690  54.2449710
  23.6949990  86.8339440  54.6979710  31.7732000  84.2041180  51.2408290
  31.0797160  84.2018470  50.5810570  32.5154860  83.7800500  50.8102460
  31.3381930  85.8303890  55.3156780  31.7938880  85.0493270  55.6295400
  31.6774450  86.5410710  55.8597960  36.0858740  74.7602740  65.6481220
  35.4703010  75.2682410  65.1196680  35.7655160  73.8601070  65.5907160
  19.0884480  81.6020350  62.4747520  19.2515520  81.1325710  61.6566890
  19.5536930  81.0943910  63.1396360  23.8603250  70.7326110  57.5108090
  23.4171400  71.5135650  57.1792610  24.4188240  71.0556000  58.2179030
  28.1473060  73.5994630  63.1143410  27.6852430  73.8077650  63.9263350
  27.7451170  72.7853980  62.8114080  33.1477570  74.8203580  64.2440070
  32.2971160  74.5209330  64.5649140  32.9879360  75.0645590  63.3323890
  30.2427280  76.3205330  66.3438860  30.5680690  75.4869080  66.0041090
  31.0307610  76.8433850  66.4917190  26.9762070  70.3536810  52.3913920
  26.3516250  70.3496680  53.1167230  26.8892190  69.4867770  51.9949890
  25.8979150  71.2773440  59.3697690  26.1951480  72.1836270  59.2889710
  26.4464710  70.7892220  58.7557260  23.6517470  75.8559680  55.2389340
  23.4258390  75.6396850  56.1435960  22.8710000  76.2888140  54.8935310
  30.8815230  75.8623050  53.8379990  30.2824120  76.5858850  53.6543610
  31.4294840  75.7999830  53.0556440  26.0916680  76.7545260  65.9049610
  25.9960280  75.8139990  65.7550010  26.9348660  76.9760330  65.5097680
  29.4880100  74.4986590  55.8683270  29.8809670  74.8158790  55.0551960
  29.8496950  73.6198470  55.9827790  21.2227220  73.1658930  64.0583390
  20.8290610  74.0134140  64.2656170  20.5345620  72.5285300  64.2492030
  27.7972270  73.2493900  67.1280130  27.1070590  73.0566100  67.7626220
  28.5404570  73.5328540  67.6604430  18.5244270  71.0887390  58.0913470
  18.2357320  71.6590250  58.8038450  19.2690030  70.6091840  58.4544700
  18.7114500  75.0307510  49.3016190  18.6289170  75.9738270  49.4431180
  18.3597560  74.8882420  48.4228540  30.0735240  77.0892340  59.9634050
  29.3416360  77.5979150  60.3124150  29.6759580  76.2722320  59.6622830
  26.5112630  73.7646540  58.3686540  26.5148690  73.3236490  57.5191080
  27.4063750  74.0863870  58.4758360  22.3615010  73.6473030  57.3280750
  22.0215060  74.1248260  58.0847800  21.5992330  73.1938150  56.9681850
  26.5732780  74.7658620  51.3593300  26.6945600  74.7245100  52.3079120
  26.1881290  75.6282770  51.2040030  30.5361150  72.5426020  59.3756990
  30.5533890  72.9934670  60.2198840  30.2876730  71.6431660  59.5890430
  25.5854280  77.0759760  50.7576600  25.0171180  76.6278010  50.1312510
  26.2943280  77.4352540  50.2241750  33.9631900  69.9558200  65.2143370
  34.2877670  69.2247860  65.7401350  33.9988410  69.6371840  64.3124360
  20.6623460  80.9771780  64.6343330  20.2778250  80.3365450  65.2326290
  20.9735650  81.6807900  65.2038060  26.8120600  77.8248320  60.1151950
  27.1790730  77.3506890  60.8613290  26.6225660  78.6989890  60.4560290
  19.6761090  72.5692010  56.2445420  19.3908010  72.2047680  57.0824040
  19.6139950  71.8372470  55.6308560  24.6019970  76.8656960  62.4336160
  24.2977040  77.7448940  62.6586520  25.5566430  76.9256750  62.4693600
  23.1301760  81.0717950  53.0303010  22.3564020  80.5315570  52.8701730
  23.8596390  80.5524560  52.6920770  33.8889740  80.0683310  58.8229400
  34.6088860  80.5638600  58.4325510  33.6871560  79.3901200  58.1783270
  29.3499680  71.4621270  52.9658790  28.5364290  70.9634440  52.8904100
  29.1561630  72.3019520  52.5495140  29.2708540  80.1392370  64.7098400
  29.2045850  79.2188040  64.4555990  28.6413680  80.2367810  65.4243040
  32.0648070  75.8340920  51.2620950  32.9527690  76.1458150  51.0872290
  32.0353160  74.9613170  50.8701530  23.1739160  80.7398330  56.6681820
  23.6917830  79.9366590  56.6138710  22.7223180  80.6777470  57.5098650
  28.0608660  82.0064610  51.9409120  28.4024360  82.7506840  51.4452440
  27.2321370  82.3195730  52.3033950  20.6583700  77.7059700  63.5807520
  20.2998640  78.3713550  64.1680860  20.3638260  76.8743250  63.9520140
  23.8596820  78.1643940  66.4647070  23.5596960  78.3101120  65.5674890
  24.6308060  77.6049230  66.3720460  29.2025270  82.9612940  64.4602200
  29.2169810  82.0293900  64.2421110  28.4950370  83.0472700  65.0991970
  34.3362340  77.1452760  50.7300810  34.2526060  77.5766980  49.8797250
  35.0556530  77.6051110  51.1627630  35.4136480  79.6020280  63.8070780
  34.6884670  80.1949060  63.6100170  35.9411940  79.5943820  63.0084150
  35.3649590  83.9995020  53.4582940  34.7225750  83.3450640  53.7326660
  34.9780250  84.4050110  52.6823610  30.9436070  81.3280450  57.3054630
  31.2959890  80.7308580  56.6456000  30.0598400  81.0024680  57.4762880
  27.0299350  82.0878140  54.7125040  27.7170480  82.6347350  55.0932630
  26.2431770  82.6318870  54.7474650  19.1691750  77.7050960  50.2042120
  20.0386600  77.9875760  50.4878040  18.6782070  78.5186830  50.0890930
  26.3326560  79.0924170  54.3250400  26.7889340  79.9029420  54.5510590
  25.9814770  78.7747310  55.1568890  28.6359170  84.6030510  61.5542700
  29.2801390  84.8089890  62.2316120  28.9988610  83.8418910  61.1013550
  22.2338340  69.4361820  54.7972920  22.1052970  69.4279720  55.7457840
  21.4100360  69.7744910  54.4463930  29.9091250  82.6062860  60.2720150
  30.5513480  81.9056020  60.3852320  30.4340600  83.3861300  60.0917040
  33.7546970  82.8911480  49.9959290  33.5284550  82.1741920  50.5883930
  33.3643170  82.6423920  49.1581040  31.6828870  83.4057760  63.4756210
  32.0185110  83.9924450  64.1534130  30.7629210  83.2750470  63.7054000
  19.5363000  86.9178340  50.7703750  19.8960640  87.5167680  50.1161020
  19.3955340  87.4638230  51.5438780  19.2332270  71.1952940  64.2579620
  18.5190790  71.3949860  64.8632230  19.6527310  70.4192510  64.6294420
  33.3363220  80.8083420  51.6573450  33.0484920  81.2696110  52.4451330
  34.1315390  80.3481190  51.9257670  19.5204860  85.1833200  65.2446150
  19.6295980  84.2427940  65.1041540  18.8685420  85.4487950  64.5959880
  27.5117450  83.4549090  66.6444270  27.1914320  82.7358330  67.1889960
  26.8375810  84.1304160  66.7180330  25.5531620  84.3009540  51.5877420
  25.5441720  85.0339230  50.9721930  24.6329980  84.0541120  51.6804380
  21.1538260  79.5224430  52.3324180  20.5466210  80.2623330  52.3419480
  21.6287610  79.6123790  51.5062380  30.7271050  73.6875250  62.0081070
  31.0951870  72.8670460  62.3360640  29.8669250  73.7477140  62.4236720
  34.0933080  72.6432190  52.8168630  33.4646240  72.7477860  52.1026860
  33.5985000  72.8628970  53.6062510  28.5391220  84.3637780  50.2502610
  28.6403200  84.1601770  49.3204590  27.6392960  84.1096060  50.4550390
  26.0617110  74.9218140  54.2326510  25.3533260  75.3904480  54.6740120
  26.3461590  74.2640150  54.8671700  27.6873040  76.3414840  62.2319040
  28.1858290  76.8160660  62.8970890  27.8295990  75.4178360  62.4389070
  30.0932540  71.6468800  55.6722300  29.9700320  71.6654930  54.7231810
  31.0417100  71.6947740  55.7920700  27.1809330  86.8824100  54.9450280
  27.4350830  86.8445490  54.0229650  26.2321810  86.7557430  54.9378530
  24.2652130  73.2303220  51.6077220  25.1142660  73.6673370  51.5417410
  23.8983400  73.5423480  52.4349280  34.8939900  72.5582800  63.0747430
  34.3913500  73.2988200  63.4141240  35.7096560  72.9466800  62.7584220
  33.1861910  77.8015980  56.5208790  32.2452050  77.8166210  56.6956480
  33.5005980  77.0151940  56.9669090  23.1643550  79.4835580  50.0812750
  23.9306820  79.3716940  50.6438180  23.2418240  78.7873550  49.4289520
  21.8590310  76.9160650  50.7645640  21.9393900  75.9688160  50.8763040
  22.7510060  77.2467530  50.8706300  35.1887490  84.9724830  58.1963050
  35.3134910  85.7956000  58.6686860  36.0553050  84.7615560  57.8487200
  22.6605020  87.0656040  57.8680180  23.3967500  86.5171500  58.1388750
  23.0445940  87.9312050  57.7286170  19.5450500  83.1329610  53.7421690
  18.6190280  83.3750750  53.7327100  20.0106930  83.9603870  53.6206440
  21.6663300  86.2502110  67.0565760  22.4676030  86.5714160  67.4701160
  21.1515120  85.8897690  67.7785670  25.7707330  86.2386350  49.6905750
  26.5635940  86.5275180  49.2387540  25.2511680  85.8078520  49.0118230
  30.5027930  82.3581980  67.0041170  29.8966090  82.3813580  66.2636920
  30.1982040  81.6265020  67.5408420  31.9328300  86.0862270  65.6150580
  32.8850050  86.0020290  65.5650820  31.7856520  86.7503980  66.2884370
  34.8237500  85.4656480  51.1142490  34.5379010  85.0521620  50.2996670
  34.6257050  86.3944190  50.9943010  19.3861110  78.7375570  66.0001810
  19.8900130  78.1582850  66.5718040  18.6468530  79.0215800  66.5378180
  26.2884730  81.4589760  49.5548100  26.1835370  80.8442110  50.2809480
  26.1208950  80.9355650  48.7711110  26.4399050  80.1446560  65.5337330
  25.6744720  80.7131560  65.4492000  26.6215010  79.8522770  64.6405560
  29.5287460  80.5209790  50.1590090  28.9797560  80.9679090  50.8032830
  30.1506720  80.0159040  50.6827760  33.5822400  81.8751890  66.0912350
  34.3231870  82.2127650  65.5879810  32.8195080  82.0443950  65.5382120
  21.4184190  76.8805160  66.8951880  21.4589530  76.5819030  67.8037110
  22.2729690  77.2812770  66.7359400  25.1962580  79.4800710  52.0555390
  25.6179000  79.3140580  52.8986780  25.3213420  78.6700940  51.5610530
  23.3590000  75.4597260  64.8626370  22.8286460  74.9688210  64.2349710
  24.0278070  75.8881460  64.3284300  27.7090220  78.5038320  49.3032490
  28.2295880  77.7887340  48.9373640  28.3558620  79.1424190  49.6033000
  32.2568060  79.9266720  64.6267560  32.6709080  80.0811800  65.4757980
  31.3219060  80.0521940  64.7893340  32.7290230  77.2662880  66.6306710
  33.3111000  76.5115200  66.5427190  32.9052000  77.7970320  65.8538190
  23.8462300  72.4259630  64.9423660  23.7519170  71.8080380  64.2174530
  23.2659690  73.1525920  64.7153570  26.6123740  70.9832870  61.9751050
  26.1641040  71.0057130  61.1296600  25.9788940  70.5851890  62.5721350
  27.0183290  79.8787200  62.5963490  27.4371400  80.7219930  62.4239730
  26.0991920  80.0159240  62.3670270  29.3547190  77.6103380  63.9801330
  29.4743400  77.0144520  64.7196170  30.2141190  77.6473070  63.5602630
  31.6935090  78.1640570  62.5563840  31.1670310  78.6883190  61.9528980
  32.0366430  78.7967960  63.1873570  24.0921480  75.5533940  49.0013550
  23.8910540  74.6901300  49.3626890  23.9213530  75.4667300  48.0635150
  24.8690710  86.1840210  63.7121220  24.3311800  86.9086270  63.3929920
  25.1224670  85.7070550  62.9218560  26.1215960  74.1524730  65.2377150
  26.7115650  73.8440580  65.9254970  25.3036200  73.6804480  65.3937050
  30.9409390  73.7690540  65.4710170  30.2524910  73.1072080  65.4060160
  31.6615410  73.3228810  65.9158630  31.5709790  70.3642170  51.5300430
  31.8512080  69.5210070  51.8859850  30.7975520  70.5965280  52.0439180
  22.8904280  72.6534560  48.9891430  23.1930180  72.6601990  48.0810580
  23.6298870  72.3032420  49.4859090  27.7252920  87.4191420  63.9707870
  27.6511620  88.3226560  64.2780240  26.8231760  87.1003320  63.9429940
  26.1089210  71.5969180  49.9747630  25.7611210  70.9193170  49.3950080
  26.3101980  71.1358690  50.7891020  28.2738250  86.5849930  51.5934230
  29.1689040  86.9234900  51.6152990  28.3055880  85.8629340  50.9658510
  21.9134410  81.9576980  49.8221230  22.3509280  82.5006650  50.4778810
  22.3982140  81.1323930  49.8317570  19.1280210  84.7466010  57.2741490
  19.4583220  83.8787070  57.0420130  19.5571210  84.9524530  58.1046450
  23.7242130  83.0775020  54.9343460  23.4237670  82.9539990  55.8347370
  23.6179620  82.2183610  54.5259190  19.6170420  85.6136600  60.0123120
  19.1801410  85.7937400  60.8447270  20.1848100  86.3711220  59.8704840
  35.2532600  85.1153600  64.3000430  34.6534590  85.1746160  63.5564350
  35.3826500  84.1758580  64.4297280  36.4934050  82.8571420  49.6370140
  35.6627010  82.9248070  50.1077370  36.6705880  83.7475540  49.3337000
  35.9490510  79.6018900  52.1404340  36.7109420  80.1715550  52.2464030
  35.9644880  79.0346100  52.9112650  19.4494850  78.1256830  56.3712000
  18.7943690  77.8568470  55.7271700  20.2872800  78.0161310  55.9213980
  36.9550480  80.4569000  56.9846270  37.3259310  79.6736320  56.5782240
  37.5952410  81.1458100  56.8063570  33.9384240  81.8405580  62.3976590
  33.1244080  82.2702740  62.6602380  34.3458440  82.4523990  61.7845640
  36.0009680  79.8953270  49.2976860  36.2758520  80.8032150  49.1696080
  35.8120420  79.8315800  50.2338850  32.3985290  72.9198120  50.5930490
  32.8170170  72.7329100  49.7527150  32.0921350  72.0677170  50.9033420
  35.8975020  77.8322260  54.2906290  35.5218620  77.0650190  53.8587580
  35.1678140  78.2144960  54.7781220  20.4870780  78.5109400  60.9115340
  20.8543820  78.4236800  61.7911360  19.9181600  77.7475950  60.8122200
  35.2874640  76.9793780  63.9245810  35.0560730  76.7506530  63.0243760
  35.5479190  77.8993330  63.8790700  20.0386780  75.4218490  64.8173760
  19.1442830  75.3885250  65.1567470  20.5784330  75.6205280  65.5825010
  33.7262710  72.2050210  66.7025510  34.6032890  72.2133610  67.0859510
  33.7383550  71.4681050  66.0917860  18.6632930  75.3355760  52.3137330
  17.7597010  75.5985960  52.1388990  19.1473550  75.6066930  51.5337290
  35.1725980  76.0579750  57.5913530  35.6963460  75.5642400  56.9603700
  35.7585400  76.1930110  58.3361100  35.3515700  76.1419620  61.1133080
  34.4018410  76.1083160  61.2278070  35.5328710  77.0519730  60.8782850
  21.2060140  74.3921300  50.2231710  21.9151840  73.9704520  49.7378990
  20.4900080  74.4596530  49.5915060  20.8534300  70.4460630  49.2634360
  21.5762430  70.9869570  49.5815580  21.1258820  70.1724050  48.3875900
  34.6625950  75.3153100  53.5305940  35.1585070  75.0823970  54.3154820
  34.4642020  74.4764940  53.1143580  20.5426490  69.6966820  59.1656980
  21.1902680  69.1464200  58.7252140  20.9628330  69.9509970  59.9872790
  36.0913110  73.9514050  56.0643620  35.9812390  73.7970090  57.0025890
  36.8520700  73.4234990  55.8219030  34.4378830  69.8908180  62.5226620
  35.0751050  70.5042320  62.8885810  34.5853720  69.9268840  61.5775850
  36.9803380  71.7821970  49.3049760  37.9052690  71.6503150  49.0968050
  36.9579170  71.8614790  50.2586210  37.0541870  72.5532630  51.9306470
  36.2593370  72.4877750  52.4599380  37.2585150  73.4883270  51.9191820
  33.9960290  86.5924180  55.9244860  34.5919360  86.2708750  55.2479280
  34.2538440  86.1196000  56.7158130  20.2958490  69.8522490  61.9082300
  19.9473310  70.3086310  62.6740480  19.9646190  68.9579620  61.9904730
  21.9022860  83.0242090  66.0735490  21.8592490  82.6535000  66.9549950
  22.0333870  83.9619660  66.2137310  25.6028890  84.5801680  61.6745210
  25.3620250  84.8476240  60.7875730  26.5431530  84.7507410  61.7296070
  27.8083310  71.0434370  65.4301720  27.7472200  71.6356200  66.1797130
  28.7483690  70.9360330  65.2851980  30.4457870  70.7004430  65.0694010
  31.0598280  71.0183720  64.4075090  30.9907430  70.2153020  65.6889870
  36.8633050  86.5996060  62.4755850  36.3691330  86.9964930  61.7582980
  36.2546340  85.9745270  62.8693130  20.9679130  69.3798690  65.1833070
  21.5162120  69.1986740  64.4199180  21.0334440  68.5892800  65.7189380
  21.7410890  85.9704340  63.1933270  21.1471210  85.8389040  63.9323310
  21.7334730  85.1342480  62.7275370  31.1865910  69.2636570  61.3963300
  30.3125750  69.5971680  61.1936230  31.0776660  68.7909750  62.2215170
  32.0937890  71.4707440  62.7805020  31.7651250  70.6559200  62.4006750
  33.0420190  71.4277250  62.6570710  34.5472500  87.2419480  59.7542590
  34.0875470  87.9935290  59.3800610  33.9184960  86.5225950  59.6957390
  21.3723120  83.3362720  62.1441310  20.6457180  82.7168010  62.0767260
  21.4332270  83.7303330  61.2739390  24.9768220  85.5507720  58.9290720
  25.4933240  84.9395080  58.4038980  25.6265600  86.0536500  59.4201730
  27.7163720  86.4416210  59.7559700  28.0041530  86.1870510  58.8792710
  28.2286940  85.8893570  60.3465270  28.9340730  70.1806410  60.3356210
  28.1512520  70.6551910  60.6152970  28.6403660  69.2761240  60.2269390
  33.4861800  70.8829510  58.3805300  33.9269890  70.8274610  57.5326900
  33.2169390  71.7987520  58.4515480  35.3500370  70.5144750  56.3914120
  35.2888770  69.5705970  56.2445140  36.1292400  70.6224840  56.9367580
  19.6553120  86.6537110  55.3538070  19.4875160  86.0207790  56.0519960
  18.7887630  86.8596510  55.0032260  20.2781140  70.4853890  52.8569930
  21.0360500  70.5982770  52.2833960  19.8158310  71.3223090  52.8113360
  26.8194950  72.5993160  55.8472240  26.0069460  72.2250050  55.5068120
  27.3236590  71.8438240  56.1493430  31.3219930  69.2635610  57.0855310
  31.9249300  69.8355820  57.5603830  30.5812920  69.8275050  56.8629210
  34.4654530  69.6657170  52.3595590  34.6605160  70.5640620  52.6263020
  33.6784400  69.4344250  52.8528540  21.2615820  85.3470340  52.7988210
  20.7363440  85.7278370  52.0950170  21.1860400  85.9721110  53.5197920
  22.6506290  71.0117940  51.3971900  23.1799050  70.2247740  51.2679850
  23.2834610  71.6909130  51.6307430  24.8444130  70.7493080  54.4517290
  24.2146870  70.0480390  54.6187420  24.3049270  71.5097210  54.2350450
  27.7836080  87.3632310  67.1227900  28.7103390  87.1276580  67.1663860
  27.7686510  88.1904310  66.6413930  36.0181140  86.9057880  54.1202150
  36.1933330  86.2195620  53.4763070  35.3202710  87.4304930  53.7278820
  24.9699690  70.0277060  66.8869780  24.6883960  70.5310660  66.1230600
  25.3519390  69.2298810  66.5211910  23.8608790  87.2952720  51.6737460
  24.5927610  87.0112000  51.1261350  24.1202460  87.0566000  52.5636840
  23.0223580  83.4117450  51.6783790  22.3932460  83.8802550  52.2269620
  23.1371410  82.5666670  52.1129980  31.5715150  69.4430640  67.4650250
  31.4580600  69.7625250  68.3601770  32.3884890  69.8443150  67.1687530
  34.3513640  86.5902170  66.9468940  35.1438960  86.0951400  66.7394900
  34.6446790  87.2692310  67.5544550  30.4773300  77.4623110  37.8284990
  30.3967350  76.5477720  37.5576700  30.0637720  77.9590180  37.1224700
  28.6091340  79.2402130  39.7094260  27.8333440  78.7602570  39.9992830
  29.2604270  78.5607780  39.5350420  22.6257170  79.5521940  40.5870020
  21.7942050  79.2970650  40.9866530  23.2338150  79.6232710  41.3227940
  32.6298770  83.6462320  38.4893390  32.1680300  82.8749560  38.8180560
  33.4424320  83.6728390  38.9945840  22.6058430  83.5862030  40.7828040
  22.9086470  82.6959770  40.6038260  23.3502020  84.1432250  40.5550290
  21.0349120  74.5123830  34.3712410  20.1465820  74.8539800  34.2692290
  21.3190310  74.3124150  33.4793240  18.9982130  77.1129480  40.2552110
  19.5698240  76.3451680  40.2555750  18.9983670  77.4118240  39.3458720
  28.8562080  85.9320330  38.1097380  28.2373520  86.3877830  37.5391820
  29.7113860  86.0871790  37.7087080  28.0500330  81.9159320  39.7164420
  27.9808610  80.9749260  39.5553550  28.8120190  82.0060730  40.2886990
  20.2407000  72.5213840  42.0421040  20.0609840  71.6239590  42.3223800
  19.8387080  73.0685710  42.7167990  29.0805500  74.7229700  39.9433350
  29.4570320  73.8501580  39.8307020  28.9825010  75.0588400  39.0523790
  23.2110510  73.0955330  35.4050790  23.3177260  73.9959060  35.7119550
  22.3002870  73.0473300  35.1145440  32.8629620  72.2180140  36.8761690
  33.6839240  71.7276710  36.9187170  32.8963700  72.8077800  37.6293530
  20.8593670  75.0174340  40.6503380  21.5403780  75.2812710  41.2690780
  20.5441720  74.1775210  40.9841390  25.0518240  76.0641700  39.7375970
  25.5596460  76.5622670  40.3780990  25.5831480  75.2876900  39.5615330
  37.1529170  74.2346890  43.4405320  36.4481340  74.6228600  42.9220430
  37.4187090  74.9297180  44.0426250  23.3354340  70.7040260  44.0039390
  23.3372780  71.2212650  43.1985290  22.5058650  70.2270440  43.9809320
  29.7225430  80.8159570  35.5029290  29.1042700  81.2809020  34.9392010
  30.2348680  81.5087050  35.9198800  24.5857190  80.3435440  42.1812890
  24.2526570  80.9704360  42.8233960  24.7623870  80.8697320  41.4014560
  33.0991100  74.1580520  39.6489230  32.3946670  74.4465410  40.2292340
  33.4603260  74.9680630  39.2888790  23.0169670  72.4150220  42.0109840
  23.3586480  73.2592270  41.7163710  22.0785480  72.5633960  42.1275180
  23.7976290  82.3116240  43.9962070  24.4150290  82.9867320  43.7146520
  22.9369410  82.7204220  43.9049570  19.0908630  81.5016100  32.8768920
  18.7136610  81.9903200  32.1453820  19.3481700  82.1741380  33.5075450
  34.7153880  83.7755650  41.9116710  34.0317400  84.4454760  41.9033380
  35.2548170  83.9736300  41.1461570  36.1678020  73.6035310  40.0398440
  35.2202930  73.6374290  40.1713870  36.4928010  74.4174260  40.4247800
  26.6997560  69.9032490  38.3354430  27.0072540  69.3479380  37.6189930
  25.7698260  70.0376950  38.1527420  32.2512620  85.6199780  40.6261890
  32.2639780  85.2162070  39.7584150  31.6987840  86.3947070  40.5223320
  33.5458040  82.3416000  35.7152060  33.4354370  81.3990330  35.8401480
  33.5426290  82.7031640  36.6014820  31.6498060  80.5229620  41.9544500
  32.0666850  80.3089730  41.1197960  32.3737880  80.7802410  42.5253120
  29.0878320  77.9681320  35.0714550  28.1607600  77.9018700  35.3003020
  29.2403140  78.9061450  34.9569790  29.0747400  74.2398320  32.0681710
  28.1351070  74.4012280  32.1534170  29.3930660  74.9584000  31.5217700
  35.5960160  78.9216840  42.0460740  34.7678790  78.9909930  41.5710870
  36.1910640  79.5071150  41.5776570  33.1175610  79.5301620  35.5749800
  32.4988030  79.1921170  34.9276100  33.1000060  78.8861380  36.2828990
  32.5602170  75.7086160  42.9915610  32.1473350  76.5339870  43.2455600
  31.8278120  75.1231200  42.7991970  24.6934960  78.4946060  37.8534280
  24.2891960  77.7823310  37.3580180  24.7798080  78.1499300  38.7422320
  25.1616660  82.1813620  40.0173490  24.8644950  81.5759090  39.3381270
  26.1116480  82.2190930  39.9062850  23.4063580  75.2689270  41.6333320
  23.9578170  75.3784610  40.8586570  23.9207090  75.6426870  42.3488550
  33.2502270  85.7545490  43.6796590  32.7732830  86.5617680  43.4869200
  32.5664060  85.1023820  43.8322800  24.2535090  81.9195310  46.6681290
  23.3563620  82.1435280  46.9154690  24.2787960  82.0430250  45.7192690
  31.2940310  78.7688430  32.5822550  31.7333590  77.9310860  32.4360370
  32.0068730  79.4017830  32.6686690  23.0806310  78.7908630  45.2438660
  22.9414080  79.6631430  45.6126060  22.1987670  78.4481440  45.0986600
  29.4035690  83.7084500  36.5503790  29.8431600  84.4508830  36.1359180
  29.3422580  83.9511070  37.4742750  24.8786660  84.7330330  47.4523810
  24.8502090  85.1373280  46.5852240  24.7151630  83.8040690  47.2895410
  21.3939590  77.3891040  35.3540930  21.2737190  78.1153130  34.7422200
  21.0840480  76.6193950  34.8768840  36.8301480  85.5157430  48.7487980
  37.3061200  85.9940320  49.4277060  37.4508640  85.4474920  48.0233480
  19.0324960  80.5606180  41.1609570  19.1105380  80.6954950  40.2165290
  19.6466640  79.8522070  41.3537690  20.2772590  82.2606370  37.5715750
  19.8700670  82.4020960  36.7169350  21.1685600  81.9766530  37.3686960
  36.2334730  82.7070280  45.9087990  36.3597790  82.4682160  44.9905170
  36.2756110  81.8754820  46.3810070  30.0951470  86.4098280  44.4782800
  30.6096140  86.3206290  45.2805230  29.2520550  86.7557980  44.7710710
  32.0705870  86.6953620  33.9066800  31.9107010  86.4056560  34.8048630
  31.9052580  85.9193750  33.3712030  24.5494250  86.4752150  35.6838420
  24.3736730  85.5587690  35.4706220  23.6949990  86.8339440  35.9236220
  31.7732000  84.2041180  32.4664800  31.0797160  84.2018470  31.8067080
  32.5154860  83.7800500  32.0358970  31.3381930  85.8303890  36.5413290
  31.7938880  85.0493270  36.8551910  31.6774450  86.5410710  37.0854470
  36.0858740  74.7602740  46.8737730  35.4703010  75.2682410  46.3453190
  35.7655160  73.8601070  46.8163670  19.0884480  81.6020350  43.7004030
  19.2515520  81.1325710  42.8823400  19.5536930  81.0943910  44.3652870
  23.8603250  70.7326110  38.7364600  23.4171400  71.5135650  38.4049120
  24.4188240  71.0556000  39.4435540  28.1473060  73.5994630  44.3399920
  27.6852430  73.8077650  45.1519860  27.7451170  72.7853980  44.0370590
  33.1477570  74.8203580  45.4696580  32.2971160  74.5209330  45.7905650
  32.9879360  75.0645590  44.5580400  30.2427280  76.3205330  47.5695370
  30.5680690  75.4869080  47.2297600  31.0307610  76.8433850  47.7173700
  26.9762070  70.3536810  33.6170430  26.3516250  70.3496680  34.3423740
  26.8892190  69.4867770  33.2206400  25.8979150  71.2773440  40.5954200
  26.1951480  72.1836270  40.5146220  26.4464710  70.7892220  39.9813770
  23.6517470  75.8559680  36.4645850  23.4258390  75.6396850  37.3692470
  22.8710000  76.2888140  36.1191820  30.8815230  75.8623050  35.0636500
  30.2824120  76.5858850  34.8800120  31.4294840  75.7999830  34.2812950
  26.0916680  76.7545260  47.1306120  25.9960280  75.8139990  46.9806520
  26.9348660  76.9760330  46.7354190  29.4880100  74.4986590  37.0939780
  29.8809670  74.8158790  36.2808470  29.8496950  73.6198470  37.2084300
  21.2227220  73.1658930  45.2839900  20.8290610  74.0134140  45.4912680
  20.5345620  72.5285300  45.4748540  27.7972270  73.2493900  48.3536640
  27.1070590  73.0566100  48.9882730  28.5404570  73.5328540  48.8860940
  18.5244270  71.0887390  39.3169980  18.2357320  71.6590250  40.0294960
  19.2690030  70.6091840  39.6801210  18.7114500  75.0307510  30.5272700
  18.6289170  75.9738270  30.6687690  18.3597560  74.8882420  29.6485050
  30.0735240  77.0892340  41.1890560  29.3416360  77.5979150  41.5380660
  29.6759580  76.2722320  40.8879340  26.5112630  73.7646540  39.5943050
  26.5148690  73.3236490  38.7447590  27.4063750  74.0863870  39.7014870
  22.3615010  73.6473030  38.5537260  22.0215060  74.1248260  39.3104310
  21.5992330  73.1938150  38.1938360  26.5732780  74.7658620  32.5849810
  26.6945600  74.7245100  33.5335630  26.1881290  75.6282770  32.4296540
  30.5361150  72.5426020  40.6013500  30.5533890  72.9934670  41.4455350
  30.2876730  71.6431660  40.8146940  25.5854280  77.0759760  31.9833110
  25.0171180  76.6278010  31.3569020  26.2943280  77.4352540  31.4498260
  33.9631900  69.9558200  46.4399880  34.2877670  69.2247860  46.9657860
  33.9988410  69.6371840  45.5380870  20.6623460  80.9771780  45.8599840
  20.2778250  80.3365450  46.4582800  20.9735650  81.6807900  46.4294570
  26.8120600  77.8248320  41.3408460  27.1790730  77.3506890  42.0869800
  26.6225660  78.6989890  41.6816800  19.6761090  72.5692010  37.4701930
  19.3908010  72.2047680  38.3080550  19.6139950  71.8372470  36.8565070
  24.6019970  76.8656960  43.6592670  24.2977040  77.7448940  43.8843030
  25.5566430  76.9256750  43.6950110  23.1301760  81.0717950  34.2559520
  22.3564020  80.5315570  34.0958240  23.8596390  80.5524560  33.9177280
  33.8889740  80.0683310  40.0485910  34.6088860  80.5638600  39.6582020
  33.6871560  79.3901200  39.4039780  29.3499680  71.4621270  34.1915300
  28.5364290  70.9634440  34.1160610  29.1561630  72.3019520  33.7751650
  29.2708540  80.1392370  45.9354910  29.2045850  79.2188040  45.6812500
  28.6413680  80.2367810  46.6499550  32.0648070  75.8340920  32.4877460
  32.9527690  76.1458150  32.3128800  32.0353160  74.9613170  32.0958040
  23.1739160  80.7398330  37.8938330  23.6917830  79.9366590  37.8395220
  22.7223180  80.6777470  38.7355160  28.0608660  82.0064610  33.1665630
  28.4024360  82.7506840  32.6708950  27.2321370  82.3195730  33.5290460
  20.6583700  77.7059700  44.8064030  20.2998640  78.3713550  45.3937370
  20.3638260  76.8743250  45.1776650  23.8596820  78.1643940  47.6903580
  23.5596960  78.3101120  46.7931400  24.6308060  77.6049230  47.5976970
  29.2025270  82.9612940  45.6858710  29.2169810  82.0293900  45.4677620
  28.4950370  83.0472700  46.3248480  34.3362340  77.1452760  31.9557320
  34.2526060  77.5766980  31.1053760  35.0556530  77.6051110  32.3884140
  35.4136480  79.6020280  45.0327290  34.6884670  80.1949060  44.8356680
  35.9411940  79.5943820  44.2340660  35.3649590  83.9995020  34.6839450
  34.7225750  83.3450640  34.9583170  34.9780250  84.4050110  33.9080120
  30.9436070  81.3280450  38.5311140  31.2959890  80.7308580  37.8712510
  30.0598400  81.0024680  38.7019390  27.0299350  82.0878140  35.9381550
  27.7170480  82.6347350  36.3189140  26.2431770  82.6318870  35.9731160
  19.1691750  77.7050960  31.4298630  20.0386600  77.9875760  31.7134550
  18.6782070  78.5186830  31.3147440  26.3326560  79.0924170  35.5506910
  26.7889340  79.9029420  35.7767100  25.9814770  78.7747310  36.3825400
  28.6359170  84.6030510  42.7799210  29.2801390  84.8089890  43.4572630
  28.9988610  83.8418910  42.3270060  22.2338340  69.4361820  36.0229430
  22.1052970  69.4279720  36.9714350  21.4100360  69.7744910  35.6720440
  29.9091250  82.6062860  41.4976660  30.5513480  81.9056020  41.6108830
  30.4340600  83.3861300  41.3173550  33.7546970  82.8911480  31.2215800
  33.5284550  82.1741920  31.8140440  33.3643170  82.6423920  30.3837550
  31.6828870  83.4057760  44.7012720  32.0185110  83.9924450  45.3790640
  30.7629210  83.2750470  44.9310510  19.5363000  86.9178340  31.9960260
  19.8960640  87.5167680  31.3417530  19.3955340  87.4638230  32.7695290
  19.2332270  71.1952940  45.4836130  18.5190790  71.3949860  46.0888740
  19.6527310  70.4192510  45.8550930  33.3363220  80.8083420  32.8829960
  33.0484920  81.2696110  33.6707840  34.1315390  80.3481190  33.1514180
  19.5204860  85.1833200  46.4702660  19.6295980  84.2427940  46.3298050
  18.8685420  85.4487950  45.8216390  27.5117450  83.4549090  47.8700780
  27.1914320  82.7358330  48.4146470  26.8375810  84.1304160  47.9436840
  25.5531620  84.3009540  32.8133930  25.5441720  85.0339230  32.1978440
  24.6329980  84.0541120  32.9060890  21.1538260  79.5224430  33.5580690
  20.5466210  80.2623330  33.5675990  21.6287610  79.6123790  32.7318890
  30.7271050  73.6875250  43.2337580  31.0951870  72.8670460  43.5617150
  29.8669250  73.7477140  43.6493230  34.0933080  72.6432190  34.0425140
  33.4646240  72.7477860  33.3283370  33.5985000  72.8628970  34.8319020
  28.5391220  84.3637780  31.4759120  28.6403200  84.1601770  30.5461100
  27.6392960  84.1096060  31.6806900  26.0617110  74.9218140  35.4583020
  25.3533260  75.3904480  35.8996630  26.3461590  74.2640150  36.0928210
  27.6873040  76.3414840  43.4575550  28.1858290  76.8160660  44.1227400
  27.8295990  75.4178360  43.6645580  30.0932540  71.6468800  36.8978810
  29.9700320  71.6654930  35.9488320  31.0417100  71.6947740  37.0177210
  27.1809330  86.8824100  36.1706790  27.4350830  86.8445490  35.2486160
  26.2321810  86.7557430  36.1635040  24.2652130  73.2303220  32.8333730
  25.1142660  73.6673370  32.7673920  23.8983400  73.5423480  33.6605790
  34.8939900  72.5582800  44.3003940  34.3913500  73.2988200  44.6397750
  35.7096560  72.9466800  43.9840730  33.1861910  77.8015980  37.7465300
  32.2452050  77.8166210  37.9212990  33.5005980  77.0151940  38.1925600
  23.1643550  79.4835580  31.3069260  23.9306820  79.3716940  31.8694690
  23.2418240  78.7873550  30.6546030  21.8590310  76.9160650  31.9902150
  21.9393900  75.9688160  32.1019550  22.7510060  77.2467530  32.0962810
  35.1887490  84.9724830  39.4219560  35.3134910  85.7956000  39.8943370
  36.0553050  84.7615560  39.0743710  22.6605020  87.0656040  39.0936690
  23.3967500  86.5171500  39.3645260  23.0445940  87.9312050  38.9542680
  19.5450500  83.1329610  34.9678200  18.6190280  83.3750750  34.9583610
  20.0106930  83.9603870  34.8462950  21.6663300  86.2502110  48.2822270
  22.4676030  86.5714160  48.6957670  21.1515120  85.8897690  49.0042180
  25.7707330  86.2386350  30.9162260  26.5635940  86.5275180  30.4644050
  25.2511680  85.8078520  30.2374740  30.5027930  82.3581980  48.2297680
  29.8966090  82.3813580  47.4893430  30.1982040  81.6265020  48.7664930
  31.9328300  86.0862270  46.8407090  32.8850050  86.0020290  46.7907330
  31.7856520  86.7503980  47.5140880  34.8237500  85.4656480  32.3399000
  34.5379010  85.0521620  31.5253180  34.6257050  86.3944190  32.2199520
  19.3861110  78.7375570  47.2258320  19.8900130  78.1582850  47.7974550
  18.6468530  79.0215800  47.7634690  26.2884730  81.4589760  30.7804610
  26.1835370  80.8442110  31.5065990  26.1208950  80.9355650  29.9967620
  26.4399050  80.1446560  46.7593840  25.6744720  80.7131560  46.6748510
  26.6215010  79.8522770  45.8662070  29.5287460  80.5209790  31.3846600
  28.9797560  80.9679090  32.0289340  30.1506720  80.0159040  31.9084270
  33.5822400  81.8751890  47.3168860  34.3231870  82.2127650  46.8136320
  32.8195080  82.0443950  46.7638630  21.4184190  76.8805160  48.1208390
  21.4589530  76.5819030  49.0293620  22.2729690  77.2812770  47.9615910
  25.1962580  79.4800710  33.2811900  25.6179000  79.3140580  34.1243290
  25.3213420  78.6700940  32.7867040  23.3590000  75.4597260  46.0882880
  22.8286460  74.9688210  45.4606220  24.0278070  75.8881460  45.5540810
  27.7090220  78.5038320  30.5289000  28.2295880  77.7887340  30.1630150
  28.3558620  79.1424190  30.8289510  32.2568060  79.9266720  45.8524070
  32.6709080  80.0811800  46.7014490  31.3219060  80.0521940  46.0149850
  32.7290230  77.2662880  47.8563220  33.3111000  76.5115200  47.7683700
  32.9052000  77.7970320  47.0794700  23.8462300  72.4259630  46.1680170
  23.7519170  71.8080380  45.4431040  23.2659690  73.1525920  45.9410080
  26.6123740  70.9832870  43.2007560  26.1641040  71.0057130  42.3553110
  25.9788940  70.5851890  43.7977860  27.0183290  79.8787200  43.8220000
  27.4371400  80.7219930  43.6496240  26.0991920  80.0159240  43.5926780
  29.3547190  77.6103380  45.2057840  29.4743400  77.0144520  45.9452680
  30.2141190  77.6473070  44.7859140  31.6935090  78.1640570  43.7820350
  31.1670310  78.6883190  43.1785490  32.0366430  78.7967960  44.4130080
  24.0921480  75.5533940  30.2270060  23.8910540  74.6901300  30.5883400
  23.9213530  75.4667300  29.2891660  24.8690710  86.1840210  44.9377730
  24.3311800  86.9086270  44.6186430  25.1224670  85.7070550  44.1475070
  26.1215960  74.1524730  46.4633660  26.7115650  73.8440580  47.1511480
  25.3036200  73.6804480  46.6193560  30.9409390  73.7690540  46.6966680
  30.2524910  73.1072080  46.6316670  31.6615410  73.3228810  47.1415140
  31.5709790  70.3642170  32.7556940  31.8512080  69.5210070  33.1116360
  30.7975520  70.5965280  33.2695690  22.8904280  72.6534560  30.2147940
  23.1930180  72.6601990  29.3067090  23.6298870  72.3032420  30.7115600
  27.7252920  87.4191420  45.1964380  27.6511620  88.3226560  45.5036750
  26.8231760  87.1003320  45.1686450  26.1089210  71.5969180  31.2004140
  25.7611210  70.9193170  30.6206590  26.3101980  71.1358690  32.0147530
  28.2738250  86.5849930  32.8190740  29.1689040  86.9234900  32.8409500
  28.3055880  85.8629340  32.1915020  21.9134410  81.9576980  31.0477740
  22.3509280  82.5006650  31.7035320  22.3982140  81.1323930  31.0574080
  19.1280210  84.7466010  38.4998000  19.4583220  83.8787070  38.2676640
  19.5571210  84.9524530  39.3302960  23.7242130  83.0775020  36.1599970
  23.4237670  82.9539990  37.0603880  23.6179620  82.2183610  35.7515700
  19.6170420  85.6136600  41.2379630  19.1801410  85.7937400  42.0703780
  20.1848100  86.3711220  41.0961350  35.2532600  85.1153600  45.5256940
  34.6534590  85.1746160  44.7820860  35.3826500  84.1758580  45.6553790
  36.4934050  82.8571420  30.8626650  35.6627010  82.9248070  31.3333880
  36.6705880  83.7475540  30.5593510  35.9490510  79.6018900  33.3660850
  36.7109420  80.1715550  33.4720540  35.9644880  79.0346100  34.1369160
  19.4494850  78.1256830  37.5968510  18.7943690  77.8568470  36.9528210
  20.2872800  78.0161310  37.1470490  36.9550480  80.4569000  38.2102780
  37.3259310  79.6736320  37.8038750  37.5952410  81.1458100  38.0320080
  33.9384240  81.8405580  43.6233100  33.1244080  82.2702740  43.8858890
  34.3458440  82.4523990  43.0102150  36.0009680  79.8953270  30.5233370
  36.2758520  80.8032150  30.3952590  35.8120420  79.8315800  31.4595360
  32.3985290  72.9198120  31.8187000  32.8170170  72.7329100  30.9783660
  32.0921350  72.0677170  32.1289930  35.8975020  77.8322260  35.5162800
  35.5218620  77.0650190  35.0844090  35.1678140  78.2144960  36.0037730
  20.4870780  78.5109400  42.1371850  20.8543820  78.4236800  43.0167870
  19.9181600  77.7475950  42.0378710  35.2874640  76.9793780  45.1502320
  35.0560730  76.7506530  44.2500270  35.5479190  77.8993330  45.1047210
  20.0386780  75.4218490  46.0430270  19.1442830  75.3885250  46.3823980
  20.5784330  75.6205280  46.8081520  33.7262710  72.2050210  47.9282020
  34.6032890  72.2133610  48.3116020  33.7383550  71.4681050  47.3174370
  18.6632930  75.3355760  33.5393840  17.7597010  75.5985960  33.3645500
  19.1473550  75.6066930  32.7593800  35.1725980  76.0579750  38.8170040
  35.6963460  75.5642400  38.1860210  35.7585400  76.1930110  39.5617610
  35.3515700  76.1419620  42.3389590  34.4018410  76.1083160  42.4534580
  35.5328710  77.0519730  42.1039360  21.2060140  74.3921300  31.4488220
  21.9151840  73.9704520  30.9635500  20.4900080  74.4596530  30.8171570
  20.8534300  70.4460630  30.4890870  21.5762430  70.9869570  30.8072090
  21.1258820  70.1724050  29.6132410  34.6625950  75.3153100  34.7562450
  35.1585070  75.0823970  35.5411330  34.4642020  74.4764940  34.3400090
  20.5426490  69.6966820  40.3913490  21.1902680  69.1464200  39.9508650
  20.9628330  69.9509970  41.2129300  36.0913110  73.9514050  37.2900130
  35.9812390  73.7970090  38.2282400  36.8520700  73.4234990  37.0475540
  37.0541870  72.5532630  33.1562980  36.2593370  72.4877750  33.6855890
  37.2585150  73.4883270  33.1448330  33.9960290  86.5924180  37.1501370
  34.5919360  86.2708750  36.4735790  34.2538440  86.1196000  37.9414640
  20.2958490  69.8522490  43.1338810  19.9473310  70.3086310  43.8996990
  19.9646190  68.9579620  43.2161240  21.9022860  83.0242090  47.2992000
  21.8592490  82.6535000  48.1806460  22.0333870  83.9619660  47.4393820
  25.6028890  84.5801680  42.9001720  25.3620250  84.8476240  42.0132240
  26.5431530  84.7507410  42.9552580  27.8083310  71.0434370  46.6558230
  27.7472200  71.6356200  47.4053640  28.7483690  70.9360330  46.5108490
  30.4457870  70.7004430  46.2950520  31.0598280  71.0183720  45.6331600
  30.9907430  70.2153020  46.9146380  36.8633050  86.5996060  43.7012360
  36.3691330  86.9964930  42.9839490  36.2546340  85.9745270  44.0949640
  20.9679130  69.3798690  46.4089580  21.5162120  69.1986740  45.6455690
  21.0334440  68.5892800  46.9445890  21.7410890  85.9704340  44.4189780
  21.1471210  85.8389040  45.1579820  21.7334730  85.1342480  43.9531880
  31.1865910  69.2636570  42.6219810  30.3125750  69.5971680  42.4192740
  31.0776660  68.7909750  43.4471680  32.0937890  71.4707440  44.0061530
  31.7651250  70.6559200  43.6263260  33.0420190  71.4277250  43.8827220
  34.5472500  87.2419480  40.9799100  34.0875470  87.9935290  40.6057120
  33.9184960  86.5225950  40.9213900  21.3723120  83.3362720  43.3697820
  20.6457180  82.7168010  43.3023770  21.4332270  83.7303330  42.4995900
  24.9768220  85.5507720  40.1547230  25.4933240  84.9395080  39.6295490
  25.6265600  86.0536500  40.6458240  27.7163720  86.4416210  40.9816210
  28.0041530  86.1870510  40.1049220  28.2286940  85.8893570  41.5721780
  28.9340730  70.1806410  41.5612720  28.1512520  70.6551910  41.8409480
  28.6403660  69.2761240  41.4525900  33.4861800  70.8829510  39.6061810
  33.9269890  70.8274610  38.7583410  33.2169390  71.7987520  39.6771990
  19.6553120  86.6537110  36.5794580  19.4875160  86.0207790  37.2776470
  18.7887630  86.8596510  36.2288770  20.2781140  70.4853890  34.0826440
  21.0360500  70.5982770  33.5090470  19.8158310  71.3223090  34.0369870
  26.8194950  72.5993160  37.0728750  26.0069460  72.2250050  36.7324630
  27.3236590  71.8438240  37.3749940  31.3219930  69.2635610  38.3111820
  31.9249300  69.8355820  38.7860340  30.5812920  69.8275050  38.0885720
  21.2615820  85.3470340  34.0244720  20.7363440  85.7278370  33.3206680
  21.1860400  85.9721110  34.7454430  22.6506290  71.0117940  32.6228410
  23.1799050  70.2247740  32.4936360  23.2834610  71.6909130  32.8563940
  24.8444130  70.7493080  35.6773800  24.2146870  70.0480390  35.8443930
  24.3049270  71.5097210  35.4606960  27.7836080  87.3632310  48.3484410
  28.7103390  87.1276580  48.3920370  27.7686510  88.1904310  47.8670440
  36.0181140  86.9057880  35.3458660  36.1933330  86.2195620  34.7019580
  35.3202710  87.4304930  34.9535330  24.9699690  70.0277060  48.1126290
  24.6883960  70.5310660  47.3487110  25.3519390  69.2298810  47.7468420
  23.8608790  87.2952720  32.8993970  24.5927610  87.0112000  32.3517860
  24.1202460  87.0566000  33.7893350  23.0223580  83.4117450  32.9040300
  22.3932460  83.8802550  33.4526130  23.1371410  82.5666670  33.3386490
  31.5715150  69.4430640  48.6906760  31.4580600  69.7625250  49.5858280
  32.3884890  69.8443150  48.3944040  34.3513640  86.5902170  48.1725450
  35.1438960  86.0951400  47.9651410  34.6446790  87.2692310  48.7801060
  30.4773300  77.4623110  19.0541500  30.3967350  76.5477720  18.7833210
  30.0637720  77.9590180  18.3481210  28.6091340  79.2402130  20.9350770
  27.8333440  78.7602570  21.2249340  29.2604270  78.5607780  20.7606930
  22.6257170  79.5521940  21.8126530  21.7942050  79.2970650  22.2123040
  23.2338150  79.6232710  22.5484450  32.6298770  83.6462320  19.7149900
  32.1680300  82.8749560  20.0437070  33.4424320  83.6728390  20.2202350
  22.6058430  83.5862030  22.0084550  22.9086470  82.6959770  21.8294770
  23.3502020  84.1432250  21.7806800  21.0349120  74.5123830  15.5968920
  20.1465820  74.8539800  15.4948800  21.3190310  74.3124150  14.7049750
  18.9982130  77.1129480  21.4808620  19.5698240  76.3451680  21.4812260
  18.9983670  77.4118240  20.5715230  28.8562080  85.9320330  19.3353890
  28.2373520  86.3877830  18.7648330  29.7113860  86.0871790  18.9343590
  28.0500330  81.9159320  20.9420930  27.9808610  80.9749260  20.7810060
  28.8120190  82.0060730  21.5143500  20.2407000  72.5213840  23.2677550
  20.0609840  71.6239590  23.5480310  19.8387080  73.0685710  23.9424500
  29.0805500  74.7229700  21.1689860  29.4570320  73.8501580  21.0563530
  28.9825010  75.0588400  20.2780300  23.2110510  73.0955330  16.6307300
  23.3177260  73.9959060  16.9376060  22.3002870  73.0473300  16.3401950
  32.8629620  72.2180140  18.1018200  33.6839240  71.7276710  18.1443680
  32.8963700  72.8077800  18.8550040  20.8593670  75.0174340  21.8759890
  21.5403780  75.2812710  22.4947290  20.5441720  74.1775210  22.2097900
  25.0518240  76.0641700  20.9632480  25.5596460  76.5622670  21.6037500
  25.5831480  75.2876900  20.7871840  37.1529170  74.2346890  24.6661830
  36.4481340  74.6228600  24.1476940  37.4187090  74.9297180  25.2682760
  23.3354340  70.7040260  25.2295900  23.3372780  71.2212650  24.4241800
  22.5058650  70.2270440  25.2065830  29.7225430  80.8159570  16.7285800
  29.1042700  81.2809020  16.1648520  30.2348680  81.5087050  17.1455310
  24.5857190  80.3435440  23.4069400  24.2526570  80.9704360  24.0490470
  24.7623870  80.8697320  22.6271070  33.0991100  74.1580520  20.8745740
  32.3946670  74.4465410  21.4548850  33.4603260  74.9680630  20.5145300
  23.0169670  72.4150220  23.2366350  23.3586480  73.2592270  22.9420220
  22.0785480  72.5633960  23.3531690  23.7976290  82.3116240  25.2218580
  24.4150290  82.9867320  24.9403030  22.9369410  82.7204220  25.1306080
  19.0908630  81.5016100  14.1025430  18.7136610  81.9903200  13.3710330
  19.3481700  82.1741380  14.7331960  34.7153880  83.7755650  23.1373220
  34.0317400  84.4454760  23.1289890  35.2548170  83.9736300  22.3718080
  36.1678020  73.6035310  21.2654950  35.2202930  73.6374290  21.3970380
  36.4928010  74.4174260  21.6504310  26.6997560  69.9032490  19.5610940
  27.0072540  69.3479380  18.8446440  25.7698260  70.0376950  19.3783930
  32.2512620  85.6199780  21.8518400  32.2639780  85.2162070  20.9840660
  31.6987840  86.3947070  21.7479830  33.5458040  82.3416000  16.9408570
  33.4354370  81.3990330  17.0657990  33.5426290  82.7031640  17.8271330
  31.6498060  80.5229620  23.1801010  32.0666850  80.3089730  22.3454470
  32.3737880  80.7802410  23.7509630  29.0878320  77.9681320  16.2971060
  28.1607600  77.9018700  16.5259530  29.2403140  78.9061450  16.1826300
  29.0747400  74.2398320  13.2938220  28.1351070  74.4012280  13.3790680
  29.3930660  74.9584000  12.7474210  35.5960160  78.9216840  23.2717250
  34.7678790  78.9909930  22.7967380  36.1910640  79.5071150  22.8033080
  33.1175610  79.5301620  16.8006310  32.4988030  79.1921170  16.1532610
  33.1000060  78.8861380  17.5085500  32.5602170  75.7086160  24.2172120
  32.1473350  76.5339870  24.4712110  31.8278120  75.1231200  24.0248480
  24.6934960  78.4946060  19.0790790  24.2891960  77.7823310  18.5836690
  24.7798080  78.1499300  19.9678830  25.1616660  82.1813620  21.2430000
  24.8644950  81.5759090  20.5637780  26.1116480  82.2190930  21.1319360
  23.4063580  75.2689270  22.8589830  23.9578170  75.3784610  22.0843080
  23.9207090  75.6426870  23.5745060  33.2502270  85.7545490  24.9053100
  32.7732830  86.5617680  24.7125710  32.5664060  85.1023820  25.0579310
  24.2535090  81.9195310  27.8937800  23.3563620  82.1435280  28.1411200
  24.2787960  82.0430250  26.9449200  31.2940310  78.7688430  13.8079060
  31.7333590  77.9310860  13.6616880  32.0068730  79.4017830  13.8943200
  23.0806310  78.7908630  26.4695170  22.9414080  79.6631430  26.8382570
  22.1987670  78.4481440  26.3243110  29.4035690  83.7084500  17.7760300
  29.8431600  84.4508830  17.3615690  29.3422580  83.9511070  18.6999260
  24.8786660  84.7330330  28.6780320  24.8502090  85.1373280  27.8108750
  24.7151630  83.8040690  28.5151920  34.8757450  70.0231240  12.1220100
  34.5630110  70.1158070  13.0219170  35.6369920  70.6012270  12.0717530
  21.3939590  77.3891040  16.5797440  21.2737190  78.1153130  15.9678710
  21.0840480  76.6193950  16.1025350  36.8301480  85.5157430  29.9744490
  37.3061200  85.9940320  30.6533570  37.4508640  85.4474920  29.2489990
  19.0324960  80.5606180  22.3866080  19.1105380  80.6954950  21.4421800
  19.6466640  79.8522070  22.5794200  20.2772590  82.2606370  18.7972260
  19.8700670  82.4020960  17.9425860  21.1685600  81.9766530  18.5943470
  36.2334730  82.7070280  27.1344500  36.3597790  82.4682160  26.2161680
  36.2756110  81.8754820  27.6066580  30.0951470  86.4098280  25.7039310
  30.6096140  86.3206290  26.5061740  29.2520550  86.7557980  25.9967220
  32.0705870  86.6953620  15.1323310  31.9107010  86.4056560  16.0305140
  31.9052580  85.9193750  14.5968540  24.5494250  86.4752150  16.9094930
  24.3736730  85.5587690  16.6962730  23.6949990  86.8339440  17.1492730
  31.7732000  84.2041180  13.6921310  31.0797160  84.2018470  13.0323590
  32.5154860  83.7800500  13.2615480  31.3381930  85.8303890  17.7669800
  31.7938880  85.0493270  18.0808420  31.6774450  86.5410710  18.3110980
  36.0858740  74.7602740  28.0994240  35.4703010  75.2682410  27.5709700
  35.7655160  73.8601070  28.0420180  19.0884480  81.6020350  24.9260540
  19.2515520  81.1325710  24.1079910  19.5536930  81.0943910  25.5909380
  23.8603250  70.7326110  19.9621110  23.4171400  71.5135650  19.6305630
  24.4188240  71.0556000  20.6692050  28.1473060  73.5994630  25.5656430
  27.6852430  73.8077650  26.3776370  27.7451170  72.7853980  25.2627100
  33.1477570  74.8203580  26.6953090  32.2971160  74.5209330  27.0162160
  32.9879360  75.0645590  25.7836910  30.2427280  76.3205330  28.7951880
  30.5680690  75.4869080  28.4554110  31.0307610  76.8433850  28.9430210
  26.9762070  70.3536810  14.8426940  26.3516250  70.3496680  15.5680250
  26.8892190  69.4867770  14.4462910  25.8979150  71.2773440  21.8210710
  26.1951480  72.1836270  21.7402730  26.4464710  70.7892220  21.2070280
  23.6517470  75.8559680  17.6902360  23.4258390  75.6396850  18.5948980
  22.8710000  76.2888140  17.3448330  30.8815230  75.8623050  16.2893010
  30.2824120  76.5858850  16.1056630  31.4294840  75.7999830  15.5069460
  26.0916680  76.7545260  28.3562630  25.9960280  75.8139990  28.2063030
  26.9348660  76.9760330  27.9610700  29.4880100  74.4986590  18.3196290
  29.8809670  74.8158790  17.5064980  29.8496950  73.6198470  18.4340810
  21.2227220  73.1658930  26.5096410  20.8290610  74.0134140  26.7169190
  20.5345620  72.5285300  26.7005050  27.7972270  73.2493900  29.5793150
  27.1070590  73.0566100  30.2139240  28.5404570  73.5328540  30.1117450
  18.5244270  71.0887390  20.5426490  18.2357320  71.6590250  21.2551470
  19.2690030  70.6091840  20.9057720  18.7114500  75.0307510  11.7529210
  18.6289170  75.9738270  11.8944200  18.3597560  74.8882420  10.8741560
  30.0735240  77.0892340  22.4147070  29.3416360  77.5979150  22.7637170
  29.6759580  76.2722320  22.1135850  26.5112630  73.7646540  20.8199560
  26.5148690  73.3236490  19.9704100  27.4063750  74.0863870  20.9271380
  22.3615010  73.6473030  19.7793770  22.0215060  74.1248260  20.5360820
  21.5992330  73.1938150  19.4194870  26.5732780  74.7658620  13.8106320
  26.6945600  74.7245100  14.7592140  26.1881290  75.6282770  13.6553050
  30.5361150  72.5426020  21.8270010  30.5533890  72.9934670  22.6711860
  30.2876730  71.6431660  22.0403450  25.5854280  77.0759760  13.2089620
  25.0171180  76.6278010  12.5825530  26.2943280  77.4352540  12.6754770
  33.9631900  69.9558200  27.6656390  34.2877670  69.2247860  28.1914370
  33.9988410  69.6371840  26.7637380  20.6623460  80.9771780  27.0856350
  20.2778250  80.3365450  27.6839310  20.9735650  81.6807900  27.6551080
  26.8120600  77.8248320  22.5664970  27.1790730  77.3506890  23.3126310
  26.6225660  78.6989890  22.9073310  19.6761090  72.5692010  18.6958440
  19.3908010  72.2047680  19.5337060  19.6139950  71.8372470  18.0821580
  24.6019970  76.8656960  24.8849180  24.2977040  77.7448940  25.1099540
  25.5566430  76.9256750  24.9206620  23.1301760  81.0717950  15.4816030
  22.3564020  80.5315570  15.3214750  23.8596390  80.5524560  15.1433790
  33.8889740  80.0683310  21.2742420  34.6088860  80.5638600  20.8838530
  33.6871560  79.3901200  20.6296290  29.3499680  71.4621270  15.4171810
  28.5364290  70.9634440  15.3417120  29.1561630  72.3019520  15.0008160
  29.2708540  80.1392370  27.1611420  29.2045850  79.2188040  26.9069010
  28.6413680  80.2367810  27.8756060  32.0648070  75.8340920  13.7133970
  32.9527690  76.1458150  13.5385310  32.0353160  74.9613170  13.3214550
  23.1739160  80.7398330  19.1194840  23.6917830  79.9366590  19.0651730
  22.7223180  80.6777470  19.9611670  28.0608660  82.0064610  14.3922140
  28.4024360  82.7506840  13.8965460  27.2321370  82.3195730  14.7546970
  20.6583700  77.7059700  26.0320540  20.2998640  78.3713550  26.6193880
  20.3638260  76.8743250  26.4033160  23.8596820  78.1643940  28.9160090
  23.5596960  78.3101120  28.0187910  24.6308060  77.6049230  28.8233480
  29.2025270  82.9612940  26.9115220  29.2169810  82.0293900  26.6934130
  28.4950370  83.0472700  27.5504990  34.3362340  77.1452760  13.1813830
  34.2526060  77.5766980  12.3310270  35.0556530  77.6051110  13.6140650
  35.4136480  79.6020280  26.2583800  34.6884670  80.1949060  26.0613190
  35.9411940  79.5943820  25.4597170  35.3649590  83.9995020  15.9095960
  34.7225750  83.3450640  16.1839680  34.9780250  84.4050110  15.1336630
  30.9436070  81.3280450  19.7567650  31.2959890  80.7308580  19.0969020
  30.0598400  81.0024680  19.9275900  27.0299350  82.0878140  17.1638060
  27.7170480  82.6347350  17.5445650  26.2431770  82.6318870  17.1987670
  19.1691750  77.7050960  12.6555140  20.0386600  77.9875760  12.9391060
  18.6782070  78.5186830  12.5403950  26.3326560  79.0924170  16.7763420
  26.7889340  79.9029420  17.0023610  25.9814770  78.7747310  17.6081910
  28.6359170  84.6030510  24.0055720  29.2801390  84.8089890  24.6829140
  28.9988610  83.8418910  23.5526570  22.2338340  69.4361820  17.2485940
  22.1052970  69.4279720  18.1970860  21.4100360  69.7744910  16.8976950
  29.9091250  82.6062860  22.7233170  30.5513480  81.9056020  22.8365340
  30.4340600  83.3861300  22.5430060  33.7546970  82.8911480  12.4472310
  33.5284550  82.1741920  13.0396950  33.3643170  82.6423920  11.6094060
  31.6828870  83.4057760  25.9269230  32.0185110  83.9924450  26.6047150
  30.7629210  83.2750470  26.1567020  19.5363000  86.9178340  13.2216770
  19.8960640  87.5167680  12.5674040  19.3955340  87.4638230  13.9951800
  19.2332270  71.1952940  26.7092640  18.5190790  71.3949860  27.3145250
  19.6527310  70.4192510  27.0807440  33.3363220  80.8083420  14.1086470
  33.0484920  81.2696110  14.8964350  34.1315390  80.3481190  14.3770690
  19.5204860  85.1833200  27.6959170  19.6295980  84.2427940  27.5554560
  18.8685420  85.4487950  27.0472900  27.5117450  83.4549090  29.0957290
  27.1914320  82.7358330  29.6402980  26.8375810  84.1304160  29.1693350
  25.5531620  84.3009540  14.0390440  25.5441720  85.0339230  13.4234950
  24.6329980  84.0541120  14.1317400  21.1538260  79.5224430  14.7837200
  20.5466210  80.2623330  14.7932500  21.6287610  79.6123790  13.9575400
  30.7271050  73.6875250  24.4594090  31.0951870  72.8670460  24.7873660
  29.8669250  73.7477140  24.8749740  34.0933080  72.6432190  15.2681650
  33.4646240  72.7477860  14.5539880  33.5985000  72.8628970  16.0575530
  28.5391220  84.3637780  12.7015630  28.6403200  84.1601770  11.7717610
  27.6392960  84.1096060  12.9063410  26.0617110  74.9218140  16.6839530
  25.3533260  75.3904480  17.1253140  26.3461590  74.2640150  17.3184720
  27.6873040  76.3414840  24.6832060  28.1858290  76.8160660  25.3483910
  27.8295990  75.4178360  24.8902090  30.0932540  71.6468800  18.1235320
  29.9700320  71.6654930  17.1744830  31.0417100  71.6947740  18.2433720
  27.1809330  86.8824100  17.3963300  27.4350830  86.8445490  16.4742670
  26.2321810  86.7557430  17.3891550  24.2652130  73.2303220  14.0590240
  25.1142660  73.6673370  13.9930430  23.8983400  73.5423480  14.8862300
  34.8939900  72.5582800  25.5260450  34.3913500  73.2988200  25.8654260
  35.7096560  72.9466800  25.2097240  33.1861910  77.8015980  18.9721810
  32.2452050  77.8166210  19.1469500  33.5005980  77.0151940  19.4182110
  23.1643550  79.4835580  12.5325770  23.9306820  79.3716940  13.0951200
  23.2418240  78.7873550  11.8802540  21.8590310  76.9160650  13.2158660
  21.9393900  75.9688160  13.3276060  22.7510060  77.2467530  13.3219320
  35.1887490  84.9724830  20.6476070  35.3134910  85.7956000  21.1199880
  36.0553050  84.7615560  20.3000220  22.6605020  87.0656040  20.3193200
  23.3967500  86.5171500  20.5901770  23.0445940  87.9312050  20.1799190
  19.5450500  83.1329610  16.1934710  18.6190280  83.3750750  16.1840120
  20.0106930  83.9603870  16.0719460  21.6663300  86.2502110  29.5078780
  22.4676030  86.5714160  29.9214180  21.1515120  85.8897690  30.2298690
  25.7707330  86.2386350  12.1418770  26.5635940  86.5275180  11.6900560
  25.2511680  85.8078520  11.4631250  30.5027930  82.3581980  29.4554190
  29.8966090  82.3813580  28.7149940  30.1982040  81.6265020  29.9921440
  31.9328300  86.0862270  28.0663600  32.8850050  86.0020290  28.0163840
  31.7856520  86.7503980  28.7397390  34.8237500  85.4656480  13.5655510
  34.5379010  85.0521620  12.7509690  34.6257050  86.3944190  13.4456030
  19.3861110  78.7375570  28.4514830  19.8900130  78.1582850  29.0231060
  18.6468530  79.0215800  28.9891200  26.2884730  81.4589760  12.0061120
  26.1835370  80.8442110  12.7322500  26.1208950  80.9355650  11.2224130
  26.4399050  80.1446560  27.9850350  25.6744720  80.7131560  27.9005020
  26.6215010  79.8522770  27.0918580  29.5287460  80.5209790  12.6103110
  28.9797560  80.9679090  13.2545850  30.1506720  80.0159040  13.1340780
  33.5822400  81.8751890  28.5425370  34.3231870  82.2127650  28.0392830
  32.8195080  82.0443950  27.9895140  21.4184190  76.8805160  29.3464900
  21.4589530  76.5819030  30.2550130  22.2729690  77.2812770  29.1872420
  25.1962580  79.4800710  14.5068410  25.6179000  79.3140580  15.3499800
  25.3213420  78.6700940  14.0123550  23.3590000  75.4597260  27.3139390
  22.8286460  74.9688210  26.6862730  24.0278070  75.8881460  26.7797320
  27.7090220  78.5038320  11.7545510  28.2295880  77.7887340  11.3886660
  28.3558620  79.1424190  12.0546020  32.2568060  79.9266720  27.0780580
  32.6709080  80.0811800  27.9271000  31.3219060  80.0521940  27.2406360
  32.7290230  77.2662880  29.0819730  33.3111000  76.5115200  28.9940210
  32.9052000  77.7970320  28.3051210  23.8462300  72.4259630  27.3936680
  23.7519170  71.8080380  26.6687550  23.2659690  73.1525920  27.1666590
  26.6123740  70.9832870  24.4264070  26.1641040  71.0057130  23.5809620
  25.9788940  70.5851890  25.0234370  27.0183290  79.8787200  25.0476510
  27.4371400  80.7219930  24.8752750  26.0991920  80.0159240  24.8183290
  29.3547190  77.6103380  26.4314350  29.4743400  77.0144520  27.1709190
  30.2141190  77.6473070  26.0115650  31.6935090  78.1640570  25.0076860
  31.1670310  78.6883190  24.4042000  32.0366430  78.7967960  25.6386590
  24.0921480  75.5533940  11.4526570  23.8910540  74.6901300  11.8139910
  23.9213530  75.4667300  10.5148170  24.8690710  86.1840210  26.1634240
  24.3311800  86.9086270  25.8442940  25.1224670  85.7070550  25.3731580
  26.1215960  74.1524730  27.6890170  26.7115650  73.8440580  28.3767990
  25.3036200  73.6804480  27.8450070  30.9409390  73.7690540  27.9223190
  30.2524910  73.1072080  27.8573180  31.6615410  73.3228810  28.3671650
  31.5709790  70.3642170  13.9813450  31.8512080  69.5210070  14.3372870
  30.7975520  70.5965280  14.4952200  22.8904280  72.6534560  11.4404450
  23.1930180  72.6601990  10.5323600  23.6298870  72.3032420  11.9372110
  27.7252920  87.4191420  26.4220890  27.6511620  88.3226560  26.7293260
  26.8231760  87.1003320  26.3942960  26.1089210  71.5969180  12.4260650
  25.7611210  70.9193170  11.8463100  26.3101980  71.1358690  13.2404040
  28.2738250  86.5849930  14.0447250  29.1689040  86.9234900  14.0666010
  28.3055880  85.8629340  13.4171530  21.9134410  81.9576980  12.2734250
  22.3509280  82.5006650  12.9291830  22.3982140  81.1323930  12.2830590
  19.1280210  84.7466010  19.7254510  19.4583220  83.8787070  19.4933150
  19.5571210  84.9524530  20.5559470  23.7242130  83.0775020  17.3856480
  23.4237670  82.9539990  18.2860390  23.6179620  82.2183610  16.9772210
  19.6170420  85.6136600  22.4636140  19.1801410  85.7937400  23.2960290
  20.1848100  86.3711220  22.3217860  35.2532600  85.1153600  26.7513450
  34.6534590  85.1746160  26.0077370  35.3826500  84.1758580  26.8810300
  36.4934050  82.8571420  12.0883160  35.6627010  82.9248070  12.5590390
  36.6705880  83.7475540  11.7850020  35.9490510  79.6018900  14.5917360
  36.7109420  80.1715550  14.6977050  35.9644880  79.0346100  15.3625670
  19.4494850  78.1256830  18.8225020  18.7943690  77.8568470  18.1784720
  20.2872800  78.0161310  18.3727000  36.9550480  80.4569000  19.4359290
  37.3259310  79.6736320  19.0295260  37.5952410  81.1458100  19.2576590
  33.9384240  81.8405580  24.8489610  33.1244080  82.2702740  25.1115400
  34.3458440  82.4523990  24.2358660  36.0009680  79.8953270  11.7489880
  36.2758520  80.8032150  11.6209100  35.8120420  79.8315800  12.6851870
  32.3985290  72.9198120  13.0443510  32.8170170  72.7329100  12.2040170
  32.0921350  72.0677170  13.3546440  35.8975020  77.8322260  16.7419310
  35.5218620  77.0650190  16.3100600  35.1678140  78.2144960  17.2294240
  20.4870780  78.5109400  23.3628360  20.8543820  78.4236800  24.2424380
  19.9181600  77.7475950  23.2635220  35.2874640  76.9793780  26.3758830
  35.0560730  76.7506530  25.4756780  35.5479190  77.8993330  26.3303720
  20.0386780  75.4218490  27.2686780  19.1442830  75.3885250  27.6080490
  20.5784330  75.6205280  28.0338030  33.7262710  72.2050210  29.1538530
  34.6032890  72.2133610  29.5372530  33.7383550  71.4681050  28.5430880
  18.6632930  75.3355760  14.7650350  17.7597010  75.5985960  14.5902010
  19.1473550  75.6066930  13.9850310  35.1725980  76.0579750  20.0426550
  35.6963460  75.5642400  19.4116720  35.7585400  76.1930110  20.7874120
  35.3515700  76.1419620  23.5646100  34.4018410  76.1083160  23.6791090
  35.5328710  77.0519730  23.3295870  21.2060140  74.3921300  12.6744730
  21.9151840  73.9704520  12.1892010  20.4900080  74.4596530  12.0428080
  20.8534300  70.4460630  11.7147380  21.5762430  70.9869570  12.0328600
  21.1258820  70.1724050  10.8388920  34.6625950  75.3153100  15.9818960
  35.1585070  75.0823970  16.7667840  34.4642020  74.4764940  15.5656600
  20.5426490  69.6966820  21.6170000  21.1902680  69.1464200  21.1765160
  20.9628330  69.9509970  22.4385810  36.0913110  73.9514050  18.5156640
  35.9812390  73.7970090  19.4538910  36.8520700  73.4234990  18.2732050
  36.9803380  71.7821970  11.7562780  37.9052690  71.6503150  11.5481070
  36.9579170  71.8614790  12.7099230  37.0541870  72.5532630  14.3819490
  36.2593370  72.4877750  14.9112400  37.2585150  73.4883270  14.3704840
  33.9960290  86.5924180  18.3757880  34.5919360  86.2708750  17.6992300
  34.2538440  86.1196000  19.1671150  20.2958490  69.8522490  24.3595320
  19.9473310  70.3086310  25.1253500  19.9646190  68.9579620  24.4417750
  21.9022860  83.0242090  28.5248510  21.8592490  82.6535000  29.4062970
  22.0333870  83.9619660  28.6650330  25.6028890  84.5801680  24.1258230
  25.3620250  84.8476240  23.2388750  26.5431530  84.7507410  24.1809090
  27.8083310  71.0434370  27.8814740  27.7472200  71.6356200  28.6310150
  28.7483690  70.9360330  27.7365000  30.4457870  70.7004430  27.5207030
  31.0598280  71.0183720  26.8588110  30.9907430  70.2153020  28.1402890
  36.8633050  86.5996060  24.9268870  36.3691330  86.9964930  24.2096000
  36.2546340  85.9745270  25.3206150  20.9679130  69.3798690  27.6346090
  21.5162120  69.1986740  26.8712200  21.0334440  68.5892800  28.1702400
  21.7410890  85.9704340  25.6446290  21.1471210  85.8389040  26.3836330
  21.7334730  85.1342480  25.1788390  31.1865910  69.2636570  23.8476320
  30.3125750  69.5971680  23.6449250  31.0776660  68.7909750  24.6728190
  32.0937890  71.4707440  25.2318040  31.7651250  70.6559200  24.8519770
  33.0420190  71.4277250  25.1083730  34.5472500  87.2419480  22.2055610
  34.0875470  87.9935290  21.8313630  33.9184960  86.5225950  22.1470410
  21.3723120  83.3362720  24.5954330  20.6457180  82.7168010  24.5280280
  21.4332270  83.7303330  23.7252410  24.9768220  85.5507720  21.3803740
  25.4933240  84.9395080  20.8552000  25.6265600  86.0536500  21.8714750
  27.7163720  86.4416210  22.2072720  28.0041530  86.1870510  21.3305730
  28.2286940  85.8893570  22.7978290  28.9340730  70.1806410  22.7869230
  28.1512520  70.6551910  23.0665990  28.6403660  69.2761240  22.6782410
  33.4861800  70.8829510  20.8318320  33.9269890  70.8274610  19.9839920
  33.2169390  71.7987520  20.9028500  35.3500370  70.5144750  18.8427140
  35.2888770  69.5705970  18.6958160  36.1292400  70.6224840  19.3880600
  19.6553120  86.6537110  17.8051090  19.4875160  86.0207790  18.5032980
  18.7887630  86.8596510  17.4545280  20.2781140  70.4853890  15.3082950
  21.0360500  70.5982770  14.7346980  19.8158310  71.3223090  15.2626380
  26.8194950  72.5993160  18.2985260  26.0069460  72.2250050  17.9581140
  27.3236590  71.8438240  18.6006450  31.3219930  69.2635610  19.5368330
  31.9249300  69.8355820  20.0116850  30.5812920  69.8275050  19.3142230
  34.4654530  69.6657170  14.8108610  34.6605160  70.5640620  15.0776040
  33.6784400  69.4344250  15.3041560  21.2615820  85.3470340  15.2501230
  20.7363440  85.7278370  14.5463190  21.1860400  85.9721110  15.9710940
  22.6506290  71.0117940  13.8484920  23.1799050  70.2247740  13.7192870
  23.2834610  71.6909130  14.0820450  24.8444130  70.7493080  16.9030310
  24.2146870  70.0480390  17.0700440  24.3049270  71.5097210  16.6863470
  27.7836080  87.3632310  29.5740920  28.7103390  87.1276580  29.6176880
  27.7686510  88.1904310  29.0926950  36.0181140  86.9057880  16.5715170
  36.1933330  86.2195620  15.9276090  35.3202710  87.4304930  16.1791840
  24.9699690  70.0277060  29.3382800  24.6883960  70.5310660  28.5743620
  25.3519390  69.2298810  28.9724930  23.8608790  87.2952720  14.1250480
  24.5927610  87.0112000  13.5774370  24.1202460  87.0566000  15.0149860
  23.0223580  83.4117450  14.1296810  22.3932460  83.8802550  14.6782640
  23.1371410  82.5666670  14.5643000  31.5715150  69.4430640  29.9163270
  31.4580600  69.7625250  30.8114790  32.3884890  69.8443150  29.6200550
  34.3513640  86.5902170  29.3981960  35.1438960  86.0951400  29.1907920
  34.6446790  87.2692310  30.0057570  28.6091340  79.2402130   2.1607280
  27.8333440  78.7602570   2.4505850  29.2604270  78.5607780   1.9863440
  22.6257170  79.5521940   3.0383040  21.7942050  79.2970650   3.4379550
  23.2338150  79.6232710   3.7740960  22.6058430  83.5862030   3.2341060
  22.9086470  82.6959770   3.0551280  23.3502020  84.1432250   3.0063310
  18.9982130  77.1129480   2.7065130  19.5698240  76.3451680   2.7068770
  18.9983670  77.4118240   1.7971740  28.0500330  81.9159320   2.1677440
  27.9808610  80.9749260   2.0066570  28.8120190  82.0060730   2.7400010
  20.2407000  72.5213840   4.4934060  20.0609840  71.6239590   4.7736820
  19.8387080  73.0685710   5.1681010  29.0805500  74.7229700   2.3946370
  29.4570320  73.8501580   2.2820040  28.9825010  75.0588400   1.5036810
  20.8593670  75.0174340   3.1016400  21.5403780  75.2812710   3.7203800
  20.5441720  74.1775210   3.4354410  25.0518240  76.0641700   2.1888990
  25.5596460  76.5622670   2.8294010  25.5831480  75.2876900   2.0128350
  37.1529170  74.2346890   5.8918340  36.4481340  74.6228600   5.3733450
  37.4187090  74.9297180   6.4939270  23.3354340  70.7040260   6.4552410
  23.3372780  71.2212650   5.6498310  22.5058650  70.2270440   6.4322340
  24.5857190  80.3435440   4.6325910  24.2526570  80.9704360   5.2746980
  24.7623870  80.8697320   3.8527580  33.0991100  74.1580520   2.1002250
  32.3946670  74.4465410   2.6805360  33.4603260  74.9680630   1.7401810
  23.0169670  72.4150220   4.4622860  23.3586480  73.2592270   4.1676730
  22.0785480  72.5633960   4.5788200  23.7976290  82.3116240   6.4475090
  24.4150290  82.9867320   6.1659540  22.9369410  82.7204220   6.3562590
  34.7153880  83.7755650   4.3629730  34.0317400  84.4454760   4.3546400
  35.2548170  83.9736300   3.5974590  36.1678020  73.6035310   2.4911460
  35.2202930  73.6374290   2.6226890  36.4928010  74.4174260   2.8760820
  32.2512620  85.6199780   3.0774910  32.2639780  85.2162070   2.2097170
  31.6987840  86.3947070   2.9736340  31.6498060  80.5229620   4.4057520
  32.0666850  80.3089730   3.5710980  32.3737880  80.7802410   4.9766140
  35.5960160  78.9216840   4.4973760  34.7678790  78.9909930   4.0223890
  36.1910640  79.5071150   4.0289590  32.5602170  75.7086160   5.4428630
  32.1473350  76.5339870   5.6968620  31.8278120  75.1231200   5.2504990
  25.1616660  82.1813620   2.4686510  24.8644950  81.5759090   1.7894290
  26.1116480  82.2190930   2.3575870  23.4063580  75.2689270   4.0846340
  23.9578170  75.3784610   3.3099590  23.9207090  75.6426870   4.8001570
  33.2502270  85.7545490   6.1309610  32.7732830  86.5617680   5.9382220
  32.5664060  85.1023820   6.2835820  24.2535090  81.9195310   9.1194310
  23.3563620  82.1435280   9.3667710  24.2787960  82.0430250   8.1705710
  23.0806310  78.7908630   7.6951680  22.9414080  79.6631430   8.0639080
  22.1987670  78.4481440   7.5499620  24.8786660  84.7330330   9.9036830
  24.8502090  85.1373280   9.0365260  24.7151630  83.8040690   9.7408430
  36.8301480  85.5157430  11.2001000  37.3061200  85.9940320  11.8790080
  37.4508640  85.4474920  10.4746500  19.0324960  80.5606180   3.6122590
  19.1105380  80.6954950   2.6678310  19.6466640  79.8522070   3.8050710
  36.2334730  82.7070280   8.3601010  36.3597790  82.4682160   7.4418190
  36.2756110  81.8754820   8.8323090  30.0951470  86.4098280   6.9295820
  30.6096140  86.3206290   7.7318250  29.2520550  86.7557980   7.2223730
  36.0858740  74.7602740   9.3250750  35.4703010  75.2682410   8.7966210
  35.7655160  73.8601070   9.2676690  19.0884480  81.6020350   6.1517050
  19.2515520  81.1325710   5.3336420  19.5536930  81.0943910   6.8165890
  28.1473060  73.5994630   6.7912940  27.6852430  73.8077650   7.6032880
  27.7451170  72.7853980   6.4883610  33.1477570  74.8203580   7.9209600
  32.2971160  74.5209330   8.2418670  32.9879360  75.0645590   7.0093420
  30.2427280  76.3205330  10.0208390  30.5680690  75.4869080   9.6810620
  31.0307610  76.8433850  10.1686720  25.8979150  71.2773440   3.0467220
  26.1951480  72.1836270   2.9659240  26.4464710  70.7892220   2.4326790
  26.0916680  76.7545260   9.5819140  25.9960280  75.8139990   9.4319540
  26.9348660  76.9760330   9.1867210  21.2227220  73.1658930   7.7352920
  20.8290610  74.0134140   7.9425700  20.5345620  72.5285300   7.9261560
  27.7972270  73.2493900  10.8049660  27.1070590  73.0566100  11.4395750
  28.5404570  73.5328540  11.3373960  18.5244270  71.0887390   1.7683000
  18.2357320  71.6590250   2.4807980  19.2690030  70.6091840   2.1314230
  30.0735240  77.0892340   3.6403580  29.3416360  77.5979150   3.9893680
  29.6759580  76.2722320   3.3392360  30.5361150  72.5426020   3.0526520
  30.5533890  72.9934670   3.8968370  30.2876730  71.6431660   3.2659960
  33.9631900  69.9558200   8.8912900  34.2877670  69.2247860   9.4170880
  33.9988410  69.6371840   7.9893890  20.6623460  80.9771780   8.3112860
  20.2778250  80.3365450   8.9095820  20.9735650  81.6807900   8.8807590
  26.8120600  77.8248320   3.7921480  27.1790730  77.3506890   4.5382820
  26.6225660  78.6989890   4.1329820  24.6019970  76.8656960   6.1105690
  24.2977040  77.7448940   6.3356050  25.5566430  76.9256750   6.1463130
  33.8889740  80.0683310   2.4998930  34.6088860  80.5638600   2.1095040
  33.6871560  79.3901200   1.8552800  29.2708540  80.1392370   8.3867930
  29.2045850  79.2188040   8.1325520  28.6413680  80.2367810   9.1012570
  20.6583700  77.7059700   7.2577050  20.2998640  78.3713550   7.8450390
  20.3638260  76.8743250   7.6289670  23.8596820  78.1643940  10.1416600
  23.5596960  78.3101120   9.2444420  24.6308060  77.6049230  10.0489990
  29.2025270  82.9612940   8.1371730  29.2169810  82.0293900   7.9190640
  28.4950370  83.0472700   8.7761500  35.4136480  79.6020280   7.4840310
  34.6884670  80.1949060   7.2869700  35.9411940  79.5943820   6.6853680
  28.6359170  84.6030510   5.2312230  29.2801390  84.8089890   5.9085650
  28.9988610  83.8418910   4.7783080  29.9091250  82.6062860   3.9489680
  30.5513480  81.9056020   4.0621850  30.4340600  83.3861300   3.7686570
  31.6828870  83.4057760   7.1525740  32.0185110  83.9924450   7.8303660
  30.7629210  83.2750470   7.3823530  19.2332270  71.1952940   7.9349150
  18.5190790  71.3949860   8.5401760  19.6527310  70.4192510   8.3063950
  19.5204860  85.1833200   8.9215680  19.6295980  84.2427940   8.7811070
  18.8685420  85.4487950   8.2729410  27.5117450  83.4549090  10.3213800
  27.1914320  82.7358330  10.8659490  26.8375810  84.1304160  10.3949860
  30.7271050  73.6875250   5.6850600  31.0951870  72.8670460   6.0130170
  29.8669250  73.7477140   6.1006250  27.6873040  76.3414840   5.9088570
  28.1858290  76.8160660   6.5740420  27.8295990  75.4178360   6.1158600
  34.8939900  72.5582800   6.7516960  34.3913500  73.2988200   7.0910770
  35.7096560  72.9466800   6.4353750  35.1887490  84.9724830   1.8732580
  35.3134910  85.7956000   2.3456390  36.0553050  84.7615560   1.5256730
  21.6663300  86.2502110  10.7335290  22.4676030  86.5714160  11.1470690
  21.1515120  85.8897690  11.4555200  30.5027930  82.3581980  10.6810700
  29.8966090  82.3813580   9.9406450  30.1982040  81.6265020  11.2177950
  31.9328300  86.0862270   9.2920110  32.8850050  86.0020290   9.2420350
  31.7856520  86.7503980   9.9653900  19.3861110  78.7375570   9.6771340
  19.8900130  78.1582850  10.2487570  18.6468530  79.0215800  10.2147710
  26.4399050  80.1446560   9.2106860  25.6744720  80.7131560   9.1261530
  26.6215010  79.8522770   8.3175090  33.5822400  81.8751890   9.7681880
  34.3231870  82.2127650   9.2649340  32.8195080  82.0443950   9.2151650
  21.4184190  76.8805160  10.5721410  21.4589530  76.5819030  11.4806640
  22.2729690  77.2812770  10.4128930  23.3590000  75.4597260   8.5395900
  22.8286460  74.9688210   7.9119240  24.0278070  75.8881460   8.0053830
  32.2568060  79.9266720   8.3037090  32.6709080  80.0811800   9.1527510
  31.3219060  80.0521940   8.4662870  32.7290230  77.2662880  10.3076240
  33.3111000  76.5115200  10.2196720  32.9052000  77.7970320   9.5307720
  23.8462300  72.4259630   8.6193190  23.7519170  71.8080380   7.8944060
  23.2659690  73.1525920   8.3923100  26.6123740  70.9832870   5.6520580
  26.1641040  71.0057130   4.8066130  25.9788940  70.5851890   6.2490880
  27.0183290  79.8787200   6.2733020  27.4371400  80.7219930   6.1009260
  26.0991920  80.0159240   6.0439800  29.3547190  77.6103380   7.6570860
  29.4743400  77.0144520   8.3965700  30.2141190  77.6473070   7.2372160
  31.6935090  78.1640570   6.2333370  31.1670310  78.6883190   5.6298510
  32.0366430  78.7967960   6.8643100  24.8690710  86.1840210   7.3890750
  24.3311800  86.9086270   7.0699450  25.1224670  85.7070550   6.5988090
  26.1215960  74.1524730   8.9146680  26.7115650  73.8440580   9.6024500
  25.3036200  73.6804480   9.0706580  30.9409390  73.7690540   9.1479700
  30.2524910  73.1072080   9.0829690  31.6615410  73.3228810   9.5928160
  27.7252920  87.4191420   7.6477400  27.6511620  88.3226560   7.9549770
  26.8231760  87.1003320   7.6199470  19.6170420  85.6136600   3.6892650
  19.1801410  85.7937400   4.5216800  20.1848100  86.3711220   3.5474370
  35.2532600  85.1153600   7.9769960  34.6534590  85.1746160   7.2333880
  35.3826500  84.1758580   8.1066810  33.9384240  81.8405580   6.0746120
  33.1244080  82.2702740   6.3371910  34.3458440  82.4523990   5.4615170
  20.4870780  78.5109400   4.5884870  20.8543820  78.4236800   5.4680890
  19.9181600  77.7475950   4.4891730  35.2874640  76.9793780   7.6015340
  35.0560730  76.7506530   6.7013290  35.5479190  77.8993330   7.5560230
  20.0386780  75.4218490   8.4943290  19.1442830  75.3885250   8.8337000
  20.5784330  75.6205280   9.2594540  33.7262710  72.2050210  10.3795040
  34.6032890  72.2133610  10.7629040  33.7383550  71.4681050   9.7687390
  35.3515700  76.1419620   4.7902610  34.4018410  76.1083160   4.9047600
  35.5328710  77.0519730   4.5552380  20.5426490  69.6966820   2.8426510
  21.1902680  69.1464200   2.4021670  20.9628330  69.9509970   3.6642320
  34.4378830  69.8908180   6.1996150  35.0751050  70.5042320   6.5655340
  34.5853720  69.9268840   5.2545380  20.2958490  69.8522490   5.5851830
  19.9473310  70.3086310   6.3510010  19.9646190  68.9579620   5.6674260
  21.9022860  83.0242090   9.7505020  21.8592490  82.6535000  10.6319480
  22.0333870  83.9619660   9.8906840  25.6028890  84.5801680   5.3514740
  25.3620250  84.8476240   4.4645260  26.5431530  84.7507410   5.4065600
  27.8083310  71.0434370   9.1071250  27.7472200  71.6356200   9.8566660
  28.7483690  70.9360330   8.9621510  30.4457870  70.7004430   8.7463540
  31.0598280  71.0183720   8.0844620  30.9907430  70.2153020   9.3659400
  36.8633050  86.5996060   6.1525380  36.3691330  86.9964930   5.4352510
  36.2546340  85.9745270   6.5462660  20.9679130  69.3798690   8.8602600
  21.5162120  69.1986740   8.0968710  21.0334440  68.5892800   9.3958910
  21.7410890  85.9704340   6.8702800  21.1471210  85.8389040   7.6092840
  21.7334730  85.1342480   6.4044900  31.1865910  69.2636570   5.0732830
  30.3125750  69.5971680   4.8705760  31.0776660  68.7909750   5.8984700
  32.0937890  71.4707440   6.4574550  31.7651250  70.6559200   6.0776280
  33.0420190  71.4277250   6.3340240  34.5472500  87.2419480   3.4312120
  34.0875470  87.9935290   3.0570140  33.9184960  86.5225950   3.3726920
  21.3723120  83.3362720   5.8210840  20.6457180  82.7168010   5.7536790
  21.4332270  83.7303330   4.9508920  24.9768220  85.5507720   2.6060250
  25.4933240  84.9395080   2.0808510  25.6265600  86.0536500   3.0971260
  27.7163720  86.4416210   3.4329230  28.0041530  86.1870510   2.5562240
  28.2286940  85.8893570   4.0234800  28.9340730  70.1806410   4.0125740
  28.1512520  70.6551910   4.2922500  28.6403660  69.2761240   3.9038920
  27.7836080  87.3632310  10.7997430  28.7103390  87.1276580  10.8433390
  27.7686510  88.1904310  10.3183460  24.9699690  70.0277060  10.5639310
  24.6883960  70.5310660   9.8000130  25.3519390  69.2298810  10.1981440
  31.5715150  69.4430640  11.1419780  31.4580600  69.7625250  12.0371300
  32.3884890  69.8443150  10.8457060  34.3513640  86.5902170  10.6238470
  35.1438960  86.0951400  10.4164430  34.6446790  87.2692310  11.2314080
  30.4773300  58.6879620  75.3771970  30.3967350  57.7734230  75.1063680
  30.0637720  59.1846690  74.6711680  32.6298770  64.8718830  76.0380370
  32.1680300  64.1006070  76.3667540  33.4424320  64.8984900  76.5432820
  21.0349120  55.7380340  71.9199390  20.1465820  56.0796310  71.8179270
  21.3190310  55.5380660  71.0280220  28.8562080  67.1576840  75.6584360
  28.2373520  67.6134340  75.0878800  29.7113860  67.3128300  75.2574060
  23.2110510  54.3211840  72.9537770  23.3177260  55.2215570  73.2606530
  22.3002870  54.2729810  72.6632420  32.8629620  53.4436650  74.4248670
  33.6839240  52.9533220  74.4674150  32.8963700  54.0334310  75.1780510
  29.7225430  62.0416080  73.0516270  29.1042700  62.5065530  72.4878990
  30.2348680  62.7343560  73.4685780  19.0908630  62.7272610  70.4255900
  18.7136610  63.2159710  69.6940800  19.3481700  63.3997890  71.0562430
  26.6997560  51.1289000  75.8841410  27.0072540  50.5735890  75.1676910
  25.7698260  51.2633460  75.7014400  33.5458040  63.5672510  73.2639040
  33.4354370  62.6246840  73.3888460  33.5426290  63.9288150  74.1501800
  29.0878320  59.1937830  72.6201530  28.1607600  59.1275210  72.8490000
  29.2403140  60.1317960  72.5056770  29.0747400  55.4654830  69.6168690
  28.1351070  55.6268790  69.7021150  29.3930660  56.1840510  69.0704680
  33.1175610  60.7558130  73.1236780  32.4988030  60.4177680  72.4763080
  33.1000060  60.1117890  73.8315970  24.6934960  59.7202570  75.4021260
  24.2891960  59.0079820  74.9067160  24.7798080  59.3755810  76.2909300
  31.2940310  59.9944940  70.1309530  31.7333590  59.1567370  69.9847350
  32.0068730  60.6274340  70.2173670  29.4035690  64.9341010  74.0990770
  29.8431600  65.6765340  73.6846160  29.3422580  65.1767580  75.0229730
  34.8757450  51.2487750  68.4450570  34.5630110  51.3414580  69.3449640
  35.6369920  51.8268780  68.3948000  21.3939590  58.6147550  72.9027910
  21.2737190  59.3409640  72.2909180  21.0840480  57.8450460  72.4255820
  20.2772590  63.4862880  75.1202730  19.8700670  63.6277470  74.2656330
  21.1685600  63.2023040  74.9173940  32.0705870  67.9210130  71.4553780
  31.9107010  67.6313070  72.3535610  31.9052580  67.1450260  70.9199010
  24.5494250  67.7008660  73.2325400  24.3736730  66.7844200  73.0193200
  23.6949990  68.0595950  73.4723200  31.7732000  65.4297690  70.0151780
  31.0797160  65.4274980  69.3554060  32.5154860  65.0057010  69.5845950
  31.3381930  67.0560400  74.0900270  31.7938880  66.2749780  74.4038890
  31.6774450  67.7667220  74.6341450  23.8603250  51.9582620  76.2851580
  23.4171400  52.7392160  75.9536100  24.4188240  52.2812510  76.9922520
  26.9762070  51.5793320  71.1657410  26.3516250  51.5753190  71.8910720
  26.8892190  50.7124280  70.7693380  23.6517470  57.0816190  74.0132830
  23.4258390  56.8653360  74.9179450  22.8710000  57.5144650  73.6678800
  30.8815230  57.0879560  72.6123480  30.2824120  57.8115360  72.4287100
  31.4294840  57.0256340  71.8299930  29.4880100  55.7243100  74.6426760
  29.8809670  56.0415300  73.8295450  29.8496950  54.8454980  74.7571280
  18.7114500  56.2564020  68.0759680  18.6289170  57.1994780  68.2174670
  18.3597560  56.1138930  67.1972030  26.5112630  54.9903050  77.1430030
  26.5148690  54.5493000  76.2934570  27.4063750  55.3120380  77.2501850
  22.3615010  54.8729540  76.1024240  22.0215060  55.3504770  76.8591290
  21.5992330  54.4194660  75.7425340  26.5732780  55.9915130  70.1336790
  26.6945600  55.9501610  71.0822610  26.1881290  56.8539280  69.9783520
  25.5854280  58.3016270  69.5320090  25.0171180  57.8534520  68.9056000
  26.2943280  58.6609050  68.9985240  19.6761090  53.7948520  75.0188910
  19.3908010  53.4304190  75.8567530  19.6139950  53.0628980  74.4052050
  23.1301760  62.2974460  71.8046500  22.3564020  61.7572080  71.6445220
  23.8596390  61.7781070  71.4664260  29.3499680  52.6877780  71.7402280
  28.5364290  52.1890950  71.6647590  29.1561630  53.5276030  71.3238630
  32.0648070  57.0597430  70.0364440  32.9527690  57.3714660  69.8615780
  32.0353160  56.1869680  69.6445020  23.1739160  61.9654840  75.4425310
  23.6917830  61.1623100  75.3882200  22.7223180  61.9033980  76.2842140
  28.0608660  63.2321120  70.7152610  28.4024360  63.9763350  70.2195930
  27.2321370  63.5452240  71.0777440  34.3362340  58.3709270  69.5044300
  34.2526060  58.8023490  68.6540740  35.0556530  58.8307620  69.9371120
  35.3649590  65.2251530  72.2326430  34.7225750  64.5707150  72.5070150
  34.9780250  65.6306620  71.4567100  30.9436070  62.5536960  76.0798120
  31.2959890  61.9565090  75.4199490  30.0598400  62.2281190  76.2506370
  27.0299350  63.3134650  73.4868530  27.7170480  63.8603860  73.8676120
  26.2431770  63.8575380  73.5218140  19.1691750  58.9307470  68.9785610
  20.0386600  59.2132270  69.2621530  18.6782070  59.7443340  68.8634420
  26.3326560  60.3180680  73.0993890  26.7889340  61.1285930  73.3254080
  25.9814770  60.0003820  73.9312380  22.2338340  50.6618330  73.5716410
  22.1052970  50.6536230  74.5201330  21.4100360  51.0001420  73.2207420
  33.7546970  64.1167990  68.7702780  33.5284550  63.3998430  69.3627420
  33.3643170  63.8680430  67.9324530  19.5363000  68.1434850  69.5447240
  19.8960640  68.7424190  68.8904510  19.3955340  68.6894740  70.3182270
  33.3363220  62.0339930  70.4316940  33.0484920  62.4952620  71.2194820
  34.1315390  61.5737700  70.7001160  25.5531620  65.5266050  70.3620910
  25.5441720  66.2595740  69.7465420  24.6329980  65.2797630  70.4547870
  21.1538260  60.7480940  71.1067670  20.5466210  61.4879840  71.1162970
  21.6287610  60.8380300  70.2805870  34.0933080  53.8688700  71.5912120
  33.4646240  53.9734370  70.8770350  33.5985000  54.0885480  72.3806000
  28.5391220  65.5894290  69.0246100  28.6403200  65.3858280  68.0948080
  27.6392960  65.3352570  69.2293880  26.0617110  56.1474650  73.0070000
  25.3533260  56.6160990  73.4483610  26.3461590  55.4896660  73.6415190
  30.0932540  52.8725310  74.4465790  29.9700320  52.8911440  73.4975300
  31.0417100  52.9204250  74.5664190  27.1809330  68.1080610  73.7193770
  27.4350830  68.0702000  72.7973140  26.2321810  67.9813940  73.7122020
  24.2652130  54.4559730  70.3820710  25.1142660  54.8929880  70.3160900
  23.8983400  54.7679990  71.2092770  33.1861910  59.0272490  75.2952280
  32.2452050  59.0422720  75.4699970  33.5005980  58.2408450  75.7412580
  23.1643550  60.7092090  68.8556240  23.9306820  60.5973450  69.4181670
  23.2418240  60.0130060  68.2033010  21.8590310  58.1417160  69.5389130
  21.9393900  57.1944670  69.6506530  22.7510060  58.4724040  69.6449790
  22.6605020  68.2912550  76.6423670  23.3967500  67.7428010  76.9132240
  23.0445940  69.1568560  76.5029660  19.5450500  64.3586120  72.5165180
  18.6190280  64.6007260  72.5070590  20.0106930  65.1860380  72.3949930
  25.7707330  67.4642860  68.4649240  26.5635940  67.7531690  68.0131030
  25.2511680  67.0335030  67.7861720  34.8237500  66.6912990  69.8885980
  34.5379010  66.2778130  69.0740160  34.6257050  67.6200700  69.7686500
  26.2884730  62.6846270  68.3291590  26.1835370  62.0698620  69.0552970
  26.1208950  62.1612160  67.5454600  29.5287460  61.7466300  68.9333580
  28.9797560  62.1935600  69.5776320  30.1506720  61.2415550  69.4571250
  25.1962580  60.7057220  70.8298880  25.6179000  60.5397090  71.6730270
  25.3213420  59.8957450  70.3354020  27.7090220  59.7294830  68.0775980
  28.2295880  59.0143850  67.7117130  28.3558620  60.3680700  68.3776490
  24.0921480  56.7790450  67.7757040  23.8910540  55.9157810  68.1370380
  23.9213530  56.6923810  66.8378640  31.5709790  51.5898680  70.3043920
  31.8512080  50.7466580  70.6603340  30.7975520  51.8221790  70.8182670
  22.8904280  53.8791070  67.7634920  23.1930180  53.8858500  66.8554070
  23.6298870  53.5288930  68.2602580  26.1089210  52.8225690  68.7491120
  25.7611210  52.1449680  68.1693570  26.3101980  52.3615200  69.5634510
  28.2738250  67.8106440  70.3677720  29.1689040  68.1491410  70.3896480
  28.3055880  67.0885850  69.7402000  21.9134410  63.1833490  68.5964720
  22.3509280  63.7263160  69.2522300  22.3982140  62.3580440  68.6061060
  19.1280210  65.9722520  76.0484980  19.4583220  65.1043580  75.8163620
  19.5571210  66.1781040  76.8789940  23.7242130  64.3031530  73.7086950
  23.4237670  64.1796500  74.6090860  23.6179620  63.4440120  73.3002680
  36.4934050  64.0827930  68.4113630  35.6627010  64.1504580  68.8820860
  36.6705880  64.9732050  68.1080490  35.9490510  60.8275410  70.9147830
  36.7109420  61.3972060  71.0207520  35.9644880  60.2602610  71.6856140
  19.4494850  59.3513340  75.1455490  18.7943690  59.0824980  74.5015190
  20.2872800  59.2417820  74.6957470  36.9550480  61.6825510  75.7589760
  37.3259310  60.8992830  75.3525730  37.5952410  62.3714610  75.5807060
  36.0009680  61.1209780  68.0720350  36.2758520  62.0288660  67.9439570
  35.8120420  61.0572310  69.0082340  32.3985290  54.1454630  69.3673980
  32.8170170  53.9585610  68.5270640  32.0921350  53.2933680  69.6776910
  35.8975020  59.0578770  73.0649780  35.5218620  58.2906700  72.6331070
  35.1678140  59.4401470  73.5524710  18.6632930  56.5612270  71.0880820
  17.7597010  56.8242470  70.9132480  19.1473550  56.8323440  70.3080780
  35.1725980  57.2836260  76.3657020  35.6963460  56.7898910  75.7347190
  35.7585400  57.4186620  77.1104590  21.2060140  55.6177810  68.9975200
  21.9151840  55.1961030  68.5122480  20.4900080  55.6853040  68.3658550
  20.8534300  51.6717140  68.0377850  21.5762430  52.2126080  68.3559070
  21.1258820  51.3980560  67.1619390  34.6625950  56.5409610  72.3049430
  35.1585070  56.3080480  73.0898310  34.4642020  55.7021450  71.8887070
  36.0913110  55.1770560  74.8387110  35.9812390  55.0226600  75.7769380
  36.8520700  54.6491500  74.5962520  36.9803380  53.0078480  68.0793250
  37.9052690  52.8759660  67.8711540  36.9579170  53.0871300  69.0329700
  37.0541870  53.7789140  70.7049960  36.2593370  53.7134260  71.2342870
  37.2585150  54.7139780  70.6935310  33.9960290  67.8180690  74.6988350
  34.5919360  67.4965260  74.0222770  34.2538440  67.3452510  75.4901620
  33.4861800  52.1086020  77.1548790  33.9269890  52.0531120  76.3070390
  33.2169390  53.0244030  77.2258970  35.3500370  51.7401260  75.1657610
  35.2888770  50.7962480  75.0188630  36.1292400  51.8481350  75.7111070
  19.6553120  67.8793620  74.1281560  19.4875160  67.2464300  74.8263450
  18.7887630  68.0853020  73.7775750  20.2781140  51.7110400  71.6313420
  21.0360500  51.8239280  71.0577450  19.8158310  52.5479600  71.5856850
  26.8194950  53.8249670  74.6215730  26.0069460  53.4506560  74.2811610
  27.3236590  53.0694750  74.9236920  31.3219930  50.4892120  75.8598800
  31.9249300  51.0612330  76.3347320  30.5812920  51.0531560  75.6372700
  34.4654530  50.8913680  71.1339080  34.6605160  51.7897130  71.4006510
  33.6784400  50.6600760  71.6272030  21.2615820  66.5726850  71.5731700
  20.7363440  66.9534880  70.8693660  21.1860400  67.1977620  72.2941410
  22.6506290  52.2374450  70.1715390  23.1799050  51.4504250  70.0423340
  23.2834610  52.9165640  70.4050920  24.8444130  51.9749590  73.2260780
  24.2146870  51.2736900  73.3930910  24.3049270  52.7353720  73.0093940
  36.0181140  68.1314390  72.8945640  36.1933330  67.4452130  72.2506560
  35.3202710  68.6561440  72.5022310  23.8608790  68.5209230  70.4480950
  24.5927610  68.2368510  69.9004840  24.1202460  68.2822510  71.3380330
  23.0223580  64.6373960  70.4527280  22.3932460  65.1059060  71.0013110
  23.1371410  63.7923180  70.8873470  30.4773300  58.6879620  56.6028480
  30.3967350  57.7734230  56.3320190  30.0637720  59.1846690  55.8968190
  28.6091340  60.4658640  58.4837750  27.8333440  59.9859080  58.7736320
  29.2604270  59.7864290  58.3093910  22.6257170  60.7778450  59.3613510
  21.7942050  60.5227160  59.7610020  23.2338150  60.8489220  60.0971430
  32.6298770  64.8718830  57.2636880  32.1680300  64.1006070  57.5924050
  33.4424320  64.8984900  57.7689330  22.6058430  64.8118540  59.5571530
  22.9086470  63.9216280  59.3781750  23.3502020  65.3688760  59.3293780
  21.0349120  55.7380340  53.1455900  20.1465820  56.0796310  53.0435780
  21.3190310  55.5380660  52.2536730  18.9982130  58.3385990  59.0295600
  19.5698240  57.5708190  59.0299240  18.9983670  58.6374750  58.1202210
  28.8562080  67.1576840  56.8840870  28.2373520  67.6134340  56.3135310
  29.7113860  67.3128300  56.4830570  28.0500330  63.1415830  58.4907910
  27.9808610  62.2005770  58.3297040  28.8120190  63.2317240  59.0630480
  20.2407000  53.7470350  60.8164530  20.0609840  52.8496100  61.0967290
  19.8387080  54.2942220  61.4911480  29.0805500  55.9486210  58.7176840
  29.4570320  55.0758090  58.6050510  28.9825010  56.2844910  57.8267280
  23.2110510  54.3211840  54.1794280  23.3177260  55.2215570  54.4863040
  22.3002870  54.2729810  53.8888930  32.8629620  53.4436650  55.6505180
  33.6839240  52.9533220  55.6930660  32.8963700  54.0334310  56.4037020
  20.8593670  56.2430850  59.4246870  21.5403780  56.5069220  60.0434270
  20.5441720  55.4031720  59.7584880  25.0518240  57.2898210  58.5119460
  25.5596460  57.7879180  59.1524480  25.5831480  56.5133410  58.3358820
  37.1529170  55.4603400  62.2148810  36.4481340  55.8485110  61.6963920
  37.4187090  56.1553690  62.8169740  23.3354340  51.9296770  62.7782880
  23.3372780  52.4469160  61.9728780  22.5058650  51.4526950  62.7552810
  29.7225430  62.0416080  54.2772780  29.1042700  62.5065530  53.7135500
  30.2348680  62.7343560  54.6942290  24.5857190  61.5691950  60.9556380
  24.2526570  62.1960870  61.5977450  24.7623870  62.0953830  60.1758050
  33.0991100  55.3837030  58.4232720  32.3946670  55.6721920  59.0035830
  33.4603260  56.1937140  58.0632280  23.0169670  53.6406730  60.7853330
  23.3586480  54.4848780  60.4907200  22.0785480  53.7890470  60.9018670
  23.7976290  63.5372750  62.7705560  24.4150290  64.2123830  62.4890010
  22.9369410  63.9460730  62.6793060  19.0908630  62.7272610  51.6512410
  18.7136610  63.2159710  50.9197310  19.3481700  63.3997890  52.2818940
  34.7153880  65.0012160  60.6860200  34.0317400  65.6711270  60.6776870
  35.2548170  65.1992810  59.9205060  36.1678020  54.8291820  58.8141930
  35.2202930  54.8630800  58.9457360  36.4928010  55.6430770  59.1991290
  26.6997560  51.1289000  57.1097920  27.0072540  50.5735890  56.3933420
  25.7698260  51.2633460  56.9270910  32.2512620  66.8456290  59.4005380
  32.2639780  66.4418580  58.5327640  31.6987840  67.6203580  59.2966810
  33.5458040  63.5672510  54.4895550  33.4354370  62.6246840  54.6144970
  33.5426290  63.9288150  55.3758310  31.6498060  61.7486130  60.7287990
  32.0666850  61.5346240  59.8941450  32.3737880  62.0058920  61.2996610
  35.5960160  60.1473350  60.8204230  34.7678790  60.2166440  60.3454360
  36.1910640  60.7327660  60.3520060  33.1175610  60.7558130  54.3493290
  32.4988030  60.4177680  53.7019590  33.1000060  60.1117890  55.0572480
  32.5602170  56.9342670  61.7659100  32.1473350  57.7596380  62.0199090
  31.8278120  56.3487710  61.5735460  24.6934960  59.7202570  56.6277770
  24.2891960  59.0079820  56.1323670  24.7798080  59.3755810  57.5165810
  25.1616660  63.4070130  58.7916980  24.8644950  62.8015600  58.1124760
  26.1116480  63.4447440  58.6806340  23.4063580  56.4945780  60.4076810
  23.9578170  56.6041120  59.6330060  23.9207090  56.8683380  61.1232040
  33.2502270  66.9802000  62.4540080  32.7732830  67.7874190  62.2612690
  32.5664060  66.3280330  62.6066290  24.2535090  63.1451820  65.4424780
  23.3563620  63.3691790  65.6898180  24.2787960  63.2686760  64.4936180
  23.0806310  60.0165140  64.0182150  22.9414080  60.8887940  64.3869550
  22.1987670  59.6737950  63.8730090  29.4035690  64.9341010  55.3247280
  29.8431600  65.6765340  54.9102670  29.3422580  65.1767580  56.2486240
  24.8786660  65.9586840  66.2267300  24.8502090  66.3629790  65.3595730
  24.7151630  65.0297200  66.0638900  21.3939590  58.6147550  54.1284420
  21.2737190  59.3409640  53.5165690  21.0840480  57.8450460  53.6512330
  36.8301480  66.7413940  67.5231470  37.3061200  67.2196830  68.2020550
  37.4508640  66.6731430  66.7976970  19.0324960  61.7862690  59.9353060
  19.1105380  61.9211460  58.9908780  19.6466640  61.0778580  60.1281180
  20.2772590  63.4862880  56.3459240  19.8700670  63.6277470  55.4912840
  21.1685600  63.2023040  56.1430450  36.2334730  63.9326790  64.6831480
  36.3597790  63.6938670  63.7648660  36.2756110  63.1011330  65.1553560
  30.0951470  67.6354790  63.2526290  30.6096140  67.5462800  64.0548720
  29.2520550  67.9814490  63.5454200  32.0705870  67.9210130  52.6810290
  31.9107010  67.6313070  53.5792120  31.9052580  67.1450260  52.1455520
  24.5494250  67.7008660  54.4581910  24.3736730  66.7844200  54.2449710
  23.6949990  68.0595950  54.6979710  31.7732000  65.4297690  51.2408290
  31.0797160  65.4274980  50.5810570  32.5154860  65.0057010  50.8102460
  31.3381930  67.0560400  55.3156780  31.7938880  66.2749780  55.6295400
  31.6774450  67.7667220  55.8597960  36.0858740  55.9859250  65.6481220
  35.4703010  56.4938920  65.1196680  35.7655160  55.0857580  65.5907160
  19.0884480  62.8276860  62.4747520  19.2515520  62.3582220  61.6566890
  19.5536930  62.3200420  63.1396360  23.8603250  51.9582620  57.5108090
  23.4171400  52.7392160  57.1792610  24.4188240  52.2812510  58.2179030
  28.1473060  54.8251140  63.1143410  27.6852430  55.0334160  63.9263350
  27.7451170  54.0110490  62.8114080  33.1477570  56.0460090  64.2440070
  32.2971160  55.7465840  64.5649140  32.9879360  56.2902100  63.3323890
  30.2427280  57.5461840  66.3438860  30.5680690  56.7125590  66.0041090
  31.0307610  58.0690360  66.4917190  25.8979150  52.5029950  59.3697690
  26.1951480  53.4092780  59.2889710  26.4464710  52.0148730  58.7557260
  23.6517470  57.0816190  55.2389340  23.4258390  56.8653360  56.1435960
  22.8710000  57.5144650  54.8935310  26.0916680  57.9801770  65.9049610
  25.9960280  57.0396500  65.7550010  26.9348660  58.2016840  65.5097680
  29.4880100  55.7243100  55.8683270  29.8809670  56.0415300  55.0551960
  29.8496950  54.8454980  55.9827790  21.2227220  54.3915440  64.0583390
  20.8290610  55.2390650  64.2656170  20.5345620  53.7541810  64.2492030
  27.7972270  54.4750410  67.1280130  27.1070590  54.2822610  67.7626220
  28.5404570  54.7585050  67.6604430  18.5244270  52.3143900  58.0913470
  18.2357320  52.8846760  58.8038450  19.2690030  51.8348350  58.4544700
  18.7114500  56.2564020  49.3016190  18.6289170  57.1994780  49.4431180
  18.3597560  56.1138930  48.4228540  30.0735240  58.3148850  59.9634050
  29.3416360  58.8235660  60.3124150  29.6759580  57.4978830  59.6622830
  26.5112630  54.9903050  58.3686540  26.5148690  54.5493000  57.5191080
  27.4063750  55.3120380  58.4758360  22.3615010  54.8729540  57.3280750
  22.0215060  55.3504770  58.0847800  21.5992330  54.4194660  56.9681850
  30.5361150  53.7682530  59.3756990  30.5533890  54.2191180  60.2198840
  30.2876730  52.8688170  59.5890430  33.9631900  51.1814710  65.2143370
  34.2877670  50.4504370  65.7401350  33.9988410  50.8628350  64.3124360
  20.6623460  62.2028290  64.6343330  20.2778250  61.5621960  65.2326290
  20.9735650  62.9064410  65.2038060  26.8120600  59.0504830  60.1151950
  27.1790730  58.5763400  60.8613290  26.6225660  59.9246400  60.4560290
  19.6761090  53.7948520  56.2445420  19.3908010  53.4304190  57.0824040
  19.6139950  53.0628980  55.6308560  24.6019970  58.0913470  62.4336160
  24.2977040  58.9705450  62.6586520  25.5566430  58.1513260  62.4693600
  23.1301760  62.2974460  53.0303010  22.3564020  61.7572080  52.8701730
  23.8596390  61.7781070  52.6920770  33.8889740  61.2939820  58.8229400
  34.6088860  61.7895110  58.4325510  33.6871560  60.6157710  58.1783270
  29.2708540  61.3648880  64.7098400  29.2045850  60.4444550  64.4555990
  28.6413680  61.4624320  65.4243040  23.1739160  61.9654840  56.6681820
  23.6917830  61.1623100  56.6138710  22.7223180  61.9033980  57.5098650
  28.0608660  63.2321120  51.9409120  28.4024360  63.9763350  51.4452440
  27.2321370  63.5452240  52.3033950  20.6583700  58.9316210  63.5807520
  20.2998640  59.5970060  64.1680860  20.3638260  58.0999760  63.9520140
  23.8596820  59.3900450  66.4647070  23.5596960  59.5357630  65.5674890
  24.6308060  58.8305740  66.3720460  29.2025270  64.1869450  64.4602200
  29.2169810  63.2550410  64.2421110  28.4950370  64.2729210  65.0991970
  35.4136480  60.8276790  63.8070780  34.6884670  61.4205570  63.6100170
  35.9411940  60.8200330  63.0084150  35.3649590  65.2251530  53.4582940
  34.7225750  64.5707150  53.7326660  34.9780250  65.6306620  52.6823610
  30.9436070  62.5536960  57.3054630  31.2959890  61.9565090  56.6456000
  30.0598400  62.2281190  57.4762880  27.0299350  63.3134650  54.7125040
  27.7170480  63.8603860  55.0932630  26.2431770  63.8575380  54.7474650
  19.1691750  58.9307470  50.2042120  20.0386600  59.2132270  50.4878040
  18.6782070  59.7443340  50.0890930  26.3326560  60.3180680  54.3250400
  26.7889340  61.1285930  54.5510590  25.9814770  60.0003820  55.1568890
  28.6359170  65.8287020  61.5542700  29.2801390  66.0346400  62.2316120
  28.9988610  65.0675420  61.1013550  22.2338340  50.6618330  54.7972920
  22.1052970  50.6536230  55.7457840  21.4100360  51.0001420  54.4463930
  29.9091250  63.8319370  60.2720150  30.5513480  63.1312530  60.3852320
  30.4340600  64.6117810  60.0917040  31.6828870  64.6314270  63.4756210
  32.0185110  65.2180960  64.1534130  30.7629210  64.5006980  63.7054000
  19.5363000  68.1434850  50.7703750  19.8960640  68.7424190  50.1161020
  19.3955340  68.6894740  51.5438780  19.2332270  52.4209450  64.2579620
  18.5190790  52.6206370  64.8632230  19.6527310  51.6449020  64.6294420
  19.5204860  66.4089710  65.2446150  19.6295980  65.4684450  65.1041540
  18.8685420  66.6744460  64.5959880  27.5117450  64.6805600  66.6444270
  27.1914320  63.9614840  67.1889960  26.8375810  65.3560670  66.7180330
  25.5531620  65.5266050  51.5877420  25.5441720  66.2595740  50.9721930
  24.6329980  65.2797630  51.6804380  21.1538260  60.7480940  52.3324180
  20.5466210  61.4879840  52.3419480  21.6287610  60.8380300  51.5062380
  30.7271050  54.9131760  62.0081070  31.0951870  54.0926970  62.3360640
  29.8669250  54.9733650  62.4236720  28.5391220  65.5894290  50.2502610
  28.6403200  65.3858280  49.3204590  27.6392960  65.3352570  50.4550390
  26.0617110  56.1474650  54.2326510  25.3533260  56.6160990  54.6740120
  26.3461590  55.4896660  54.8671700  27.6873040  57.5671350  62.2319040
  28.1858290  58.0417170  62.8970890  27.8295990  56.6434870  62.4389070
  30.0932540  52.8725310  55.6722300  29.9700320  52.8911440  54.7231810
  31.0417100  52.9204250  55.7920700  27.1809330  68.1080610  54.9450280
  27.4350830  68.0702000  54.0229650  26.2321810  67.9813940  54.9378530
  34.8939900  53.7839310  63.0747430  34.3913500  54.5244710  63.4141240
  35.7096560  54.1723310  62.7584220  33.1861910  59.0272490  56.5208790
  32.2452050  59.0422720  56.6956480  33.5005980  58.2408450  56.9669090
  23.1643550  60.7092090  50.0812750  23.9306820  60.5973450  50.6438180
  23.2418240  60.0130060  49.4289520  21.8590310  58.1417160  50.7645640
  21.9393900  57.1944670  50.8763040  22.7510060  58.4724040  50.8706300
  35.1887490  66.1981340  58.1963050  35.3134910  67.0212510  58.6686860
  36.0553050  65.9872070  57.8487200  22.6605020  68.2912550  57.8680180
  23.3967500  67.7428010  58.1388750  23.0445940  69.1568560  57.7286170
  19.5450500  64.3586120  53.7421690  18.6190280  64.6007260  53.7327100
  20.0106930  65.1860380  53.6206440  21.6663300  67.4758620  67.0565760
  22.4676030  67.7970670  67.4701160  21.1515120  67.1154200  67.7785670
  25.7707330  67.4642860  49.6905750  26.5635940  67.7531690  49.2387540
  25.2511680  67.0335030  49.0118230  30.5027930  63.5838490  67.0041170
  29.8966090  63.6070090  66.2636920  30.1982040  62.8521530  67.5408420
  31.9328300  67.3118780  65.6150580  32.8850050  67.2276800  65.5650820
  31.7856520  67.9760490  66.2884370  19.3861110  59.9632080  66.0001810
  19.8900130  59.3839360  66.5718040  18.6468530  60.2472310  66.5378180
  26.2884730  62.6846270  49.5548100  26.1835370  62.0698620  50.2809480
  26.1208950  62.1612160  48.7711110  26.4399050  61.3703070  65.5337330
  25.6744720  61.9388070  65.4492000  26.6215010  61.0779280  64.6405560
  33.5822400  63.1008400  66.0912350  34.3231870  63.4384160  65.5879810
  32.8195080  63.2700460  65.5382120  21.4184190  58.1061670  66.8951880
  21.4589530  57.8075540  67.8037110  22.2729690  58.5069280  66.7359400
  25.1962580  60.7057220  52.0555390  25.6179000  60.5397090  52.8986780
  25.3213420  59.8957450  51.5610530  23.3590000  56.6853770  64.8626370
  22.8286460  56.1944720  64.2349710  24.0278070  57.1137970  64.3284300
  32.2568060  61.1523230  64.6267560  32.6709080  61.3068310  65.4757980
  31.3219060  61.2778450  64.7893340  32.7290230  58.4919390  66.6306710
  33.3111000  57.7371710  66.5427190  32.9052000  59.0226830  65.8538190
  23.8462300  53.6516140  64.9423660  23.7519170  53.0336890  64.2174530
  23.2659690  54.3782430  64.7153570  26.6123740  52.2089380  61.9751050
  26.1641040  52.2313640  61.1296600  25.9788940  51.8108400  62.5721350
  27.0183290  61.1043710  62.5963490  27.4371400  61.9476440  62.4239730
  26.0991920  61.2415750  62.3670270  29.3547190  58.8359890  63.9801330
  29.4743400  58.2401030  64.7196170  30.2141190  58.8729580  63.5602630
  31.6935090  59.3897080  62.5563840  31.1670310  59.9139700  61.9528980
  32.0366430  60.0224470  63.1873570  24.8690710  67.4096720  63.7121220
  24.3311800  68.1342780  63.3929920  25.1224670  66.9327060  62.9218560
  26.1215960  55.3781240  65.2377150  26.7115650  55.0697090  65.9254970
  25.3036200  54.9060990  65.3937050  30.9409390  54.9947050  65.4710170
  30.2524910  54.3328590  65.4060160  31.6615410  54.5485320  65.9158630
  27.7252920  68.6447930  63.9707870  27.6511620  69.5483070  64.2780240
  26.8231760  68.3259830  63.9429940  28.2738250  67.8106440  51.5934230
  29.1689040  68.1491410  51.6152990  28.3055880  67.0885850  50.9658510
  21.9134410  63.1833490  49.8221230  22.3509280  63.7263160  50.4778810
  22.3982140  62.3580440  49.8317570  19.1280210  65.9722520  57.2741490
  19.4583220  65.1043580  57.0420130  19.5571210  66.1781040  58.1046450
  23.7242130  64.3031530  54.9343460  23.4237670  64.1796500  55.8347370
  23.6179620  63.4440120  54.5259190  19.6170420  66.8393110  60.0123120
  19.1801410  67.0193910  60.8447270  20.1848100  67.5967730  59.8704840
  35.2532600  66.3410110  64.3000430  34.6534590  66.4002670  63.5564350
  35.3826500  65.4015090  64.4297280  19.4494850  59.3513340  56.3712000
  18.7943690  59.0824980  55.7271700  20.2872800  59.2417820  55.9213980
  36.9550480  61.6825510  56.9846270  37.3259310  60.8992830  56.5782240
  37.5952410  62.3714610  56.8063570  33.9384240  63.0662090  62.3976590
  33.1244080  63.4959250  62.6602380  34.3458440  63.6780500  61.7845640
  35.8975020  59.0578770  54.2906290  35.5218620  58.2906700  53.8587580
  35.1678140  59.4401470  54.7781220  20.4870780  59.7365910  60.9115340
  20.8543820  59.6493310  61.7911360  19.9181600  58.9732460  60.8122200
  35.2874640  58.2050290  63.9245810  35.0560730  57.9763040  63.0243760
  35.5479190  59.1249840  63.8790700  20.0386780  56.6475000  64.8173760
  19.1442830  56.6141760  65.1567470  20.5784330  56.8461790  65.5825010
  33.7262710  53.4306720  66.7025510  34.6032890  53.4390120  67.0859510
  33.7383550  52.6937560  66.0917860  18.6632930  56.5612270  52.3137330
  17.7597010  56.8242470  52.1388990  19.1473550  56.8323440  51.5337290
  35.1725980  57.2836260  57.5913530  35.6963460  56.7898910  56.9603700
  35.7585400  57.4186620  58.3361100  35.3515700  57.3676130  61.1133080
  34.4018410  57.3339670  61.2278070  35.5328710  58.2776240  60.8782850
  21.2060140  55.6177810  50.2231710  21.9151840  55.1961030  49.7378990
  20.4900080  55.6853040  49.5915060  20.8534300  51.6717140  49.2634360
  21.5762430  52.2126080  49.5815580  21.1258820  51.3980560  48.3875900
  34.6625950  56.5409610  53.5305940  35.1585070  56.3080480  54.3154820
  34.4642020  55.7021450  53.1143580  20.5426490  50.9223330  59.1656980
  21.1902680  50.3720710  58.7252140  20.9628330  51.1766480  59.9872790
  36.0913110  55.1770560  56.0643620  35.9812390  55.0226600  57.0025890
  36.8520700  54.6491500  55.8219030  34.4378830  51.1164690  62.5226620
  35.0751050  51.7298830  62.8885810  34.5853720  51.1525350  61.5775850
  33.9960290  67.8180690  55.9244860  34.5919360  67.4965260  55.2479280
  34.2538440  67.3452510  56.7158130  20.2958490  51.0779000  61.9082300
  19.9473310  51.5342820  62.6740480  19.9646190  50.1836130  61.9904730
  21.9022860  64.2498600  66.0735490  21.8592490  63.8791510  66.9549950
  22.0333870  65.1876170  66.2137310  25.6028890  65.8058190  61.6745210
  25.3620250  66.0732750  60.7875730  26.5431530  65.9763920  61.7296070
  27.8083310  52.2690880  65.4301720  27.7472200  52.8612710  66.1797130
  28.7483690  52.1616840  65.2851980  30.4457870  51.9260940  65.0694010
  31.0598280  52.2440230  64.4075090  30.9907430  51.4409530  65.6889870
  36.8633050  67.8252570  62.4755850  36.3691330  68.2221440  61.7582980
  36.2546340  67.2001780  62.8693130  20.9679130  50.6055200  65.1833070
  21.5162120  50.4243250  64.4199180  21.0334440  49.8149310  65.7189380
  21.7410890  67.1960850  63.1933270  21.1471210  67.0645550  63.9323310
  21.7334730  66.3598990  62.7275370  31.1865910  50.4893080  61.3963300
  30.3125750  50.8228190  61.1936230  31.0776660  50.0166260  62.2215170
  32.0937890  52.6963950  62.7805020  31.7651250  51.8815710  62.4006750
  33.0420190  52.6533760  62.6570710  34.5472500  68.4675990  59.7542590
  34.0875470  69.2191800  59.3800610  33.9184960  67.7482460  59.6957390
  21.3723120  64.5619230  62.1441310  20.6457180  63.9424520  62.0767260
  21.4332270  64.9559840  61.2739390  24.9768220  66.7764230  58.9290720
  25.4933240  66.1651590  58.4038980  25.6265600  67.2793010  59.4201730
  27.7163720  67.6672720  59.7559700  28.0041530  67.4127020  58.8792710
  28.2286940  67.1150080  60.3465270  28.9340730  51.4062920  60.3356210
  28.1512520  51.8808420  60.6152970  28.6403660  50.5017750  60.2269390
  33.4861800  52.1086020  58.3805300  33.9269890  52.0531120  57.5326900
  33.2169390  53.0244030  58.4515480  35.3500370  51.7401260  56.3914120
  35.2888770  50.7962480  56.2445140  36.1292400  51.8481350  56.9367580
  19.6553120  67.8793620  55.3538070  19.4875160  67.2464300  56.0519960
  18.7887630  68.0853020  55.0032260  20.2781140  51.7110400  52.8569930
  21.0360500  51.8239280  52.2833960  19.8158310  52.5479600  52.8113360
  26.8194950  53.8249670  55.8472240  26.0069460  53.4506560  55.5068120
  27.3236590  53.0694750  56.1493430  31.3219930  50.4892120  57.0855310
  31.9249300  51.0612330  57.5603830  30.5812920  51.0531560  56.8629210
  21.2615820  66.5726850  52.7988210  20.7363440  66.9534880  52.0950170
  21.1860400  67.1977620  53.5197920  22.6506290  52.2374450  51.3971900
  23.1799050  51.4504250  51.2679850  23.2834610  52.9165640  51.6307430
  24.8444130  51.9749590  54.4517290  24.2146870  51.2736900  54.6187420
  24.3049270  52.7353720  54.2350450  27.7836080  68.5888820  67.1227900
  28.7103390  68.3533090  67.1663860  27.7686510  69.4160820  66.6413930
  36.0181140  68.1314390  54.1202150  36.1933330  67.4452130  53.4763070
  35.3202710  68.6561440  53.7278820  24.9699690  51.2533570  66.8869780
  24.6883960  51.7567170  66.1230600  25.3519390  50.4555320  66.5211910
  23.8608790  68.5209230  51.6737460  24.5927610  68.2368510  51.1261350
  24.1202460  68.2822510  52.5636840  23.0223580  64.6373960  51.6783790
  22.3932460  65.1059060  52.2269620  23.1371410  63.7923180  52.1129980
  31.5715150  50.6687150  67.4650250  31.4580600  50.9881760  68.3601770
  32.3884890  51.0699660  67.1687530  34.3513640  67.8158680  66.9468940
  35.1438960  67.3207910  66.7394900  34.6446790  68.4948820  67.5544550
  32.6298770  64.8718830  38.4893390  32.1680300  64.1006070  38.8180560
  33.4424320  64.8984900  38.9945840  22.6058430  64.8118540  40.7828040
  22.9086470  63.9216280  40.6038260  23.3502020  65.3688760  40.5550290
  18.9982130  58.3385990  40.2552110  19.5698240  57.5708190  40.2555750
  18.9983670  58.6374750  39.3458720  28.8562080  67.1576840  38.1097380
  28.2373520  67.6134340  37.5391820  29.7113860  67.3128300  37.7087080
  28.0500330  63.1415830  39.7164420  27.9808610  62.2005770  39.5553550
  28.8120190  63.2317240  40.2886990  20.2407000  53.7470350  42.0421040
  20.0609840  52.8496100  42.3223800  19.8387080  54.2942220  42.7167990
  20.8593670  56.2430850  40.6503380  21.5403780  56.5069220  41.2690780
  20.5441720  55.4031720  40.9841390  24.5857190  61.5691950  42.1812890
  24.2526570  62.1960870  42.8233960  24.7623870  62.0953830  41.4014560
  23.7976290  63.5372750  43.9962070  24.4150290  64.2123830  43.7146520
  22.9369410  63.9460730  43.9049570  19.0908630  62.7272610  32.8768920
  18.7136610  63.2159710  32.1453820  19.3481700  63.3997890  33.5075450
  32.2512620  66.8456290  40.6261890  32.2639780  66.4418580  39.7584150
  31.6987840  67.6203580  40.5223320  25.1616660  63.4070130  40.0173490
  24.8644950  62.8015600  39.3381270  26.1116480  63.4447440  39.9062850
  24.2535090  63.1451820  46.6681290  23.3563620  63.3691790  46.9154690
  24.2787960  63.2686760  45.7192690  29.4035690  64.9341010  36.5503790
  29.8431600  65.6765340  36.1359180  29.3422580  65.1767580  37.4742750
  24.8786660  65.9586840  47.4523810  24.8502090  66.3629790  46.5852240
  24.7151630  65.0297200  47.2895410  19.0324960  61.7862690  41.1609570
  19.1105380  61.9211460  40.2165290  19.6466640  61.0778580  41.3537690
  20.2772590  63.4862880  37.5715750  19.8700670  63.6277470  36.7169350
  21.1685600  63.2023040  37.3686960  30.0951470  67.6354790  44.4782800
  30.6096140  67.5462800  45.2805230  29.2520550  67.9814490  44.7710710
  32.0705870  67.9210130  33.9066800  31.9107010  67.6313070  34.8048630
  31.9052580  67.1450260  33.3712030  24.5494250  67.7008660  35.6838420
  24.3736730  66.7844200  35.4706220  23.6949990  68.0595950  35.9236220
  31.7732000  65.4297690  32.4664800  31.0797160  65.4274980  31.8067080
  32.5154860  65.0057010  32.0358970  31.3381930  67.0560400  36.5413290
  31.7938880  66.2749780  36.8551910  31.6774450  67.7667220  37.0854470
  19.0884480  62.8276860  43.7004030  19.2515520  62.3582220  42.8823400
  19.5536930  62.3200420  44.3652870  21.2227220  54.3915440  45.2839900
  20.8290610  55.2390650  45.4912680  20.5345620  53.7541810  45.4748540
  18.5244270  52.3143900  39.3169980  18.2357320  52.8846760  40.0294960
  19.2690030  51.8348350  39.6801210  18.7114500  56.2564020  30.5272700
  18.6289170  57.1994780  30.6687690  18.3597560  56.1138930  29.6485050
  20.6623460  62.2028290  45.8599840  20.2778250  61.5621960  46.4582800
  20.9735650  62.9064410  46.4294570  19.6761090  53.7948520  37.4701930
  19.3908010  53.4304190  38.3080550  19.6139950  53.0628980  36.8565070
  23.1739160  61.9654840  37.8938330  23.6917830  61.1623100  37.8395220
  22.7223180  61.9033980  38.7355160  20.6583700  58.9316210  44.8064030
  20.2998640  59.5970060  45.3937370  20.3638260  58.0999760  45.1776650
  29.2025270  64.1869450  45.6858710  29.2169810  63.2550410  45.4677620
  28.4950370  64.2729210  46.3248480  27.0299350  63.3134650  35.9381550
  27.7170480  63.8603860  36.3189140  26.2431770  63.8575380  35.9731160
  19.1691750  58.9307470  31.4298630  20.0386600  59.2132270  31.7134550
  18.6782070  59.7443340  31.3147440  28.6359170  65.8287020  42.7799210
  29.2801390  66.0346400  43.4572630  28.9988610  65.0675420  42.3270060
  22.2338340  50.6618330  36.0229430  22.1052970  50.6536230  36.9714350
  21.4100360  51.0001420  35.6720440  29.9091250  63.8319370  41.4976660
  30.5513480  63.1312530  41.6108830  30.4340600  64.6117810  41.3173550
  31.6828870  64.6314270  44.7012720  32.0185110  65.2180960  45.3790640
  30.7629210  64.5006980  44.9310510  19.5363000  68.1434850  31.9960260
  19.8960640  68.7424190  31.3417530  19.3955340  68.6894740  32.7695290
  19.2332270  52.4209450  45.4836130  18.5190790  52.6206370  46.0888740
  19.6527310  51.6449020  45.8550930  19.5204860  66.4089710  46.4702660
  19.6295980  65.4684450  46.3298050  18.8685420  66.6744460  45.8216390
  27.5117450  64.6805600  47.8700780  27.1914320  63.9614840  48.4146470
  26.8375810  65.3560670  47.9436840  25.5531620  65.5266050  32.8133930
  25.5441720  66.2595740  32.1978440  24.6329980  65.2797630  32.9060890
  21.1538260  60.7480940  33.5580690  20.5466210  61.4879840  33.5675990
  21.6287610  60.8380300  32.7318890  28.5391220  65.5894290  31.4759120
  28.6403200  65.3858280  30.5461100  27.6392960  65.3352570  31.6806900
  27.1809330  68.1080610  36.1706790  27.4350830  68.0702000  35.2486160
  26.2321810  67.9813940  36.1635040  22.6605020  68.2912550  39.0936690
  23.3967500  67.7428010  39.3645260  23.0445940  69.1568560  38.9542680
  19.5450500  64.3586120  34.9678200  18.6190280  64.6007260  34.9583610
  20.0106930  65.1860380  34.8462950  21.6663300  67.4758620  48.2822270
  22.4676030  67.7970670  48.6957670  21.1515120  67.1154200  49.0042180
  25.7707330  67.4642860  30.9162260  26.5635940  67.7531690  30.4644050
  25.2511680  67.0335030  30.2374740  30.5027930  63.5838490  48.2297680
  29.8966090  63.6070090  47.4893430  30.1982040  62.8521530  48.7664930
  31.9328300  67.3118780  46.8407090  32.8850050  67.2276800  46.7907330
  31.7856520  67.9760490  47.5140880  19.3861110  59.9632080  47.2258320
  19.8900130  59.3839360  47.7974550  18.6468530  60.2472310  47.7634690
  26.4399050  61.3703070  46.7593840  25.6744720  61.9388070  46.6748510
  26.6215010  61.0779280  45.8662070  21.4184190  58.1061670  48.1208390
  21.4589530  57.8075540  49.0293620  22.2729690  58.5069280  47.9615910
  24.8690710  67.4096720  44.9377730  24.3311800  68.1342780  44.6186430
  25.1224670  66.9327060  44.1475070  27.7252920  68.6447930  45.1964380
  27.6511620  69.5483070  45.5036750  26.8231760  68.3259830  45.1686450
  28.2738250  67.8106440  32.8190740  29.1689040  68.1491410  32.8409500
  28.3055880  67.0885850  32.1915020  21.9134410  63.1833490  31.0477740
  22.3509280  63.7263160  31.7035320  22.3982140  62.3580440  31.0574080
  19.1280210  65.9722520  38.4998000  19.4583220  65.1043580  38.2676640
  19.5571210  66.1781040  39.3302960  23.7242130  64.3031530  36.1599970
  23.4237670  64.1796500  37.0603880  23.6179620  63.4440120  35.7515700
  19.6170420  66.8393110  41.2379630  19.1801410  67.0193910  42.0703780
  20.1848100  67.5967730  41.0961350  19.4494850  59.3513340  37.5968510
  18.7943690  59.0824980  36.9528210  20.2872800  59.2417820  37.1470490
  20.4870780  59.7365910  42.1371850  20.8543820  59.6493310  43.0167870
  19.9181600  58.9732460  42.0378710  20.0386780  56.6475000  46.0430270
  19.1442830  56.6141760  46.3823980  20.5784330  56.8461790  46.8081520
  18.6632930  56.5612270  33.5393840  17.7597010  56.8242470  33.3645500
  19.1473550  56.8323440  32.7593800  21.2060140  55.6177810  31.4488220
  21.9151840  55.1961030  30.9635500  20.4900080  55.6853040  30.8171570
  20.8534300  51.6717140  30.4890870  21.5762430  52.2126080  30.8072090
  21.1258820  51.3980560  29.6132410  20.5426490  50.9223330  40.3913490
  21.1902680  50.3720710  39.9508650  20.9628330  51.1766480  41.2129300
  20.2958490  51.0779000  43.1338810  19.9473310  51.5342820  43.8996990
  19.9646190  50.1836130  43.2161240  21.9022860  64.2498600  47.2992000
  21.8592490  63.8791510  48.1806460  22.0333870  65.1876170  47.4393820
  25.6028890  65.8058190  42.9001720  25.3620250  66.0732750  42.0132240
  26.5431530  65.9763920  42.9552580  20.9679130  50.6055200  46.4089580
  21.5162120  50.4243250  45.6455690  21.0334440  49.8149310  46.9445890
  21.7410890  67.1960850  44.4189780  21.1471210  67.0645550  45.1579820
  21.7334730  66.3598990  43.9531880  21.3723120  64.5619230  43.3697820
  20.6457180  63.9424520  43.3023770  21.4332270  64.9559840  42.4995900
  24.9768220  66.7764230  40.1547230  25.4933240  66.1651590  39.6295490
  25.6265600  67.2793010  40.6458240  27.7163720  67.6672720  40.9816210
  28.0041530  67.4127020  40.1049220  28.2286940  67.1150080  41.5721780
  19.6553120  67.8793620  36.5794580  19.4875160  67.2464300  37.2776470
  18.7887630  68.0853020  36.2288770  20.2781140  51.7110400  34.0826440
  21.0360500  51.8239280  33.5090470  19.8158310  52.5479600  34.0369870
  21.2615820  66.5726850  34.0244720  20.7363440  66.9534880  33.3206680
  21.1860400  67.1977620  34.7454430  22.6506290  52.2374450  32.6228410
  23.1799050  51.4504250  32.4936360  23.2834610  52.9165640  32.8563940
  27.7836080  68.5888820  48.3484410  28.7103390  68.3533090  48.3920370
  27.7686510  69.4160820  47.8670440  23.8608790  68.5209230  32.8993970
  24.5927610  68.2368510  32.3517860  24.1202460  68.2822510  33.7893350
  23.0223580  64.6373960  32.9040300  22.3932460  65.1059060  33.4526130
  23.1371410  63.7923180  33.3386490  30.4773300  58.6879620  19.0541500
  30.3967350  57.7734230  18.7833210  30.0637720  59.1846690  18.3481210
  28.6091340  60.4658640  20.9350770  27.8333440  59.9859080  21.2249340
  29.2604270  59.7864290  20.7606930  22.6257170  60.7778450  21.8126530
  21.7942050  60.5227160  22.2123040  23.2338150  60.8489220  22.5484450
  32.6298770  64.8718830  19.7149900  32.1680300  64.1006070  20.0437070
  33.4424320  64.8984900  20.2202350  22.6058430  64.8118540  22.0084550
  22.9086470  63.9216280  21.8294770  23.3502020  65.3688760  21.7806800
  21.0349120  55.7380340  15.5968920  20.1465820  56.0796310  15.4948800
  21.3190310  55.5380660  14.7049750  18.9982130  58.3385990  21.4808620
  19.5698240  57.5708190  21.4812260  18.9983670  58.6374750  20.5715230
  28.8562080  67.1576840  19.3353890  28.2373520  67.6134340  18.7648330
  29.7113860  67.3128300  18.9343590  28.0500330  63.1415830  20.9420930
  27.9808610  62.2005770  20.7810060  28.8120190  63.2317240  21.5143500
  20.2407000  53.7470350  23.2677550  20.0609840  52.8496100  23.5480310
  19.8387080  54.2942220  23.9424500  23.2110510  54.3211840  16.6307300
  23.3177260  55.2215570  16.9376060  22.3002870  54.2729810  16.3401950
  32.8629620  53.4436650  18.1018200  33.6839240  52.9533220  18.1443680
  32.8963700  54.0334310  18.8550040  20.8593670  56.2430850  21.8759890
  21.5403780  56.5069220  22.4947290  20.5441720  55.4031720  22.2097900
  25.0518240  57.2898210  20.9632480  25.5596460  57.7879180  21.6037500
  25.5831480  56.5133410  20.7871840  23.3354340  51.9296770  25.2295900
  23.3372780  52.4469160  24.4241800  22.5058650  51.4526950  25.2065830
  29.7225430  62.0416080  16.7285800  29.1042700  62.5065530  16.1648520
  30.2348680  62.7343560  17.1455310  33.0991100  55.3837030  20.8745740
  32.3946670  55.6721920  21.4548850  33.4603260  56.1937140  20.5145300
  23.0169670  53.6406730  23.2366350  23.3586480  54.4848780  22.9420220
  22.0785480  53.7890470  23.3531690  19.0908630  62.7272610  14.1025430
  18.7136610  63.2159710  13.3710330  19.3481700  63.3997890  14.7331960
  36.1678020  54.8291820  21.2654950  35.2202930  54.8630800  21.3970380
  36.4928010  55.6430770  21.6504310  26.6997560  51.1289000  19.5610940
  27.0072540  50.5735890  18.8446440  25.7698260  51.2633460  19.3783930
  32.2512620  66.8456290  21.8518400  32.2639780  66.4418580  20.9840660
  31.6987840  67.6203580  21.7479830  33.5458040  63.5672510  16.9408570
  33.4354370  62.6246840  17.0657990  33.5426290  63.9288150  17.8271330
  29.0878320  59.1937830  16.2971060  28.1607600  59.1275210  16.5259530
  29.2403140  60.1317960  16.1826300  29.0747400  55.4654830  13.2938220
  28.1351070  55.6268790  13.3790680  29.3930660  56.1840510  12.7474210
  33.1175610  60.7558130  16.8006310  32.4988030  60.4177680  16.1532610
  33.1000060  60.1117890  17.5085500  24.6934960  59.7202570  19.0790790
  24.2891960  59.0079820  18.5836690  24.7798080  59.3755810  19.9678830
  25.1616660  63.4070130  21.2430000  24.8644950  62.8015600  20.5637780
  26.1116480  63.4447440  21.1319360  24.2535090  63.1451820  27.8937800
  23.3563620  63.3691790  28.1411200  24.2787960  63.2686760  26.9449200
  31.2940310  59.9944940  13.8079060  31.7333590  59.1567370  13.6616880
  32.0068730  60.6274340  13.8943200  29.4035690  64.9341010  17.7760300
  29.8431600  65.6765340  17.3615690  29.3422580  65.1767580  18.6999260
  24.8786660  65.9586840  28.6780320  24.8502090  66.3629790  27.8108750
  24.7151630  65.0297200  28.5151920  34.8757450  51.2487750  12.1220100
  34.5630110  51.3414580  13.0219170  35.6369920  51.8268780  12.0717530
  21.3939590  58.6147550  16.5797440  21.2737190  59.3409640  15.9678710
  21.0840480  57.8450460  16.1025350  19.0324960  61.7862690  22.3866080
  19.1105380  61.9211460  21.4421800  19.6466640  61.0778580  22.5794200
  20.2772590  63.4862880  18.7972260  19.8700670  63.6277470  17.9425860
  21.1685600  63.2023040  18.5943470  30.0951470  67.6354790  25.7039310
  30.6096140  67.5462800  26.5061740  29.2520550  67.9814490  25.9967220
  32.0705870  67.9210130  15.1323310  31.9107010  67.6313070  16.0305140
  31.9052580  67.1450260  14.5968540  24.5494250  67.7008660  16.9094930
  24.3736730  66.7844200  16.6962730  23.6949990  68.0595950  17.1492730
  31.7732000  65.4297690  13.6921310  31.0797160  65.4274980  13.0323590
  32.5154860  65.0057010  13.2615480  31.3381930  67.0560400  17.7669800
  31.7938880  66.2749780  18.0808420  31.6774450  67.7667220  18.3110980
  19.0884480  62.8276860  24.9260540  19.2515520  62.3582220  24.1079910
  19.5536930  62.3200420  25.5909380  23.8603250  51.9582620  19.9621110
  23.4171400  52.7392160  19.6305630  24.4188240  52.2812510  20.6692050
  26.9762070  51.5793320  14.8426940  26.3516250  51.5753190  15.5680250
  26.8892190  50.7124280  14.4462910  25.8979150  52.5029950  21.8210710
  26.1951480  53.4092780  21.7402730  26.4464710  52.0148730  21.2070280
  23.6517470  57.0816190  17.6902360  23.4258390  56.8653360  18.5948980
  22.8710000  57.5144650  17.3448330  30.8815230  57.0879560  16.2893010
  30.2824120  57.8115360  16.1056630  31.4294840  57.0256340  15.5069460
  29.4880100  55.7243100  18.3196290  29.8809670  56.0415300  17.5064980
  29.8496950  54.8454980  18.4340810  21.2227220  54.3915440  26.5096410
  20.8290610  55.2390650  26.7169190  20.5345620  53.7541810  26.7005050
  18.5244270  52.3143900  20.5426490  18.2357320  52.8846760  21.2551470
  19.2690030  51.8348350  20.9057720  18.7114500  56.2564020  11.7529210
  18.6289170  57.1994780  11.8944200  18.3597560  56.1138930  10.8741560
  26.5112630  54.9903050  20.8199560  26.5148690  54.5493000  19.9704100
  27.4063750  55.3120380  20.9271380  22.3615010  54.8729540  19.7793770
  22.0215060  55.3504770  20.5360820  21.5992330  54.4194660  19.4194870
  26.5732780  55.9915130  13.8106320  26.6945600  55.9501610  14.7592140
  26.1881290  56.8539280  13.6553050  30.5361150  53.7682530  21.8270010
  30.5533890  54.2191180  22.6711860  30.2876730  52.8688170  22.0403450
  25.5854280  58.3016270  13.2089620  25.0171180  57.8534520  12.5825530
  26.2943280  58.6609050  12.6754770  20.6623460  62.2028290  27.0856350
  20.2778250  61.5621960  27.6839310  20.9735650  62.9064410  27.6551080
  19.6761090  53.7948520  18.6958440  19.3908010  53.4304190  19.5337060
  19.6139950  53.0628980  18.0821580  23.1301760  62.2974460  15.4816030
  22.3564020  61.7572080  15.3214750  23.8596390  61.7781070  15.1433790
  33.8889740  61.2939820  21.2742420  34.6088860  61.7895110  20.8838530
  33.6871560  60.6157710  20.6296290  29.3499680  52.6877780  15.4171810
  28.5364290  52.1890950  15.3417120  29.1561630  53.5276030  15.0008160
  32.0648070  57.0597430  13.7133970  32.9527690  57.3714660  13.5385310
  32.0353160  56.1869680  13.3214550  23.1739160  61.9654840  19.1194840
  23.6917830  61.1623100  19.0651730  22.7223180  61.9033980  19.9611670
  28.0608660  63.2321120  14.3922140  28.4024360  63.9763350  13.8965460
  27.2321370  63.5452240  14.7546970  34.3362340  58.3709270  13.1813830
  34.2526060  58.8023490  12.3310270  35.0556530  58.8307620  13.6140650
  35.3649590  65.2251530  15.9095960  34.7225750  64.5707150  16.1839680
  34.9780250  65.6306620  15.1336630  30.9436070  62.5536960  19.7567650
  31.2959890  61.9565090  19.0969020  30.0598400  62.2281190  19.9275900
  27.0299350  63.3134650  17.1638060  27.7170480  63.8603860  17.5445650
  26.2431770  63.8575380  17.1987670  19.1691750  58.9307470  12.6555140
  20.0386600  59.2132270  12.9391060  18.6782070  59.7443340  12.5403950
  26.3326560  60.3180680  16.7763420  26.7889340  61.1285930  17.0023610
  25.9814770  60.0003820  17.6081910  28.6359170  65.8287020  24.0055720
  29.2801390  66.0346400  24.6829140  28.9988610  65.0675420  23.5526570
  22.2338340  50.6618330  17.2485940  22.1052970  50.6536230  18.1970860
  21.4100360  51.0001420  16.8976950  29.9091250  63.8319370  22.7233170
  30.5513480  63.1312530  22.8365340  30.4340600  64.6117810  22.5430060
  33.7546970  64.1167990  12.4472310  33.5284550  63.3998430  13.0396950
  33.3643170  63.8680430  11.6094060  19.5363000  68.1434850  13.2216770
  19.8960640  68.7424190  12.5674040  19.3955340  68.6894740  13.9951800
  19.2332270  52.4209450  26.7092640  18.5190790  52.6206370  27.3145250
  19.6527310  51.6449020  27.0807440  33.3363220  62.0339930  14.1086470
  33.0484920  62.4952620  14.8964350  34.1315390  61.5737700  14.3770690
  19.5204860  66.4089710  27.6959170  19.6295980  65.4684450  27.5554560
  18.8685420  66.6744460  27.0472900  27.5117450  64.6805600  29.0957290
  27.1914320  63.9614840  29.6402980  26.8375810  65.3560670  29.1693350
  25.5531620  65.5266050  14.0390440  25.5441720  66.2595740  13.4234950
  24.6329980  65.2797630  14.1317400  21.1538260  60.7480940  14.7837200
  20.5466210  61.4879840  14.7932500  21.6287610  60.8380300  13.9575400
  34.0933080  53.8688700  15.2681650  33.4646240  53.9734370  14.5539880
  33.5985000  54.0885480  16.0575530  28.5391220  65.5894290  12.7015630
  28.6403200  65.3858280  11.7717610  27.6392960  65.3352570  12.9063410
  26.0617110  56.1474650  16.6839530  25.3533260  56.6160990  17.1253140
  26.3461590  55.4896660  17.3184720  30.0932540  52.8725310  18.1235320
  29.9700320  52.8911440  17.1744830  31.0417100  52.9204250  18.2433720
  27.1809330  68.1080610  17.3963300  27.4350830  68.0702000  16.4742670
  26.2321810  67.9813940  17.3891550  24.2652130  54.4559730  14.0590240
  25.1142660  54.8929880  13.9930430  23.8983400  54.7679990  14.8862300
  33.1861910  59.0272490  18.9721810  32.2452050  59.0422720  19.1469500
  33.5005980  58.2408450  19.4182110  23.1643550  60.7092090  12.5325770
  23.9306820  60.5973450  13.0951200  23.2418240  60.0130060  11.8802540
  21.8590310  58.1417160  13.2158660  21.9393900  57.1944670  13.3276060
  22.7510060  58.4724040  13.3219320  35.1887490  66.1981340  20.6476070
  35.3134910  67.0212510  21.1199880  36.0553050  65.9872070  20.3000220
  22.6605020  68.2912550  20.3193200  23.3967500  67.7428010  20.5901770
  23.0445940  69.1568560  20.1799190  19.5450500  64.3586120  16.1934710
  18.6190280  64.6007260  16.1840120  20.0106930  65.1860380  16.0719460
  21.6663300  67.4758620  29.5078780  22.4676030  67.7970670  29.9214180
  21.1515120  67.1154200  30.2298690  25.7707330  67.4642860  12.1418770
  26.5635940  67.7531690  11.6900560  25.2511680  67.0335030  11.4631250
  31.9328300  67.3118780  28.0663600  32.8850050  67.2276800  28.0163840
  31.7856520  67.9760490  28.7397390  34.8237500  66.6912990  13.5655510
  34.5379010  66.2778130  12.7509690  34.6257050  67.6200700  13.4456030
  19.3861110  59.9632080  28.4514830  19.8900130  59.3839360  29.0231060
  18.6468530  60.2472310  28.9891200  26.2884730  62.6846270  12.0061120
  26.1835370  62.0698620  12.7322500  26.1208950  62.1612160  11.2224130
  29.5287460  61.7466300  12.6103110  28.9797560  62.1935600  13.2545850
  30.1506720  61.2415550  13.1340780  25.1962580  60.7057220  14.5068410
  25.6179000  60.5397090  15.3499800  25.3213420  59.8957450  14.0123550
  27.7090220  59.7294830  11.7545510  28.2295880  59.0143850  11.3886660
  28.3558620  60.3680700  12.0546020  24.0921480  56.7790450  11.4526570
  23.8910540  55.9157810  11.8139910  23.9213530  56.6923810  10.5148170
  24.8690710  67.4096720  26.1634240  24.3311800  68.1342780  25.8442940
  25.1224670  66.9327060  25.3731580  31.5709790  51.5898680  13.9813450
  31.8512080  50.7466580  14.3372870  30.7975520  51.8221790  14.4952200
  22.8904280  53.8791070  11.4404450  23.1930180  53.8858500  10.5323600
  23.6298870  53.5288930  11.9372110  27.7252920  68.6447930  26.4220890
  27.6511620  69.5483070  26.7293260  26.8231760  68.3259830  26.3942960
  26.1089210  52.8225690  12.4260650  25.7611210  52.1449680  11.8463100
  26.3101980  52.3615200  13.2404040  28.2738250  67.8106440  14.0447250
  29.1689040  68.1491410  14.0666010  28.3055880  67.0885850  13.4171530
  21.9134410  63.1833490  12.2734250  22.3509280  63.7263160  12.9291830
  22.3982140  62.3580440  12.2830590  19.1280210  65.9722520  19.7254510
  19.4583220  65.1043580  19.4933150  19.5571210  66.1781040  20.5559470
  23.7242130  64.3031530  17.3856480  23.4237670  64.1796500  18.2860390
  23.6179620  63.4440120  16.9772210  19.6170420  66.8393110  22.4636140
  19.1801410  67.0193910  23.2960290  20.1848100  67.5967730  22.3217860
  36.4934050  64.0827930  12.0883160  35.6627010  64.1504580  12.5590390
  36.6705880  64.9732050  11.7850020  35.9490510  60.8275410  14.5917360
  36.7109420  61.3972060  14.6977050  35.9644880  60.2602610  15.3625670
  19.4494850  59.3513340  18.8225020  18.7943690  59.0824980  18.1784720
  20.2872800  59.2417820  18.3727000  36.9550480  61.6825510  19.4359290
  37.3259310  60.8992830  19.0295260  37.5952410  62.3714610  19.2576590
  36.0009680  61.1209780  11.7489880  36.2758520  62.0288660  11.6209100
  35.8120420  61.0572310  12.6851870  32.3985290  54.1454630  13.0443510
  32.8170170  53.9585610  12.2040170  32.0921350  53.2933680  13.3546440
  35.8975020  59.0578770  16.7419310  35.5218620  58.2906700  16.3100600
  35.1678140  59.4401470  17.2294240  20.4870780  59.7365910  23.3628360
  20.8543820  59.6493310  24.2424380  19.9181600  58.9732460  23.2635220
  20.0386780  56.6475000  27.2686780  19.1442830  56.6141760  27.6080490
  20.5784330  56.8461790  28.0338030  18.6632930  56.5612270  14.7650350
  17.7597010  56.8242470  14.5902010  19.1473550  56.8323440  13.9850310
  35.1725980  57.2836260  20.0426550  35.6963460  56.7898910  19.4116720
  35.7585400  57.4186620  20.7874120  21.2060140  55.6177810  12.6744730
  21.9151840  55.1961030  12.1892010  20.4900080  55.6853040  12.0428080
  20.8534300  51.6717140  11.7147380  21.5762430  52.2126080  12.0328600
  21.1258820  51.3980560  10.8388920  34.6625950  56.5409610  15.9818960
  35.1585070  56.3080480  16.7667840  34.4642020  55.7021450  15.5656600
  20.5426490  50.9223330  21.6170000  21.1902680  50.3720710  21.1765160
  20.9628330  51.1766480  22.4385810  36.0913110  55.1770560  18.5156640
  35.9812390  55.0226600  19.4538910  36.8520700  54.6491500  18.2732050
  36.9803380  53.0078480  11.7562780  37.9052690  52.8759660  11.5481070
  36.9579170  53.0871300  12.7099230  37.0541870  53.7789140  14.3819490
  36.2593370  53.7134260  14.9112400  37.2585150  54.7139780  14.3704840
  33.9960290  67.8180690  18.3757880  34.5919360  67.4965260  17.6992300
  34.2538440  67.3452510  19.1671150  20.2958490  51.0779000  24.3595320
  19.9473310  51.5342820  25.1253500  19.9646190  50.1836130  24.4417750
  21.9022860  64.2498600  28.5248510  21.8592490  63.8791510  29.4062970
  22.0333870  65.1876170  28.6650330  25.6028890  65.8058190  24.1258230
  25.3620250  66.0732750  23.2388750  26.5431530  65.9763920  24.1809090
  20.9679130  50.6055200  27.6346090  21.5162120  50.4243250  26.8712200
  21.0334440  49.8149310  28.1702400  21.7410890  67.1960850  25.6446290
  21.1471210  67.0645550  26.3836330  21.7334730  66.3598990  25.1788390
  34.5472500  68.4675990  22.2055610  34.0875470  69.2191800  21.8313630
  33.9184960  67.7482460  22.1470410  21.3723120  64.5619230  24.5954330
  20.6457180  63.9424520  24.5280280  21.4332270  64.9559840  23.7252410
  24.9768220  66.7764230  21.3803740  25.4933240  66.1651590  20.8552000
  25.6265600  67.2793010  21.8714750  27.7163720  67.6672720  22.2072720
  28.0041530  67.4127020  21.3305730  28.2286940  67.1150080  22.7978290
  33.4861800  52.1086020  20.8318320  33.9269890  52.0531120  19.9839920
  33.2169390  53.0244030  20.9028500  35.3500370  51.7401260  18.8427140
  35.2888770  50.7962480  18.6958160  36.1292400  51.8481350  19.3880600
  19.6553120  67.8793620  17.8051090  19.4875160  67.2464300  18.5032980
  18.7887630  68.0853020  17.4545280  20.2781140  51.7110400  15.3082950
  21.0360500  51.8239280  14.7346980  19.8158310  52.5479600  15.2626380
  26.8194950  53.8249670  18.2985260  26.0069460  53.4506560  17.9581140
  27.3236590  53.0694750  18.6006450  31.3219930  50.4892120  19.5368330
  31.9249300  51.0612330  20.0116850  30.5812920  51.0531560  19.3142230
  34.4654530  50.8913680  14.8108610  34.6605160  51.7897130  15.0776040
  33.6784400  50.6600760  15.3041560  21.2615820  66.5726850  15.2501230
  20.7363440  66.9534880  14.5463190  21.1860400  67.1977620  15.9710940
  22.6506290  52.2374450  13.8484920  23.1799050  51.4504250  13.7192870
  23.2834610  52.9165640  14.0820450  24.8444130  51.9749590  16.9030310
  24.2146870  51.2736900  17.0700440  24.3049270  52.7353720  16.6863470
  27.7836080  68.5888820  29.5740920  28.7103390  68.3533090  29.6176880
  27.7686510  69.4160820  29.0926950  36.0181140  68.1314390  16.5715170
  36.1933330  67.4452130  15.9276090  35.3202710  68.6561440  16.1791840
  23.8608790  68.5209230  14.1250480  24.5927610  68.2368510  13.5774370
  24.1202460  68.2822510  15.0149860  23.0223580  64.6373960  14.1296810
  22.3932460  65.1059060  14.6782640  23.1371410  63.7923180  14.5643000
  28.6091340  60.4658640   2.1607280  27.8333440  59.9859080   2.4505850
  29.2604270  59.7864290   1.9863440  22.6257170  60.7778450   3.0383040
  21.7942050  60.5227160   3.4379550  23.2338150  60.8489220   3.7740960
  22.6058430  64.8118540   3.2341060  22.9086470  63.9216280   3.0551280
  23.3502020  65.3688760   3.0063310  18.9982130  58.3385990   2.7065130
  19.5698240  57.5708190   2.7068770  18.9983670  58.6374750   1.7971740
  28.0500330  63.1415830   2.1677440  27.9808610  62.2005770   2.0066570
  28.8120190  63.2317240   2.7400010  20.2407000  53.7470350   4.4934060
  20.0609840  52.8496100   4.7736820  19.8387080  54.2942220   5.1681010
  29.0805500  55.9486210   2.3946370  29.4570320  55.0758090   2.2820040
  28.9825010  56.2844910   1.5036810  20.8593670  56.2430850   3.1016400
  21.5403780  56.5069220   3.7203800  20.5441720  55.4031720   3.4354410
  25.0518240  57.2898210   2.1888990  25.5596460  57.7879180   2.8294010
  25.5831480  56.5133410   2.0128350  37.1529170  55.4603400   5.8918340
  36.4481340  55.8485110   5.3733450  37.4187090  56.1553690   6.4939270
  23.3354340  51.9296770   6.4552410  23.3372780  52.4469160   5.6498310
  22.5058650  51.4526950   6.4322340  24.5857190  61.5691950   4.6325910
  24.2526570  62.1960870   5.2746980  24.7623870  62.0953830   3.8527580
  33.0991100  55.3837030   2.1002250  32.3946670  55.6721920   2.6805360
  33.4603260  56.1937140   1.7401810  23.0169670  53.6406730   4.4622860
  23.3586480  54.4848780   4.1676730  22.0785480  53.7890470   4.5788200
  23.7976290  63.5372750   6.4475090  24.4150290  64.2123830   6.1659540
  22.9369410  63.9460730   6.3562590  34.7153880  65.0012160   4.3629730
  34.0317400  65.6711270   4.3546400  35.2548170  65.1992810   3.5974590
  36.1678020  54.8291820   2.4911460  35.2202930  54.8630800   2.6226890
  36.4928010  55.6430770   2.8760820  32.2512620  66.8456290   3.0774910
  32.2639780  66.4418580   2.2097170  31.6987840  67.6203580   2.9736340
  31.6498060  61.7486130   4.4057520  32.0666850  61.5346240   3.5710980
  32.3737880  62.0058920   4.9766140  35.5960160  60.1473350   4.4973760
  34.7678790  60.2166440   4.0223890  36.1910640  60.7327660   4.0289590
  32.5602170  56.9342670   5.4428630  32.1473350  57.7596380   5.6968620
  31.8278120  56.3487710   5.2504990  25.1616660  63.4070130   2.4686510
  24.8644950  62.8015600   1.7894290  26.1116480  63.4447440   2.3575870
  23.4063580  56.4945780   4.0846340  23.9578170  56.6041120   3.3099590
  23.9207090  56.8683380   4.8001570  33.2502270  66.9802000   6.1309610
  32.7732830  67.7874190   5.9382220  32.5664060  66.3280330   6.2835820
  24.2535090  63.1451820   9.1194310  23.3563620  63.3691790   9.3667710
  24.2787960  63.2686760   8.1705710  23.0806310  60.0165140   7.6951680
  22.9414080  60.8887940   8.0639080  22.1987670  59.6737950   7.5499620
  24.8786660  65.9586840   9.9036830  24.8502090  66.3629790   9.0365260
  24.7151630  65.0297200   9.7408430  36.8301480  66.7413940  11.2001000
  37.3061200  67.2196830  11.8790080  37.4508640  66.6731430  10.4746500
  19.0324960  61.7862690   3.6122590  19.1105380  61.9211460   2.6678310
  19.6466640  61.0778580   3.8050710  36.2334730  63.9326790   8.3601010
  36.3597790  63.6938670   7.4418190  36.2756110  63.1011330   8.8323090
  30.0951470  67.6354790   6.9295820  30.6096140  67.5462800   7.7318250
  29.2520550  67.9814490   7.2223730  36.0858740  55.9859250   9.3250750
  35.4703010  56.4938920   8.7966210  35.7655160  55.0857580   9.2676690
  19.0884480  62.8276860   6.1517050  19.2515520  62.3582220   5.3336420
  19.5536930  62.3200420   6.8165890  28.1473060  54.8251140   6.7912940
  27.6852430  55.0334160   7.6032880  27.7451170  54.0110490   6.4883610
  33.1477570  56.0460090   7.9209600  32.2971160  55.7465840   8.2418670
  32.9879360  56.2902100   7.0093420  30.2427280  57.5461840  10.0208390
  30.5680690  56.7125590   9.6810620  31.0307610  58.0690360  10.1686720
  25.8979150  52.5029950   3.0467220  26.1951480  53.4092780   2.9659240
  26.4464710  52.0148730   2.4326790  26.0916680  57.9801770   9.5819140
  25.9960280  57.0396500   9.4319540  26.9348660  58.2016840   9.1867210
  21.2227220  54.3915440   7.7352920  20.8290610  55.2390650   7.9425700
  20.5345620  53.7541810   7.9261560  27.7972270  54.4750410  10.8049660
  27.1070590  54.2822610  11.4395750  28.5404570  54.7585050  11.3373960
  18.5244270  52.3143900   1.7683000  18.2357320  52.8846760   2.4807980
  19.2690030  51.8348350   2.1314230  30.0735240  58.3148850   3.6403580
  29.3416360  58.8235660   3.9893680  29.6759580  57.4978830   3.3392360
  30.5361150  53.7682530   3.0526520  30.5533890  54.2191180   3.8968370
  30.2876730  52.8688170   3.2659960  33.9631900  51.1814710   8.8912900
  34.2877670  50.4504370   9.4170880  33.9988410  50.8628350   7.9893890
  20.6623460  62.2028290   8.3112860  20.2778250  61.5621960   8.9095820
  20.9735650  62.9064410   8.8807590  26.8120600  59.0504830   3.7921480
  27.1790730  58.5763400   4.5382820  26.6225660  59.9246400   4.1329820
  24.6019970  58.0913470   6.1105690  24.2977040  58.9705450   6.3356050
  25.5566430  58.1513260   6.1463130  33.8889740  61.2939820   2.4998930
  34.6088860  61.7895110   2.1095040  33.6871560  60.6157710   1.8552800
  29.2708540  61.3648880   8.3867930  29.2045850  60.4444550   8.1325520
  28.6413680  61.4624320   9.1012570  20.6583700  58.9316210   7.2577050
  20.2998640  59.5970060   7.8450390  20.3638260  58.0999760   7.6289670
  23.8596820  59.3900450  10.1416600  23.5596960  59.5357630   9.2444420
  24.6308060  58.8305740  10.0489990  29.2025270  64.1869450   8.1371730
  29.2169810  63.2550410   7.9190640  28.4950370  64.2729210   8.7761500
  35.4136480  60.8276790   7.4840310  34.6884670  61.4205570   7.2869700
  35.9411940  60.8200330   6.6853680  28.6359170  65.8287020   5.2312230
  29.2801390  66.0346400   5.9085650  28.9988610  65.0675420   4.7783080
  29.9091250  63.8319370   3.9489680  30.5513480  63.1312530   4.0621850
  30.4340600  64.6117810   3.7686570  31.6828870  64.6314270   7.1525740
  32.0185110  65.2180960   7.8303660  30.7629210  64.5006980   7.3823530
  19.2332270  52.4209450   7.9349150  18.5190790  52.6206370   8.5401760
  19.6527310  51.6449020   8.3063950  19.5204860  66.4089710   8.9215680
  19.6295980  65.4684450   8.7811070  18.8685420  66.6744460   8.2729410
  27.5117450  64.6805600  10.3213800  27.1914320  63.9614840  10.8659490
  26.8375810  65.3560670  10.3949860  30.7271050  54.9131760   5.6850600
  31.0951870  54.0926970   6.0130170  29.8669250  54.9733650   6.1006250
  27.6873040  57.5671350   5.9088570  28.1858290  58.0417170   6.5740420
  27.8295990  56.6434870   6.1158600  34.8939900  53.7839310   6.7516960
  34.3913500  54.5244710   7.0910770  35.7096560  54.1723310   6.4353750
  35.1887490  66.1981340   1.8732580  35.3134910  67.0212510   2.3456390
  36.0553050  65.9872070   1.5256730  21.6663300  67.4758620  10.7335290
  22.4676030  67.7970670  11.1470690  21.1515120  67.1154200  11.4555200
  30.5027930  63.5838490  10.6810700  29.8966090  63.6070090   9.9406450
  30.1982040  62.8521530  11.2177950  31.9328300  67.3118780   9.2920110
  32.8850050  67.2276800   9.2420350  31.7856520  67.9760490   9.9653900
  19.3861110  59.9632080   9.6771340  19.8900130  59.3839360  10.2487570
  18.6468530  60.2472310  10.2147710  26.4399050  61.3703070   9.2106860
  25.6744720  61.9388070   9.1261530  26.6215010  61.0779280   8.3175090
  33.5822400  63.1008400   9.7681880  34.3231870  63.4384160   9.2649340
  32.8195080  63.2700460   9.2151650  21.4184190  58.1061670  10.5721410
  21.4589530  57.8075540  11.4806640  22.2729690  58.5069280  10.4128930
  23.3590000  56.6853770   8.5395900  22.8286460  56.1944720   7.9119240
  24.0278070  57.1137970   8.0053830  32.2568060  61.1523230   8.3037090
  32.6709080  61.3068310   9.1527510  31.3219060  61.2778450   8.4662870
  32.7290230  58.4919390  10.3076240  33.3111000  57.7371710  10.2196720
  32.9052000  59.0226830   9.5307720  23.8462300  53.6516140   8.6193190
  23.7519170  53.0336890   7.8944060  23.2659690  54.3782430   8.3923100
  26.6123740  52.2089380   5.6520580  26.1641040  52.2313640   4.8066130
  25.9788940  51.8108400   6.2490880  27.0183290  61.1043710   6.2733020
  27.4371400  61.9476440   6.1009260  26.0991920  61.2415750   6.0439800
  29.3547190  58.8359890   7.6570860  29.4743400  58.2401030   8.3965700
  30.2141190  58.8729580   7.2372160  31.6935090  59.3897080   6.2333370
  31.1670310  59.9139700   5.6298510  32.0366430  60.0224470   6.8643100
  24.8690710  67.4096720   7.3890750  24.3311800  68.1342780   7.0699450
  25.1224670  66.9327060   6.5988090  26.1215960  55.3781240   8.9146680
  26.7115650  55.0697090   9.6024500  25.3036200  54.9060990   9.0706580
  30.9409390  54.9947050   9.1479700  30.2524910  54.3328590   9.0829690
  31.6615410  54.5485320   9.5928160  27.7252920  68.6447930   7.6477400
  27.6511620  69.5483070   7.9549770  26.8231760  68.3259830   7.6199470
  19.6170420  66.8393110   3.6892650  19.1801410  67.0193910   4.5216800
  20.1848100  67.5967730   3.5474370  35.2532600  66.3410110   7.9769960
  34.6534590  66.4002670   7.2333880  35.3826500  65.4015090   8.1066810
  33.9384240  63.0662090   6.0746120  33.1244080  63.4959250   6.3371910
  34.3458440  63.6780500   5.4615170  20.4870780  59.7365910   4.5884870
  20.8543820  59.6493310   5.4680890  19.9181600  58.9732460   4.4891730
  35.2874640  58.2050290   7.6015340  35.0560730  57.9763040   6.7013290
  35.5479190  59.1249840   7.5560230  20.0386780  56.6475000   8.4943290
  19.1442830  56.6141760   8.8337000  20.5784330  56.8461790   9.2594540
  33.7262710  53.4306720  10.3795040  34.6032890  53.4390120  10.7629040
  33.7383550  52.6937560   9.7687390  35.3515700  57.3676130   4.7902610
  34.4018410  57.3339670   4.9047600  35.5328710  58.2776240   4.5552380
  20.5426490  50.9223330   2.8426510  21.1902680  50.3720710   2.4021670
  20.9628330  51.1766480   3.6642320  34.4378830  51.1164690   6.1996150
  35.0751050  51.7298830   6.5655340  34.5853720  51.1525350   5.2545380
  20.2958490  51.0779000   5.5851830  19.9473310  51.5342820   6.3510010
  19.9646190  50.1836130   5.6674260  21.9022860  64.2498600   9.7505020
  21.8592490  63.8791510  10.6319480  22.0333870  65.1876170   9.8906840
  25.6028890  65.8058190   5.3514740  25.3620250  66.0732750   4.4645260
  26.5431530  65.9763920   5.4065600  27.8083310  52.2690880   9.1071250
  27.7472200  52.8612710   9.8566660  28.7483690  52.1616840   8.9621510
  30.4457870  51.9260940   8.7463540  31.0598280  52.2440230   8.0844620
  30.9907430  51.4409530   9.3659400  36.8633050  67.8252570   6.1525380
  36.3691330  68.2221440   5.4352510  36.2546340  67.2001780   6.5462660
  20.9679130  50.6055200   8.8602600  21.5162120  50.4243250   8.0968710
  21.0334440  49.8149310   9.3958910  21.7410890  67.1960850   6.8702800
  21.1471210  67.0645550   7.6092840  21.7334730  66.3598990   6.4044900
  31.1865910  50.4893080   5.0732830  30.3125750  50.8228190   4.8705760
  31.0776660  50.0166260   5.8984700  32.0937890  52.6963950   6.4574550
  31.7651250  51.8815710   6.0776280  33.0420190  52.6533760   6.3340240
  34.5472500  68.4675990   3.4312120  34.0875470  69.2191800   3.0570140
  33.9184960  67.7482460   3.3726920  21.3723120  64.5619230   5.8210840
  20.6457180  63.9424520   5.7536790  21.4332270  64.9559840   4.9508920
  24.9768220  66.7764230   2.6060250  25.4933240  66.1651590   2.0808510
  25.6265600  67.2793010   3.0971260  27.7163720  67.6672720   3.4329230
  28.0041530  67.4127020   2.5562240  28.2286940  67.1150080   4.0234800
  28.9340730  51.4062920   4.0125740  28.1512520  51.8808420   4.2922500
  28.6403660  50.5017750   3.9038920  27.7836080  68.5888820  10.7997430
  28.7103390  68.3533090  10.8433390  27.7686510  69.4160820  10.3183460
  24.9699690  51.2533570  10.5639310  24.6883960  51.7567170   9.8000130
  25.3519390  50.4555320  10.1981440  31.5715150  50.6687150  11.1419780
  31.4580600  50.9881760  12.0371300  32.3884890  51.0699660  10.8457060
  34.3513640  67.8158680  10.6238470  35.1438960  67.3207910  10.4164430
  34.6446790  68.4948820  11.2314080  30.4773300  39.9136130  75.3771970
  30.3967350  38.9990740  75.1063680  30.0637720  40.4103200  74.6711680
  32.6298770  46.0975340  76.0380370  32.1680300  45.3262580  76.3667540
  33.4424320  46.1241410  76.5432820  21.0349120  36.9636850  71.9199390
  20.1465820  37.3052820  71.8179270  21.3190310  36.7637170  71.0280220
  28.8562080  48.3833350  75.6584360  28.2373520  48.8390850  75.0878800
  29.7113860  48.5384810  75.2574060  23.2110510  35.5468350  72.9537770
  23.3177260  36.4472080  73.2606530  22.3002870  35.4986320  72.6632420
  32.8629620  34.6693160  74.4248670  33.6839240  34.1789730  74.4674150
  32.8963700  35.2590820  75.1780510  29.7225430  43.2672590  73.0516270
  29.1042700  43.7322040  72.4878990  30.2348680  43.9600070  73.4685780
  19.0908630  43.9529120  70.4255900  18.7136610  44.4416220  69.6940800
  19.3481700  44.6254400  71.0562430  26.6997560  32.3545510  75.8841410
  27.0072540  31.7992400  75.1676910  25.7698260  32.4889970  75.7014400
  33.5458040  44.7929020  73.2639040  33.4354370  43.8503350  73.3888460
  33.5426290  45.1544660  74.1501800  29.0878320  40.4194340  72.6201530
  28.1607600  40.3531720  72.8490000  29.2403140  41.3574470  72.5056770
  29.0747400  36.6911340  69.6168690  28.1351070  36.8525300  69.7021150
  29.3930660  37.4097020  69.0704680  33.1175610  41.9814640  73.1236780
  32.4988030  41.6434190  72.4763080  33.1000060  41.3374400  73.8315970
  24.6934960  40.9459080  75.4021260  24.2891960  40.2336330  74.9067160
  24.7798080  40.6012320  76.2909300  31.2940310  41.2201450  70.1309530
  31.7333590  40.3823880  69.9847350  32.0068730  41.8530850  70.2173670
  29.4035690  46.1597520  74.0990770  29.8431600  46.9021850  73.6846160
  29.3422580  46.4024090  75.0229730  34.8757450  32.4744260  68.4450570
  34.5630110  32.5671090  69.3449640  35.6369920  33.0525290  68.3948000
  21.3939590  39.8404060  72.9027910  21.2737190  40.5666150  72.2909180
  21.0840480  39.0706970  72.4255820  20.2772590  44.7119390  75.1202730
  19.8700670  44.8533980  74.2656330  21.1685600  44.4279550  74.9173940
  32.0705870  49.1466640  71.4553780  31.9107010  48.8569580  72.3535610
  31.9052580  48.3706770  70.9199010  24.5494250  48.9265170  73.2325400
  24.3736730  48.0100710  73.0193200  23.6949990  49.2852460  73.4723200
  31.7732000  46.6554200  70.0151780  31.0797160  46.6531490  69.3554060
  32.5154860  46.2313520  69.5845950  31.3381930  48.2816910  74.0900270
  31.7938880  47.5006290  74.4038890  31.6774450  48.9923730  74.6341450
  23.8603250  33.1839130  76.2851580  23.4171400  33.9648670  75.9536100
  24.4188240  33.5069020  76.9922520  26.9762070  32.8049830  71.1657410
  26.3516250  32.8009700  71.8910720  26.8892190  31.9380790  70.7693380
  23.6517470  38.3072700  74.0132830  23.4258390  38.0909870  74.9179450
  22.8710000  38.7401160  73.6678800  30.8815230  38.3136070  72.6123480
  30.2824120  39.0371870  72.4287100  31.4294840  38.2512850  71.8299930
  29.4880100  36.9499610  74.6426760  29.8809670  37.2671810  73.8295450
  29.8496950  36.0711490  74.7571280  18.7114500  37.4820530  68.0759680
  18.6289170  38.4251290  68.2174670  18.3597560  37.3395440  67.1972030
  26.5112630  36.2159560  77.1430030  26.5148690  35.7749510  76.2934570
  27.4063750  36.5376890  77.2501850  22.3615010  36.0986050  76.1024240
  22.0215060  36.5761280  76.8591290  21.5992330  35.6451170  75.7425340
  26.5732780  37.2171640  70.1336790  26.6945600  37.1758120  71.0822610
  26.1881290  38.0795790  69.9783520  25.5854280  39.5272780  69.5320090
  25.0171180  39.0791030  68.9056000  26.2943280  39.8865560  68.9985240
  19.6761090  35.0205030  75.0188910  19.3908010  34.6560700  75.8567530
  19.6139950  34.2885490  74.4052050  23.1301760  43.5230970  71.8046500
  22.3564020  42.9828590  71.6445220  23.8596390  43.0037580  71.4664260
  29.3499680  33.9134290  71.7402280  28.5364290  33.4147460  71.6647590
  29.1561630  34.7532540  71.3238630  32.0648070  38.2853940  70.0364440
  32.9527690  38.5971170  69.8615780  32.0353160  37.4126190  69.6445020
  23.1739160  43.1911350  75.4425310  23.6917830  42.3879610  75.3882200
  22.7223180  43.1290490  76.2842140  28.0608660  44.4577630  70.7152610
  28.4024360  45.2019860  70.2195930  27.2321370  44.7708750  71.0777440
  34.3362340  39.5965780  69.5044300  34.2526060  40.0280000  68.6540740
  35.0556530  40.0564130  69.9371120  35.3649590  46.4508040  72.2326430
  34.7225750  45.7963660  72.5070150  34.9780250  46.8563130  71.4567100
  30.9436070  43.7793470  76.0798120  31.2959890  43.1821600  75.4199490
  30.0598400  43.4537700  76.2506370  27.0299350  44.5391160  73.4868530
  27.7170480  45.0860370  73.8676120  26.2431770  45.0831890  73.5218140
  19.1691750  40.1563980  68.9785610  20.0386600  40.4388780  69.2621530
  18.6782070  40.9699850  68.8634420  26.3326560  41.5437190  73.0993890
  26.7889340  42.3542440  73.3254080  25.9814770  41.2260330  73.9312380
  22.2338340  31.8874840  73.5716410  22.1052970  31.8792740  74.5201330
  21.4100360  32.2257930  73.2207420  33.7546970  45.3424500  68.7702780
  33.5284550  44.6254940  69.3627420  33.3643170  45.0936940  67.9324530
  19.5363000  49.3691360  69.5447240  19.8960640  49.9680700  68.8904510
  19.3955340  49.9151250  70.3182270  33.3363220  43.2596440  70.4316940
  33.0484920  43.7209130  71.2194820  34.1315390  42.7994210  70.7001160
  25.5531620  46.7522560  70.3620910  25.5441720  47.4852250  69.7465420
  24.6329980  46.5054140  70.4547870  21.1538260  41.9737450  71.1067670
  20.5466210  42.7136350  71.1162970  21.6287610  42.0636810  70.2805870
  34.0933080  35.0945210  71.5912120  33.4646240  35.1990880  70.8770350
  33.5985000  35.3141990  72.3806000  28.5391220  46.8150800  69.0246100
  28.6403200  46.6114790  68.0948080  27.6392960  46.5609080  69.2293880
  26.0617110  37.3731160  73.0070000  25.3533260  37.8417500  73.4483610
  26.3461590  36.7153170  73.6415190  30.0932540  34.0981820  74.4465790
  29.9700320  34.1167950  73.4975300  31.0417100  34.1460760  74.5664190
  27.1809330  49.3337120  73.7193770  27.4350830  49.2958510  72.7973140
  26.2321810  49.2070450  73.7122020  24.2652130  35.6816240  70.3820710
  25.1142660  36.1186390  70.3160900  23.8983400  35.9936500  71.2092770
  33.1861910  40.2529000  75.2952280  32.2452050  40.2679230  75.4699970
  33.5005980  39.4664960  75.7412580  23.1643550  41.9348600  68.8556240
  23.9306820  41.8229960  69.4181670  23.2418240  41.2386570  68.2033010
  21.8590310  39.3673670  69.5389130  21.9393900  38.4201180  69.6506530
  22.7510060  39.6980550  69.6449790  22.6605020  49.5169060  76.6423670
  23.3967500  48.9684520  76.9132240  23.0445940  50.3825070  76.5029660
  19.5450500  45.5842630  72.5165180  18.6190280  45.8263770  72.5070590
  20.0106930  46.4116890  72.3949930  25.7707330  48.6899370  68.4649240
  26.5635940  48.9788200  68.0131030  25.2511680  48.2591540  67.7861720
  34.8237500  47.9169500  69.8885980  34.5379010  47.5034640  69.0740160
  34.6257050  48.8457210  69.7686500  26.2884730  43.9102780  68.3291590
  26.1835370  43.2955130  69.0552970  26.1208950  43.3868670  67.5454600
  29.5287460  42.9722810  68.9333580  28.9797560  43.4192110  69.5776320
  30.1506720  42.4672060  69.4571250  25.1962580  41.9313730  70.8298880
  25.6179000  41.7653600  71.6730270  25.3213420  41.1213960  70.3354020
  27.7090220  40.9551340  68.0775980  28.2295880  40.2400360  67.7117130
  28.3558620  41.5937210  68.3776490  24.0921480  38.0046960  67.7757040
  23.8910540  37.1414320  68.1370380  23.9213530  37.9180320  66.8378640
  31.5709790  32.8155190  70.3043920  31.8512080  31.9723090  70.6603340
  30.7975520  33.0478300  70.8182670  22.8904280  35.1047580  67.7634920
  23.1930180  35.1115010  66.8554070  23.6298870  34.7545440  68.2602580
  26.1089210  34.0482200  68.7491120  25.7611210  33.3706190  68.1693570
  26.3101980  33.5871710  69.5634510  28.2738250  49.0362950  70.3677720
  29.1689040  49.3747920  70.3896480  28.3055880  48.3142360  69.7402000
  21.9134410  44.4090000  68.5964720  22.3509280  44.9519670  69.2522300
  22.3982140  43.5836950  68.6061060  19.1280210  47.1979030  76.0484980
  19.4583220  46.3300090  75.8163620  19.5571210  47.4037550  76.8789940
  23.7242130  45.5288040  73.7086950  23.4237670  45.4053010  74.6090860
  23.6179620  44.6696630  73.3002680  36.4934050  45.3084440  68.4113630
  35.6627010  45.3761090  68.8820860  36.6705880  46.1988560  68.1080490
  35.9490510  42.0531920  70.9147830  36.7109420  42.6228570  71.0207520
  35.9644880  41.4859120  71.6856140  19.4494850  40.5769850  75.1455490
  18.7943690  40.3081490  74.5015190  20.2872800  40.4674330  74.6957470
  36.9550480  42.9082020  75.7589760  37.3259310  42.1249340  75.3525730
  37.5952410  43.5971120  75.5807060  36.0009680  42.3466290  68.0720350
  36.2758520  43.2545170  67.9439570  35.8120420  42.2828820  69.0082340
  32.3985290  35.3711140  69.3673980  32.8170170  35.1842120  68.5270640
  32.0921350  34.5190190  69.6776910  35.8975020  40.2835280  73.0649780
  35.5218620  39.5163210  72.6331070  35.1678140  40.6657980  73.5524710
  18.6632930  37.7868780  71.0880820  17.7597010  38.0498980  70.9132480
  19.1473550  38.0579950  70.3080780  35.1725980  38.5092770  76.3657020
  35.6963460  38.0155420  75.7347190  35.7585400  38.6443130  77.1104590
  21.2060140  36.8434320  68.9975200  21.9151840  36.4217540  68.5122480
  20.4900080  36.9109550  68.3658550  20.8534300  32.8973650  68.0377850
  21.5762430  33.4382590  68.3559070  21.1258820  32.6237070  67.1619390
  34.6625950  37.7666120  72.3049430  35.1585070  37.5336990  73.0898310
  34.4642020  36.9277960  71.8887070  36.0913110  36.4027070  74.8387110
  35.9812390  36.2483110  75.7769380  36.8520700  35.8748010  74.5962520
  36.9803380  34.2334990  68.0793250  37.9052690  34.1016170  67.8711540
  36.9579170  34.3127810  69.0329700  37.0541870  35.0045650  70.7049960
  36.2593370  34.9390770  71.2342870  37.2585150  35.9396290  70.6935310
  33.9960290  49.0437200  74.6988350  34.5919360  48.7221770  74.0222770
  34.2538440  48.5709020  75.4901620  33.4861800  33.3342530  77.1548790
  33.9269890  33.2787630  76.3070390  33.2169390  34.2500540  77.2258970
  35.3500370  32.9657770  75.1657610  35.2888770  32.0218990  75.0188630
  36.1292400  33.0737860  75.7111070  19.6553120  49.1050130  74.1281560
  19.4875160  48.4720810  74.8263450  18.7887630  49.3109530  73.7775750
  20.2781140  32.9366910  71.6313420  21.0360500  33.0495790  71.0577450
  19.8158310  33.7736110  71.5856850  26.8194950  35.0506180  74.6215730
  26.0069460  34.6763070  74.2811610  27.3236590  34.2951260  74.9236920
  31.3219930  31.7148630  75.8598800  31.9249300  32.2868840  76.3347320
  30.5812920  32.2788070  75.6372700  34.4654530  32.1170190  71.1339080
  34.6605160  33.0153640  71.4006510  33.6784400  31.8857270  71.6272030
  21.2615820  47.7983360  71.5731700  20.7363440  48.1791390  70.8693660
  21.1860400  48.4234130  72.2941410  22.6506290  33.4630960  70.1715390
  23.1799050  32.6760760  70.0423340  23.2834610  34.1422150  70.4050920
  24.8444130  33.2006100  73.2260780  24.2146870  32.4993410  73.3930910
  24.3049270  33.9610230  73.0093940  36.0181140  49.3570900  72.8945640
  36.1933330  48.6708640  72.2506560  35.3202710  49.8817950  72.5022310
  23.8608790  49.7465740  70.4480950  24.5927610  49.4625020  69.9004840
  24.1202460  49.5079020  71.3380330  23.0223580  45.8630470  70.4527280
  22.3932460  46.3315570  71.0013110  23.1371410  45.0179690  70.8873470
  30.4773300  39.9136130  56.6028480  30.3967350  38.9990740  56.3320190
  30.0637720  40.4103200  55.8968190  28.6091340  41.6915150  58.4837750
  27.8333440  41.2115590  58.7736320  29.2604270  41.0120800  58.3093910
  22.6257170  42.0034960  59.3613510  21.7942050  41.7483670  59.7610020
  23.2338150  42.0745730  60.0971430  32.6298770  46.0975340  57.2636880
  32.1680300  45.3262580  57.5924050  33.4424320  46.1241410  57.7689330
  22.6058430  46.0375050  59.5571530  22.9086470  45.1472790  59.3781750
  23.3502020  46.5945270  59.3293780  21.0349120  36.9636850  53.1455900
  20.1465820  37.3052820  53.0435780  21.3190310  36.7637170  52.2536730
  18.9982130  39.5642500  59.0295600  19.5698240  38.7964700  59.0299240
  18.9983670  39.8631260  58.1202210  28.8562080  48.3833350  56.8840870
  28.2373520  48.8390850  56.3135310  29.7113860  48.5384810  56.4830570
  28.0500330  44.3672340  58.4907910  27.9808610  43.4262280  58.3297040
  28.8120190  44.4573750  59.0630480  20.2407000  34.9726860  60.8164530
  20.0609840  34.0752610  61.0967290  19.8387080  35.5198730  61.4911480
  29.0805500  37.1742720  58.7176840  29.4570320  36.3014600  58.6050510
  28.9825010  37.5101420  57.8267280  23.2110510  35.5468350  54.1794280
  23.3177260  36.4472080  54.4863040  22.3002870  35.4986320  53.8888930
  32.8629620  34.6693160  55.6505180  33.6839240  34.1789730  55.6930660
  32.8963700  35.2590820  56.4037020  20.8593670  37.4687360  59.4246870
  21.5403780  37.7325730  60.0434270  20.5441720  36.6288230  59.7584880
  25.0518240  38.5154720  58.5119460  25.5596460  39.0135690  59.1524480
  25.5831480  37.7389920  58.3358820  37.1529170  36.6859910  62.2148810
  36.4481340  37.0741620  61.6963920  37.4187090  37.3810200  62.8169740
  23.3354340  33.1553280  62.7782880  23.3372780  33.6725670  61.9728780
  22.5058650  32.6783460  62.7552810  24.5857190  42.7948460  60.9556380
  24.2526570  43.4217380  61.5977450  24.7623870  43.3210340  60.1758050
  33.0991100  36.6093540  58.4232720  32.3946670  36.8978430  59.0035830
  33.4603260  37.4193650  58.0632280  23.0169670  34.8663240  60.7853330
  23.3586480  35.7105290  60.4907200  22.0785480  35.0146980  60.9018670
  23.7976290  44.7629260  62.7705560  24.4150290  45.4380340  62.4890010
  22.9369410  45.1717240  62.6793060  19.0908630  43.9529120  51.6512410
  18.7136610  44.4416220  50.9197310  19.3481700  44.6254400  52.2818940
  34.7153880  46.2268670  60.6860200  34.0317400  46.8967780  60.6776870
  35.2548170  46.4249320  59.9205060  36.1678020  36.0548330  58.8141930
  35.2202930  36.0887310  58.9457360  36.4928010  36.8687280  59.1991290
  26.6997560  32.3545510  57.1097920  27.0072540  31.7992400  56.3933420
  25.7698260  32.4889970  56.9270910  32.2512620  48.0712800  59.4005380
  32.2639780  47.6675090  58.5327640  31.6987840  48.8460090  59.2966810
  33.5458040  44.7929020  54.4895550  33.4354370  43.8503350  54.6144970
  33.5426290  45.1544660  55.3758310  31.6498060  42.9742640  60.7287990
  32.0666850  42.7602750  59.8941450  32.3737880  43.2315430  61.2996610
  35.5960160  41.3729860  60.8204230  34.7678790  41.4422950  60.3454360
  36.1910640  41.9584170  60.3520060  33.1175610  41.9814640  54.3493290
  32.4988030  41.6434190  53.7019590  33.1000060  41.3374400  55.0572480
  32.5602170  38.1599180  61.7659100  32.1473350  38.9852890  62.0199090
  31.8278120  37.5744220  61.5735460  24.6934960  40.9459080  56.6277770
  24.2891960  40.2336330  56.1323670  24.7798080  40.6012320  57.5165810
  25.1616660  44.6326640  58.7916980  24.8644950  44.0272110  58.1124760
  26.1116480  44.6703950  58.6806340  23.4063580  37.7202290  60.4076810
  23.9578170  37.8297630  59.6330060  23.9207090  38.0939890  61.1232040
  33.2502270  48.2058510  62.4540080  32.7732830  49.0130700  62.2612690
  32.5664060  47.5536840  62.6066290  24.2535090  44.3708330  65.4424780
  23.3563620  44.5948300  65.6898180  24.2787960  44.4943270  64.4936180
  23.0806310  41.2421650  64.0182150  22.9414080  42.1144450  64.3869550
  22.1987670  40.8994460  63.8730090  29.4035690  46.1597520  55.3247280
  29.8431600  46.9021850  54.9102670  29.3422580  46.4024090  56.2486240
  24.8786660  47.1843350  66.2267300  24.8502090  47.5886300  65.3595730
  24.7151630  46.2553710  66.0638900  21.3939590  39.8404060  54.1284420
  21.2737190  40.5666150  53.5165690  21.0840480  39.0706970  53.6512330
  36.8301480  47.9670450  67.5231470  37.3061200  48.4453340  68.2020550
  37.4508640  47.8987940  66.7976970  19.0324960  43.0119200  59.9353060
  19.1105380  43.1467970  58.9908780  19.6466640  42.3035090  60.1281180
  20.2772590  44.7119390  56.3459240  19.8700670  44.8533980  55.4912840
  21.1685600  44.4279550  56.1430450  36.2334730  45.1583300  64.6831480
  36.3597790  44.9195180  63.7648660  36.2756110  44.3267840  65.1553560
  30.0951470  48.8611300  63.2526290  30.6096140  48.7719310  64.0548720
  29.2520550  49.2071000  63.5454200  24.5494250  48.9265170  54.4581910
  24.3736730  48.0100710  54.2449710  23.6949990  49.2852460  54.6979710
  36.0858740  37.2115760  65.6481220  35.4703010  37.7195430  65.1196680
  35.7655160  36.3114090  65.5907160  19.0884480  44.0533370  62.4747520
  19.2515520  43.5838730  61.6566890  19.5536930  43.5456930  63.1396360
  23.8603250  33.1839130  57.5108090  23.4171400  33.9648670  57.1792610
  24.4188240  33.5069020  58.2179030  28.1473060  36.0507650  63.1143410
  27.6852430  36.2590670  63.9263350  27.7451170  35.2367000  62.8114080
  33.1477570  37.2716600  64.2440070  32.2971160  36.9722350  64.5649140
  32.9879360  37.5158610  63.3323890  30.2427280  38.7718350  66.3438860
  30.5680690  37.9382100  66.0041090  31.0307610  39.2946870  66.4917190
  25.8979150  33.7286460  59.3697690  26.1951480  34.6349290  59.2889710
  26.4464710  33.2405240  58.7557260  23.6517470  38.3072700  55.2389340
  23.4258390  38.0909870  56.1435960  22.8710000  38.7401160  54.8935310
  26.0916680  39.2058280  65.9049610  25.9960280  38.2653010  65.7550010
  26.9348660  39.4273350  65.5097680  29.4880100  36.9499610  55.8683270
  29.8809670  37.2671810  55.0551960  29.8496950  36.0711490  55.9827790
  21.2227220  35.6171950  64.0583390  20.8290610  36.4647160  64.2656170
  20.5345620  34.9798320  64.2492030  27.7972270  35.7006920  67.1280130
  27.1070590  35.5079120  67.7626220  28.5404570  35.9841560  67.6604430
  18.5244270  33.5400410  58.0913470  18.2357320  34.1103270  58.8038450
  19.2690030  33.0604860  58.4544700  18.7114500  37.4820530  49.3016190
  18.6289170  38.4251290  49.4431180  18.3597560  37.3395440  48.4228540
  30.0735240  39.5405360  59.9634050  29.3416360  40.0492170  60.3124150
  29.6759580  38.7235340  59.6622830  26.5112630  36.2159560  58.3686540
  26.5148690  35.7749510  57.5191080  27.4063750  36.5376890  58.4758360
  22.3615010  36.0986050  57.3280750  22.0215060  36.5761280  58.0847800
  21.5992330  35.6451170  56.9681850  30.5361150  34.9939040  59.3756990
  30.5533890  35.4447690  60.2198840  30.2876730  34.0944680  59.5890430
  33.9631900  32.4071220  65.2143370  34.2877670  31.6760880  65.7401350
  33.9988410  32.0884860  64.3124360  20.6623460  43.4284800  64.6343330
  20.2778250  42.7878470  65.2326290  20.9735650  44.1320920  65.2038060
  26.8120600  40.2761340  60.1151950  27.1790730  39.8019910  60.8613290
  26.6225660  41.1502910  60.4560290  19.6761090  35.0205030  56.2445420
  19.3908010  34.6560700  57.0824040  19.6139950  34.2885490  55.6308560
  24.6019970  39.3169980  62.4336160  24.2977040  40.1961960  62.6586520
  25.5566430  39.3769770  62.4693600  23.1301760  43.5230970  53.0303010
  22.3564020  42.9828590  52.8701730  23.8596390  43.0037580  52.6920770
  33.8889740  42.5196330  58.8229400  34.6088860  43.0151620  58.4325510
  33.6871560  41.8414220  58.1783270  29.2708540  42.5905390  64.7098400
  29.2045850  41.6701060  64.4555990  28.6413680  42.6880830  65.4243040
  23.1739160  43.1911350  56.6681820  23.6917830  42.3879610  56.6138710
  22.7223180  43.1290490  57.5098650  20.6583700  40.1572720  63.5807520
  20.2998640  40.8226570  64.1680860  20.3638260  39.3256270  63.9520140
  23.8596820  40.6156960  66.4647070  23.5596960  40.7614140  65.5674890
  24.6308060  40.0562250  66.3720460  29.2025270  45.4125960  64.4602200
  29.2169810  44.4806920  64.2421110  28.4950370  45.4985720  65.0991970
  35.4136480  42.0533300  63.8070780  34.6884670  42.6462080  63.6100170
  35.9411940  42.0456840  63.0084150  30.9436070  43.7793470  57.3054630
  31.2959890  43.1821600  56.6456000  30.0598400  43.4537700  57.4762880
  19.1691750  40.1563980  50.2042120  20.0386600  40.4388780  50.4878040
  18.6782070  40.9699850  50.0890930  26.3326560  41.5437190  54.3250400
  26.7889340  42.3542440  54.5510590  25.9814770  41.2260330  55.1568890
  28.6359170  47.0543530  61.5542700  29.2801390  47.2602910  62.2316120
  28.9988610  46.2931930  61.1013550  22.2338340  31.8874840  54.7972920
  22.1052970  31.8792740  55.7457840  21.4100360  32.2257930  54.4463930
  29.9091250  45.0575880  60.2720150  30.5513480  44.3569040  60.3852320
  30.4340600  45.8374320  60.0917040  31.6828870  45.8570780  63.4756210
  32.0185110  46.4437470  64.1534130  30.7629210  45.7263490  63.7054000
  19.5363000  49.3691360  50.7703750  19.8960640  49.9680700  50.1161020
  19.3955340  49.9151250  51.5438780  19.2332270  33.6465960  64.2579620
  18.5190790  33.8462880  64.8632230  19.6527310  32.8705530  64.6294420
  19.5204860  47.6346220  65.2446150  19.6295980  46.6940960  65.1041540
  18.8685420  47.9000970  64.5959880  27.5117450  45.9062110  66.6444270
  27.1914320  45.1871350  67.1889960  26.8375810  46.5817180  66.7180330
  21.1538260  41.9737450  52.3324180  20.5466210  42.7136350  52.3419480
  21.6287610  42.0636810  51.5062380  30.7271050  36.1388270  62.0081070
  31.0951870  35.3183480  62.3360640  29.8669250  36.1990160  62.4236720
  27.6873040  38.7927860  62.2319040  28.1858290  39.2673680  62.8970890
  27.8295990  37.8691380  62.4389070  30.0932540  34.0981820  55.6722300
  29.9700320  34.1167950  54.7231810  31.0417100  34.1460760  55.7920700
  27.1809330  49.3337120  54.9450280  27.4350830  49.2958510  54.0229650
  26.2321810  49.2070450  54.9378530  34.8939900  35.0095820  63.0747430
  34.3913500  35.7501220  63.4141240  35.7096560  35.3979820  62.7584220
  33.1861910  40.2529000  56.5208790  32.2452050  40.2679230  56.6956480
  33.5005980  39.4664960  56.9669090  23.1643550  41.9348600  50.0812750
  23.9306820  41.8229960  50.6438180  23.2418240  41.2386570  49.4289520
  21.8590310  39.3673670  50.7645640  21.9393900  38.4201180  50.8763040
  22.7510060  39.6980550  50.8706300  35.1887490  47.4237850  58.1963050
  35.3134910  48.2469020  58.6686860  36.0553050  47.2128580  57.8487200
  22.6605020  49.5169060  57.8680180  23.3967500  48.9684520  58.1388750
  23.0445940  50.3825070  57.7286170  19.5450500  45.5842630  53.7421690
  18.6190280  45.8263770  53.7327100  20.0106930  46.4116890  53.6206440
  21.6663300  48.7015130  67.0565760  22.4676030  49.0227180  67.4701160
  21.1515120  48.3410710  67.7785670  30.5027930  44.8095000  67.0041170
  29.8966090  44.8326600  66.2636920  30.1982040  44.0778040  67.5408420
  31.9328300  48.5375290  65.6150580  32.8850050  48.4533310  65.5650820
  31.7856520  49.2017000  66.2884370  19.3861110  41.1888590  66.0001810
  19.8900130  40.6095870  66.5718040  18.6468530  41.4728820  66.5378180
  26.4399050  42.5959580  65.5337330  25.6744720  43.1644580  65.4492000
  26.6215010  42.3035790  64.6405560  33.5822400  44.3264910  66.0912350
  34.3231870  44.6640670  65.5879810  32.8195080  44.4956970  65.5382120
  21.4184190  39.3318180  66.8951880  21.4589530  39.0332050  67.8037110
  22.2729690  39.7325790  66.7359400  23.3590000  37.9110280  64.8626370
  22.8286460  37.4201230  64.2349710  24.0278070  38.3394480  64.3284300
  32.2568060  42.3779740  64.6267560  32.6709080  42.5324820  65.4757980
  31.3219060  42.5034960  64.7893340  32.7290230  39.7175900  66.6306710
  33.3111000  38.9628220  66.5427190  32.9052000  40.2483340  65.8538190
  23.8462300  34.8772650  64.9423660  23.7519170  34.2593400  64.2174530
  23.2659690  35.6038940  64.7153570  26.6123740  33.4345890  61.9751050
  26.1641040  33.4570150  61.1296600  25.9788940  33.0364910  62.5721350
  27.0183290  42.3300220  62.5963490  27.4371400  43.1732950  62.4239730
  26.0991920  42.4672260  62.3670270  29.3547190  40.0616400  63.9801330
  29.4743400  39.4657540  64.7196170  30.2141190  40.0986090  63.5602630
  31.6935090  40.6153590  62.5563840  31.1670310  41.1396210  61.9528980
  32.0366430  41.2480980  63.1873570  24.8690710  48.6353230  63.7121220
  24.3311800  49.3599290  63.3929920  25.1224670  48.1583570  62.9218560
  26.1215960  36.6037750  65.2377150  26.7115650  36.2953600  65.9254970
  25.3036200  36.1317500  65.3937050  30.9409390  36.2203560  65.4710170
  30.2524910  35.5585100  65.4060160  31.6615410  35.7741830  65.9158630
  22.8904280  35.1047580  48.9891430  23.1930180  35.1115010  48.0810580
  23.6298870  34.7545440  49.4859090  27.7252920  49.8704440  63.9707870
  27.6511620  50.7739580  64.2780240  26.8231760  49.5516340  63.9429940
  21.9134410  44.4090000  49.8221230  22.3509280  44.9519670  50.4778810
  22.3982140  43.5836950  49.8317570  19.1280210  47.1979030  57.2741490
  19.4583220  46.3300090  57.0420130  19.5571210  47.4037550  58.1046450
  23.7242130  45.5288040  54.9343460  23.4237670  45.4053010  55.8347370
  23.6179620  44.6696630  54.5259190  19.6170420  48.0649620  60.0123120
  19.1801410  48.2450420  60.8447270  20.1848100  48.8224240  59.8704840
  35.2532600  47.5666620  64.3000430  34.6534590  47.6259180  63.5564350
  35.3826500  46.6271600  64.4297280  19.4494850  40.5769850  56.3712000
  18.7943690  40.3081490  55.7271700  20.2872800  40.4674330  55.9213980
  36.9550480  42.9082020  56.9846270  37.3259310  42.1249340  56.5782240
  37.5952410  43.5971120  56.8063570  33.9384240  44.2918600  62.3976590
  33.1244080  44.7215760  62.6602380  34.3458440  44.9037010  61.7845640
  35.8975020  40.2835280  54.2906290  35.5218620  39.5163210  53.8587580
  35.1678140  40.6657980  54.7781220  20.4870780  40.9622420  60.9115340
  20.8543820  40.8749820  61.7911360  19.9181600  40.1988970  60.8122200
  35.2874640  39.4306800  63.9245810  35.0560730  39.2019550  63.0243760
  35.5479190  40.3506350  63.8790700  20.0386780  37.8731510  64.8173760
  19.1442830  37.8398270  65.1567470  20.5784330  38.0718300  65.5825010
  33.7262710  34.6563230  66.7025510  34.6032890  34.6646630  67.0859510
  33.7383550  33.9194070  66.0917860  18.6632930  37.7868780  52.3137330
  17.7597010  38.0498980  52.1388990  19.1473550  38.0579950  51.5337290
  35.1725980  38.5092770  57.5913530  35.6963460  38.0155420  56.9603700
  35.7585400  38.6443130  58.3361100  35.3515700  38.5932640  61.1133080
  34.4018410  38.5596180  61.2278070  35.5328710  39.5032750  60.8782850
  21.2060140  36.8434320  50.2231710  21.9151840  36.4217540  49.7378990
  20.4900080  36.9109550  49.5915060  20.8534300  32.8973650  49.2634360
  21.5762430  33.4382590  49.5815580  21.1258820  32.6237070  48.3875900
  20.5426490  32.1479840  59.1656980  21.1902680  31.5977220  58.7252140
  20.9628330  32.4022990  59.9872790  36.0913110  36.4027070  56.0643620
  35.9812390  36.2483110  57.0025890  36.8520700  35.8748010  55.8219030
  34.4378830  32.3421200  62.5226620  35.0751050  32.9555340  62.8885810
  34.5853720  32.3781860  61.5775850  33.9960290  49.0437200  55.9244860
  34.5919360  48.7221770  55.2479280  34.2538440  48.5709020  56.7158130
  20.2958490  32.3035510  61.9082300  19.9473310  32.7599330  62.6740480
  19.9646190  31.4092640  61.9904730  21.9022860  45.4755110  66.0735490
  21.8592490  45.1048020  66.9549950  22.0333870  46.4132680  66.2137310
  25.6028890  47.0314700  61.6745210  25.3620250  47.2989260  60.7875730
  26.5431530  47.2020430  61.7296070  27.8083310  33.4947390  65.4301720
  27.7472200  34.0869220  66.1797130  28.7483690  33.3873350  65.2851980
  30.4457870  33.1517450  65.0694010  31.0598280  33.4696740  64.4075090
  30.9907430  32.6666040  65.6889870  36.8633050  49.0509080  62.4755850
  36.3691330  49.4477950  61.7582980  36.2546340  48.4258290  62.8693130
  20.9679130  31.8311710  65.1833070  21.5162120  31.6499760  64.4199180
  21.0334440  31.0405820  65.7189380  21.7410890  48.4217360  63.1933270
  21.1471210  48.2902060  63.9323310  21.7334730  47.5855500  62.7275370
  31.1865910  31.7149590  61.3963300  30.3125750  32.0484700  61.1936230
  31.0776660  31.2422770  62.2215170  32.0937890  33.9220460  62.7805020
  31.7651250  33.1072220  62.4006750  33.0420190  33.8790270  62.6570710
  34.5472500  49.6932500  59.7542590  34.0875470  50.4448310  59.3800610
  33.9184960  48.9738970  59.6957390  21.3723120  45.7875740  62.1441310
  20.6457180  45.1681030  62.0767260  21.4332270  46.1816350  61.2739390
  24.9768220  48.0020740  58.9290720  25.4933240  47.3908100  58.4038980
  25.6265600  48.5049520  59.4201730  27.7163720  48.8929230  59.7559700
  28.0041530  48.6383530  58.8792710  28.2286940  48.3406590  60.3465270
  28.9340730  32.6319430  60.3356210  28.1512520  33.1064930  60.6152970
  28.6403660  31.7274260  60.2269390  33.4861800  33.3342530  58.3805300
  33.9269890  33.2787630  57.5326900  33.2169390  34.2500540  58.4515480
  35.3500370  32.9657770  56.3914120  35.2888770  32.0218990  56.2445140
  36.1292400  33.0737860  56.9367580  19.6553120  49.1050130  55.3538070
  19.4875160  48.4720810  56.0519960  18.7887630  49.3109530  55.0032260
  20.2781140  32.9366910  52.8569930  21.0360500  33.0495790  52.2833960
  19.8158310  33.7736110  52.8113360  26.8194950  35.0506180  55.8472240
  26.0069460  34.6763070  55.5068120  27.3236590  34.2951260  56.1493430
  31.3219930  31.7148630  57.0855310  31.9249300  32.2868840  57.5603830
  30.5812920  32.2788070  56.8629210  21.2615820  47.7983360  52.7988210
  20.7363440  48.1791390  52.0950170  21.1860400  48.4234130  53.5197920
  22.6506290  33.4630960  51.3971900  23.1799050  32.6760760  51.2679850
  23.2834610  34.1422150  51.6307430  24.8444130  33.2006100  54.4517290
  24.2146870  32.4993410  54.6187420  24.3049270  33.9610230  54.2350450
  27.7836080  49.8145330  67.1227900  28.7103390  49.5789600  67.1663860
  27.7686510  50.6417330  66.6413930  36.0181140  49.3570900  54.1202150
  36.1933330  48.6708640  53.4763070  35.3202710  49.8817950  53.7278820
  24.9699690  32.4790080  66.8869780  24.6883960  32.9823680  66.1230600
  25.3519390  31.6811830  66.5211910  23.8608790  49.7465740  51.6737460
  24.5927610  49.4625020  51.1261350  24.1202460  49.5079020  52.5636840
  31.5715150  31.8943660  67.4650250  31.4580600  32.2138270  68.3601770
  32.3884890  32.2956170  67.1687530  34.3513640  49.0415190  66.9468940
  35.1438960  48.5464420  66.7394900  34.6446790  49.7205330  67.5544550
  22.6257170  42.0034960  40.5870020  21.7942050  41.7483670  40.9866530
  23.2338150  42.0745730  41.3227940  21.0349120  36.9636850  34.3712410
  20.1465820  37.3052820  34.2692290  21.3190310  36.7637170  33.4793240
  18.9982130  39.5642500  40.2552110  19.5698240  38.7964700  40.2555750
  18.9983670  39.8631260  39.3458720  20.2407000  34.9726860  42.0421040
  20.0609840  34.0752610  42.3223800  19.8387080  35.5198730  42.7167990
  20.8593670  37.4687360  40.6503380  21.5403780  37.7325730  41.2690780
  20.5441720  36.6288230  40.9841390  23.3354340  33.1553280  44.0039390
  23.3372780  33.6725670  43.1985290  22.5058650  32.6783460  43.9809320
  19.0908630  43.9529120  32.8768920  18.7136610  44.4416220  32.1453820
  19.3481700  44.6254400  33.5075450  23.0806310  41.2421650  45.2438660
  22.9414080  42.1144450  45.6126060  22.1987670  40.8994460  45.0986600
  21.3939590  39.8404060  35.3540930  21.2737190  40.5666150  34.7422200
  21.0840480  39.0706970  34.8768840  19.0324960  43.0119200  41.1609570
  19.1105380  43.1467970  40.2165290  19.6466640  42.3035090  41.3537690
  20.2772590  44.7119390  37.5715750  19.8700670  44.8533980  36.7169350
  21.1685600  44.4279550  37.3686960  19.0884480  44.0533370  43.7004030
  19.2515520  43.5838730  42.8823400  19.5536930  43.5456930  44.3652870
  21.2227220  35.6171950  45.2839900  20.8290610  36.4647160  45.4912680
  20.5345620  34.9798320  45.4748540  18.5244270  33.5400410  39.3169980
  18.2357320  34.1103270  40.0294960  19.2690030  33.0604860  39.6801210
  18.7114500  37.4820530  30.5272700  18.6289170  38.4251290  30.6687690
  18.3597560  37.3395440  29.6485050  20.6623460  43.4284800  45.8599840
  20.2778250  42.7878470  46.4582800  20.9735650  44.1320920  46.4294570
  19.6761090  35.0205030  37.4701930  19.3908010  34.6560700  38.3080550
  19.6139950  34.2885490  36.8565070  20.6583700  40.1572720  44.8064030
  20.2998640  40.8226570  45.3937370  20.3638260  39.3256270  45.1776650
  19.1691750  40.1563980  31.4298630  20.0386600  40.4388780  31.7134550
  18.6782070  40.9699850  31.3147440  22.2338340  31.8874840  36.0229430
  22.1052970  31.8792740  36.9714350  21.4100360  32.2257930  35.6720440
  19.5363000  49.3691360  31.9960260  19.8960640  49.9680700  31.3417530
  19.3955340  49.9151250  32.7695290  19.2332270  33.6465960  45.4836130
  18.5190790  33.8462880  46.0888740  19.6527310  32.8705530  45.8550930
  19.5204860  47.6346220  46.4702660  19.6295980  46.6940960  46.3298050
  18.8685420  47.9000970  45.8216390  21.1538260  41.9737450  33.5580690
  20.5466210  42.7136350  33.5675990  21.6287610  42.0636810  32.7318890
  21.8590310  39.3673670  31.9902150  21.9393900  38.4201180  32.1019550
  22.7510060  39.6980550  32.0962810  22.6605020  49.5169060  39.0936690
  23.3967500  48.9684520  39.3645260  23.0445940  50.3825070  38.9542680
  19.5450500  45.5842630  34.9678200  18.6190280  45.8263770  34.9583610
  20.0106930  46.4116890  34.8462950  21.6663300  48.7015130  48.2822270
  22.4676030  49.0227180  48.6957670  21.1515120  48.3410710  49.0042180
  19.3861110  41.1888590  47.2258320  19.8900130  40.6095870  47.7974550
  18.6468530  41.4728820  47.7634690  21.4184190  39.3318180  48.1208390
  21.4589530  39.0332050  49.0293620  22.2729690  39.7325790  47.9615910
  23.3590000  37.9110280  46.0882880  22.8286460  37.4201230  45.4606220
  24.0278070  38.3394480  45.5540810  19.1280210  47.1979030  38.4998000
  19.4583220  46.3300090  38.2676640  19.5571210  47.4037550  39.3302960
  19.6170420  48.0649620  41.2379630  19.1801410  48.2450420  42.0703780
  20.1848100  48.8224240  41.0961350  19.4494850  40.5769850  37.5968510
  18.7943690  40.3081490  36.9528210  20.2872800  40.4674330  37.1470490
  20.4870780  40.9622420  42.1371850  20.8543820  40.8749820  43.0167870
  19.9181600  40.1988970  42.0378710  20.0386780  37.8731510  46.0430270
  19.1442830  37.8398270  46.3823980  20.5784330  38.0718300  46.8081520
  18.6632930  37.7868780  33.5393840  17.7597010  38.0498980  33.3645500
  19.1473550  38.0579950  32.7593800  20.8534300  32.8973650  30.4890870
  21.5762430  33.4382590  30.8072090  21.1258820  32.6237070  29.6132410
  20.5426490  32.1479840  40.3913490  21.1902680  31.5977220  39.9508650
  20.9628330  32.4022990  41.2129300  20.2958490  32.3035510  43.1338810
  19.9473310  32.7599330  43.8996990  19.9646190  31.4092640  43.2161240
  21.9022860  45.4755110  47.2992000  21.8592490  45.1048020  48.1806460
  22.0333870  46.4132680  47.4393820  20.9679130  31.8311710  46.4089580
  21.5162120  31.6499760  45.6455690  21.0334440  31.0405820  46.9445890
  21.7410890  48.4217360  44.4189780  21.1471210  48.2902060  45.1579820
  21.7334730  47.5855500  43.9531880  21.3723120  45.7875740  43.3697820
  20.6457180  45.1681030  43.3023770  21.4332270  46.1816350  42.4995900
  19.6553120  49.1050130  36.5794580  19.4875160  48.4720810  37.2776470
  18.7887630  49.3109530  36.2288770  20.2781140  32.9366910  34.0826440
  21.0360500  33.0495790  33.5090470  19.8158310  33.7736110  34.0369870
  21.2615820  47.7983360  34.0244720  20.7363440  48.1791390  33.3206680
  21.1860400  48.4234130  34.7454430  30.4773300  39.9136130  19.0541500
  30.3967350  38.9990740  18.7833210  30.0637720  40.4103200  18.3481210
  28.6091340  41.6915150  20.9350770  27.8333440  41.2115590  21.2249340
  29.2604270  41.0120800  20.7606930  22.6257170  42.0034960  21.8126530
  21.7942050  41.7483670  22.2123040  23.2338150  42.0745730  22.5484450
  32.6298770  46.0975340  19.7149900  32.1680300  45.3262580  20.0437070
  33.4424320  46.1241410  20.2202350  22.6058430  46.0375050  22.0084550
  22.9086470  45.1472790  21.8294770  23.3502020  46.5945270  21.7806800
  21.0349120  36.9636850  15.5968920  20.1465820  37.3052820  15.4948800
  21.3190310  36.7637170  14.7049750  18.9982130  39.5642500  21.4808620
  19.5698240  38.7964700  21.4812260  18.9983670  39.8631260  20.5715230
  28.8562080  48.3833350  19.3353890  28.2373520  48.8390850  18.7648330
  29.7113860  48.5384810  18.9343590  28.0500330  44.3672340  20.9420930
  27.9808610  43.4262280  20.7810060  28.8120190  44.4573750  21.5143500
  20.2407000  34.9726860  23.2677550  20.0609840  34.0752610  23.5480310
  19.8387080  35.5198730  23.9424500  29.0805500  37.1742720  21.1689860
  29.4570320  36.3014600  21.0563530  28.9825010  37.5101420  20.2780300
  23.2110510  35.5468350  16.6307300  23.3177260  36.4472080  16.9376060
  22.3002870  35.4986320  16.3401950  32.8629620  34.6693160  18.1018200
  33.6839240  34.1789730  18.1443680  32.8963700  35.2590820  18.8550040
  20.8593670  37.4687360  21.8759890  21.5403780  37.7325730  22.4947290
  20.5441720  36.6288230  22.2097900  25.0518240  38.5154720  20.9632480
  25.5596460  39.0135690  21.6037500  25.5831480  37.7389920  20.7871840
  29.7225430  43.2672590  16.7285800  29.1042700  43.7322040  16.1648520
  30.2348680  43.9600070  17.1455310  24.5857190  42.7948460  23.4069400
  24.2526570  43.4217380  24.0490470  24.7623870  43.3210340  22.6271070
  33.0991100  36.6093540  20.8745740  32.3946670  36.8978430  21.4548850
  33.4603260  37.4193650  20.5145300  23.0169670  34.8663240  23.2366350
  23.3586480  35.7105290  22.9420220  22.0785480  35.0146980  23.3531690
  19.0908630  43.9529120  14.1025430  18.7136610  44.4416220  13.3710330
  19.3481700  44.6254400  14.7331960  36.1678020  36.0548330  21.2654950
  35.2202930  36.0887310  21.3970380  36.4928010  36.8687280  21.6504310
  26.6997560  32.3545510  19.5610940  27.0072540  31.7992400  18.8446440
  25.7698260  32.4889970  19.3783930  33.5458040  44.7929020  16.9408570
  33.4354370  43.8503350  17.0657990  33.5426290  45.1544660  17.8271330
  29.0878320  40.4194340  16.2971060  28.1607600  40.3531720  16.5259530
  29.2403140  41.3574470  16.1826300  29.0747400  36.6911340  13.2938220
  28.1351070  36.8525300  13.3790680  29.3930660  37.4097020  12.7474210
  33.1175610  41.9814640  16.8006310  32.4988030  41.6434190  16.1532610
  33.1000060  41.3374400  17.5085500  24.6934960  40.9459080  19.0790790
  24.2891960  40.2336330  18.5836690  24.7798080  40.6012320  19.9678830
  25.1616660  44.6326640  21.2430000  24.8644950  44.0272110  20.5637780
  26.1116480  44.6703950  21.1319360  23.4063580  37.7202290  22.8589830
  23.9578170  37.8297630  22.0843080  23.9207090  38.0939890  23.5745060
  31.2940310  41.2201450  13.8079060  31.7333590  40.3823880  13.6616880
  32.0068730  41.8530850  13.8943200  29.4035690  46.1597520  17.7760300
  29.8431600  46.9021850  17.3615690  29.3422580  46.4024090  18.6999260
  34.8757450  32.4744260  12.1220100  34.5630110  32.5671090  13.0219170
  35.6369920  33.0525290  12.0717530  21.3939590  39.8404060  16.5797440
  21.2737190  40.5666150  15.9678710  21.0840480  39.0706970  16.1025350
  19.0324960  43.0119200  22.3866080  19.1105380  43.1467970  21.4421800
  19.6466640  42.3035090  22.5794200  20.2772590  44.7119390  18.7972260
  19.8700670  44.8533980  17.9425860  21.1685600  44.4279550  18.5943470
  32.0705870  49.1466640  15.1323310  31.9107010  48.8569580  16.0305140
  31.9052580  48.3706770  14.5968540  24.5494250  48.9265170  16.9094930
  24.3736730  48.0100710  16.6962730  23.6949990  49.2852460  17.1492730
  31.7732000  46.6554200  13.6921310  31.0797160  46.6531490  13.0323590
  32.5154860  46.2313520  13.2615480  31.3381930  48.2816910  17.7669800
  31.7938880  47.5006290  18.0808420  31.6774450  48.9923730  18.3110980
  19.0884480  44.0533370  24.9260540  19.2515520  43.5838730  24.1079910
  19.5536930  43.5456930  25.5909380  23.8603250  33.1839130  19.9621110
  23.4171400  33.9648670  19.6305630  24.4188240  33.5069020  20.6692050
  26.9762070  32.8049830  14.8426940  26.3516250  32.8009700  15.5680250
  26.8892190  31.9380790  14.4462910  25.8979150  33.7286460  21.8210710
  26.1951480  34.6349290  21.7402730  26.4464710  33.2405240  21.2070280
  23.6517470  38.3072700  17.6902360  23.4258390  38.0909870  18.5948980
  22.8710000  38.7401160  17.3448330  30.8815230  38.3136070  16.2893010
  30.2824120  39.0371870  16.1056630  31.4294840  38.2512850  15.5069460
  29.4880100  36.9499610  18.3196290  29.8809670  37.2671810  17.5064980
  29.8496950  36.0711490  18.4340810  18.5244270  33.5400410  20.5426490
  18.2357320  34.1103270  21.2551470  19.2690030  33.0604860  20.9057720
  18.7114500  37.4820530  11.7529210  18.6289170  38.4251290  11.8944200
  18.3597560  37.3395440  10.8741560  26.5112630  36.2159560  20.8199560
  26.5148690  35.7749510  19.9704100  27.4063750  36.5376890  20.9271380
  22.3615010  36.0986050  19.7793770  22.0215060  36.5761280  20.5360820
  21.5992330  35.6451170  19.4194870  26.5732780  37.2171640  13.8106320
  26.6945600  37.1758120  14.7592140  26.1881290  38.0795790  13.6553050
  30.5361150  34.9939040  21.8270010  30.5533890  35.4447690  22.6711860
  30.2876730  34.0944680  22.0403450  25.5854280  39.5272780  13.2089620
  25.0171180  39.0791030  12.5825530  26.2943280  39.8865560  12.6754770
  20.6623460  43.4284800  27.0856350  20.2778250  42.7878470  27.6839310
  20.9735650  44.1320920  27.6551080  26.8120600  40.2761340  22.5664970
  27.1790730  39.8019910  23.3126310  26.6225660  41.1502910  22.9073310
  19.6761090  35.0205030  18.6958440  19.3908010  34.6560700  19.5337060
  19.6139950  34.2885490  18.0821580  23.1301760  43.5230970  15.4816030
  22.3564020  42.9828590  15.3214750  23.8596390  43.0037580  15.1433790
  29.3499680  33.9134290  15.4171810  28.5364290  33.4147460  15.3417120
  29.1561630  34.7532540  15.0008160  32.0648070  38.2853940  13.7133970
  32.9527690  38.5971170  13.5385310  32.0353160  37.4126190  13.3214550
  23.1739160  43.1911350  19.1194840  23.6917830  42.3879610  19.0651730
  22.7223180  43.1290490  19.9611670  28.0608660  44.4577630  14.3922140
  28.4024360  45.2019860  13.8965460  27.2321370  44.7708750  14.7546970
  20.6583700  40.1572720  26.0320540  20.2998640  40.8226570  26.6193880
  20.3638260  39.3256270  26.4033160  34.3362340  39.5965780  13.1813830
  34.2526060  40.0280000  12.3310270  35.0556530  40.0564130  13.6140650
  35.3649590  46.4508040  15.9095960  34.7225750  45.7963660  16.1839680
  34.9780250  46.8563130  15.1336630  30.9436070  43.7793470  19.7567650
  31.2959890  43.1821600  19.0969020  30.0598400  43.4537700  19.9275900
  27.0299350  44.5391160  17.1638060  27.7170480  45.0860370  17.5445650
  26.2431770  45.0831890  17.1987670  19.1691750  40.1563980  12.6555140
  20.0386600  40.4388780  12.9391060  18.6782070  40.9699850  12.5403950
  26.3326560  41.5437190  16.7763420  26.7889340  42.3542440  17.0023610
  25.9814770  41.2260330  17.6081910  22.2338340  31.8874840  17.2485940
  22.1052970  31.8792740  18.1970860  21.4100360  32.2257930  16.8976950
  33.7546970  45.3424500  12.4472310  33.5284550  44.6254940  13.0396950
  33.3643170  45.0936940  11.6094060  19.5363000  49.3691360  13.2216770
  19.8960640  49.9680700  12.5674040  19.3955340  49.9151250  13.9951800
  19.2332270  33.6465960  26.7092640  18.5190790  33.8462880  27.3145250
  19.6527310  32.8705530  27.0807440  33.3363220  43.2596440  14.1086470
  33.0484920  43.7209130  14.8964350  34.1315390  42.7994210  14.3770690
  19.5204860  47.6346220  27.6959170  19.6295980  46.6940960  27.5554560
  18.8685420  47.9000970  27.0472900  25.5531620  46.7522560  14.0390440
  25.5441720  47.4852250  13.4234950  24.6329980  46.5054140  14.1317400
  21.1538260  41.9737450  14.7837200  20.5466210  42.7136350  14.7932500
  21.6287610  42.0636810  13.9575400  34.0933080  35.0945210  15.2681650
  33.4646240  35.1990880  14.5539880  33.5985000  35.3141990  16.0575530
  28.5391220  46.8150800  12.7015630  28.6403200  46.6114790  11.7717610
  27.6392960  46.5609080  12.9063410  26.0617110  37.3731160  16.6839530
  25.3533260  37.8417500  17.1253140  26.3461590  36.7153170  17.3184720
  30.0932540  34.0981820  18.1235320  29.9700320  34.1167950  17.1744830
  31.0417100  34.1460760  18.2433720  27.1809330  49.3337120  17.3963300
  27.4350830  49.2958510  16.4742670  26.2321810  49.2070450  17.3891550
  24.2652130  35.6816240  14.0590240  25.1142660  36.1186390  13.9930430
  23.8983400  35.9936500  14.8862300  33.1861910  40.2529000  18.9721810
  32.2452050  40.2679230  19.1469500  33.5005980  39.4664960  19.4182110
  23.1643550  41.9348600  12.5325770  23.9306820  41.8229960  13.0951200
  23.2418240  41.2386570  11.8802540  21.8590310  39.3673670  13.2158660
  21.9393900  38.4201180  13.3276060  22.7510060  39.6980550  13.3219320
  35.1887490  47.4237850  20.6476070  35.3134910  48.2469020  21.1199880
  36.0553050  47.2128580  20.3000220  22.6605020  49.5169060  20.3193200
  23.3967500  48.9684520  20.5901770  23.0445940  50.3825070  20.1799190
  19.5450500  45.5842630  16.1934710  18.6190280  45.8263770  16.1840120
  20.0106930  46.4116890  16.0719460  25.7707330  48.6899370  12.1418770
  26.5635940  48.9788200  11.6900560  25.2511680  48.2591540  11.4631250
  34.8237500  47.9169500  13.5655510  34.5379010  47.5034640  12.7509690
  34.6257050  48.8457210  13.4456030  19.3861110  41.1888590  28.4514830
  19.8900130  40.6095870  29.0231060  18.6468530  41.4728820  28.9891200
  26.2884730  43.9102780  12.0061120  26.1835370  43.2955130  12.7322500
  26.1208950  43.3868670  11.2224130  29.5287460  42.9722810  12.6103110
  28.9797560  43.4192110  13.2545850  30.1506720  42.4672060  13.1340780
  25.1962580  41.9313730  14.5068410  25.6179000  41.7653600  15.3499800
  25.3213420  41.1213960  14.0123550  27.7090220  40.9551340  11.7545510
  28.2295880  40.2400360  11.3886660  28.3558620  41.5937210  12.0546020
  24.0921480  38.0046960  11.4526570  23.8910540  37.1414320  11.8139910
  23.9213530  37.9180320  10.5148170  31.5709790  32.8155190  13.9813450
  31.8512080  31.9723090  14.3372870  30.7975520  33.0478300  14.4952200
  22.8904280  35.1047580  11.4404450  23.1930180  35.1115010  10.5323600
  23.6298870  34.7545440  11.9372110  26.1089210  34.0482200  12.4260650
  25.7611210  33.3706190  11.8463100  26.3101980  33.5871710  13.2404040
  28.2738250  49.0362950  14.0447250  29.1689040  49.3747920  14.0666010
  28.3055880  48.3142360  13.4171530  21.9134410  44.4090000  12.2734250
  22.3509280  44.9519670  12.9291830  22.3982140  43.5836950  12.2830590
  19.1280210  47.1979030  19.7254510  19.4583220  46.3300090  19.4933150
  19.5571210  47.4037550  20.5559470  23.7242130  45.5288040  17.3856480
  23.4237670  45.4053010  18.2860390  23.6179620  44.6696630  16.9772210
  19.6170420  48.0649620  22.4636140  19.1801410  48.2450420  23.2960290
  20.1848100  48.8224240  22.3217860  36.4934050  45.3084440  12.0883160
  35.6627010  45.3761090  12.5590390  36.6705880  46.1988560  11.7850020
  35.9490510  42.0531920  14.5917360  36.7109420  42.6228570  14.6977050
  35.9644880  41.4859120  15.3625670  19.4494850  40.5769850  18.8225020
  18.7943690  40.3081490  18.1784720  20.2872800  40.4674330  18.3727000
  36.9550480  42.9082020  19.4359290  37.3259310  42.1249340  19.0295260
  37.5952410  43.5971120  19.2576590  36.0009680  42.3466290  11.7489880
  36.2758520  43.2545170  11.6209100  35.8120420  42.2828820  12.6851870
  32.3985290  35.3711140  13.0443510  32.8170170  35.1842120  12.2040170
  32.0921350  34.5190190  13.3546440  35.8975020  40.2835280  16.7419310
  35.5218620  39.5163210  16.3100600  35.1678140  40.6657980  17.2294240
  20.4870780  40.9622420  23.3628360  20.8543820  40.8749820  24.2424380
  19.9181600  40.1988970  23.2635220  18.6632930  37.7868780  14.7650350
  17.7597010  38.0498980  14.5902010  19.1473550  38.0579950  13.9850310
  35.1725980  38.5092770  20.0426550  35.6963460  38.0155420  19.4116720
  35.7585400  38.6443130  20.7874120  21.2060140  36.8434320  12.6744730
  21.9151840  36.4217540  12.1892010  20.4900080  36.9109550  12.0428080
  20.8534300  32.8973650  11.7147380  21.5762430  33.4382590  12.0328600
  21.1258820  32.6237070  10.8388920  34.6625950  37.7666120  15.9818960
  35.1585070  37.5336990  16.7667840  34.4642020  36.9277960  15.5656600
  20.5426490  32.1479840  21.6170000  21.1902680  31.5977220  21.1765160
  20.9628330  32.4022990  22.4385810  36.0913110  36.4027070  18.5156640
  35.9812390  36.2483110  19.4538910  36.8520700  35.8748010  18.2732050
  36.9803380  34.2334990  11.7562780  37.9052690  34.1016170  11.5481070
  36.9579170  34.3127810  12.7099230  37.0541870  35.0045650  14.3819490
  36.2593370  34.9390770  14.9112400  37.2585150  35.9396290  14.3704840
  33.9960290  49.0437200  18.3757880  34.5919360  48.7221770  17.6992300
  34.2538440  48.5709020  19.1671150  20.2958490  32.3035510  24.3595320
  19.9473310  32.7599330  25.1253500  19.9646190  31.4092640  24.4417750
  20.9679130  31.8311710  27.6346090  21.5162120  31.6499760  26.8712200
  21.0334440  31.0405820  28.1702400  21.7410890  48.4217360  25.6446290
  21.1471210  48.2902060  26.3836330  21.7334730  47.5855500  25.1788390
  21.3723120  45.7875740  24.5954330  20.6457180  45.1681030  24.5280280
  21.4332270  46.1816350  23.7252410  24.9768220  48.0020740  21.3803740
  25.4933240  47.3908100  20.8552000  25.6265600  48.5049520  21.8714750
  27.7163720  48.8929230  22.2072720  28.0041530  48.6383530  21.3305730
  28.2286940  48.3406590  22.7978290  28.9340730  32.6319430  22.7869230
  28.1512520  33.1064930  23.0665990  28.6403660  31.7274260  22.6782410
  33.4861800  33.3342530  20.8318320  33.9269890  33.2787630  19.9839920
  33.2169390  34.2500540  20.9028500  35.3500370  32.9657770  18.8427140
  35.2888770  32.0218990  18.6958160  36.1292400  33.0737860  19.3880600
  19.6553120  49.1050130  17.8051090  19.4875160  48.4720810  18.5032980
  18.7887630  49.3109530  17.4545280  20.2781140  32.9366910  15.3082950
  21.0360500  33.0495790  14.7346980  19.8158310  33.7736110  15.2626380
  26.8194950  35.0506180  18.2985260  26.0069460  34.6763070  17.9581140
  27.3236590  34.2951260  18.6006450  31.3219930  31.7148630  19.5368330
  31.9249300  32.2868840  20.0116850  30.5812920  32.2788070  19.3142230
  34.4654530  32.1170190  14.8108610  34.6605160  33.0153640  15.0776040
  33.6784400  31.8857270  15.3041560  21.2615820  47.7983360  15.2501230
  20.7363440  48.1791390  14.5463190  21.1860400  48.4234130  15.9710940
  22.6506290  33.4630960  13.8484920  23.1799050  32.6760760  13.7192870
  23.2834610  34.1422150  14.0820450  24.8444130  33.2006100  16.9030310
  24.2146870  32.4993410  17.0700440  24.3049270  33.9610230  16.6863470
  36.0181140  49.3570900  16.5715170  36.1933330  48.6708640  15.9276090
  35.3202710  49.8817950  16.1791840  23.8608790  49.7465740  14.1250480
  24.5927610  49.4625020  13.5774370  24.1202460  49.5079020  15.0149860
  23.0223580  45.8630470  14.1296810  22.3932460  46.3315570  14.6782640
  23.1371410  45.0179690  14.5643000  28.6091340  41.6915150   2.1607280
  27.8333440  41.2115590   2.4505850  29.2604270  41.0120800   1.9863440
  22.6257170  42.0034960   3.0383040  21.7942050  41.7483670   3.4379550
  23.2338150  42.0745730   3.7740960  22.6058430  46.0375050   3.2341060
  22.9086470  45.1472790   3.0551280  23.3502020  46.5945270   3.0063310
  18.9982130  39.5642500   2.7065130  19.5698240  38.7964700   2.7068770
  18.9983670  39.8631260   1.7971740  28.0500330  44.3672340   2.1677440
  27.9808610  43.4262280   2.0066570  28.8120190  44.4573750   2.7400010
  20.2407000  34.9726860   4.4934060  20.0609840  34.0752610   4.7736820
  19.8387080  35.5198730   5.1681010  29.0805500  37.1742720   2.3946370
  29.4570320  36.3014600   2.2820040  28.9825010  37.5101420   1.5036810
  20.8593670  37.4687360   3.1016400  21.5403780  37.7325730   3.7203800
  20.5441720  36.6288230   3.4354410  25.0518240  38.5154720   2.1888990
  25.5596460  39.0135690   2.8294010  25.5831480  37.7389920   2.0128350
  37.1529170  36.6859910   5.8918340  36.4481340  37.0741620   5.3733450
  37.4187090  37.3810200   6.4939270  23.3354340  33.1553280   6.4552410
  23.3372780  33.6725670   5.6498310  22.5058650  32.6783460   6.4322340
  24.5857190  42.7948460   4.6325910  24.2526570  43.4217380   5.2746980
  24.7623870  43.3210340   3.8527580  33.0991100  36.6093540   2.1002250
  32.3946670  36.8978430   2.6805360  33.4603260  37.4193650   1.7401810
  23.0169670  34.8663240   4.4622860  23.3586480  35.7105290   4.1676730
  22.0785480  35.0146980   4.5788200  23.7976290  44.7629260   6.4475090
  24.4150290  45.4380340   6.1659540  22.9369410  45.1717240   6.3562590
  34.7153880  46.2268670   4.3629730  34.0317400  46.8967780   4.3546400
  35.2548170  46.4249320   3.5974590  36.1678020  36.0548330   2.4911460
  35.2202930  36.0887310   2.6226890  36.4928010  36.8687280   2.8760820
  32.2512620  48.0712800   3.0774910  32.2639780  47.6675090   2.2097170
  31.6987840  48.8460090   2.9736340  31.6498060  42.9742640   4.4057520
  32.0666850  42.7602750   3.5710980  32.3737880  43.2315430   4.9766140
  35.5960160  41.3729860   4.4973760  34.7678790  41.4422950   4.0223890
  36.1910640  41.9584170   4.0289590  32.5602170  38.1599180   5.4428630
  32.1473350  38.9852890   5.6968620  31.8278120  37.5744220   5.2504990
  25.1616660  44.6326640   2.4686510  24.8644950  44.0272110   1.7894290
  26.1116480  44.6703950   2.3575870  23.4063580  37.7202290   4.0846340
  23.9578170  37.8297630   3.3099590  23.9207090  38.0939890   4.8001570
  33.2502270  48.2058510   6.1309610  32.7732830  49.0130700   5.9382220
  32.5664060  47.5536840   6.2835820  24.2535090  44.3708330   9.1194310
  23.3563620  44.5948300   9.3667710  24.2787960  44.4943270   8.1705710
  23.0806310  41.2421650   7.6951680  22.9414080  42.1144450   8.0639080
  22.1987670  40.8994460   7.5499620  24.8786660  47.1843350   9.9036830
  24.8502090  47.5886300   9.0365260  24.7151630  46.2553710   9.7408430
  36.8301480  47.9670450  11.2001000  37.3061200  48.4453340  11.8790080
  37.4508640  47.8987940  10.4746500  19.0324960  43.0119200   3.6122590
  19.1105380  43.1467970   2.6678310  19.6466640  42.3035090   3.8050710
  36.2334730  45.1583300   8.3601010  36.3597790  44.9195180   7.4418190
  36.2756110  44.3267840   8.8323090  30.0951470  48.8611300   6.9295820
  30.6096140  48.7719310   7.7318250  29.2520550  49.2071000   7.2223730
  36.0858740  37.2115760   9.3250750  35.4703010  37.7195430   8.7966210
  35.7655160  36.3114090   9.2676690  19.0884480  44.0533370   6.1517050
  19.2515520  43.5838730   5.3336420  19.5536930  43.5456930   6.8165890
  28.1473060  36.0507650   6.7912940  27.6852430  36.2590670   7.6032880
  27.7451170  35.2367000   6.4883610  33.1477570  37.2716600   7.9209600
  32.2971160  36.9722350   8.2418670  32.9879360  37.5158610   7.0093420
  30.2427280  38.7718350  10.0208390  30.5680690  37.9382100   9.6810620
  31.0307610  39.2946870  10.1686720  25.8979150  33.7286460   3.0467220
  26.1951480  34.6349290   2.9659240  26.4464710  33.2405240   2.4326790
  26.0916680  39.2058280   9.5819140  25.9960280  38.2653010   9.4319540
  26.9348660  39.4273350   9.1867210  21.2227220  35.6171950   7.7352920
  20.8290610  36.4647160   7.9425700  20.5345620  34.9798320   7.9261560
  27.7972270  35.7006920  10.8049660  27.1070590  35.5079120  11.4395750
  28.5404570  35.9841560  11.3373960  18.5244270  33.5400410   1.7683000
  18.2357320  34.1103270   2.4807980  19.2690030  33.0604860   2.1314230
  30.0735240  39.5405360   3.6403580  29.3416360  40.0492170   3.9893680
  29.6759580  38.7235340   3.3392360  30.5361150  34.9939040   3.0526520
  30.5533890  35.4447690   3.8968370  30.2876730  34.0944680   3.2659960
  33.9631900  32.4071220   8.8912900  34.2877670  31.6760880   9.4170880
  33.9988410  32.0884860   7.9893890  20.6623460  43.4284800   8.3112860
  20.2778250  42.7878470   8.9095820  20.9735650  44.1320920   8.8807590
  26.8120600  40.2761340   3.7921480  27.1790730  39.8019910   4.5382820
  26.6225660  41.1502910   4.1329820  24.6019970  39.3169980   6.1105690
  24.2977040  40.1961960   6.3356050  25.5566430  39.3769770   6.1463130
  33.8889740  42.5196330   2.4998930  34.6088860  43.0151620   2.1095040
  33.6871560  41.8414220   1.8552800  29.2708540  42.5905390   8.3867930
  29.2045850  41.6701060   8.1325520  28.6413680  42.6880830   9.1012570
  20.6583700  40.1572720   7.2577050  20.2998640  40.8226570   7.8450390
  20.3638260  39.3256270   7.6289670  23.8596820  40.6156960  10.1416600
  23.5596960  40.7614140   9.2444420  24.6308060  40.0562250  10.0489990
  29.2025270  45.4125960   8.1371730  29.2169810  44.4806920   7.9190640
  28.4950370  45.4985720   8.7761500  35.4136480  42.0533300   7.4840310
  34.6884670  42.6462080   7.2869700  35.9411940  42.0456840   6.6853680
  28.6359170  47.0543530   5.2312230  29.2801390  47.2602910   5.9085650
  28.9988610  46.2931930   4.7783080  29.9091250  45.0575880   3.9489680
  30.5513480  44.3569040   4.0621850  30.4340600  45.8374320   3.7686570
  31.6828870  45.8570780   7.1525740  32.0185110  46.4437470   7.8303660
  30.7629210  45.7263490   7.3823530  19.2332270  33.6465960   7.9349150
  18.5190790  33.8462880   8.5401760  19.6527310  32.8705530   8.3063950
  19.5204860  47.6346220   8.9215680  19.6295980  46.6940960   8.7811070
  18.8685420  47.9000970   8.2729410  27.5117450  45.9062110  10.3213800
  27.1914320  45.1871350  10.8659490  26.8375810  46.5817180  10.3949860
  30.7271050  36.1388270   5.6850600  31.0951870  35.3183480   6.0130170
  29.8669250  36.1990160   6.1006250  27.6873040  38.7927860   5.9088570
  28.1858290  39.2673680   6.5740420  27.8295990  37.8691380   6.1158600
  34.8939900  35.0095820   6.7516960  34.3913500  35.7501220   7.0910770
  35.7096560  35.3979820   6.4353750  35.1887490  47.4237850   1.8732580
  35.3134910  48.2469020   2.3456390  36.0553050  47.2128580   1.5256730
  21.6663300  48.7015130  10.7335290  22.4676030  49.0227180  11.1470690
  21.1515120  48.3410710  11.4555200  30.5027930  44.8095000  10.6810700
  29.8966090  44.8326600   9.9406450  30.1982040  44.0778040  11.2177950
  31.9328300  48.5375290   9.2920110  32.8850050  48.4533310   9.2420350
  31.7856520  49.2017000   9.9653900  19.3861110  41.1888590   9.6771340
  19.8900130  40.6095870  10.2487570  18.6468530  41.4728820  10.2147710
  26.4399050  42.5959580   9.2106860  25.6744720  43.1644580   9.1261530
  26.6215010  42.3035790   8.3175090  33.5822400  44.3264910   9.7681880
  34.3231870  44.6640670   9.2649340  32.8195080  44.4956970   9.2151650
  21.4184190  39.3318180  10.5721410  21.4589530  39.0332050  11.4806640
  22.2729690  39.7325790  10.4128930  23.3590000  37.9110280   8.5395900
  22.8286460  37.4201230   7.9119240  24.0278070  38.3394480   8.0053830
  32.2568060  42.3779740   8.3037090  32.6709080  42.5324820   9.1527510
  31.3219060  42.5034960   8.4662870  32.7290230  39.7175900  10.3076240
  33.3111000  38.9628220  10.2196720  32.9052000  40.2483340   9.5307720
  23.8462300  34.8772650   8.6193190  23.7519170  34.2593400   7.8944060
  23.2659690  35.6038940   8.3923100  26.6123740  33.4345890   5.6520580
  26.1641040  33.4570150   4.8066130  25.9788940  33.0364910   6.2490880
  27.0183290  42.3300220   6.2733020  27.4371400  43.1732950   6.1009260
  26.0991920  42.4672260   6.0439800  29.3547190  40.0616400   7.6570860
  29.4743400  39.4657540   8.3965700  30.2141190  40.0986090   7.2372160
  31.6935090  40.6153590   6.2333370  31.1670310  41.1396210   5.6298510
  32.0366430  41.2480980   6.8643100  24.8690710  48.6353230   7.3890750
  24.3311800  49.3599290   7.0699450  25.1224670  48.1583570   6.5988090
  26.1215960  36.6037750   8.9146680  26.7115650  36.2953600   9.6024500
  25.3036200  36.1317500   9.0706580  30.9409390  36.2203560   9.1479700
  30.2524910  35.5585100   9.0829690  31.6615410  35.7741830   9.5928160
  27.7252920  49.8704440   7.6477400  27.6511620  50.7739580   7.9549770
  26.8231760  49.5516340   7.6199470  19.6170420  48.0649620   3.6892650
  19.1801410  48.2450420   4.5216800  20.1848100  48.8224240   3.5474370
  35.2532600  47.5666620   7.9769960  34.6534590  47.6259180   7.2333880
  35.3826500  46.6271600   8.1066810  33.9384240  44.2918600   6.0746120
  33.1244080  44.7215760   6.3371910  34.3458440  44.9037010   5.4615170
  20.4870780  40.9622420   4.5884870  20.8543820  40.8749820   5.4680890
  19.9181600  40.1988970   4.4891730  35.2874640  39.4306800   7.6015340
  35.0560730  39.2019550   6.7013290  35.5479190  40.3506350   7.5560230
  20.0386780  37.8731510   8.4943290  19.1442830  37.8398270   8.8337000
  20.5784330  38.0718300   9.2594540  33.7262710  34.6563230  10.3795040
  34.6032890  34.6646630  10.7629040  33.7383550  33.9194070   9.7687390
  35.3515700  38.5932640   4.7902610  34.4018410  38.5596180   4.9047600
  35.5328710  39.5032750   4.5552380  20.5426490  32.1479840   2.8426510
  21.1902680  31.5977220   2.4021670  20.9628330  32.4022990   3.6642320
  34.4378830  32.3421200   6.1996150  35.0751050  32.9555340   6.5655340
  34.5853720  32.3781860   5.2545380  20.2958490  32.3035510   5.5851830
  19.9473310  32.7599330   6.3510010  19.9646190  31.4092640   5.6674260
  21.9022860  45.4755110   9.7505020  21.8592490  45.1048020  10.6319480
  22.0333870  46.4132680   9.8906840  25.6028890  47.0314700   5.3514740
  25.3620250  47.2989260   4.4645260  26.5431530  47.2020430   5.4065600
  27.8083310  33.4947390   9.1071250  27.7472200  34.0869220   9.8566660
  28.7483690  33.3873350   8.9621510  30.4457870  33.1517450   8.7463540
  31.0598280  33.4696740   8.0844620  30.9907430  32.6666040   9.3659400
  36.8633050  49.0509080   6.1525380  36.3691330  49.4477950   5.4352510
  36.2546340  48.4258290   6.5462660  20.9679130  31.8311710   8.8602600
  21.5162120  31.6499760   8.0968710  21.0334440  31.0405820   9.3958910
  21.7410890  48.4217360   6.8702800  21.1471210  48.2902060   7.6092840
  21.7334730  47.5855500   6.4044900  31.1865910  31.7149590   5.0732830
  30.3125750  32.0484700   4.8705760  31.0776660  31.2422770   5.8984700
  32.0937890  33.9220460   6.4574550  31.7651250  33.1072220   6.0776280
  33.0420190  33.8790270   6.3340240  34.5472500  49.6932500   3.4312120
  34.0875470  50.4448310   3.0570140  33.9184960  48.9738970   3.3726920
  21.3723120  45.7875740   5.8210840  20.6457180  45.1681030   5.7536790
  21.4332270  46.1816350   4.9508920  24.9768220  48.0020740   2.6060250
  25.4933240  47.3908100   2.0808510  25.6265600  48.5049520   3.0971260
  27.7163720  48.8929230   3.4329230  28.0041530  48.6383530   2.5562240
  28.2286940  48.3406590   4.0234800  28.9340730  32.6319430   4.0125740
  28.1512520  33.1064930   4.2922500  28.6403660  31.7274260   3.9038920
  27.7836080  49.8145330  10.7997430  28.7103390  49.5789600  10.8433390
  27.7686510  50.6417330  10.3183460  24.9699690  32.4790080  10.5639310
  24.6883960  32.9823680   9.8000130  25.3519390  31.6811830  10.1981440
  31.5715150  31.8943660  11.1419780  31.4580600  32.2138270  12.0371300
  32.3884890  32.2956170  10.8457060  34.3513640  49.0415190  10.6238470
  35.1438960  48.5464420  10.4164430  34.6446790  49.7205330  11.2314080
  30.4773300  21.1392640  75.3771970  30.3967350  20.2247250  75.1063680
  30.0637720  21.6359710  74.6711680  32.6298770  27.3231850  76.0380370
  32.1680300  26.5519090  76.3667540  33.4424320  27.3497920  76.5432820
  21.0349120  18.1893360  71.9199390  20.1465820  18.5309330  71.8179270
  21.3190310  17.9893680  71.0280220  28.8562080  29.6089860  75.6584360
  28.2373520  30.0647360  75.0878800  29.7113860  29.7641320  75.2574060
  23.2110510  16.7724860  72.9537770  23.3177260  17.6728590  73.2606530
  22.3002870  16.7242830  72.6632420  32.8629620  15.8949670  74.4248670
  33.6839240  15.4046240  74.4674150  32.8963700  16.4847330  75.1780510
  29.7225430  24.4929100  73.0516270  29.1042700  24.9578550  72.4878990
  30.2348680  25.1856580  73.4685780  19.0908630  25.1785630  70.4255900
  18.7136610  25.6672730  69.6940800  19.3481700  25.8510910  71.0562430
  26.6997560  13.5802020  75.8841410  27.0072540  13.0248910  75.1676910
  25.7698260  13.7146480  75.7014400  33.5458040  26.0185530  73.2639040
  33.4354370  25.0759860  73.3888460  33.5426290  26.3801170  74.1501800
  29.0878320  21.6450850  72.6201530  28.1607600  21.5788230  72.8490000
  29.2403140  22.5830980  72.5056770  29.0747400  17.9167850  69.6168690
  28.1351070  18.0781810  69.7021150  29.3930660  18.6353530  69.0704680
  33.1175610  23.2071150  73.1236780  32.4988030  22.8690700  72.4763080
  33.1000060  22.5630910  73.8315970  24.6934960  22.1715590  75.4021260
  24.2891960  21.4592840  74.9067160  24.7798080  21.8268830  76.2909300
  31.2940310  22.4457960  70.1309530  31.7333590  21.6080390  69.9847350
  32.0068730  23.0787360  70.2173670  29.4035690  27.3854030  74.0990770
  29.8431600  28.1278360  73.6846160  29.3422580  27.6280600  75.0229730
  34.8757450  13.7000770  68.4450570  34.5630110  13.7927600  69.3449640
  35.6369920  14.2781800  68.3948000  21.3939590  21.0660570  72.9027910
  21.2737190  21.7922660  72.2909180  21.0840480  20.2963480  72.4255820
  20.2772590  25.9375900  75.1202730  19.8700670  26.0790490  74.2656330
  21.1685600  25.6536060  74.9173940  32.0705870  30.3723150  71.4553780
  31.9107010  30.0826090  72.3535610  31.9052580  29.5963280  70.9199010
  24.5494250  30.1521680  73.2325400  24.3736730  29.2357220  73.0193200
  23.6949990  30.5108970  73.4723200  31.7732000  27.8810710  70.0151780
  31.0797160  27.8788000  69.3554060  32.5154860  27.4570030  69.5845950
  31.3381930  29.5073420  74.0900270  31.7938880  28.7262800  74.4038890
  31.6774450  30.2180240  74.6341450  23.8603250  14.4095640  76.2851580
  23.4171400  15.1905180  75.9536100  24.4188240  14.7325530  76.9922520
  26.9762070  14.0306340  71.1657410  26.3516250  14.0266210  71.8910720
  26.8892190  13.1637300  70.7693380  23.6517470  19.5329210  74.0132830
  23.4258390  19.3166380  74.9179450  22.8710000  19.9657670  73.6678800
  30.8815230  19.5392580  72.6123480  30.2824120  20.2628380  72.4287100
  31.4294840  19.4769360  71.8299930  29.4880100  18.1756120  74.6426760
  29.8809670  18.4928320  73.8295450  29.8496950  17.2968000  74.7571280
  18.7114500  18.7077040  68.0759680  18.6289170  19.6507800  68.2174670
  18.3597560  18.5651950  67.1972030  26.5112630  17.4416070  77.1430030
  26.5148690  17.0006020  76.2934570  27.4063750  17.7633400  77.2501850
  22.3615010  17.3242560  76.1024240  22.0215060  17.8017790  76.8591290
  21.5992330  16.8707680  75.7425340  26.5732780  18.4428150  70.1336790
  26.6945600  18.4014630  71.0822610  26.1881290  19.3052300  69.9783520
  25.5854280  20.7529290  69.5320090  25.0171180  20.3047540  68.9056000
  26.2943280  21.1122070  68.9985240  19.6761090  16.2461540  75.0188910
  19.3908010  15.8817210  75.8567530  19.6139950  15.5142000  74.4052050
  23.1301760  24.7487480  71.8046500  22.3564020  24.2085100  71.6445220
  23.8596390  24.2294090  71.4664260  29.3499680  15.1390800  71.7402280
  28.5364290  14.6403970  71.6647590  29.1561630  15.9789050  71.3238630
  32.0648070  19.5110450  70.0364440  32.9527690  19.8227680  69.8615780
  32.0353160  18.6382700  69.6445020  23.1739160  24.4167860  75.4425310
  23.6917830  23.6136120  75.3882200  22.7223180  24.3547000  76.2842140
  28.0608660  25.6834140  70.7152610  28.4024360  26.4276370  70.2195930
  27.2321370  25.9965260  71.0777440  34.3362340  20.8222290  69.5044300
  34.2526060  21.2536510  68.6540740  35.0556530  21.2820640  69.9371120
  35.3649590  27.6764550  72.2326430  34.7225750  27.0220170  72.5070150
  34.9780250  28.0819640  71.4567100  30.9436070  25.0049980  76.0798120
  31.2959890  24.4078110  75.4199490  30.0598400  24.6794210  76.2506370
  27.0299350  25.7647670  73.4868530  27.7170480  26.3116880  73.8676120
  26.2431770  26.3088400  73.5218140  19.1691750  21.3820490  68.9785610
  20.0386600  21.6645290  69.2621530  18.6782070  22.1956360  68.8634420
  26.3326560  22.7693700  73.0993890  26.7889340  23.5798950  73.3254080
  25.9814770  22.4516840  73.9312380  22.2338340  13.1131350  73.5716410
  22.1052970  13.1049250  74.5201330  21.4100360  13.4514440  73.2207420
  33.7546970  26.5681010  68.7702780  33.5284550  25.8511450  69.3627420
  33.3643170  26.3193450  67.9324530  19.5363000  30.5947870  69.5447240
  19.8960640  31.1937210  68.8904510  19.3955340  31.1407760  70.3182270
  33.3363220  24.4852950  70.4316940  33.0484920  24.9465640  71.2194820
  34.1315390  24.0250720  70.7001160  25.5531620  27.9779070  70.3620910
  25.5441720  28.7108760  69.7465420  24.6329980  27.7310650  70.4547870
  21.1538260  23.1993960  71.1067670  20.5466210  23.9392860  71.1162970
  21.6287610  23.2893320  70.2805870  34.0933080  16.3201720  71.5912120
  33.4646240  16.4247390  70.8770350  33.5985000  16.5398500  72.3806000
  28.5391220  28.0407310  69.0246100  28.6403200  27.8371300  68.0948080
  27.6392960  27.7865590  69.2293880  26.0617110  18.5987670  73.0070000
  25.3533260  19.0674010  73.4483610  26.3461590  17.9409680  73.6415190
  30.0932540  15.3238330  74.4465790  29.9700320  15.3424460  73.4975300
  31.0417100  15.3717270  74.5664190  27.1809330  30.5593630  73.7193770
  27.4350830  30.5215020  72.7973140  26.2321810  30.4326960  73.7122020
  24.2652130  16.9072750  70.3820710  25.1142660  17.3442900  70.3160900
  23.8983400  17.2193010  71.2092770  33.1861910  21.4785510  75.2952280
  32.2452050  21.4935740  75.4699970  33.5005980  20.6921470  75.7412580
  23.1643550  23.1605110  68.8556240  23.9306820  23.0486470  69.4181670
  23.2418240  22.4643080  68.2033010  21.8590310  20.5930180  69.5389130
  21.9393900  19.6457690  69.6506530  22.7510060  20.9237060  69.6449790
  22.6605020  30.7425570  76.6423670  23.3967500  30.1941030  76.9132240
  23.0445940  31.6081580  76.5029660  19.5450500  26.8099140  72.5165180
  18.6190280  27.0520280  72.5070590  20.0106930  27.6373400  72.3949930
  25.7707330  29.9155880  68.4649240  26.5635940  30.2044710  68.0131030
  25.2511680  29.4848050  67.7861720  34.8237500  29.1426010  69.8885980
  34.5379010  28.7291150  69.0740160  34.6257050  30.0713720  69.7686500
  26.2884730  25.1359290  68.3291590  26.1835370  24.5211640  69.0552970
  26.1208950  24.6125180  67.5454600  29.5287460  24.1979320  68.9333580
  28.9797560  24.6448620  69.5776320  30.1506720  23.6928570  69.4571250
  25.1962580  23.1570240  70.8298880  25.6179000  22.9910110  71.6730270
  25.3213420  22.3470470  70.3354020  27.7090220  22.1807850  68.0775980
  28.2295880  21.4656870  67.7117130  28.3558620  22.8193720  68.3776490
  24.0921480  19.2303470  67.7757040  23.8910540  18.3670830  68.1370380
  23.9213530  19.1436830  66.8378640  31.5709790  14.0411700  70.3043920
  31.8512080  13.1979600  70.6603340  30.7975520  14.2734810  70.8182670
  22.8904280  16.3304090  67.7634920  23.1930180  16.3371520  66.8554070
  23.6298870  15.9801950  68.2602580  26.1089210  15.2738710  68.7491120
  25.7611210  14.5962700  68.1693570  26.3101980  14.8128220  69.5634510
  28.2738250  30.2619460  70.3677720  29.1689040  30.6004430  70.3896480
  28.3055880  29.5398870  69.7402000  21.9134410  25.6346510  68.5964720
  22.3509280  26.1776180  69.2522300  22.3982140  24.8093460  68.6061060
  19.1280210  28.4235540  76.0484980  19.4583220  27.5556600  75.8163620
  19.5571210  28.6294060  76.8789940  23.7242130  26.7544550  73.7086950
  23.4237670  26.6309520  74.6090860  23.6179620  25.8953140  73.3002680
  36.4934050  26.5340950  68.4113630  35.6627010  26.6017600  68.8820860
  36.6705880  27.4245070  68.1080490  35.9490510  23.2788430  70.9147830
  36.7109420  23.8485080  71.0207520  35.9644880  22.7115630  71.6856140
  19.4494850  21.8026360  75.1455490  18.7943690  21.5338000  74.5015190
  20.2872800  21.6930840  74.6957470  36.9550480  24.1338530  75.7589760
  37.3259310  23.3505850  75.3525730  37.5952410  24.8227630  75.5807060
  36.0009680  23.5722800  68.0720350  36.2758520  24.4801680  67.9439570
  35.8120420  23.5085330  69.0082340  32.3985290  16.5967650  69.3673980
  32.8170170  16.4098630  68.5270640  32.0921350  15.7446700  69.6776910
  35.8975020  21.5091790  73.0649780  35.5218620  20.7419720  72.6331070
  35.1678140  21.8914490  73.5524710  18.6632930  19.0125290  71.0880820
  17.7597010  19.2755490  70.9132480  19.1473550  19.2836460  70.3080780
  35.1725980  19.7349280  76.3657020  35.6963460  19.2411930  75.7347190
  35.7585400  19.8699640  77.1104590  21.2060140  18.0690830  68.9975200
  21.9151840  17.6474050  68.5122480  20.4900080  18.1366060  68.3658550
  20.8534300  14.1230160  68.0377850  21.5762430  14.6639100  68.3559070
  21.1258820  13.8493580  67.1619390  34.6625950  18.9922630  72.3049430
  35.1585070  18.7593500  73.0898310  34.4642020  18.1534470  71.8887070
  36.0913110  17.6283580  74.8387110  35.9812390  17.4739620  75.7769380
  36.8520700  17.1004520  74.5962520  36.9803380  15.4591500  68.0793250
  37.9052690  15.3272680  67.8711540  36.9579170  15.5384320  69.0329700
  37.0541870  16.2302160  70.7049960  36.2593370  16.1647280  71.2342870
  37.2585150  17.1652800  70.6935310  33.9960290  30.2693710  74.6988350
  34.5919360  29.9478280  74.0222770  34.2538440  29.7965530  75.4901620
  33.4861800  14.5599040  77.1548790  33.9269890  14.5044140  76.3070390
  33.2169390  15.4757050  77.2258970  35.3500370  14.1914280  75.1657610
  35.2888770  13.2475500  75.0188630  36.1292400  14.2994370  75.7111070
  19.6553120  30.3306640  74.1281560  19.4875160  29.6977320  74.8263450
  18.7887630  30.5366040  73.7775750  20.2781140  14.1623420  71.6313420
  21.0360500  14.2752300  71.0577450  19.8158310  14.9992620  71.5856850
  26.8194950  16.2762690  74.6215730  26.0069460  15.9019580  74.2811610
  27.3236590  15.5207770  74.9236920  31.3219930  12.9405140  75.8598800
  31.9249300  13.5125350  76.3347320  30.5812920  13.5044580  75.6372700
  34.4654530  13.3426700  71.1339080  34.6605160  14.2410150  71.4006510
  33.6784400  13.1113780  71.6272030  21.2615820  29.0239870  71.5731700
  20.7363440  29.4047900  70.8693660  21.1860400  29.6490640  72.2941410
  22.6506290  14.6887470  70.1715390  23.1799050  13.9017270  70.0423340
  23.2834610  15.3678660  70.4050920  24.8444130  14.4262610  73.2260780
  24.2146870  13.7249920  73.3930910  24.3049270  15.1866740  73.0093940
  36.0181140  30.5827410  72.8945640  36.1933330  29.8965150  72.2506560
  35.3202710  31.1074460  72.5022310  23.8608790  30.9722250  70.4480950
  24.5927610  30.6881530  69.9004840  24.1202460  30.7335530  71.3380330
  23.0223580  27.0886980  70.4527280  22.3932460  27.5572080  71.0013110
  23.1371410  26.2436200  70.8873470  30.4773300  21.1392640  56.6028480
  30.3967350  20.2247250  56.3320190  30.0637720  21.6359710  55.8968190
  28.6091340  22.9171660  58.4837750  27.8333440  22.4372100  58.7736320
  29.2604270  22.2377310  58.3093910  22.6257170  23.2291470  59.3613510
  21.7942050  22.9740180  59.7610020  23.2338150  23.3002240  60.0971430
  32.6298770  27.3231850  57.2636880  32.1680300  26.5519090  57.5924050
  33.4424320  27.3497920  57.7689330  22.6058430  27.2631560  59.5571530
  22.9086470  26.3729300  59.3781750  23.3502020  27.8201780  59.3293780
  21.0349120  18.1893360  53.1455900  20.1465820  18.5309330  53.0435780
  21.3190310  17.9893680  52.2536730  18.9982130  20.7899010  59.0295600
  19.5698240  20.0221210  59.0299240  18.9983670  21.0887770  58.1202210
  28.8562080  29.6089860  56.8840870  28.2373520  30.0647360  56.3135310
  29.7113860  29.7641320  56.4830570  28.0500330  25.5928850  58.4907910
  27.9808610  24.6518790  58.3297040  28.8120190  25.6830260  59.0630480
  20.2407000  16.1983370  60.8164530  20.0609840  15.3009120  61.0967290
  19.8387080  16.7455240  61.4911480  29.0805500  18.3999230  58.7176840
  29.4570320  17.5271110  58.6050510  28.9825010  18.7357930  57.8267280
  23.2110510  16.7724860  54.1794280  23.3177260  17.6728590  54.4863040
  22.3002870  16.7242830  53.8888930  32.8629620  15.8949670  55.6505180
  33.6839240  15.4046240  55.6930660  32.8963700  16.4847330  56.4037020
  20.8593670  18.6943870  59.4246870  21.5403780  18.9582240  60.0434270
  20.5441720  17.8544740  59.7584880  25.0518240  19.7411230  58.5119460
  25.5596460  20.2392200  59.1524480  25.5831480  18.9646430  58.3358820
  37.1529170  17.9116420  62.2148810  36.4481340  18.2998130  61.6963920
  37.4187090  18.6066710  62.8169740  23.3354340  14.3809790  62.7782880
  23.3372780  14.8982180  61.9728780  22.5058650  13.9039970  62.7552810
  24.5857190  24.0204970  60.9556380  24.2526570  24.6473890  61.5977450
  24.7623870  24.5466850  60.1758050  33.0991100  17.8350050  58.4232720
  32.3946670  18.1234940  59.0035830  33.4603260  18.6450160  58.0632280
  23.0169670  16.0919750  60.7853330  23.3586480  16.9361800  60.4907200
  22.0785480  16.2403490  60.9018670  23.7976290  25.9885770  62.7705560
  24.4150290  26.6636850  62.4890010  22.9369410  26.3973750  62.6793060
  19.0908630  25.1785630  51.6512410  18.7136610  25.6672730  50.9197310
  19.3481700  25.8510910  52.2818940  34.7153880  27.4525180  60.6860200
  34.0317400  28.1224290  60.6776870  35.2548170  27.6505830  59.9205060
  36.1678020  17.2804840  58.8141930  35.2202930  17.3143820  58.9457360
  36.4928010  18.0943790  59.1991290  26.6997560  13.5802020  57.1097920
  27.0072540  13.0248910  56.3933420  25.7698260  13.7146480  56.9270910
  32.2512620  29.2969310  59.4005380  32.2639780  28.8931600  58.5327640
  31.6987840  30.0716600  59.2966810  31.6498060  24.1999150  60.7287990
  32.0666850  23.9859260  59.8941450  32.3737880  24.4571940  61.2996610
  29.0747400  17.9167850  50.8425200  28.1351070  18.0781810  50.9277660
  29.3930660  18.6353530  50.2961190  35.5960160  22.5986370  60.8204230
  34.7678790  22.6679460  60.3454360  36.1910640  23.1840680  60.3520060
  32.5602170  19.3855690  61.7659100  32.1473350  20.2109400  62.0199090
  31.8278120  18.8000730  61.5735460  24.6934960  22.1715590  56.6277770
  24.2891960  21.4592840  56.1323670  24.7798080  21.8268830  57.5165810
  25.1616660  25.8583150  58.7916980  24.8644950  25.2528620  58.1124760
  26.1116480  25.8960460  58.6806340  23.4063580  18.9458800  60.4076810
  23.9578170  19.0554140  59.6330060  23.9207090  19.3196400  61.1232040
  33.2502270  29.4315020  62.4540080  32.7732830  30.2387210  62.2612690
  32.5664060  28.7793350  62.6066290  24.2535090  25.5964840  65.4424780
  23.3563620  25.8204810  65.6898180  24.2787960  25.7199780  64.4936180
  23.0806310  22.4678160  64.0182150  22.9414080  23.3400960  64.3869550
  22.1987670  22.1250970  63.8730090  24.8786660  28.4099860  66.2267300
  24.8502090  28.8142810  65.3595730  24.7151630  27.4810220  66.0638900
  34.8757450  13.7000770  49.6707080  34.5630110  13.7927600  50.5706150
  35.6369920  14.2781800  49.6204510  21.3939590  21.0660570  54.1284420
  21.2737190  21.7922660  53.5165690  21.0840480  20.2963480  53.6512330
  36.8301480  29.1926960  67.5231470  37.3061200  29.6709850  68.2020550
  37.4508640  29.1244450  66.7976970  19.0324960  24.2375710  59.9353060
  19.1105380  24.3724480  58.9908780  19.6466640  23.5291600  60.1281180
  20.2772590  25.9375900  56.3459240  19.8700670  26.0790490  55.4912840
  21.1685600  25.6536060  56.1430450  36.2334730  26.3839810  64.6831480
  36.3597790  26.1451690  63.7648660  36.2756110  25.5524350  65.1553560
  30.0951470  30.0867810  63.2526290  30.6096140  29.9975820  64.0548720
  29.2520550  30.4327510  63.5454200  24.5494250  30.1521680  54.4581910
  24.3736730  29.2357220  54.2449710  23.6949990  30.5108970  54.6979710
  31.3381930  29.5073420  55.3156780  31.7938880  28.7262800  55.6295400
  31.6774450  30.2180240  55.8597960  36.0858740  18.4372270  65.6481220
  35.4703010  18.9451940  65.1196680  35.7655160  17.5370600  65.5907160
  19.0884480  25.2789880  62.4747520  19.2515520  24.8095240  61.6566890
  19.5536930  24.7713440  63.1396360  23.8603250  14.4095640  57.5108090
  23.4171400  15.1905180  57.1792610  24.4188240  14.7325530  58.2179030
  28.1473060  17.2764160  63.1143410  27.6852430  17.4847180  63.9263350
  27.7451170  16.4623510  62.8114080  33.1477570  18.4973110  64.2440070
  32.2971160  18.1978860  64.5649140  32.9879360  18.7415120  63.3323890
  30.2427280  19.9974860  66.3438860  30.5680690  19.1638610  66.0041090
  31.0307610  20.5203380  66.4917190  26.9762070  14.0306340  52.3913920
  26.3516250  14.0266210  53.1167230  26.8892190  13.1637300  51.9949890
  25.8979150  14.9542970  59.3697690  26.1951480  15.8605800  59.2889710
  26.4464710  14.4661750  58.7557260  23.6517470  19.5329210  55.2389340
  23.4258390  19.3166380  56.1435960  22.8710000  19.9657670  54.8935310
  30.8815230  19.5392580  53.8379990  30.2824120  20.2628380  53.6543610
  31.4294840  19.4769360  53.0556440  26.0916680  20.4314790  65.9049610
  25.9960280  19.4909520  65.7550010  26.9348660  20.6529860  65.5097680
  29.4880100  18.1756120  55.8683270  29.8809670  18.4928320  55.0551960
  29.8496950  17.2968000  55.9827790  21.2227220  16.8428460  64.0583390
  20.8290610  17.6903670  64.2656170  20.5345620  16.2054830  64.2492030
  27.7972270  16.9263430  67.1280130  27.1070590  16.7335630  67.7626220
  28.5404570  17.2098070  67.6604430  18.5244270  14.7656920  58.0913470
  18.2357320  15.3359780  58.8038450  19.2690030  14.2861370  58.4544700
  18.7114500  18.7077040  49.3016190  18.6289170  19.6507800  49.4431180
  18.3597560  18.5651950  48.4228540  30.0735240  20.7661870  59.9634050
  29.3416360  21.2748680  60.3124150  29.6759580  19.9491850  59.6622830
  26.5112630  17.4416070  58.3686540  26.5148690  17.0006020  57.5191080
  27.4063750  17.7633400  58.4758360  22.3615010  17.3242560  57.3280750
  22.0215060  17.8017790  58.0847800  21.5992330  16.8707680  56.9681850
  26.5732780  18.4428150  51.3593300  26.6945600  18.4014630  52.3079120
  26.1881290  19.3052300  51.2040030  30.5361150  16.2195550  59.3756990
  30.5533890  16.6704200  60.2198840  30.2876730  15.3201190  59.5890430
  25.5854280  20.7529290  50.7576600  25.0171180  20.3047540  50.1312510
  26.2943280  21.1122070  50.2241750  33.9631900  13.6327730  65.2143370
  34.2877670  12.9017390  65.7401350  33.9988410  13.3141370  64.3124360
  20.6623460  24.6541310  64.6343330  20.2778250  24.0134980  65.2326290
  20.9735650  25.3577430  65.2038060  26.8120600  21.5017850  60.1151950
  27.1790730  21.0276420  60.8613290  26.6225660  22.3759420  60.4560290
  19.6761090  16.2461540  56.2445420  19.3908010  15.8817210  57.0824040
  19.6139950  15.5142000  55.6308560  24.6019970  20.5426490  62.4336160
  24.2977040  21.4218470  62.6586520  25.5566430  20.6026280  62.4693600
  23.1301760  24.7487480  53.0303010  22.3564020  24.2085100  52.8701730
  23.8596390  24.2294090  52.6920770  33.8889740  23.7452840  58.8229400
  34.6088860  24.2408130  58.4325510  33.6871560  23.0670730  58.1783270
  29.3499680  15.1390800  52.9658790  28.5364290  14.6403970  52.8904100
  29.1561630  15.9789050  52.5495140  29.2708540  23.8161900  64.7098400
  29.2045850  22.8957570  64.4555990  28.6413680  23.9137340  65.4243040
  32.0648070  19.5110450  51.2620950  32.9527690  19.8227680  51.0872290
  32.0353160  18.6382700  50.8701530  23.1739160  24.4167860  56.6681820
  23.6917830  23.6136120  56.6138710  22.7223180  24.3547000  57.5098650
  20.6583700  21.3829230  63.5807520  20.2998640  22.0483080  64.1680860
  20.3638260  20.5512780  63.9520140  23.8596820  21.8413470  66.4647070
  23.5596960  21.9870650  65.5674890  24.6308060  21.2818760  66.3720460
  29.2025270  26.6382470  64.4602200  29.2169810  25.7063430  64.2421110
  28.4950370  26.7242230  65.0991970  35.4136480  23.2789810  63.8070780
  34.6884670  23.8718590  63.6100170  35.9411940  23.2713350  63.0084150
  27.0299350  25.7647670  54.7125040  27.7170480  26.3116880  55.0932630
  26.2431770  26.3088400  54.7474650  19.1691750  21.3820490  50.2042120
  20.0386600  21.6645290  50.4878040  18.6782070  22.1956360  50.0890930
  26.3326560  22.7693700  54.3250400  26.7889340  23.5798950  54.5510590
  25.9814770  22.4516840  55.1568890  28.6359170  28.2800040  61.5542700
  29.2801390  28.4859420  62.2316120  28.9988610  27.5188440  61.1013550
  22.2338340  13.1131350  54.7972920  22.1052970  13.1049250  55.7457840
  21.4100360  13.4514440  54.4463930  29.9091250  26.2832390  60.2720150
  30.5513480  25.5825550  60.3852320  30.4340600  27.0630830  60.0917040
  31.6828870  27.0827290  63.4756210  32.0185110  27.6693980  64.1534130
  30.7629210  26.9520000  63.7054000  19.5363000  30.5947870  50.7703750
  19.8960640  31.1937210  50.1161020  19.3955340  31.1407760  51.5438780
  19.2332270  14.8722470  64.2579620  18.5190790  15.0719390  64.8632230
  19.6527310  14.0962040  64.6294420  19.5204860  28.8602730  65.2446150
  19.6295980  27.9197470  65.1041540  18.8685420  29.1257480  64.5959880
  27.5117450  27.1318620  66.6444270  27.1914320  26.4127860  67.1889960
  26.8375810  27.8073690  66.7180330  25.5531620  27.9779070  51.5877420
  25.5441720  28.7108760  50.9721930  24.6329980  27.7310650  51.6804380
  21.1538260  23.1993960  52.3324180  20.5466210  23.9392860  52.3419480
  21.6287610  23.2893320  51.5062380  30.7271050  17.3644780  62.0081070
  31.0951870  16.5439990  62.3360640  29.8669250  17.4246670  62.4236720
  34.0933080  16.3201720  52.8168630  33.4646240  16.4247390  52.1026860
  33.5985000  16.5398500  53.6062510  26.0617110  18.5987670  54.2326510
  25.3533260  19.0674010  54.6740120  26.3461590  17.9409680  54.8671700
  27.6873040  20.0184370  62.2319040  28.1858290  20.4930190  62.8970890
  27.8295990  19.0947890  62.4389070  30.0932540  15.3238330  55.6722300
  29.9700320  15.3424460  54.7231810  31.0417100  15.3717270  55.7920700
  27.1809330  30.5593630  54.9450280  27.4350830  30.5215020  54.0229650
  26.2321810  30.4326960  54.9378530  24.2652130  16.9072750  51.6077220
  25.1142660  17.3442900  51.5417410  23.8983400  17.2193010  52.4349280
  34.8939900  16.2352330  63.0747430  34.3913500  16.9757730  63.4141240
  35.7096560  16.6236330  62.7584220  23.1643550  23.1605110  50.0812750
  23.9306820  23.0486470  50.6438180  23.2418240  22.4643080  49.4289520
  21.8590310  20.5930180  50.7645640  21.9393900  19.6457690  50.8763040
  22.7510060  20.9237060  50.8706300  35.1887490  28.6494360  58.1963050
  35.3134910  29.4725530  58.6686860  36.0553050  28.4385090  57.8487200
  22.6605020  30.7425570  57.8680180  23.3967500  30.1941030  58.1388750
  23.0445940  31.6081580  57.7286170  19.5450500  26.8099140  53.7421690
  18.6190280  27.0520280  53.7327100  20.0106930  27.6373400  53.6206440
  21.6663300  29.9271640  67.0565760  22.4676030  30.2483690  67.4701160
  21.1515120  29.5667220  67.7785670  25.7707330  29.9155880  49.6905750
  26.5635940  30.2044710  49.2387540  25.2511680  29.4848050  49.0118230
  30.5027930  26.0351510  67.0041170  29.8966090  26.0583110  66.2636920
  30.1982040  25.3034550  67.5408420  31.9328300  29.7631800  65.6150580
  32.8850050  29.6789820  65.5650820  31.7856520  30.4273510  66.2884370
  19.3861110  22.4145100  66.0001810  19.8900130  21.8352380  66.5718040
  18.6468530  22.6985330  66.5378180  26.2884730  25.1359290  49.5548100
  26.1835370  24.5211640  50.2809480  26.1208950  24.6125180  48.7711110
  26.4399050  23.8216090  65.5337330  25.6744720  24.3901090  65.4492000
  26.6215010  23.5292300  64.6405560  33.5822400  25.5521420  66.0912350
  34.3231870  25.8897180  65.5879810  32.8195080  25.7213480  65.5382120
  21.4184190  20.5574690  66.8951880  21.4589530  20.2588560  67.8037110
  22.2729690  20.9582300  66.7359400  25.1962580  23.1570240  52.0555390
  25.6179000  22.9910110  52.8986780  25.3213420  22.3470470  51.5610530
  23.3590000  19.1366790  64.8626370  22.8286460  18.6457740  64.2349710
  24.0278070  19.5650990  64.3284300  32.2568060  23.6036250  64.6267560
  32.6709080  23.7581330  65.4757980  31.3219060  23.7291470  64.7893340
  32.7290230  20.9432410  66.6306710  33.3111000  20.1884730  66.5427190
  32.9052000  21.4739850  65.8538190  23.8462300  16.1029160  64.9423660
  23.7519170  15.4849910  64.2174530  23.2659690  16.8295450  64.7153570
  26.6123740  14.6602400  61.9751050  26.1641040  14.6826660  61.1296600
  25.9788940  14.2621420  62.5721350  27.0183290  23.5556730  62.5963490
  27.4371400  24.3989460  62.4239730  26.0991920  23.6928770  62.3670270
  29.3547190  21.2872910  63.9801330  29.4743400  20.6914050  64.7196170
  30.2141190  21.3242600  63.5602630  31.6935090  21.8410100  62.5563840
  31.1670310  22.3652720  61.9528980  32.0366430  22.4737490  63.1873570
  24.0921480  19.2303470  49.0013550  23.8910540  18.3670830  49.3626890
  23.9213530  19.1436830  48.0635150  24.8690710  29.8609740  63.7121220
  24.3311800  30.5855800  63.3929920  25.1224670  29.3840080  62.9218560
  26.1215960  17.8294260  65.2377150  26.7115650  17.5210110  65.9254970
  25.3036200  17.3574010  65.3937050  30.9409390  17.4460070  65.4710170
  30.2524910  16.7841610  65.4060160  31.6615410  16.9998340  65.9158630
  31.5709790  14.0411700  51.5300430  31.8512080  13.1979600  51.8859850
  30.7975520  14.2734810  52.0439180  22.8904280  16.3304090  48.9891430
  23.1930180  16.3371520  48.0810580  23.6298870  15.9801950  49.4859090
  27.7252920  31.0960950  63.9707870  27.6511620  31.9996090  64.2780240
  26.8231760  30.7772850  63.9429940  26.1089210  15.2738710  49.9747630
  25.7611210  14.5962700  49.3950080  26.3101980  14.8128220  50.7891020
  21.9134410  25.6346510  49.8221230  22.3509280  26.1776180  50.4778810
  22.3982140  24.8093460  49.8317570  19.1280210  28.4235540  57.2741490
  19.4583220  27.5556600  57.0420130  19.5571210  28.6294060  58.1046450
  23.7242130  26.7544550  54.9343460  23.4237670  26.6309520  55.8347370
  23.6179620  25.8953140  54.5259190  19.6170420  29.2906130  60.0123120
  19.1801410  29.4706930  60.8447270  20.1848100  30.0480750  59.8704840
  35.2532600  28.7923130  64.3000430  34.6534590  28.8515690  63.5564350
  35.3826500  27.8528110  64.4297280  19.4494850  21.8026360  56.3712000
  18.7943690  21.5338000  55.7271700  20.2872800  21.6930840  55.9213980
  36.9550480  24.1338530  56.9846270  37.3259310  23.3505850  56.5782240
  37.5952410  24.8227630  56.8063570  33.9384240  25.5175110  62.3976590
  33.1244080  25.9472270  62.6602380  34.3458440  26.1293520  61.7845640
  32.3985290  16.5967650  50.5930490  32.8170170  16.4098630  49.7527150
  32.0921350  15.7446700  50.9033420  35.8975020  21.5091790  54.2906290
  35.5218620  20.7419720  53.8587580  35.1678140  21.8914490  54.7781220
  20.4870780  22.1878930  60.9115340  20.8543820  22.1006330  61.7911360
  19.9181600  21.4245480  60.8122200  35.2874640  20.6563310  63.9245810
  35.0560730  20.4276060  63.0243760  35.5479190  21.5762860  63.8790700
  20.0386780  19.0988020  64.8173760  19.1442830  19.0654780  65.1567470
  20.5784330  19.2974810  65.5825010  33.7262710  15.8819740  66.7025510
  34.6032890  15.8903140  67.0859510  33.7383550  15.1450580  66.0917860
  18.6632930  19.0125290  52.3137330  17.7597010  19.2755490  52.1388990
  19.1473550  19.2836460  51.5337290  35.1725980  19.7349280  57.5913530
  35.6963460  19.2411930  56.9603700  35.7585400  19.8699640  58.3361100
  35.3515700  19.8189150  61.1133080  34.4018410  19.7852690  61.2278070
  35.5328710  20.7289260  60.8782850  21.2060140  18.0690830  50.2231710
  21.9151840  17.6474050  49.7378990  20.4900080  18.1366060  49.5915060
  20.8534300  14.1230160  49.2634360  21.5762430  14.6639100  49.5815580
  21.1258820  13.8493580  48.3875900  34.6625950  18.9922630  53.5305940
  35.1585070  18.7593500  54.3154820  34.4642020  18.1534470  53.1143580
  20.5426490  13.3736350  59.1656980  21.1902680  12.8233730  58.7252140
  20.9628330  13.6279500  59.9872790  36.0913110  17.6283580  56.0643620
  35.9812390  17.4739620  57.0025890  36.8520700  17.1004520  55.8219030
  34.4378830  13.5677710  62.5226620  35.0751050  14.1811850  62.8885810
  34.5853720  13.6038370  61.5775850  36.9803380  15.4591500  49.3049760
  37.9052690  15.3272680  49.0968050  36.9579170  15.5384320  50.2586210
  37.0541870  16.2302160  51.9306470  36.2593370  16.1647280  52.4599380
  37.2585150  17.1652800  51.9191820  33.9960290  30.2693710  55.9244860
  34.5919360  29.9478280  55.2479280  34.2538440  29.7965530  56.7158130
  20.2958490  13.5292020  61.9082300  19.9473310  13.9855840  62.6740480
  19.9646190  12.6349150  61.9904730  21.9022860  26.7011620  66.0735490
  21.8592490  26.3304530  66.9549950  22.0333870  27.6389190  66.2137310
  25.6028890  28.2571210  61.6745210  25.3620250  28.5245770  60.7875730
  26.5431530  28.4276940  61.7296070  27.8083310  14.7203900  65.4301720
  27.7472200  15.3125730  66.1797130  28.7483690  14.6129860  65.2851980
  30.4457870  14.3773960  65.0694010  31.0598280  14.6953250  64.4075090
  30.9907430  13.8922550  65.6889870  36.8633050  30.2765590  62.4755850
  36.3691330  30.6734460  61.7582980  36.2546340  29.6514800  62.8693130
  20.9679130  13.0568220  65.1833070  21.5162120  12.8756270  64.4199180
  21.0334440  12.2662330  65.7189380  21.7410890  29.6473870  63.1933270
  21.1471210  29.5158570  63.9323310  21.7334730  28.8112010  62.7275370
  31.1865910  12.9406100  61.3963300  30.3125750  13.2741210  61.1936230
  31.0776660  12.4679280  62.2215170  32.0937890  15.1476970  62.7805020
  31.7651250  14.3328730  62.4006750  33.0420190  15.1046780  62.6570710
  34.5472500  30.9189010  59.7542590  34.0875470  31.6704820  59.3800610
  33.9184960  30.1995480  59.6957390  21.3723120  27.0132250  62.1441310
  20.6457180  26.3937540  62.0767260  21.4332270  27.4072860  61.2739390
  24.9768220  29.2277250  58.9290720  25.4933240  28.6164610  58.4038980
  25.6265600  29.7306030  59.4201730  27.7163720  30.1185740  59.7559700
  28.0041530  29.8640040  58.8792710  28.2286940  29.5663100  60.3465270
  28.9340730  13.8575940  60.3356210  28.1512520  14.3321440  60.6152970
  28.6403660  12.9530770  60.2269390  33.4861800  14.5599040  58.3805300
  33.9269890  14.5044140  57.5326900  33.2169390  15.4757050  58.4515480
  35.3500370  14.1914280  56.3914120  35.2888770  13.2475500  56.2445140
  36.1292400  14.2994370  56.9367580  19.6553120  30.3306640  55.3538070
  19.4875160  29.6977320  56.0519960  18.7887630  30.5366040  55.0032260
  20.2781140  14.1623420  52.8569930  21.0360500  14.2752300  52.2833960
  19.8158310  14.9992620  52.8113360  26.8194950  16.2762690  55.8472240
  26.0069460  15.9019580  55.5068120  27.3236590  15.5207770  56.1493430
  31.3219930  12.9405140  57.0855310  31.9249300  13.5125350  57.5603830
  30.5812920  13.5044580  56.8629210  34.4654530  13.3426700  52.3595590
  34.6605160  14.2410150  52.6263020  33.6784400  13.1113780  52.8528540
  21.2615820  29.0239870  52.7988210  20.7363440  29.4047900  52.0950170
  21.1860400  29.6490640  53.5197920  22.6506290  14.6887470  51.3971900
  23.1799050  13.9017270  51.2679850  23.2834610  15.3678660  51.6307430
  24.8444130  14.4262610  54.4517290  24.2146870  13.7249920  54.6187420
  24.3049270  15.1866740  54.2350450  27.7836080  31.0401840  67.1227900
  28.7103390  30.8046110  67.1663860  27.7686510  31.8673840  66.6413930
  24.9699690  13.7046590  66.8869780  24.6883960  14.2080190  66.1230600
  25.3519390  12.9068340  66.5211910  23.8608790  30.9722250  51.6737460
  24.5927610  30.6881530  51.1261350  24.1202460  30.7335530  52.5636840
  23.0223580  27.0886980  51.6783790  22.3932460  27.5572080  52.2269620
  23.1371410  26.2436200  52.1129980  31.5715150  13.1200170  67.4650250
  31.4580600  13.4394780  68.3601770  32.3884890  13.5212680  67.1687530
  34.3513640  30.2671700  66.9468940  35.1438960  29.7720930  66.7394900
  34.6446790  30.9461840  67.5544550  30.4773300  21.1392640  37.8284990
  30.3967350  20.2247250  37.5576700  30.0637720  21.6359710  37.1224700
  22.6257170  23.2291470  40.5870020  21.7942050  22.9740180  40.9866530
  23.2338150  23.3002240  41.3227940  22.6058430  27.2631560  40.7828040
  22.9086470  26.3729300  40.6038260  23.3502020  27.8201780  40.5550290
  21.0349120  18.1893360  34.3712410  20.1465820  18.5309330  34.2692290
  21.3190310  17.9893680  33.4793240  18.9982130  20.7899010  40.2552110
  19.5698240  20.0221210  40.2555750  18.9983670  21.0887770  39.3458720
  20.2407000  16.1983370  42.0421040  20.0609840  15.3009120  42.3223800
  19.8387080  16.7455240  42.7167990  29.0805500  18.3999230  39.9433350
  29.4570320  17.5271110  39.8307020  28.9825010  18.7357930  39.0523790
  23.2110510  16.7724860  35.4050790  23.3177260  17.6728590  35.7119550
  22.3002870  16.7242830  35.1145440  32.8629620  15.8949670  36.8761690
  33.6839240  15.4046240  36.9187170  32.8963700  16.4847330  37.6293530
  20.8593670  18.6943870  40.6503380  21.5403780  18.9582240  41.2690780
  20.5441720  17.8544740  40.9841390  25.0518240  19.7411230  39.7375970
  25.5596460  20.2392200  40.3780990  25.5831480  18.9646430  39.5615330
  37.1529170  17.9116420  43.4405320  36.4481340  18.2998130  42.9220430
  37.4187090  18.6066710  44.0426250  23.3354340  14.3809790  44.0039390
  23.3372780  14.8982180  43.1985290  22.5058650  13.9039970  43.9809320
  24.5857190  24.0204970  42.1812890  24.2526570  24.6473890  42.8233960
  24.7623870  24.5466850  41.4014560  33.0991100  17.8350050  39.6489230
  32.3946670  18.1234940  40.2292340  33.4603260  18.6450160  39.2888790
  23.0169670  16.0919750  42.0109840  23.3586480  16.9361800  41.7163710
  22.0785480  16.2403490  42.1275180  23.7976290  25.9885770  43.9962070
  24.4150290  26.6636850  43.7146520  22.9369410  26.3973750  43.9049570
  19.0908630  25.1785630  32.8768920  18.7136610  25.6672730  32.1453820
  19.3481700  25.8510910  33.5075450  36.1678020  17.2804840  40.0398440
  35.2202930  17.3143820  40.1713870  36.4928010  18.0943790  40.4247800
  26.6997560  13.5802020  38.3354430  27.0072540  13.0248910  37.6189930
  25.7698260  13.7146480  38.1527420  29.0878320  21.6450850  35.0714550
  28.1607600  21.5788230  35.3003020  29.2403140  22.5830980  34.9569790
  29.0747400  17.9167850  32.0681710  28.1351070  18.0781810  32.1534170
  29.3930660  18.6353530  31.5217700  32.5602170  19.3855690  42.9915610
  32.1473350  20.2109400  43.2455600  31.8278120  18.8000730  42.7991970
  24.6934960  22.1715590  37.8534280  24.2891960  21.4592840  37.3580180
  24.7798080  21.8268830  38.7422320  23.4063580  18.9458800  41.6333320
  23.9578170  19.0554140  40.8586570  23.9207090  19.3196400  42.3488550
  24.2535090  25.5964840  46.6681290  23.3563620  25.8204810  46.9154690
  24.2787960  25.7199780  45.7192690  23.0806310  22.4678160  45.2438660
  22.9414080  23.3400960  45.6126060  22.1987670  22.1250970  45.0986600
  24.8786660  28.4099860  47.4523810  24.8502090  28.8142810  46.5852240
  24.7151630  27.4810220  47.2895410  34.8757450  13.7000770  30.8963590
  34.5630110  13.7927600  31.7962660  35.6369920  14.2781800  30.8461020
  21.3939590  21.0660570  35.3540930  21.2737190  21.7922660  34.7422200
  21.0840480  20.2963480  34.8768840  19.0324960  24.2375710  41.1609570
  19.1105380  24.3724480  40.2165290  19.6466640  23.5291600  41.3537690
  20.2772590  25.9375900  37.5715750  19.8700670  26.0790490  36.7169350
  21.1685600  25.6536060  37.3686960  36.0858740  18.4372270  46.8737730
  35.4703010  18.9451940  46.3453190  35.7655160  17.5370600  46.8163670
  19.0884480  25.2789880  43.7004030  19.2515520  24.8095240  42.8823400
  19.5536930  24.7713440  44.3652870  23.8603250  14.4095640  38.7364600
  23.4171400  15.1905180  38.4049120  24.4188240  14.7325530  39.4435540
  28.1473060  17.2764160  44.3399920  27.6852430  17.4847180  45.1519860
  27.7451170  16.4623510  44.0370590  33.1477570  18.4973110  45.4696580
  32.2971160  18.1978860  45.7905650  32.9879360  18.7415120  44.5580400
  30.2427280  19.9974860  47.5695370  30.5680690  19.1638610  47.2297600
  31.0307610  20.5203380  47.7173700  26.9762070  14.0306340  33.6170430
  26.3516250  14.0266210  34.3423740  26.8892190  13.1637300  33.2206400
  25.8979150  14.9542970  40.5954200  26.1951480  15.8605800  40.5146220
  26.4464710  14.4661750  39.9813770  23.6517470  19.5329210  36.4645850
  23.4258390  19.3166380  37.3692470  22.8710000  19.9657670  36.1191820
  30.8815230  19.5392580  35.0636500  30.2824120  20.2628380  34.8800120
  31.4294840  19.4769360  34.2812950  26.0916680  20.4314790  47.1306120
  25.9960280  19.4909520  46.9806520  26.9348660  20.6529860  46.7354190
  29.4880100  18.1756120  37.0939780  29.8809670  18.4928320  36.2808470
  29.8496950  17.2968000  37.2084300  21.2227220  16.8428460  45.2839900
  20.8290610  17.6903670  45.4912680  20.5345620  16.2054830  45.4748540
  27.7972270  16.9263430  48.3536640  27.1070590  16.7335630  48.9882730
  28.5404570  17.2098070  48.8860940  18.5244270  14.7656920  39.3169980
  18.2357320  15.3359780  40.0294960  19.2690030  14.2861370  39.6801210
  18.7114500  18.7077040  30.5272700  18.6289170  19.6507800  30.6687690
  18.3597560  18.5651950  29.6485050  30.0735240  20.7661870  41.1890560
  29.3416360  21.2748680  41.5380660  29.6759580  19.9491850  40.8879340
  26.5112630  17.4416070  39.5943050  26.5148690  17.0006020  38.7447590
  27.4063750  17.7633400  39.7014870  22.3615010  17.3242560  38.5537260
  22.0215060  17.8017790  39.3104310  21.5992330  16.8707680  38.1938360
  26.5732780  18.4428150  32.5849810  26.6945600  18.4014630  33.5335630
  26.1881290  19.3052300  32.4296540  30.5361150  16.2195550  40.6013500
  30.5533890  16.6704200  41.4455350  30.2876730  15.3201190  40.8146940
  25.5854280  20.7529290  31.9833110  25.0171180  20.3047540  31.3569020
  26.2943280  21.1122070  31.4498260  33.9631900  13.6327730  46.4399880
  34.2877670  12.9017390  46.9657860  33.9988410  13.3141370  45.5380870
  20.6623460  24.6541310  45.8599840  20.2778250  24.0134980  46.4582800
  20.9735650  25.3577430  46.4294570  26.8120600  21.5017850  41.3408460
  27.1790730  21.0276420  42.0869800  26.6225660  22.3759420  41.6816800
  19.6761090  16.2461540  37.4701930  19.3908010  15.8817210  38.3080550
  19.6139950  15.5142000  36.8565070  24.6019970  20.5426490  43.6592670
  24.2977040  21.4218470  43.8843030  25.5566430  20.6026280  43.6950110
  23.1301760  24.7487480  34.2559520  22.3564020  24.2085100  34.0958240
  23.8596390  24.2294090  33.9177280  29.3499680  15.1390800  34.1915300
  28.5364290  14.6403970  34.1160610  29.1561630  15.9789050  33.7751650
  32.0648070  19.5110450  32.4877460  32.9527690  19.8227680  32.3128800
  32.0353160  18.6382700  32.0958040  23.1739160  24.4167860  37.8938330
  23.6917830  23.6136120  37.8395220  22.7223180  24.3547000  38.7355160
  20.6583700  21.3829230  44.8064030  20.2998640  22.0483080  45.3937370
  20.3638260  20.5512780  45.1776650  23.8596820  21.8413470  47.6903580
  23.5596960  21.9870650  46.7931400  24.6308060  21.2818760  47.5976970
  34.3362340  20.8222290  31.9557320  34.2526060  21.2536510  31.1053760
  35.0556530  21.2820640  32.3884140  19.1691750  21.3820490  31.4298630
  20.0386600  21.6645290  31.7134550  18.6782070  22.1956360  31.3147440
  26.3326560  22.7693700  35.5506910  26.7889340  23.5798950  35.7767100
  25.9814770  22.4516840  36.3825400  22.2338340  13.1131350  36.0229430
  22.1052970  13.1049250  36.9714350  21.4100360  13.4514440  35.6720440
  19.5363000  30.5947870  31.9960260  19.8960640  31.1937210  31.3417530
  19.3955340  31.1407760  32.7695290  19.2332270  14.8722470  45.4836130
  18.5190790  15.0719390  46.0888740  19.6527310  14.0962040  45.8550930
  19.5204860  28.8602730  46.4702660  19.6295980  27.9197470  46.3298050
  18.8685420  29.1257480  45.8216390  21.1538260  23.1993960  33.5580690
  20.5466210  23.9392860  33.5675990  21.6287610  23.2893320  32.7318890
  30.7271050  17.3644780  43.2337580  31.0951870  16.5439990  43.5617150
  29.8669250  17.4246670  43.6493230  34.0933080  16.3201720  34.0425140
  33.4646240  16.4247390  33.3283370  33.5985000  16.5398500  34.8319020
  26.0617110  18.5987670  35.4583020  25.3533260  19.0674010  35.8996630
  26.3461590  17.9409680  36.0928210  27.6873040  20.0184370  43.4575550
  28.1858290  20.4930190  44.1227400  27.8295990  19.0947890  43.6645580
  30.0932540  15.3238330  36.8978810  29.9700320  15.3424460  35.9488320
  31.0417100  15.3717270  37.0177210  24.2652130  16.9072750  32.8333730
  25.1142660  17.3442900  32.7673920  23.8983400  17.2193010  33.6605790
  34.8939900  16.2352330  44.3003940  34.3913500  16.9757730  44.6397750
  35.7096560  16.6236330  43.9840730  23.1643550  23.1605110  31.3069260
  23.9306820  23.0486470  31.8694690  23.2418240  22.4643080  30.6546030
  21.8590310  20.5930180  31.9902150  21.9393900  19.6457690  32.1019550
  22.7510060  20.9237060  32.0962810  22.6605020  30.7425570  39.0936690
  23.3967500  30.1941030  39.3645260  23.0445940  31.6081580  38.9542680
  19.5450500  26.8099140  34.9678200  18.6190280  27.0520280  34.9583610
  20.0106930  27.6373400  34.8462950  21.6663300  29.9271640  48.2822270
  22.4676030  30.2483690  48.6957670  21.1515120  29.5667220  49.0042180
  19.3861110  22.4145100  47.2258320  19.8900130  21.8352380  47.7974550
  18.6468530  22.6985330  47.7634690  26.4399050  23.8216090  46.7593840
  25.6744720  24.3901090  46.6748510  26.6215010  23.5292300  45.8662070
  21.4184190  20.5574690  48.1208390  21.4589530  20.2588560  49.0293620
  22.2729690  20.9582300  47.9615910  25.1962580  23.1570240  33.2811900
  25.6179000  22.9910110  34.1243290  25.3213420  22.3470470  32.7867040
  23.3590000  19.1366790  46.0882880  22.8286460  18.6457740  45.4606220
  24.0278070  19.5650990  45.5540810  27.7090220  22.1807850  30.5289000
  28.2295880  21.4656870  30.1630150  28.3558620  22.8193720  30.8289510
  23.8462300  16.1029160  46.1680170  23.7519170  15.4849910  45.4431040
  23.2659690  16.8295450  45.9410080  26.6123740  14.6602400  43.2007560
  26.1641040  14.6826660  42.3553110  25.9788940  14.2621420  43.7977860
  24.0921480  19.2303470  30.2270060  23.8910540  18.3670830  30.5883400
  23.9213530  19.1436830  29.2891660  24.8690710  29.8609740  44.9377730
  24.3311800  30.5855800  44.6186430  25.1224670  29.3840080  44.1475070
  26.1215960  17.8294260  46.4633660  26.7115650  17.5210110  47.1511480
  25.3036200  17.3574010  46.6193560  30.9409390  17.4460070  46.6966680
  30.2524910  16.7841610  46.6316670  31.6615410  16.9998340  47.1415140
  31.5709790  14.0411700  32.7556940  31.8512080  13.1979600  33.1116360
  30.7975520  14.2734810  33.2695690  22.8904280  16.3304090  30.2147940
  23.1930180  16.3371520  29.3067090  23.6298870  15.9801950  30.7115600
  26.1089210  15.2738710  31.2004140  25.7611210  14.5962700  30.6206590
  26.3101980  14.8128220  32.0147530  21.9134410  25.6346510  31.0477740
  22.3509280  26.1776180  31.7035320  22.3982140  24.8093460  31.0574080
  19.1280210  28.4235540  38.4998000  19.4583220  27.5556600  38.2676640
  19.5571210  28.6294060  39.3302960  19.6170420  29.2906130  41.2379630
  19.1801410  29.4706930  42.0703780  20.1848100  30.0480750  41.0961350
  19.4494850  21.8026360  37.5968510  18.7943690  21.5338000  36.9528210
  20.2872800  21.6930840  37.1470490  32.3985290  16.5967650  31.8187000
  32.8170170  16.4098630  30.9783660  32.0921350  15.7446700  32.1289930
  20.4870780  22.1878930  42.1371850  20.8543820  22.1006330  43.0167870
  19.9181600  21.4245480  42.0378710  20.0386780  19.0988020  46.0430270
  19.1442830  19.0654780  46.3823980  20.5784330  19.2974810  46.8081520
  33.7262710  15.8819740  47.9282020  34.6032890  15.8903140  48.3116020
  33.7383550  15.1450580  47.3174370  18.6632930  19.0125290  33.5393840
  17.7597010  19.2755490  33.3645500  19.1473550  19.2836460  32.7593800
  35.1725980  19.7349280  38.8170040  35.6963460  19.2411930  38.1860210
  35.7585400  19.8699640  39.5617610  35.3515700  19.8189150  42.3389590
  34.4018410  19.7852690  42.4534580  35.5328710  20.7289260  42.1039360
  21.2060140  18.0690830  31.4488220  21.9151840  17.6474050  30.9635500
  20.4900080  18.1366060  30.8171570  20.8534300  14.1230160  30.4890870
  21.5762430  14.6639100  30.8072090  21.1258820  13.8493580  29.6132410
  34.6625950  18.9922630  34.7562450  35.1585070  18.7593500  35.5411330
  34.4642020  18.1534470  34.3400090  20.5426490  13.3736350  40.3913490
  21.1902680  12.8233730  39.9508650  20.9628330  13.6279500  41.2129300
  36.0913110  17.6283580  37.2900130  35.9812390  17.4739620  38.2282400
  36.8520700  17.1004520  37.0475540  34.4378830  13.5677710  43.7483130
  35.0751050  14.1811850  44.1142320  34.5853720  13.6038370  42.8032360
  36.9803380  15.4591500  30.5306270  37.9052690  15.3272680  30.3224560
  36.9579170  15.5384320  31.4842720  37.0541870  16.2302160  33.1562980
  36.2593370  16.1647280  33.6855890  37.2585150  17.1652800  33.1448330
  20.2958490  13.5292020  43.1338810  19.9473310  13.9855840  43.8996990
  19.9646190  12.6349150  43.2161240  21.9022860  26.7011620  47.2992000
  21.8592490  26.3304530  48.1806460  22.0333870  27.6389190  47.4393820
  25.6028890  28.2571210  42.9001720  25.3620250  28.5245770  42.0132240
  26.5431530  28.4276940  42.9552580  27.8083310  14.7203900  46.6558230
  27.7472200  15.3125730  47.4053640  28.7483690  14.6129860  46.5108490
  30.4457870  14.3773960  46.2950520  31.0598280  14.6953250  45.6331600
  30.9907430  13.8922550  46.9146380  20.9679130  13.0568220  46.4089580
  21.5162120  12.8756270  45.6455690  21.0334440  12.2662330  46.9445890
  21.7410890  29.6473870  44.4189780  21.1471210  29.5158570  45.1579820
  21.7334730  28.8112010  43.9531880  31.1865910  12.9406100  42.6219810
  30.3125750  13.2741210  42.4192740  31.0776660  12.4679280  43.4471680
  32.0937890  15.1476970  44.0061530  31.7651250  14.3328730  43.6263260
  33.0420190  15.1046780  43.8827220  21.3723120  27.0132250  43.3697820
  20.6457180  26.3937540  43.3023770  21.4332270  27.4072860  42.4995900
  24.9768220  29.2277250  40.1547230  25.4933240  28.6164610  39.6295490
  25.6265600  29.7306030  40.6458240  28.9340730  13.8575940  41.5612720
  28.1512520  14.3321440  41.8409480  28.6403660  12.9530770  41.4525900
  33.4861800  14.5599040  39.6061810  33.9269890  14.5044140  38.7583410
  33.2169390  15.4757050  39.6771990  35.3500370  14.1914280  37.6170630
  35.2888770  13.2475500  37.4701650  36.1292400  14.2994370  38.1624090
  19.6553120  30.3306640  36.5794580  19.4875160  29.6977320  37.2776470
  18.7887630  30.5366040  36.2288770  20.2781140  14.1623420  34.0826440
  21.0360500  14.2752300  33.5090470  19.8158310  14.9992620  34.0369870
  26.8194950  16.2762690  37.0728750  26.0069460  15.9019580  36.7324630
  27.3236590  15.5207770  37.3749940  31.3219930  12.9405140  38.3111820
  31.9249300  13.5125350  38.7860340  30.5812920  13.5044580  38.0885720
  34.4654530  13.3426700  33.5852100  34.6605160  14.2410150  33.8519530
  33.6784400  13.1113780  34.0785050  21.2615820  29.0239870  34.0244720
  20.7363440  29.4047900  33.3206680  21.1860400  29.6490640  34.7454430
  22.6506290  14.6887470  32.6228410  23.1799050  13.9017270  32.4936360
  23.2834610  15.3678660  32.8563940  24.8444130  14.4262610  35.6773800
  24.2146870  13.7249920  35.8443930  24.3049270  15.1866740  35.4606960
  24.9699690  13.7046590  48.1126290  24.6883960  14.2080190  47.3487110
  25.3519390  12.9068340  47.7468420  23.8608790  30.9722250  32.8993970
  24.5927610  30.6881530  32.3517860  24.1202460  30.7335530  33.7893350
  23.0223580  27.0886980  32.9040300  22.3932460  27.5572080  33.4526130
  23.1371410  26.2436200  33.3386490  31.5715150  13.1200170  48.6906760
  31.4580600  13.4394780  49.5858280  32.3884890  13.5212680  48.3944040
  30.4773300  21.1392640  19.0541500  30.3967350  20.2247250  18.7833210
  30.0637720  21.6359710  18.3481210  28.6091340  22.9171660  20.9350770
  27.8333440  22.4372100  21.2249340  29.2604270  22.2377310  20.7606930
  22.6257170  23.2291470  21.8126530  21.7942050  22.9740180  22.2123040
  23.2338150  23.3002240  22.5484450  32.6298770  27.3231850  19.7149900
  32.1680300  26.5519090  20.0437070  33.4424320  27.3497920  20.2202350
  22.6058430  27.2631560  22.0084550  22.9086470  26.3729300  21.8294770
  23.3502020  27.8201780  21.7806800  21.0349120  18.1893360  15.5968920
  20.1465820  18.5309330  15.4948800  21.3190310  17.9893680  14.7049750
  18.9982130  20.7899010  21.4808620  19.5698240  20.0221210  21.4812260
  18.9983670  21.0887770  20.5715230  28.8562080  29.6089860  19.3353890
  28.2373520  30.0647360  18.7648330  29.7113860  29.7641320  18.9343590
  28.0500330  25.5928850  20.9420930  27.9808610  24.6518790  20.7810060
  28.8120190  25.6830260  21.5143500  20.2407000  16.1983370  23.2677550
  20.0609840  15.3009120  23.5480310  19.8387080  16.7455240  23.9424500
  29.0805500  18.3999230  21.1689860  29.4570320  17.5271110  21.0563530
  28.9825010  18.7357930  20.2780300  23.2110510  16.7724860  16.6307300
  23.3177260  17.6728590  16.9376060  22.3002870  16.7242830  16.3401950
  32.8629620  15.8949670  18.1018200  33.6839240  15.4046240  18.1443680
  32.8963700  16.4847330  18.8550040  20.8593670  18.6943870  21.8759890
  21.5403780  18.9582240  22.4947290  20.5441720  17.8544740  22.2097900
  25.0518240  19.7411230  20.9632480  25.5596460  20.2392200  21.6037500
  25.5831480  18.9646430  20.7871840  37.1529170  17.9116420  24.6661830
  36.4481340  18.2998130  24.1476940  37.4187090  18.6066710  25.2682760
  23.3354340  14.3809790  25.2295900  23.3372780  14.8982180  24.4241800
  22.5058650  13.9039970  25.2065830  29.7225430  24.4929100  16.7285800
  29.1042700  24.9578550  16.1648520  30.2348680  25.1856580  17.1455310
  24.5857190  24.0204970  23.4069400  24.2526570  24.6473890  24.0490470
  24.7623870  24.5466850  22.6271070  33.0991100  17.8350050  20.8745740
  32.3946670  18.1234940  21.4548850  33.4603260  18.6450160  20.5145300
  23.0169670  16.0919750  23.2366350  23.3586480  16.9361800  22.9420220
  22.0785480  16.2403490  23.3531690  23.7976290  25.9885770  25.2218580
  24.4150290  26.6636850  24.9403030  22.9369410  26.3973750  25.1306080
  19.0908630  25.1785630  14.1025430  18.7136610  25.6672730  13.3710330
  19.3481700  25.8510910  14.7331960  34.7153880  27.4525180  23.1373220
  34.0317400  28.1224290  23.1289890  35.2548170  27.6505830  22.3718080
  36.1678020  17.2804840  21.2654950  35.2202930  17.3143820  21.3970380
  36.4928010  18.0943790  21.6504310  26.6997560  13.5802020  19.5610940
  27.0072540  13.0248910  18.8446440  25.7698260  13.7146480  19.3783930
  32.2512620  29.2969310  21.8518400  32.2639780  28.8931600  20.9840660
  31.6987840  30.0716600  21.7479830  33.5458040  26.0185530  16.9408570
  33.4354370  25.0759860  17.0657990  33.5426290  26.3801170  17.8271330
  31.6498060  24.1999150  23.1801010  32.0666850  23.9859260  22.3454470
  32.3737880  24.4571940  23.7509630  29.0878320  21.6450850  16.2971060
  28.1607600  21.5788230  16.5259530  29.2403140  22.5830980  16.1826300
  29.0747400  17.9167850  13.2938220  28.1351070  18.0781810  13.3790680
  29.3930660  18.6353530  12.7474210  35.5960160  22.5986370  23.2717250
  34.7678790  22.6679460  22.7967380  36.1910640  23.1840680  22.8033080
  33.1175610  23.2071150  16.8006310  32.4988030  22.8690700  16.1532610
  33.1000060  22.5630910  17.5085500  32.5602170  19.3855690  24.2172120
  32.1473350  20.2109400  24.4712110  31.8278120  18.8000730  24.0248480
  24.6934960  22.1715590  19.0790790  24.2891960  21.4592840  18.5836690
  24.7798080  21.8268830  19.9678830  25.1616660  25.8583150  21.2430000
  24.8644950  25.2528620  20.5637780  26.1116480  25.8960460  21.1319360
  23.4063580  18.9458800  22.8589830  23.9578170  19.0554140  22.0843080
  23.9207090  19.3196400  23.5745060  24.2535090  25.5964840  27.8937800
  23.3563620  25.8204810  28.1411200  24.2787960  25.7199780  26.9449200
  31.2940310  22.4457960  13.8079060  31.7333590  21.6080390  13.6616880
  32.0068730  23.0787360  13.8943200  23.0806310  22.4678160  26.4695170
  22.9414080  23.3400960  26.8382570  22.1987670  22.1250970  26.3243110
  29.4035690  27.3854030  17.7760300  29.8431600  28.1278360  17.3615690
  29.3422580  27.6280600  18.6999260  34.8757450  13.7000770  12.1220100
  34.5630110  13.7927600  13.0219170  35.6369920  14.2781800  12.0717530
  21.3939590  21.0660570  16.5797440  21.2737190  21.7922660  15.9678710
  21.0840480  20.2963480  16.1025350  19.0324960  24.2375710  22.3866080
  19.1105380  24.3724480  21.4421800  19.6466640  23.5291600  22.5794200
  20.2772590  25.9375900  18.7972260  19.8700670  26.0790490  17.9425860
  21.1685600  25.6536060  18.5943470  32.0705870  30.3723150  15.1323310
  31.9107010  30.0826090  16.0305140  31.9052580  29.5963280  14.5968540
  24.5494250  30.1521680  16.9094930  24.3736730  29.2357220  16.6962730
  23.6949990  30.5108970  17.1492730  31.7732000  27.8810710  13.6921310
  31.0797160  27.8788000  13.0323590  32.5154860  27.4570030  13.2615480
  31.3381930  29.5073420  17.7669800  31.7938880  28.7262800  18.0808420
  31.6774450  30.2180240  18.3110980  36.0858740  18.4372270  28.0994240
  35.4703010  18.9451940  27.5709700  35.7655160  17.5370600  28.0420180
  19.0884480  25.2789880  24.9260540  19.2515520  24.8095240  24.1079910
  19.5536930  24.7713440  25.5909380  23.8603250  14.4095640  19.9621110
  23.4171400  15.1905180  19.6305630  24.4188240  14.7325530  20.6692050
  28.1473060  17.2764160  25.5656430  27.6852430  17.4847180  26.3776370
  27.7451170  16.4623510  25.2627100  33.1477570  18.4973110  26.6953090
  32.2971160  18.1978860  27.0162160  32.9879360  18.7415120  25.7836910
  30.2427280  19.9974860  28.7951880  30.5680690  19.1638610  28.4554110
  31.0307610  20.5203380  28.9430210  26.9762070  14.0306340  14.8426940
  26.3516250  14.0266210  15.5680250  26.8892190  13.1637300  14.4462910
  25.8979150  14.9542970  21.8210710  26.1951480  15.8605800  21.7402730
  26.4464710  14.4661750  21.2070280  23.6517470  19.5329210  17.6902360
  23.4258390  19.3166380  18.5948980  22.8710000  19.9657670  17.3448330
  30.8815230  19.5392580  16.2893010  30.2824120  20.2628380  16.1056630
  31.4294840  19.4769360  15.5069460  26.0916680  20.4314790  28.3562630
  25.9960280  19.4909520  28.2063030  26.9348660  20.6529860  27.9610700
  29.4880100  18.1756120  18.3196290  29.8809670  18.4928320  17.5064980
  29.8496950  17.2968000  18.4340810  21.2227220  16.8428460  26.5096410
  20.8290610  17.6903670  26.7169190  20.5345620  16.2054830  26.7005050
  27.7972270  16.9263430  29.5793150  27.1070590  16.7335630  30.2139240
  28.5404570  17.2098070  30.1117450  18.5244270  14.7656920  20.5426490
  18.2357320  15.3359780  21.2551470  19.2690030  14.2861370  20.9057720
  18.7114500  18.7077040  11.7529210  18.6289170  19.6507800  11.8944200
  18.3597560  18.5651950  10.8741560  30.0735240  20.7661870  22.4147070
  29.3416360  21.2748680  22.7637170  29.6759580  19.9491850  22.1135850
  26.5112630  17.4416070  20.8199560  26.5148690  17.0006020  19.9704100
  27.4063750  17.7633400  20.9271380  22.3615010  17.3242560  19.7793770
  22.0215060  17.8017790  20.5360820  21.5992330  16.8707680  19.4194870
  26.5732780  18.4428150  13.8106320  26.6945600  18.4014630  14.7592140
  26.1881290  19.3052300  13.6553050  30.5361150  16.2195550  21.8270010
  30.5533890  16.6704200  22.6711860  30.2876730  15.3201190  22.0403450
  25.5854280  20.7529290  13.2089620  25.0171180  20.3047540  12.5825530
  26.2943280  21.1122070  12.6754770  33.9631900  13.6327730  27.6656390
  34.2877670  12.9017390  28.1914370  33.9988410  13.3141370  26.7637380
  20.6623460  24.6541310  27.0856350  20.2778250  24.0134980  27.6839310
  20.9735650  25.3577430  27.6551080  26.8120600  21.5017850  22.5664970
  27.1790730  21.0276420  23.3126310  26.6225660  22.3759420  22.9073310
  19.6761090  16.2461540  18.6958440  19.3908010  15.8817210  19.5337060
  19.6139950  15.5142000  18.0821580  24.6019970  20.5426490  24.8849180
  24.2977040  21.4218470  25.1099540  25.5566430  20.6026280  24.9206620
  23.1301760  24.7487480  15.4816030  22.3564020  24.2085100  15.3214750
  23.8596390  24.2294090  15.1433790  33.8889740  23.7452840  21.2742420
  34.6088860  24.2408130  20.8838530  33.6871560  23.0670730  20.6296290
  29.3499680  15.1390800  15.4171810  28.5364290  14.6403970  15.3417120
  29.1561630  15.9789050  15.0008160  32.0648070  19.5110450  13.7133970
  32.9527690  19.8227680  13.5385310  32.0353160  18.6382700  13.3214550
  23.1739160  24.4167860  19.1194840  23.6917830  23.6136120  19.0651730
  22.7223180  24.3547000  19.9611670  28.0608660  25.6834140  14.3922140
  28.4024360  26.4276370  13.8965460  27.2321370  25.9965260  14.7546970
  20.6583700  21.3829230  26.0320540  20.2998640  22.0483080  26.6193880
  20.3638260  20.5512780  26.4033160  23.8596820  21.8413470  28.9160090
  23.5596960  21.9870650  28.0187910  24.6308060  21.2818760  28.8233480
  34.3362340  20.8222290  13.1813830  34.2526060  21.2536510  12.3310270
  35.0556530  21.2820640  13.6140650  35.4136480  23.2789810  26.2583800
  34.6884670  23.8718590  26.0613190  35.9411940  23.2713350  25.4597170
  35.3649590  27.6764550  15.9095960  34.7225750  27.0220170  16.1839680
  34.9780250  28.0819640  15.1336630  30.9436070  25.0049980  19.7567650
  31.2959890  24.4078110  19.0969020  30.0598400  24.6794210  19.9275900
  27.0299350  25.7647670  17.1638060  27.7170480  26.3116880  17.5445650
  26.2431770  26.3088400  17.1987670  19.1691750  21.3820490  12.6555140
  20.0386600  21.6645290  12.9391060  18.6782070  22.1956360  12.5403950
  26.3326560  22.7693700  16.7763420  26.7889340  23.5798950  17.0023610
  25.9814770  22.4516840  17.6081910  22.2338340  13.1131350  17.2485940
  22.1052970  13.1049250  18.1970860  21.4100360  13.4514440  16.8976950
  29.9091250  26.2832390  22.7233170  30.5513480  25.5825550  22.8365340
  30.4340600  27.0630830  22.5430060  33.7546970  26.5681010  12.4472310
  33.5284550  25.8511450  13.0396950  33.3643170  26.3193450  11.6094060
  19.5363000  30.5947870  13.2216770  19.8960640  31.1937210  12.5674040
  19.3955340  31.1407760  13.9951800  19.2332270  14.8722470  26.7092640
  18.5190790  15.0719390  27.3145250  19.6527310  14.0962040  27.0807440
  33.3363220  24.4852950  14.1086470  33.0484920  24.9465640  14.8964350
  34.1315390  24.0250720  14.3770690  19.5204860  28.8602730  27.6959170
  19.6295980  27.9197470  27.5554560  18.8685420  29.1257480  27.0472900
  25.5531620  27.9779070  14.0390440  25.5441720  28.7108760  13.4234950
  24.6329980  27.7310650  14.1317400  21.1538260  23.1993960  14.7837200
  20.5466210  23.9392860  14.7932500  21.6287610  23.2893320  13.9575400
  30.7271050  17.3644780  24.4594090  31.0951870  16.5439990  24.7873660
  29.8669250  17.4246670  24.8749740  34.0933080  16.3201720  15.2681650
  33.4646240  16.4247390  14.5539880  33.5985000  16.5398500  16.0575530
  28.5391220  28.0407310  12.7015630  28.6403200  27.8371300  11.7717610
  27.6392960  27.7865590  12.9063410  26.0617110  18.5987670  16.6839530
  25.3533260  19.0674010  17.1253140  26.3461590  17.9409680  17.3184720
  27.6873040  20.0184370  24.6832060  28.1858290  20.4930190  25.3483910
  27.8295990  19.0947890  24.8902090  30.0932540  15.3238330  18.1235320
  29.9700320  15.3424460  17.1744830  31.0417100  15.3717270  18.2433720
  27.1809330  30.5593630  17.3963300  27.4350830  30.5215020  16.4742670
  26.2321810  30.4326960  17.3891550  24.2652130  16.9072750  14.0590240
  25.1142660  17.3442900  13.9930430  23.8983400  17.2193010  14.8862300
  34.8939900  16.2352330  25.5260450  34.3913500  16.9757730  25.8654260
  35.7096560  16.6236330  25.2097240  33.1861910  21.4785510  18.9721810
  32.2452050  21.4935740  19.1469500  33.5005980  20.6921470  19.4182110
  23.1643550  23.1605110  12.5325770  23.9306820  23.0486470  13.0951200
  23.2418240  22.4643080  11.8802540  21.8590310  20.5930180  13.2158660
  21.9393900  19.6457690  13.3276060  22.7510060  20.9237060  13.3219320
  35.1887490  28.6494360  20.6476070  35.3134910  29.4725530  21.1199880
  36.0553050  28.4385090  20.3000220  22.6605020  30.7425570  20.3193200
  23.3967500  30.1941030  20.5901770  23.0445940  31.6081580  20.1799190
  19.5450500  26.8099140  16.1934710  18.6190280  27.0520280  16.1840120
  20.0106930  27.6373400  16.0719460  21.6663300  29.9271640  29.5078780
  22.4676030  30.2483690  29.9214180  21.1515120  29.5667220  30.2298690
  25.7707330  29.9155880  12.1418770  26.5635940  30.2044710  11.6900560
  25.2511680  29.4848050  11.4631250  34.8237500  29.1426010  13.5655510
  34.5379010  28.7291150  12.7509690  34.6257050  30.0713720  13.4456030
  19.3861110  22.4145100  28.4514830  19.8900130  21.8352380  29.0231060
  18.6468530  22.6985330  28.9891200  26.2884730  25.1359290  12.0061120
  26.1835370  24.5211640  12.7322500  26.1208950  24.6125180  11.2224130
  26.4399050  23.8216090  27.9850350  25.6744720  24.3901090  27.9005020
  26.6215010  23.5292300  27.0918580  29.5287460  24.1979320  12.6103110
  28.9797560  24.6448620  13.2545850  30.1506720  23.6928570  13.1340780
  21.4184190  20.5574690  29.3464900  21.4589530  20.2588560  30.2550130
  22.2729690  20.9582300  29.1872420  25.1962580  23.1570240  14.5068410
  25.6179000  22.9910110  15.3499800  25.3213420  22.3470470  14.0123550
  23.3590000  19.1366790  27.3139390  22.8286460  18.6457740  26.6862730
  24.0278070  19.5650990  26.7797320  27.7090220  22.1807850  11.7545510
  28.2295880  21.4656870  11.3886660  28.3558620  22.8193720  12.0546020
  32.7290230  20.9432410  29.0819730  33.3111000  20.1884730  28.9940210
  32.9052000  21.4739850  28.3051210  23.8462300  16.1029160  27.3936680
  23.7519170  15.4849910  26.6687550  23.2659690  16.8295450  27.1666590
  26.6123740  14.6602400  24.4264070  26.1641040  14.6826660  23.5809620
  25.9788940  14.2621420  25.0234370  27.0183290  23.5556730  25.0476510
  27.4371400  24.3989460  24.8752750  26.0991920  23.6928770  24.8183290
  29.3547190  21.2872910  26.4314350  29.4743400  20.6914050  27.1709190
  30.2141190  21.3242600  26.0115650  31.6935090  21.8410100  25.0076860
  31.1670310  22.3652720  24.4042000  32.0366430  22.4737490  25.6386590
  24.0921480  19.2303470  11.4526570  23.8910540  18.3670830  11.8139910
  23.9213530  19.1436830  10.5148170  24.8690710  29.8609740  26.1634240
  24.3311800  30.5855800  25.8442940  25.1224670  29.3840080  25.3731580
  26.1215960  17.8294260  27.6890170  26.7115650  17.5210110  28.3767990
  25.3036200  17.3574010  27.8450070  30.9409390  17.4460070  27.9223190
  30.2524910  16.7841610  27.8573180  31.6615410  16.9998340  28.3671650
  31.5709790  14.0411700  13.9813450  31.8512080  13.1979600  14.3372870
  30.7975520  14.2734810  14.4952200  22.8904280  16.3304090  11.4404450
  23.1930180  16.3371520  10.5323600  23.6298870  15.9801950  11.9372110
  26.1089210  15.2738710  12.4260650  25.7611210  14.5962700  11.8463100
  26.3101980  14.8128220  13.2404040  28.2738250  30.2619460  14.0447250
  29.1689040  30.6004430  14.0666010  28.3055880  29.5398870  13.4171530
  21.9134410  25.6346510  12.2734250  22.3509280  26.1776180  12.9291830
  22.3982140  24.8093460  12.2830590  19.1280210  28.4235540  19.7254510
  19.4583220  27.5556600  19.4933150  19.5571210  28.6294060  20.5559470
  23.7242130  26.7544550  17.3856480  23.4237670  26.6309520  18.2860390
  23.6179620  25.8953140  16.9772210  19.6170420  29.2906130  22.4636140
  19.1801410  29.4706930  23.2960290  20.1848100  30.0480750  22.3217860
  36.4934050  26.5340950  12.0883160  35.6627010  26.6017600  12.5590390
  36.6705880  27.4245070  11.7850020  35.9490510  23.2788430  14.5917360
  36.7109420  23.8485080  14.6977050  35.9644880  22.7115630  15.3625670
  19.4494850  21.8026360  18.8225020  18.7943690  21.5338000  18.1784720
  20.2872800  21.6930840  18.3727000  36.9550480  24.1338530  19.4359290
  37.3259310  23.3505850  19.0295260  37.5952410  24.8227630  19.2576590
  36.0009680  23.5722800  11.7489880  36.2758520  24.4801680  11.6209100
  35.8120420  23.5085330  12.6851870  32.3985290  16.5967650  13.0443510
  32.8170170  16.4098630  12.2040170  32.0921350  15.7446700  13.3546440
  35.8975020  21.5091790  16.7419310  35.5218620  20.7419720  16.3100600
  35.1678140  21.8914490  17.2294240  20.4870780  22.1878930  23.3628360
  20.8543820  22.1006330  24.2424380  19.9181600  21.4245480  23.2635220
  35.2874640  20.6563310  26.3758830  35.0560730  20.4276060  25.4756780
  35.5479190  21.5762860  26.3303720  20.0386780  19.0988020  27.2686780
  19.1442830  19.0654780  27.6080490  20.5784330  19.2974810  28.0338030
  33.7262710  15.8819740  29.1538530  34.6032890  15.8903140  29.5372530
  33.7383550  15.1450580  28.5430880  18.6632930  19.0125290  14.7650350
  17.7597010  19.2755490  14.5902010  19.1473550  19.2836460  13.9850310
  35.1725980  19.7349280  20.0426550  35.6963460  19.2411930  19.4116720
  35.7585400  19.8699640  20.7874120  35.3515700  19.8189150  23.5646100
  34.4018410  19.7852690  23.6791090  35.5328710  20.7289260  23.3295870
  21.2060140  18.0690830  12.6744730  21.9151840  17.6474050  12.1892010
  20.4900080  18.1366060  12.0428080  20.8534300  14.1230160  11.7147380
  21.5762430  14.6639100  12.0328600  21.1258820  13.8493580  10.8388920
  34.6625950  18.9922630  15.9818960  35.1585070  18.7593500  16.7667840
  34.4642020  18.1534470  15.5656600  20.5426490  13.3736350  21.6170000
  21.1902680  12.8233730  21.1765160  20.9628330  13.6279500  22.4385810
  36.0913110  17.6283580  18.5156640  35.9812390  17.4739620  19.4538910
  36.8520700  17.1004520  18.2732050  34.4378830  13.5677710  24.9739640
  35.0751050  14.1811850  25.3398830  34.5853720  13.6038370  24.0288870
  36.9803380  15.4591500  11.7562780  37.9052690  15.3272680  11.5481070
  36.9579170  15.5384320  12.7099230  37.0541870  16.2302160  14.3819490
  36.2593370  16.1647280  14.9112400  37.2585150  17.1652800  14.3704840
  33.9960290  30.2693710  18.3757880  34.5919360  29.9478280  17.6992300
  34.2538440  29.7965530  19.1671150  20.2958490  13.5292020  24.3595320
  19.9473310  13.9855840  25.1253500  19.9646190  12.6349150  24.4417750
  21.9022860  26.7011620  28.5248510  21.8592490  26.3304530  29.4062970
  22.0333870  27.6389190  28.6650330  25.6028890  28.2571210  24.1258230
  25.3620250  28.5245770  23.2388750  26.5431530  28.4276940  24.1809090
  27.8083310  14.7203900  27.8814740  27.7472200  15.3125730  28.6310150
  28.7483690  14.6129860  27.7365000  30.4457870  14.3773960  27.5207030
  31.0598280  14.6953250  26.8588110  30.9907430  13.8922550  28.1402890
  20.9679130  13.0568220  27.6346090  21.5162120  12.8756270  26.8712200
  21.0334440  12.2662330  28.1702400  21.7410890  29.6473870  25.6446290
  21.1471210  29.5158570  26.3836330  21.7334730  28.8112010  25.1788390
  31.1865910  12.9406100  23.8476320  30.3125750  13.2741210  23.6449250
  31.0776660  12.4679280  24.6728190  32.0937890  15.1476970  25.2318040
  31.7651250  14.3328730  24.8519770  33.0420190  15.1046780  25.1083730
  34.5472500  30.9189010  22.2055610  34.0875470  31.6704820  21.8313630
  33.9184960  30.1995480  22.1470410  21.3723120  27.0132250  24.5954330
  20.6457180  26.3937540  24.5280280  21.4332270  27.4072860  23.7252410
  24.9768220  29.2277250  21.3803740  25.4933240  28.6164610  20.8552000
  25.6265600  29.7306030  21.8714750  27.7163720  30.1185740  22.2072720
  28.0041530  29.8640040  21.3305730  28.2286940  29.5663100  22.7978290
  28.9340730  13.8575940  22.7869230  28.1512520  14.3321440  23.0665990
  28.6403660  12.9530770  22.6782410  33.4861800  14.5599040  20.8318320
  33.9269890  14.5044140  19.9839920  33.2169390  15.4757050  20.9028500
  35.3500370  14.1914280  18.8427140  35.2888770  13.2475500  18.6958160
  36.1292400  14.2994370  19.3880600  19.6553120  30.3306640  17.8051090
  19.4875160  29.6977320  18.5032980  18.7887630  30.5366040  17.4545280
  20.2781140  14.1623420  15.3082950  21.0360500  14.2752300  14.7346980
  19.8158310  14.9992620  15.2626380  26.8194950  16.2762690  18.2985260
  26.0069460  15.9019580  17.9581140  27.3236590  15.5207770  18.6006450
  31.3219930  12.9405140  19.5368330  31.9249300  13.5125350  20.0116850
  30.5812920  13.5044580  19.3142230  34.4654530  13.3426700  14.8108610
  34.6605160  14.2410150  15.0776040  33.6784400  13.1113780  15.3041560
  21.2615820  29.0239870  15.2501230  20.7363440  29.4047900  14.5463190
  21.1860400  29.6490640  15.9710940  22.6506290  14.6887470  13.8484920
  23.1799050  13.9017270  13.7192870  23.2834610  15.3678660  14.0820450
  24.8444130  14.4262610  16.9030310  24.2146870  13.7249920  17.0700440
  24.3049270  15.1866740  16.6863470  36.0181140  30.5827410  16.5715170
  36.1933330  29.8965150  15.9276090  35.3202710  31.1074460  16.1791840
  24.9699690  13.7046590  29.3382800  24.6883960  14.2080190  28.5743620
  25.3519390  12.9068340  28.9724930  23.8608790  30.9722250  14.1250480
  24.5927610  30.6881530  13.5774370  24.1202460  30.7335530  15.0149860
  23.0223580  27.0886980  14.1296810  22.3932460  27.5572080  14.6782640
  23.1371410  26.2436200  14.5643000  31.5715150  13.1200170  29.9163270
  31.4580600  13.4394780  30.8114790  32.3884890  13.5212680  29.6200550
  28.6091340  22.9171660   2.1607280  27.8333440  22.4372100   2.4505850
  29.2604270  22.2377310   1.9863440  22.6257170  23.2291470   3.0383040
  21.7942050  22.9740180   3.4379550  23.2338150  23.3002240   3.7740960
  22.6058430  27.2631560   3.2341060  22.9086470  26.3729300   3.0551280
  23.3502020  27.8201780   3.0063310  18.9982130  20.7899010   2.7065130
  19.5698240  20.0221210   2.7068770  18.9983670  21.0887770   1.7971740
  28.0500330  25.5928850   2.1677440  27.9808610  24.6518790   2.0066570
  28.8120190  25.6830260   2.7400010  20.2407000  16.1983370   4.4934060
  20.0609840  15.3009120   4.7736820  19.8387080  16.7455240   5.1681010
  29.0805500  18.3999230   2.3946370  29.4570320  17.5271110   2.2820040
  28.9825010  18.7357930   1.5036810  20.8593670  18.6943870   3.1016400
  21.5403780  18.9582240   3.7203800  20.5441720  17.8544740   3.4354410
  25.0518240  19.7411230   2.1888990  25.5596460  20.2392200   2.8294010
  25.5831480  18.9646430   2.0128350  37.1529170  17.9116420   5.8918340
  36.4481340  18.2998130   5.3733450  37.4187090  18.6066710   6.4939270
  23.3354340  14.3809790   6.4552410  23.3372780  14.8982180   5.6498310
  22.5058650  13.9039970   6.4322340  24.5857190  24.0204970   4.6325910
  24.2526570  24.6473890   5.2746980  24.7623870  24.5466850   3.8527580
  33.0991100  17.8350050   2.1002250  32.3946670  18.1234940   2.6805360
  33.4603260  18.6450160   1.7401810  23.0169670  16.0919750   4.4622860
  23.3586480  16.9361800   4.1676730  22.0785480  16.2403490   4.5788200
  23.7976290  25.9885770   6.4475090  24.4150290  26.6636850   6.1659540
  22.9369410  26.3973750   6.3562590  34.7153880  27.4525180   4.3629730
  34.0317400  28.1224290   4.3546400  35.2548170  27.6505830   3.5974590
  36.1678020  17.2804840   2.4911460  35.2202930  17.3143820   2.6226890
  36.4928010  18.0943790   2.8760820  32.2512620  29.2969310   3.0774910
  32.2639780  28.8931600   2.2097170  31.6987840  30.0716600   2.9736340
  31.6498060  24.1999150   4.4057520  32.0666850  23.9859260   3.5710980
  32.3737880  24.4571940   4.9766140  35.5960160  22.5986370   4.4973760
  34.7678790  22.6679460   4.0223890  36.1910640  23.1840680   4.0289590
  32.5602170  19.3855690   5.4428630  32.1473350  20.2109400   5.6968620
  31.8278120  18.8000730   5.2504990  25.1616660  25.8583150   2.4686510
  24.8644950  25.2528620   1.7894290  26.1116480  25.8960460   2.3575870
  23.4063580  18.9458800   4.0846340  23.9578170  19.0554140   3.3099590
  23.9207090  19.3196400   4.8001570  33.2502270  29.4315020   6.1309610
  32.7732830  30.2387210   5.9382220  32.5664060  28.7793350   6.2835820
  24.2535090  25.5964840   9.1194310  23.3563620  25.8204810   9.3667710
  24.2787960  25.7199780   8.1705710  23.0806310  22.4678160   7.6951680
  22.9414080  23.3400960   8.0639080  22.1987670  22.1250970   7.5499620
  24.8786660  28.4099860   9.9036830  24.8502090  28.8142810   9.0365260
  24.7151630  27.4810220   9.7408430  36.8301480  29.1926960  11.2001000
  37.3061200  29.6709850  11.8790080  37.4508640  29.1244450  10.4746500
  19.0324960  24.2375710   3.6122590  19.1105380  24.3724480   2.6678310
  19.6466640  23.5291600   3.8050710  36.2334730  26.3839810   8.3601010
  36.3597790  26.1451690   7.4418190  36.2756110  25.5524350   8.8323090
  30.0951470  30.0867810   6.9295820  30.6096140  29.9975820   7.7318250
  29.2520550  30.4327510   7.2223730  36.0858740  18.4372270   9.3250750
  35.4703010  18.9451940   8.7966210  35.7655160  17.5370600   9.2676690
  19.0884480  25.2789880   6.1517050  19.2515520  24.8095240   5.3336420
  19.5536930  24.7713440   6.8165890  28.1473060  17.2764160   6.7912940
  27.6852430  17.4847180   7.6032880  27.7451170  16.4623510   6.4883610
  33.1477570  18.4973110   7.9209600  32.2971160  18.1978860   8.2418670
  32.9879360  18.7415120   7.0093420  30.2427280  19.9974860  10.0208390
  30.5680690  19.1638610   9.6810620  31.0307610  20.5203380  10.1686720
  25.8979150  14.9542970   3.0467220  26.1951480  15.8605800   2.9659240
  26.4464710  14.4661750   2.4326790  26.0916680  20.4314790   9.5819140
  25.9960280  19.4909520   9.4319540  26.9348660  20.6529860   9.1867210
  21.2227220  16.8428460   7.7352920  20.8290610  17.6903670   7.9425700
  20.5345620  16.2054830   7.9261560  27.7972270  16.9263430  10.8049660
  27.1070590  16.7335630  11.4395750  28.5404570  17.2098070  11.3373960
  18.5244270  14.7656920   1.7683000  18.2357320  15.3359780   2.4807980
  19.2690030  14.2861370   2.1314230  30.0735240  20.7661870   3.6403580
  29.3416360  21.2748680   3.9893680  29.6759580  19.9491850   3.3392360
  30.5361150  16.2195550   3.0526520  30.5533890  16.6704200   3.8968370
  30.2876730  15.3201190   3.2659960  33.9631900  13.6327730   8.8912900
  34.2877670  12.9017390   9.4170880  33.9988410  13.3141370   7.9893890
  20.6623460  24.6541310   8.3112860  20.2778250  24.0134980   8.9095820
  20.9735650  25.3577430   8.8807590  26.8120600  21.5017850   3.7921480
  27.1790730  21.0276420   4.5382820  26.6225660  22.3759420   4.1329820
  24.6019970  20.5426490   6.1105690  24.2977040  21.4218470   6.3356050
  25.5566430  20.6026280   6.1463130  33.8889740  23.7452840   2.4998930
  34.6088860  24.2408130   2.1095040  33.6871560  23.0670730   1.8552800
  29.2708540  23.8161900   8.3867930  29.2045850  22.8957570   8.1325520
  28.6413680  23.9137340   9.1012570  20.6583700  21.3829230   7.2577050
  20.2998640  22.0483080   7.8450390  20.3638260  20.5512780   7.6289670
  23.8596820  21.8413470  10.1416600  23.5596960  21.9870650   9.2444420
  24.6308060  21.2818760  10.0489990  29.2025270  26.6382470   8.1371730
  29.2169810  25.7063430   7.9190640  28.4950370  26.7242230   8.7761500
  35.4136480  23.2789810   7.4840310  34.6884670  23.8718590   7.2869700
  35.9411940  23.2713350   6.6853680  28.6359170  28.2800040   5.2312230
  29.2801390  28.4859420   5.9085650  28.9988610  27.5188440   4.7783080
  29.9091250  26.2832390   3.9489680  30.5513480  25.5825550   4.0621850
  30.4340600  27.0630830   3.7686570  31.6828870  27.0827290   7.1525740
  32.0185110  27.6693980   7.8303660  30.7629210  26.9520000   7.3823530
  19.2332270  14.8722470   7.9349150  18.5190790  15.0719390   8.5401760
  19.6527310  14.0962040   8.3063950  19.5204860  28.8602730   8.9215680
  19.6295980  27.9197470   8.7811070  18.8685420  29.1257480   8.2729410
  27.5117450  27.1318620  10.3213800  27.1914320  26.4127860  10.8659490
  26.8375810  27.8073690  10.3949860  30.7271050  17.3644780   5.6850600
  31.0951870  16.5439990   6.0130170  29.8669250  17.4246670   6.1006250
  27.6873040  20.0184370   5.9088570  28.1858290  20.4930190   6.5740420
  27.8295990  19.0947890   6.1158600  34.8939900  16.2352330   6.7516960
  34.3913500  16.9757730   7.0910770  35.7096560  16.6236330   6.4353750
  35.1887490  28.6494360   1.8732580  35.3134910  29.4725530   2.3456390
  36.0553050  28.4385090   1.5256730  21.6663300  29.9271640  10.7335290
  22.4676030  30.2483690  11.1470690  21.1515120  29.5667220  11.4555200
  30.5027930  26.0351510  10.6810700  29.8966090  26.0583110   9.9406450
  30.1982040  25.3034550  11.2177950  31.9328300  29.7631800   9.2920110
  32.8850050  29.6789820   9.2420350  31.7856520  30.4273510   9.9653900
  19.3861110  22.4145100   9.6771340  19.8900130  21.8352380  10.2487570
  18.6468530  22.6985330  10.2147710  26.4399050  23.8216090   9.2106860
  25.6744720  24.3901090   9.1261530  26.6215010  23.5292300   8.3175090
  33.5822400  25.5521420   9.7681880  34.3231870  25.8897180   9.2649340
  32.8195080  25.7213480   9.2151650  21.4184190  20.5574690  10.5721410
  21.4589530  20.2588560  11.4806640  22.2729690  20.9582300  10.4128930
  23.3590000  19.1366790   8.5395900  22.8286460  18.6457740   7.9119240
  24.0278070  19.5650990   8.0053830  32.2568060  23.6036250   8.3037090
  32.6709080  23.7581330   9.1527510  31.3219060  23.7291470   8.4662870
  32.7290230  20.9432410  10.3076240  33.3111000  20.1884730  10.2196720
  32.9052000  21.4739850   9.5307720  23.8462300  16.1029160   8.6193190
  23.7519170  15.4849910   7.8944060  23.2659690  16.8295450   8.3923100
  26.6123740  14.6602400   5.6520580  26.1641040  14.6826660   4.8066130
  25.9788940  14.2621420   6.2490880  27.0183290  23.5556730   6.2733020
  27.4371400  24.3989460   6.1009260  26.0991920  23.6928770   6.0439800
  29.3547190  21.2872910   7.6570860  29.4743400  20.6914050   8.3965700
  30.2141190  21.3242600   7.2372160  31.6935090  21.8410100   6.2333370
  31.1670310  22.3652720   5.6298510  32.0366430  22.4737490   6.8643100
  24.8690710  29.8609740   7.3890750  24.3311800  30.5855800   7.0699450
  25.1224670  29.3840080   6.5988090  26.1215960  17.8294260   8.9146680
  26.7115650  17.5210110   9.6024500  25.3036200  17.3574010   9.0706580
  30.9409390  17.4460070   9.1479700  30.2524910  16.7841610   9.0829690
  31.6615410  16.9998340   9.5928160  27.7252920  31.0960950   7.6477400
  27.6511620  31.9996090   7.9549770  26.8231760  30.7772850   7.6199470
  19.6170420  29.2906130   3.6892650  19.1801410  29.4706930   4.5216800
  20.1848100  30.0480750   3.5474370  35.2532600  28.7923130   7.9769960
  34.6534590  28.8515690   7.2333880  35.3826500  27.8528110   8.1066810
  33.9384240  25.5175110   6.0746120  33.1244080  25.9472270   6.3371910
  34.3458440  26.1293520   5.4615170  20.4870780  22.1878930   4.5884870
  20.8543820  22.1006330   5.4680890  19.9181600  21.4245480   4.4891730
  35.2874640  20.6563310   7.6015340  35.0560730  20.4276060   6.7013290
  35.5479190  21.5762860   7.5560230  20.0386780  19.0988020   8.4943290
  19.1442830  19.0654780   8.8337000  20.5784330  19.2974810   9.2594540
  33.7262710  15.8819740  10.3795040  34.6032890  15.8903140  10.7629040
  33.7383550  15.1450580   9.7687390  35.3515700  19.8189150   4.7902610
  34.4018410  19.7852690   4.9047600  35.5328710  20.7289260   4.5552380
  20.5426490  13.3736350   2.8426510  21.1902680  12.8233730   2.4021670
  20.9628330  13.6279500   3.6642320  34.4378830  13.5677710   6.1996150
  35.0751050  14.1811850   6.5655340  34.5853720  13.6038370   5.2545380
  20.2958490  13.5292020   5.5851830  19.9473310  13.9855840   6.3510010
  19.9646190  12.6349150   5.6674260  21.9022860  26.7011620   9.7505020
  21.8592490  26.3304530  10.6319480  22.0333870  27.6389190   9.8906840
  25.6028890  28.2571210   5.3514740  25.3620250  28.5245770   4.4645260
  26.5431530  28.4276940   5.4065600  27.8083310  14.7203900   9.1071250
  27.7472200  15.3125730   9.8566660  28.7483690  14.6129860   8.9621510
  30.4457870  14.3773960   8.7463540  31.0598280  14.6953250   8.0844620
  30.9907430  13.8922550   9.3659400  36.8633050  30.2765590   6.1525380
  36.3691330  30.6734460   5.4352510  36.2546340  29.6514800   6.5462660
  20.9679130  13.0568220   8.8602600  21.5162120  12.8756270   8.0968710
  21.0334440  12.2662330   9.3958910  21.7410890  29.6473870   6.8702800
  21.1471210  29.5158570   7.6092840  21.7334730  28.8112010   6.4044900
  31.1865910  12.9406100   5.0732830  30.3125750  13.2741210   4.8705760
  31.0776660  12.4679280   5.8984700  32.0937890  15.1476970   6.4574550
  31.7651250  14.3328730   6.0776280  33.0420190  15.1046780   6.3340240
  34.5472500  30.9189010   3.4312120  34.0875470  31.6704820   3.0570140
  33.9184960  30.1995480   3.3726920  21.3723120  27.0132250   5.8210840
  20.6457180  26.3937540   5.7536790  21.4332270  27.4072860   4.9508920
  24.9768220  29.2277250   2.6060250  25.4933240  28.6164610   2.0808510
  25.6265600  29.7306030   3.0971260  27.7163720  30.1185740   3.4329230
  28.0041530  29.8640040   2.5562240  28.2286940  29.5663100   4.0234800
  28.9340730  13.8575940   4.0125740  28.1512520  14.3321440   4.2922500
  28.6403660  12.9530770   3.9038920  27.7836080  31.0401840  10.7997430
  28.7103390  30.8046110  10.8433390  27.7686510  31.8673840  10.3183460
  24.9699690  13.7046590  10.5639310  24.6883960  14.2080190   9.8000130
  25.3519390  12.9068340  10.1981440  31.5715150  13.1200170  11.1419780
  31.4580600  13.4394780  12.0371300  32.3884890  13.5212680  10.8457060
  34.3513640  30.2671700  10.6238470  35.1438960  29.7720930  10.4164430
  34.6446790  30.9461840  11.2314080  32.6298770   8.5488360  76.0380370
  32.1680300   7.7775600  76.3667540  33.4424320   8.5754430  76.5432820
  28.8562080  10.8346370  75.6584360  28.2373520  11.2903870  75.0878800
  29.7113860  10.9897830  75.2574060  29.7225430   5.7185610  73.0516270
  29.1042700   6.1835060  72.4878990  30.2348680   6.4113090  73.4685780
  19.0908630   6.4042140  70.4255900  18.7136610   6.8929240  69.6940800
  19.3481700   7.0767420  71.0562430  33.5458040   7.2442040  73.2639040
  33.4354370   6.3016370  73.3888460  33.5426290   7.6057680  74.1501800
  29.0878320   2.8707360  72.6201530  28.1607600   2.8044740  72.8490000
  29.2403140   3.8087490  72.5056770  33.1175610   4.4327660  73.1236780
  32.4988030   4.0947210  72.4763080  33.1000060   3.7887420  73.8315970
  24.6934960   3.3972100  75.4021260  24.2891960   2.6849350  74.9067160
  24.7798080   3.0525340  76.2909300  31.2940310   3.6714470  70.1309530
  31.7333590   2.8336900  69.9847350  32.0068730   4.3043870  70.2173670
  29.4035690   8.6110540  74.0990770  29.8431600   9.3534870  73.6846160
  29.3422580   8.8537110  75.0229730  21.3939590   2.2917080  72.9027910
  21.2737190   3.0179170  72.2909180  21.0840480   1.5219990  72.4255820
  20.2772590   7.1632410  75.1202730  19.8700670   7.3047000  74.2656330
  21.1685600   6.8792570  74.9173940  32.0705870  11.5979660  71.4553780
  31.9107010  11.3082600  72.3535610  31.9052580  10.8219790  70.9199010
  24.5494250  11.3778190  73.2325400  24.3736730  10.4613730  73.0193200
  23.6949990  11.7365480  73.4723200  31.7732000   9.1067220  70.0151780
  31.0797160   9.1044510  69.3554060  32.5154860   8.6826540  69.5845950
  31.3381930  10.7329930  74.0900270  31.7938880   9.9519310  74.4038890
  31.6774450  11.4436750  74.6341450  25.5854280   1.9785800  69.5320090
  25.0171180   1.5304050  68.9056000  26.2943280   2.3378580  68.9985240
  23.1301760   5.9743990  71.8046500  22.3564020   5.4341610  71.6445220
  23.8596390   5.4550600  71.4664260  23.1739160   5.6424370  75.4425310
  23.6917830   4.8392630  75.3882200  22.7223180   5.5803510  76.2842140
  28.0608660   6.9090650  70.7152610  28.4024360   7.6532880  70.2195930
  27.2321370   7.2221770  71.0777440  34.3362340   2.0478800  69.5044300
  34.2526060   2.4793020  68.6540740  35.0556530   2.5077150  69.9371120
  35.3649590   8.9021060  72.2326430  34.7225750   8.2476680  72.5070150
  34.9780250   9.3076150  71.4567100  30.9436070   6.2306490  76.0798120
  31.2959890   5.6334620  75.4199490  30.0598400   5.9050720  76.2506370
  27.0299350   6.9904180  73.4868530  27.7170480   7.5373390  73.8676120
  26.2431770   7.5344910  73.5218140  19.1691750   2.6077000  68.9785610
  20.0386600   2.8901800  69.2621530  18.6782070   3.4212870  68.8634420
  26.3326560   3.9950210  73.0993890  26.7889340   4.8055460  73.3254080
  25.9814770   3.6773350  73.9312380  33.7546970   7.7937520  68.7702780
  33.5284550   7.0767960  69.3627420  33.3643170   7.5449960  67.9324530
  19.5363000  11.8204380  69.5447240  19.8960640  12.4193720  68.8904510
  19.3955340  12.3664270  70.3182270  33.3363220   5.7109460  70.4316940
  33.0484920   6.1722150  71.2194820  34.1315390   5.2507230  70.7001160
  25.5531620   9.2035580  70.3620910  25.5441720   9.9365270  69.7465420
  24.6329980   8.9567160  70.4547870  21.1538260   4.4250470  71.1067670
  20.5466210   5.1649370  71.1162970  21.6287610   4.5149830  70.2805870
  28.5391220   9.2663820  69.0246100  28.6403200   9.0627810  68.0948080
  27.6392960   9.0122100  69.2293880  27.1809330  11.7850140  73.7193770
  27.4350830  11.7471530  72.7973140  26.2321810  11.6583470  73.7122020
  33.1861910   2.7042020  75.2952280  32.2452050   2.7192250  75.4699970
  33.5005980   1.9177980  75.7412580  23.1643550   4.3861620  68.8556240
  23.9306820   4.2742980  69.4181670  23.2418240   3.6899590  68.2033010
  22.6605020  11.9682080  76.6423670  23.3967500  11.4197540  76.9132240
  23.0445940  12.8338090  76.5029660  19.5450500   8.0355650  72.5165180
  18.6190280   8.2776790  72.5070590  20.0106930   8.8629910  72.3949930
  25.7707330  11.1412390  68.4649240  26.5635940  11.4301220  68.0131030
  25.2511680  10.7104560  67.7861720  34.8237500  10.3682520  69.8885980
  34.5379010   9.9547660  69.0740160  34.6257050  11.2970230  69.7686500
  26.2884730   6.3615800  68.3291590  26.1835370   5.7468150  69.0552970
  26.1208950   5.8381690  67.5454600  29.5287460   5.4235830  68.9333580
  28.9797560   5.8705130  69.5776320  30.1506720   4.9185080  69.4571250
  25.1962580   4.3826750  70.8298880  25.6179000   4.2166620  71.6730270
  25.3213420   3.5726980  70.3354020  27.7090220   3.4064360  68.0775980
  28.2295880   2.6913380  67.7117130  28.3558620   4.0450230  68.3776490
  28.2738250  11.4875970  70.3677720  29.1689040  11.8260940  70.3896480
  28.3055880  10.7655380  69.7402000  21.9134410   6.8603020  68.5964720
  22.3509280   7.4032690  69.2522300  22.3982140   6.0349970  68.6061060
  19.1280210   9.6492050  76.0484980  19.4583220   8.7813110  75.8163620
  19.5571210   9.8550570  76.8789940  23.7242130   7.9801060  73.7086950
  23.4237670   7.8566030  74.6090860  23.6179620   7.1209650  73.3002680
  36.4934050   7.7597460  68.4113630  35.6627010   7.8274110  68.8820860
  36.6705880   8.6501580  68.1080490  35.9490510   4.5044940  70.9147830
  36.7109420   5.0741590  71.0207520  35.9644880   3.9372140  71.6856140
  19.4494850   3.0282870  75.1455490  18.7943690   2.7594510  74.5015190
  20.2872800   2.9187350  74.6957470  36.9550480   5.3595040  75.7589760
  37.3259310   4.5762360  75.3525730  37.5952410   6.0484140  75.5807060
  36.0009680   4.7979310  68.0720350  36.2758520   5.7058190  67.9439570
  35.8120420   4.7341840  69.0082340  35.8975020   2.7348300  73.0649780
  35.5218620   1.9676230  72.6331070  35.1678140   3.1171000  73.5524710
  33.9960290  11.4950220  74.6988350  34.5919360  11.1734790  74.0222770
  34.2538440  11.0222040  75.4901620  19.6553120  11.5563150  74.1281560
  19.4875160  10.9233830  74.8263450  18.7887630  11.7622550  73.7775750
  21.2615820  10.2496380  71.5731700  20.7363440  10.6304410  70.8693660
  21.1860400  10.8747150  72.2941410  36.0181140  11.8083920  72.8945640
  36.1933330  11.1221660  72.2506560  35.3202710  12.3330970  72.5022310
  23.8608790  12.1978760  70.4480950  24.5927610  11.9138040  69.9004840
  24.1202460  11.9592040  71.3380330  23.0223580   8.3143490  70.4527280
  22.3932460   8.7828590  71.0013110  23.1371410   7.4692710  70.8873470
  28.6091340   4.1428170  58.4837750  27.8333440   3.6628610  58.7736320
  29.2604270   3.4633820  58.3093910  22.6257170   4.4547980  59.3613510
  21.7942050   4.1996690  59.7610020  23.2338150   4.5258750  60.0971430
  32.6298770   8.5488360  57.2636880  32.1680300   7.7775600  57.5924050
  33.4424320   8.5754430  57.7689330  22.6058430   8.4888070  59.5571530
  22.9086470   7.5985810  59.3781750  23.3502020   9.0458290  59.3293780
  28.8562080  10.8346370  56.8840870  28.2373520  11.2903870  56.3135310
  29.7113860  10.9897830  56.4830570  28.0500330   6.8185360  58.4907910
  27.9808610   5.8775300  58.3297040  28.8120190   6.9086770  59.0630480
  29.7225430   5.7185610  54.2772780  29.1042700   6.1835060  53.7135500
  30.2348680   6.4113090  54.6942290  24.5857190   5.2461480  60.9556380
  24.2526570   5.8730400  61.5977450  24.7623870   5.7723360  60.1758050
  23.7976290   7.2142280  62.7705560  24.4150290   7.8893360  62.4890010
  22.9369410   7.6230260  62.6793060  19.0908630   6.4042140  51.6512410
  18.7136610   6.8929240  50.9197310  19.3481700   7.0767420  52.2818940
  34.7153880   8.6781690  60.6860200  34.0317400   9.3480800  60.6776870
  35.2548170   8.8762340  59.9205060  32.2512620  10.5225820  59.4005380
  32.2639780  10.1188110  58.5327640  31.6987840  11.2973110  59.2966810
  33.5458040   7.2442040  54.4895550  33.4354370   6.3016370  54.6144970
  33.5426290   7.6057680  55.3758310  31.6498060   5.4255660  60.7287990
  32.0666850   5.2115770  59.8941450  32.3737880   5.6828450  61.2996610
  29.0878320   2.8707360  53.8458040  28.1607600   2.8044740  54.0746510
  29.2403140   3.8087490  53.7313280  35.5960160   3.8242880  60.8204230
  34.7678790   3.8935970  60.3454360  36.1910640   4.4097190  60.3520060
  33.1175610   4.4327660  54.3493290  32.4988030   4.0947210  53.7019590
  33.1000060   3.7887420  55.0572480  24.6934960   3.3972100  56.6277770
  24.2891960   2.6849350  56.1323670  24.7798080   3.0525340  57.5165810
  25.1616660   7.0839660  58.7916980  24.8644950   6.4785130  58.1124760
  26.1116480   7.1216970  58.6806340  33.2502270  10.6571530  62.4540080
  32.7732830  11.4643720  62.2612690  32.5664060  10.0049860  62.6066290
  24.2535090   6.8221350  65.4424780  23.3563620   7.0461320  65.6898180
  24.2787960   6.9456290  64.4936180  31.2940310   3.6714470  51.3566040
  31.7333590   2.8336900  51.2103860  32.0068730   4.3043870  51.4430180
  23.0806310   3.6934670  64.0182150  22.9414080   4.5657470  64.3869550
  22.1987670   3.3507480  63.8730090  29.4035690   8.6110540  55.3247280
  29.8431600   9.3534870  54.9102670  29.3422580   8.8537110  56.2486240
  24.8786660   9.6356370  66.2267300  24.8502090  10.0399320  65.3595730
  24.7151630   8.7066730  66.0638900  21.3939590   2.2917080  54.1284420
  21.2737190   3.0179170  53.5165690  21.0840480   1.5219990  53.6512330
  36.8301480  10.4183470  67.5231470  37.3061200  10.8966360  68.2020550
  37.4508640  10.3500960  66.7976970  19.0324960   5.4632220  59.9353060
  19.1105380   5.5980990  58.9908780  19.6466640   4.7548110  60.1281180
  20.2772590   7.1632410  56.3459240  19.8700670   7.3047000  55.4912840
  21.1685600   6.8792570  56.1430450  36.2334730   7.6096320  64.6831480
  36.3597790   7.3708200  63.7648660  36.2756110   6.7780860  65.1553560
  30.0951470  11.3124320  63.2526290  30.6096140  11.2232330  64.0548720
  29.2520550  11.6584020  63.5454200  32.0705870  11.5979660  52.6810290
  31.9107010  11.3082600  53.5792120  31.9052580  10.8219790  52.1455520
  24.5494250  11.3778190  54.4581910  24.3736730  10.4613730  54.2449710
  23.6949990  11.7365480  54.6979710  31.7732000   9.1067220  51.2408290
  31.0797160   9.1044510  50.5810570  32.5154860   8.6826540  50.8102460
  31.3381930  10.7329930  55.3156780  31.7938880   9.9519310  55.6295400
  31.6774450  11.4436750  55.8597960  19.0884480   6.5046390  62.4747520
  19.2515520   6.0351750  61.6566890  19.5536930   5.9969950  63.1396360
  25.5854280   1.9785800  50.7576600  25.0171180   1.5304050  50.1312510
  26.2943280   2.3378580  50.2241750  20.6623460   5.8797820  64.6343330
  20.2778250   5.2391490  65.2326290  20.9735650   6.5833940  65.2038060
  26.8120600   2.7274360  60.1151950  27.1790730   2.2532930  60.8613290
  26.6225660   3.6015930  60.4560290  24.6019970   1.7683000  62.4336160
  24.2977040   2.6474980  62.6586520  25.5566430   1.8282790  62.4693600
  23.1301760   5.9743990  53.0303010  22.3564020   5.4341610  52.8701730
  23.8596390   5.4550600  52.6920770  33.8889740   4.9709350  58.8229400
  34.6088860   5.4664640  58.4325510  33.6871560   4.2927240  58.1783270
  29.2708540   5.0418410  64.7098400  29.2045850   4.1214080  64.4555990
  28.6413680   5.1393850  65.4243040  23.1739160   5.6424370  56.6681820
  23.6917830   4.8392630  56.6138710  22.7223180   5.5803510  57.5098650
  28.0608660   6.9090650  51.9409120  28.4024360   7.6532880  51.4452440
  27.2321370   7.2221770  52.3033950  20.6583700   2.6085740  63.5807520
  20.2998640   3.2739590  64.1680860  20.3638260   1.7769290  63.9520140
  23.8596820   3.0669980  66.4647070  23.5596960   3.2127160  65.5674890
  24.6308060   2.5075270  66.3720460  29.2025270   7.8638980  64.4602200
  29.2169810   6.9319940  64.2421110  28.4950370   7.9498740  65.0991970
  34.3362340   2.0478800  50.7300810  34.2526060   2.4793020  49.8797250
  35.0556530   2.5077150  51.1627630  35.4136480   4.5046320  63.8070780
  34.6884670   5.0975100  63.6100170  35.9411940   4.4969860  63.0084150
  35.3649590   8.9021060  53.4582940  34.7225750   8.2476680  53.7326660
  34.9780250   9.3076150  52.6823610  30.9436070   6.2306490  57.3054630
  31.2959890   5.6334620  56.6456000  30.0598400   5.9050720  57.4762880
  27.0299350   6.9904180  54.7125040  27.7170480   7.5373390  55.0932630
  26.2431770   7.5344910  54.7474650  19.1691750   2.6077000  50.2042120
  20.0386600   2.8901800  50.4878040  18.6782070   3.4212870  50.0890930
  26.3326560   3.9950210  54.3250400  26.7889340   4.8055460  54.5510590
  25.9814770   3.6773350  55.1568890  28.6359170   9.5056550  61.5542700
  29.2801390   9.7115930  62.2316120  28.9988610   8.7444950  61.1013550
  29.9091250   7.5088900  60.2720150  30.5513480   6.8082060  60.3852320
  30.4340600   8.2887340  60.0917040  33.7546970   7.7937520  49.9959290
  33.5284550   7.0767960  50.5883930  33.3643170   7.5449960  49.1581040
  31.6828870   8.3083800  63.4756210  32.0185110   8.8950490  64.1534130
  30.7629210   8.1776510  63.7054000  19.5363000  11.8204380  50.7703750
  19.8960640  12.4193720  50.1161020  19.3955340  12.3664270  51.5438780
  33.3363220   5.7109460  51.6573450  33.0484920   6.1722150  52.4451330
  34.1315390   5.2507230  51.9257670  19.5204860  10.0859240  65.2446150
  19.6295980   9.1453980  65.1041540  18.8685420  10.3513990  64.5959880
  27.5117450   8.3575130  66.6444270  27.1914320   7.6384370  67.1889960
  26.8375810   9.0330200  66.7180330  25.5531620   9.2035580  51.5877420
  25.5441720   9.9365270  50.9721930  24.6329980   8.9567160  51.6804380
  21.1538260   4.4250470  52.3324180  20.5466210   5.1649370  52.3419480
  21.6287610   4.5149830  51.5062380  28.5391220   9.2663820  50.2502610
  28.6403200   9.0627810  49.3204590  27.6392960   9.0122100  50.4550390
  27.1809330  11.7850140  54.9450280  27.4350830  11.7471530  54.0229650
  26.2321810  11.6583470  54.9378530  33.1861910   2.7042020  56.5208790
  32.2452050   2.7192250  56.6956480  33.5005980   1.9177980  56.9669090
  23.1643550   4.3861620  50.0812750  23.9306820   4.2742980  50.6438180
  23.2418240   3.6899590  49.4289520  35.1887490   9.8750870  58.1963050
  35.3134910  10.6982040  58.6686860  36.0553050   9.6641600  57.8487200
  22.6605020  11.9682080  57.8680180  23.3967500  11.4197540  58.1388750
  23.0445940  12.8338090  57.7286170  19.5450500   8.0355650  53.7421690
  18.6190280   8.2776790  53.7327100  20.0106930   8.8629910  53.6206440
  21.6663300  11.1528150  67.0565760  22.4676030  11.4740200  67.4701160
  21.1515120  10.7923730  67.7785670  25.7707330  11.1412390  49.6905750
  26.5635940  11.4301220  49.2387540  25.2511680  10.7104560  49.0118230
  30.5027930   7.2608020  67.0041170  29.8966090   7.2839620  66.2636920
  30.1982040   6.5291060  67.5408420  31.9328300  10.9888310  65.6150580
  32.8850050  10.9046330  65.5650820  31.7856520  11.6530020  66.2884370
  34.8237500  10.3682520  51.1142490  34.5379010   9.9547660  50.2996670
  34.6257050  11.2970230  50.9943010  19.3861110   3.6401610  66.0001810
  19.8900130   3.0608890  66.5718040  18.6468530   3.9241840  66.5378180
  26.2884730   6.3615800  49.5548100  26.1835370   5.7468150  50.2809480
  26.1208950   5.8381690  48.7711110  26.4399050   5.0472600  65.5337330
  25.6744720   5.6157600  65.4492000  26.6215010   4.7548810  64.6405560
  29.5287460   5.4235830  50.1590090  28.9797560   5.8705130  50.8032830
  30.1506720   4.9185080  50.6827760  33.5822400   6.7777930  66.0912350
  34.3231870   7.1153690  65.5879810  32.8195080   6.9469990  65.5382120
  21.4184190   1.7831200  66.8951880  21.4589530   1.4845070  67.8037110
  22.2729690   2.1838810  66.7359400  25.1962580   4.3826750  52.0555390
  25.6179000   4.2166620  52.8986780  25.3213420   3.5726980  51.5610530
  27.7090220   3.4064360  49.3032490  28.2295880   2.6913380  48.9373640
  28.3558620   4.0450230  49.6033000  32.2568060   4.8292760  64.6267560
  32.6709080   4.9837840  65.4757980  31.3219060   4.9547980  64.7893340
  27.0183290   4.7813240  62.5963490  27.4371400   5.6245970  62.4239730
  26.0991920   4.9185280  62.3670270  29.3547190   2.5129420  63.9801330
  29.4743400   1.9170560  64.7196170  30.2141190   2.5499110  63.5602630
  31.6935090   3.0666610  62.5563840  31.1670310   3.5909230  61.9528980
  32.0366430   3.6994000  63.1873570  24.8690710  11.0866250  63.7121220
  24.3311800  11.8112310  63.3929920  25.1224670  10.6096590  62.9218560
  27.7252920  12.3217460  63.9707870  27.6511620  13.2252600  64.2780240
  26.8231760  12.0029360  63.9429940  28.2738250  11.4875970  51.5934230
  29.1689040  11.8260940  51.6152990  28.3055880  10.7655380  50.9658510
  21.9134410   6.8603020  49.8221230  22.3509280   7.4032690  50.4778810
  22.3982140   6.0349970  49.8317570  19.1280210   9.6492050  57.2741490
  19.4583220   8.7813110  57.0420130  19.5571210   9.8550570  58.1046450
  23.7242130   7.9801060  54.9343460  23.4237670   7.8566030  55.8347370
  23.6179620   7.1209650  54.5259190  19.6170420  10.5162640  60.0123120
  19.1801410  10.6963440  60.8447270  20.1848100  11.2737260  59.8704840
  35.2532600  10.0179640  64.3000430  34.6534590  10.0772200  63.5564350
  35.3826500   9.0784620  64.4297280  36.4934050   7.7597460  49.6370140
  35.6627010   7.8274110  50.1077370  36.6705880   8.6501580  49.3337000
  35.9490510   4.5044940  52.1404340  36.7109420   5.0741590  52.2464030
  35.9644880   3.9372140  52.9112650  19.4494850   3.0282870  56.3712000
  18.7943690   2.7594510  55.7271700  20.2872800   2.9187350  55.9213980
  36.9550480   5.3595040  56.9846270  37.3259310   4.5762360  56.5782240
  37.5952410   6.0484140  56.8063570  33.9384240   6.7431620  62.3976590
  33.1244080   7.1728780  62.6602380  34.3458440   7.3550030  61.7845640
  36.0009680   4.7979310  49.2976860  36.2758520   5.7058190  49.1696080
  35.8120420   4.7341840  50.2338850  35.8975020   2.7348300  54.2906290
  35.5218620   1.9676230  53.8587580  35.1678140   3.1171000  54.7781220
  20.4870780   3.4135440  60.9115340  20.8543820   3.3262840  61.7911360
  19.9181600   2.6501990  60.8122200  35.2874640   1.8819820  63.9245810
  35.0560730   1.6532570  63.0243760  35.5479190   2.8019370  63.8790700
  33.9960290  11.4950220  55.9244860  34.5919360  11.1734790  55.2479280
  34.2538440  11.0222040  56.7158130  21.9022860   7.9268130  66.0735490
  21.8592490   7.5561040  66.9549950  22.0333870   8.8645700  66.2137310
  25.6028890   9.4827720  61.6745210  25.3620250   9.7502280  60.7875730
  26.5431530   9.6533450  61.7296070  36.8633050  11.5022100  62.4755850
  36.3691330  11.8990970  61.7582980  36.2546340  10.8771310  62.8693130
  21.7410890  10.8730380  63.1933270  21.1471210  10.7415080  63.9323310
  21.7334730  10.0368520  62.7275370  34.5472500  12.1445520  59.7542590
  34.0875470  12.8961330  59.3800610  33.9184960  11.4251990  59.6957390
  21.3723120   8.2388760  62.1441310  20.6457180   7.6194050  62.0767260
  21.4332270   8.6329370  61.2739390  24.9768220  10.4533760  58.9290720
  25.4933240   9.8421120  58.4038980  25.6265600  10.9562540  59.4201730
  27.7163720  11.3442250  59.7559700  28.0041530  11.0896550  58.8792710
  28.2286940  10.7919610  60.3465270  19.6553120  11.5563150  55.3538070
  19.4875160  10.9233830  56.0519960  18.7887630  11.7622550  55.0032260
  21.2615820  10.2496380  52.7988210  20.7363440  10.6304410  52.0950170
  21.1860400  10.8747150  53.5197920  27.7836080  12.2658350  67.1227900
  28.7103390  12.0302620  67.1663860  27.7686510  13.0930350  66.6413930
  36.0181140  11.8083920  54.1202150  36.1933330  11.1221660  53.4763070
  35.3202710  12.3330970  53.7278820  23.8608790  12.1978760  51.6737460
  24.5927610  11.9138040  51.1261350  24.1202460  11.9592040  52.5636840
  23.0223580   8.3143490  51.6783790  22.3932460   8.7828590  52.2269620
  23.1371410   7.4692710  52.1129980  34.3513640  11.4928210  66.9468940
  35.1438960  10.9977440  66.7394900  34.6446790  12.1718350  67.5544550
  28.6091340   4.1428170  39.7094260  27.8333440   3.6628610  39.9992830
  29.2604270   3.4633820  39.5350420  22.6257170   4.4547980  40.5870020
  21.7942050   4.1996690  40.9866530  23.2338150   4.5258750  41.3227940
  32.6298770   8.5488360  38.4893390  32.1680300   7.7775600  38.8180560
  33.4424320   8.5754430  38.9945840  22.6058430   8.4888070  40.7828040
  22.9086470   7.5985810  40.6038260  23.3502020   9.0458290  40.5550290
  28.8562080  10.8346370  38.1097380  28.2373520  11.2903870  37.5391820
  29.7113860  10.9897830  37.7087080  28.0500330   6.8185360  39.7164420
  27.9808610   5.8775300  39.5553550  28.8120190   6.9086770  40.2886990
  29.7225430   5.7185610  35.5029290  29.1042700   6.1835060  34.9392010
  30.2348680   6.4113090  35.9198800  24.5857190   5.2461480  42.1812890
  24.2526570   5.8730400  42.8233960  24.7623870   5.7723360  41.4014560
  23.7976290   7.2142280  43.9962070  24.4150290   7.8893360  43.7146520
  22.9369410   7.6230260  43.9049570  19.0908630   6.4042140  32.8768920
  18.7136610   6.8929240  32.1453820  19.3481700   7.0767420  33.5075450
  34.7153880   8.6781690  41.9116710  34.0317400   9.3480800  41.9033380
  35.2548170   8.8762340  41.1461570  32.2512620  10.5225820  40.6261890
  32.2639780  10.1188110  39.7584150  31.6987840  11.2973110  40.5223320
  33.5458040   7.2442040  35.7152060  33.4354370   6.3016370  35.8401480
  33.5426290   7.6057680  36.6014820  31.6498060   5.4255660  41.9544500
  32.0666850   5.2115770  41.1197960  32.3737880   5.6828450  42.5253120
  29.0878320   2.8707360  35.0714550  28.1607600   2.8044740  35.3003020
  29.2403140   3.8087490  34.9569790  35.5960160   3.8242880  42.0460740
  34.7678790   3.8935970  41.5710870  36.1910640   4.4097190  41.5776570
  33.1175610   4.4327660  35.5749800  32.4988030   4.0947210  34.9276100
  33.1000060   3.7887420  36.2828990  24.6934960   3.3972100  37.8534280
  24.2891960   2.6849350  37.3580180  24.7798080   3.0525340  38.7422320
  25.1616660   7.0839660  40.0173490  24.8644950   6.4785130  39.3381270
  26.1116480   7.1216970  39.9062850  33.2502270  10.6571530  43.6796590
  32.7732830  11.4643720  43.4869200  32.5664060  10.0049860  43.8322800
  24.2535090   6.8221350  46.6681290  23.3563620   7.0461320  46.9154690
  24.2787960   6.9456290  45.7192690  31.2940310   3.6714470  32.5822550
  31.7333590   2.8336900  32.4360370  32.0068730   4.3043870  32.6686690
  23.0806310   3.6934670  45.2438660  22.9414080   4.5657470  45.6126060
  22.1987670   3.3507480  45.0986600  29.4035690   8.6110540  36.5503790
  29.8431600   9.3534870  36.1359180  29.3422580   8.8537110  37.4742750
  24.8786660   9.6356370  47.4523810  24.8502090  10.0399320  46.5852240
  24.7151630   8.7066730  47.2895410  21.3939590   2.2917080  35.3540930
  21.2737190   3.0179170  34.7422200  21.0840480   1.5219990  34.8768840
  36.8301480  10.4183470  48.7487980  37.3061200  10.8966360  49.4277060
  37.4508640  10.3500960  48.0233480  19.0324960   5.4632220  41.1609570
  19.1105380   5.5980990  40.2165290  19.6466640   4.7548110  41.3537690
  20.2772590   7.1632410  37.5715750  19.8700670   7.3047000  36.7169350
  21.1685600   6.8792570  37.3686960  36.2334730   7.6096320  45.9087990
  36.3597790   7.3708200  44.9905170  36.2756110   6.7780860  46.3810070
  30.0951470  11.3124320  44.4782800  30.6096140  11.2232330  45.2805230
  29.2520550  11.6584020  44.7710710  32.0705870  11.5979660  33.9066800
  31.9107010  11.3082600  34.8048630  31.9052580  10.8219790  33.3712030
  24.5494250  11.3778190  35.6838420  24.3736730  10.4613730  35.4706220
  23.6949990  11.7365480  35.9236220  31.7732000   9.1067220  32.4664800
  31.0797160   9.1044510  31.8067080  32.5154860   8.6826540  32.0358970
  31.3381930  10.7329930  36.5413290  31.7938880   9.9519310  36.8551910
  31.6774450  11.4436750  37.0854470  19.0884480   6.5046390  43.7004030
  19.2515520   6.0351750  42.8823400  19.5536930   5.9969950  44.3652870
  25.5854280   1.9785800  31.9833110  25.0171180   1.5304050  31.3569020
  26.2943280   2.3378580  31.4498260  20.6623460   5.8797820  45.8599840
  20.2778250   5.2391490  46.4582800  20.9735650   6.5833940  46.4294570
  26.8120600   2.7274360  41.3408460  27.1790730   2.2532930  42.0869800
  26.6225660   3.6015930  41.6816800  24.6019970   1.7683000  43.6592670
  24.2977040   2.6474980  43.8843030  25.5566430   1.8282790  43.6950110
  23.1301760   5.9743990  34.2559520  22.3564020   5.4341610  34.0958240
  23.8596390   5.4550600  33.9177280  33.8889740   4.9709350  40.0485910
  34.6088860   5.4664640  39.6582020  33.6871560   4.2927240  39.4039780
  29.2708540   5.0418410  45.9354910  29.2045850   4.1214080  45.6812500
  28.6413680   5.1393850  46.6499550  23.1739160   5.6424370  37.8938330
  23.6917830   4.8392630  37.8395220  22.7223180   5.5803510  38.7355160
  28.0608660   6.9090650  33.1665630  28.4024360   7.6532880  32.6708950
  27.2321370   7.2221770  33.5290460  20.6583700   2.6085740  44.8064030
  20.2998640   3.2739590  45.3937370  20.3638260   1.7769290  45.1776650
  23.8596820   3.0669980  47.6903580  23.5596960   3.2127160  46.7931400
  24.6308060   2.5075270  47.5976970  29.2025270   7.8638980  45.6858710
  29.2169810   6.9319940  45.4677620  28.4950370   7.9498740  46.3248480
  34.3362340   2.0478800  31.9557320  34.2526060   2.4793020  31.1053760
  35.0556530   2.5077150  32.3884140  35.4136480   4.5046320  45.0327290
  34.6884670   5.0975100  44.8356680  35.9411940   4.4969860  44.2340660
  35.3649590   8.9021060  34.6839450  34.7225750   8.2476680  34.9583170
  34.9780250   9.3076150  33.9080120  30.9436070   6.2306490  38.5311140
  31.2959890   5.6334620  37.8712510  30.0598400   5.9050720  38.7019390
  27.0299350   6.9904180  35.9381550  27.7170480   7.5373390  36.3189140
  26.2431770   7.5344910  35.9731160  19.1691750   2.6077000  31.4298630
  20.0386600   2.8901800  31.7134550  18.6782070   3.4212870  31.3147440
  26.3326560   3.9950210  35.5506910  26.7889340   4.8055460  35.7767100
  25.9814770   3.6773350  36.3825400  28.6359170   9.5056550  42.7799210
  29.2801390   9.7115930  43.4572630  28.9988610   8.7444950  42.3270060
  29.9091250   7.5088900  41.4976660  30.5513480   6.8082060  41.6108830
  30.4340600   8.2887340  41.3173550  33.7546970   7.7937520  31.2215800
  33.5284550   7.0767960  31.8140440  33.3643170   7.5449960  30.3837550
  31.6828870   8.3083800  44.7012720  32.0185110   8.8950490  45.3790640
  30.7629210   8.1776510  44.9310510  19.5363000  11.8204380  31.9960260
  19.8960640  12.4193720  31.3417530  19.3955340  12.3664270  32.7695290
  33.3363220   5.7109460  32.8829960  33.0484920   6.1722150  33.6707840
  34.1315390   5.2507230  33.1514180  19.5204860  10.0859240  46.4702660
  19.6295980   9.1453980  46.3298050  18.8685420  10.3513990  45.8216390
  27.5117450   8.3575130  47.8700780  27.1914320   7.6384370  48.4146470
  26.8375810   9.0330200  47.9436840  25.5531620   9.2035580  32.8133930
  25.5441720   9.9365270  32.1978440  24.6329980   8.9567160  32.9060890
  21.1538260   4.4250470  33.5580690  20.5466210   5.1649370  33.5675990
  21.6287610   4.5149830  32.7318890  28.5391220   9.2663820  31.4759120
  28.6403200   9.0627810  30.5461100  27.6392960   9.0122100  31.6806900
  27.1809330  11.7850140  36.1706790  27.4350830  11.7471530  35.2486160
  26.2321810  11.6583470  36.1635040  33.1861910   2.7042020  37.7465300
  32.2452050   2.7192250  37.9212990  33.5005980   1.9177980  38.1925600
  23.1643550   4.3861620  31.3069260  23.9306820   4.2742980  31.8694690
  23.2418240   3.6899590  30.6546030  35.1887490   9.8750870  39.4219560
  35.3134910  10.6982040  39.8943370  36.0553050   9.6641600  39.0743710
  22.6605020  11.9682080  39.0936690  23.3967500  11.4197540  39.3645260
  23.0445940  12.8338090  38.9542680  19.5450500   8.0355650  34.9678200
  18.6190280   8.2776790  34.9583610  20.0106930   8.8629910  34.8462950
  21.6663300  11.1528150  48.2822270  22.4676030  11.4740200  48.6957670
  21.1515120  10.7923730  49.0042180  25.7707330  11.1412390  30.9162260
  26.5635940  11.4301220  30.4644050  25.2511680  10.7104560  30.2374740
  30.5027930   7.2608020  48.2297680  29.8966090   7.2839620  47.4893430
  30.1982040   6.5291060  48.7664930  31.9328300  10.9888310  46.8407090
  32.8850050  10.9046330  46.7907330  31.7856520  11.6530020  47.5140880
  34.8237500  10.3682520  32.3399000  34.5379010   9.9547660  31.5253180
  34.6257050  11.2970230  32.2199520  19.3861110   3.6401610  47.2258320
  19.8900130   3.0608890  47.7974550  18.6468530   3.9241840  47.7634690
  26.2884730   6.3615800  30.7804610  26.1835370   5.7468150  31.5065990
  26.1208950   5.8381690  29.9967620  26.4399050   5.0472600  46.7593840
  25.6744720   5.6157600  46.6748510  26.6215010   4.7548810  45.8662070
  29.5287460   5.4235830  31.3846600  28.9797560   5.8705130  32.0289340
  30.1506720   4.9185080  31.9084270  33.5822400   6.7777930  47.3168860
  34.3231870   7.1153690  46.8136320  32.8195080   6.9469990  46.7638630
  21.4184190   1.7831200  48.1208390  21.4589530   1.4845070  49.0293620
  22.2729690   2.1838810  47.9615910  25.1962580   4.3826750  33.2811900
  25.6179000   4.2166620  34.1243290  25.3213420   3.5726980  32.7867040
  27.7090220   3.4064360  30.5289000  28.2295880   2.6913380  30.1630150
  28.3558620   4.0450230  30.8289510  32.2568060   4.8292760  45.8524070
  32.6709080   4.9837840  46.7014490  31.3219060   4.9547980  46.0149850
  27.0183290   4.7813240  43.8220000  27.4371400   5.6245970  43.6496240
  26.0991920   4.9185280  43.5926780  29.3547190   2.5129420  45.2057840
  29.4743400   1.9170560  45.9452680  30.2141190   2.5499110  44.7859140
  31.6935090   3.0666610  43.7820350  31.1670310   3.5909230  43.1785490
  32.0366430   3.6994000  44.4130080  24.8690710  11.0866250  44.9377730
  24.3311800  11.8112310  44.6186430  25.1224670  10.6096590  44.1475070
  27.7252920  12.3217460  45.1964380  27.6511620  13.2252600  45.5036750
  26.8231760  12.0029360  45.1686450  28.2738250  11.4875970  32.8190740
  29.1689040  11.8260940  32.8409500  28.3055880  10.7655380  32.1915020
  21.9134410   6.8603020  31.0477740  22.3509280   7.4032690  31.7035320
  22.3982140   6.0349970  31.0574080  19.1280210   9.6492050  38.4998000
  19.4583220   8.7813110  38.2676640  19.5571210   9.8550570  39.3302960
  23.7242130   7.9801060  36.1599970  23.4237670   7.8566030  37.0603880
  23.6179620   7.1209650  35.7515700  19.6170420  10.5162640  41.2379630
  19.1801410  10.6963440  42.0703780  20.1848100  11.2737260  41.0961350
  35.2532600  10.0179640  45.5256940  34.6534590  10.0772200  44.7820860
  35.3826500   9.0784620  45.6553790  36.4934050   7.7597460  30.8626650
  35.6627010   7.8274110  31.3333880  36.6705880   8.6501580  30.5593510
  35.9490510   4.5044940  33.3660850  36.7109420   5.0741590  33.4720540
  35.9644880   3.9372140  34.1369160  19.4494850   3.0282870  37.5968510
  18.7943690   2.7594510  36.9528210  20.2872800   2.9187350  37.1470490
  36.9550480   5.3595040  38.2102780  37.3259310   4.5762360  37.8038750
  37.5952410   6.0484140  38.0320080  33.9384240   6.7431620  43.6233100
  33.1244080   7.1728780  43.8858890  34.3458440   7.3550030  43.0102150
  36.0009680   4.7979310  30.5233370  36.2758520   5.7058190  30.3952590
  35.8120420   4.7341840  31.4595360  35.8975020   2.7348300  35.5162800
  35.5218620   1.9676230  35.0844090  35.1678140   3.1171000  36.0037730
  20.4870780   3.4135440  42.1371850  20.8543820   3.3262840  43.0167870
  19.9181600   2.6501990  42.0378710  35.2874640   1.8819820  45.1502320
  35.0560730   1.6532570  44.2500270  35.5479190   2.8019370  45.1047210
  33.9960290  11.4950220  37.1501370  34.5919360  11.1734790  36.4735790
  34.2538440  11.0222040  37.9414640  21.9022860   7.9268130  47.2992000
  21.8592490   7.5561040  48.1806460  22.0333870   8.8645700  47.4393820
  25.6028890   9.4827720  42.9001720  25.3620250   9.7502280  42.0132240
  26.5431530   9.6533450  42.9552580  36.8633050  11.5022100  43.7012360
  36.3691330  11.8990970  42.9839490  36.2546340  10.8771310  44.0949640
  21.7410890  10.8730380  44.4189780  21.1471210  10.7415080  45.1579820
  21.7334730  10.0368520  43.9531880  34.5472500  12.1445520  40.9799100
  34.0875470  12.8961330  40.6057120  33.9184960  11.4251990  40.9213900
  21.3723120   8.2388760  43.3697820  20.6457180   7.6194050  43.3023770
  21.4332270   8.6329370  42.4995900  24.9768220  10.4533760  40.1547230
  25.4933240   9.8421120  39.6295490  25.6265600  10.9562540  40.6458240
  27.7163720  11.3442250  40.9816210  28.0041530  11.0896550  40.1049220
  28.2286940  10.7919610  41.5721780  19.6553120  11.5563150  36.5794580
  19.4875160  10.9233830  37.2776470  18.7887630  11.7622550  36.2288770
  21.2615820  10.2496380  34.0244720  20.7363440  10.6304410  33.3206680
  21.1860400  10.8747150  34.7454430  27.7836080  12.2658350  48.3484410
  28.7103390  12.0302620  48.3920370  27.7686510  13.0930350  47.8670440
  36.0181140  11.8083920  35.3458660  36.1933330  11.1221660  34.7019580
  35.3202710  12.3330970  34.9535330  23.8608790  12.1978760  32.8993970
  24.5927610  11.9138040  32.3517860  24.1202460  11.9592040  33.7893350
  23.0223580   8.3143490  32.9040300  22.3932460   8.7828590  33.4526130
  23.1371410   7.4692710  33.3386490  34.3513640  11.4928210  48.1725450
  35.1438960  10.9977440  47.9651410  34.6446790  12.1718350  48.7801060
  28.6091340   4.1428170  20.9350770  27.8333440   3.6628610  21.2249340
  29.2604270   3.4633820  20.7606930  22.6257170   4.4547980  21.8126530
  21.7942050   4.1996690  22.2123040  23.2338150   4.5258750  22.5484450
  32.6298770   8.5488360  19.7149900  32.1680300   7.7775600  20.0437070
  33.4424320   8.5754430  20.2202350  22.6058430   8.4888070  22.0084550
  22.9086470   7.5985810  21.8294770  23.3502020   9.0458290  21.7806800
  28.8562080  10.8346370  19.3353890  28.2373520  11.2903870  18.7648330
  29.7113860  10.9897830  18.9343590  28.0500330   6.8185360  20.9420930
  27.9808610   5.8775300  20.7810060  28.8120190   6.9086770  21.5143500
  29.7225430   5.7185610  16.7285800  29.1042700   6.1835060  16.1648520
  30.2348680   6.4113090  17.1455310  24.5857190   5.2461480  23.4069400
  24.2526570   5.8730400  24.0490470  24.7623870   5.7723360  22.6271070
  23.7976290   7.2142280  25.2218580  24.4150290   7.8893360  24.9403030
  22.9369410   7.6230260  25.1306080  19.0908630   6.4042140  14.1025430
  18.7136610   6.8929240  13.3710330  19.3481700   7.0767420  14.7331960
  34.7153880   8.6781690  23.1373220  34.0317400   9.3480800  23.1289890
  35.2548170   8.8762340  22.3718080  32.2512620  10.5225820  21.8518400
  32.2639780  10.1188110  20.9840660  31.6987840  11.2973110  21.7479830
  33.5458040   7.2442040  16.9408570  33.4354370   6.3016370  17.0657990
  33.5426290   7.6057680  17.8271330  31.6498060   5.4255660  23.1801010
  32.0666850   5.2115770  22.3454470  32.3737880   5.6828450  23.7509630
  29.0878320   2.8707360  16.2971060  28.1607600   2.8044740  16.5259530
  29.2403140   3.8087490  16.1826300  35.5960160   3.8242880  23.2717250
  34.7678790   3.8935970  22.7967380  36.1910640   4.4097190  22.8033080
  33.1175610   4.4327660  16.8006310  32.4988030   4.0947210  16.1532610
  33.1000060   3.7887420  17.5085500  24.6934960   3.3972100  19.0790790
  24.2891960   2.6849350  18.5836690  24.7798080   3.0525340  19.9678830
  25.1616660   7.0839660  21.2430000  24.8644950   6.4785130  20.5637780
  26.1116480   7.1216970  21.1319360  33.2502270  10.6571530  24.9053100
  32.7732830  11.4643720  24.7125710  32.5664060  10.0049860  25.0579310
  24.2535090   6.8221350  27.8937800  23.3563620   7.0461320  28.1411200
  24.2787960   6.9456290  26.9449200  31.2940310   3.6714470  13.8079060
  31.7333590   2.8336900  13.6616880  32.0068730   4.3043870  13.8943200
  23.0806310   3.6934670  26.4695170  22.9414080   4.5657470  26.8382570
  22.1987670   3.3507480  26.3243110  29.4035690   8.6110540  17.7760300
  29.8431600   9.3534870  17.3615690  29.3422580   8.8537110  18.6999260
  24.8786660   9.6356370  28.6780320  24.8502090  10.0399320  27.8108750
  24.7151630   8.7066730  28.5151920  21.3939590   2.2917080  16.5797440
  21.2737190   3.0179170  15.9678710  21.0840480   1.5219990  16.1025350
  36.8301480  10.4183470  29.9744490  37.3061200  10.8966360  30.6533570
  37.4508640  10.3500960  29.2489990  19.0324960   5.4632220  22.3866080
  19.1105380   5.5980990  21.4421800  19.6466640   4.7548110  22.5794200
  20.2772590   7.1632410  18.7972260  19.8700670   7.3047000  17.9425860
  21.1685600   6.8792570  18.5943470  36.2334730   7.6096320  27.1344500
  36.3597790   7.3708200  26.2161680  36.2756110   6.7780860  27.6066580
  30.0951470  11.3124320  25.7039310  30.6096140  11.2232330  26.5061740
  29.2520550  11.6584020  25.9967220  32.0705870  11.5979660  15.1323310
  31.9107010  11.3082600  16.0305140  31.9052580  10.8219790  14.5968540
  24.5494250  11.3778190  16.9094930  24.3736730  10.4613730  16.6962730
  23.6949990  11.7365480  17.1492730  31.7732000   9.1067220  13.6921310
  31.0797160   9.1044510  13.0323590  32.5154860   8.6826540  13.2615480
  31.3381930  10.7329930  17.7669800  31.7938880   9.9519310  18.0808420
  31.6774450  11.4436750  18.3110980  19.0884480   6.5046390  24.9260540
  19.2515520   6.0351750  24.1079910  19.5536930   5.9969950  25.5909380
  25.5854280   1.9785800  13.2089620  25.0171180   1.5304050  12.5825530
  26.2943280   2.3378580  12.6754770  20.6623460   5.8797820  27.0856350
  20.2778250   5.2391490  27.6839310  20.9735650   6.5833940  27.6551080
  26.8120600   2.7274360  22.5664970  27.1790730   2.2532930  23.3126310
  26.6225660   3.6015930  22.9073310  24.6019970   1.7683000  24.8849180
  24.2977040   2.6474980  25.1099540  25.5566430   1.8282790  24.9206620
  23.1301760   5.9743990  15.4816030  22.3564020   5.4341610  15.3214750
  23.8596390   5.4550600  15.1433790  33.8889740   4.9709350  21.2742420
  34.6088860   5.4664640  20.8838530  33.6871560   4.2927240  20.6296290
  29.2708540   5.0418410  27.1611420  29.2045850   4.1214080  26.9069010
  28.6413680   5.1393850  27.8756060  23.1739160   5.6424370  19.1194840
  23.6917830   4.8392630  19.0651730  22.7223180   5.5803510  19.9611670
  28.0608660   6.9090650  14.3922140  28.4024360   7.6532880  13.8965460
  27.2321370   7.2221770  14.7546970  20.6583700   2.6085740  26.0320540
  20.2998640   3.2739590  26.6193880  20.3638260   1.7769290  26.4033160
  23.8596820   3.0669980  28.9160090  23.5596960   3.2127160  28.0187910
  24.6308060   2.5075270  28.8233480  29.2025270   7.8638980  26.9115220
  29.2169810   6.9319940  26.6934130  28.4950370   7.9498740  27.5504990
  34.3362340   2.0478800  13.1813830  34.2526060   2.4793020  12.3310270
  35.0556530   2.5077150  13.6140650  35.4136480   4.5046320  26.2583800
  34.6884670   5.0975100  26.0613190  35.9411940   4.4969860  25.4597170
  35.3649590   8.9021060  15.9095960  34.7225750   8.2476680  16.1839680
  34.9780250   9.3076150  15.1336630  30.9436070   6.2306490  19.7567650
  31.2959890   5.6334620  19.0969020  30.0598400   5.9050720  19.9275900
  27.0299350   6.9904180  17.1638060  27.7170480   7.5373390  17.5445650
  26.2431770   7.5344910  17.1987670  19.1691750   2.6077000  12.6555140
  20.0386600   2.8901800  12.9391060  18.6782070   3.4212870  12.5403950
  26.3326560   3.9950210  16.7763420  26.7889340   4.8055460  17.0023610
  25.9814770   3.6773350  17.6081910  28.6359170   9.5056550  24.0055720
  29.2801390   9.7115930  24.6829140  28.9988610   8.7444950  23.5526570
  29.9091250   7.5088900  22.7233170  30.5513480   6.8082060  22.8365340
  30.4340600   8.2887340  22.5430060  33.7546970   7.7937520  12.4472310
  33.5284550   7.0767960  13.0396950  33.3643170   7.5449960  11.6094060
  31.6828870   8.3083800  25.9269230  32.0185110   8.8950490  26.6047150
  30.7629210   8.1776510  26.1567020  19.5363000  11.8204380  13.2216770
  19.8960640  12.4193720  12.5674040  19.3955340  12.3664270  13.9951800
  33.3363220   5.7109460  14.1086470  33.0484920   6.1722150  14.8964350
  34.1315390   5.2507230  14.3770690  19.5204860  10.0859240  27.6959170
  19.6295980   9.1453980  27.5554560  18.8685420  10.3513990  27.0472900
  27.5117450   8.3575130  29.0957290  27.1914320   7.6384370  29.6402980
  26.8375810   9.0330200  29.1693350  25.5531620   9.2035580  14.0390440
  25.5441720   9.9365270  13.4234950  24.6329980   8.9567160  14.1317400
  21.1538260   4.4250470  14.7837200  20.5466210   5.1649370  14.7932500
  21.6287610   4.5149830  13.9575400  28.5391220   9.2663820  12.7015630
  28.6403200   9.0627810  11.7717610  27.6392960   9.0122100  12.9063410
  27.1809330  11.7850140  17.3963300  27.4350830  11.7471530  16.4742670
  26.2321810  11.6583470  17.3891550  33.1861910   2.7042020  18.9721810
  32.2452050   2.7192250  19.1469500  33.5005980   1.9177980  19.4182110
  23.1643550   4.3861620  12.5325770  23.9306820   4.2742980  13.0951200
  23.2418240   3.6899590  11.8802540  35.1887490   9.8750870  20.6476070
  35.3134910  10.6982040  21.1199880  36.0553050   9.6641600  20.3000220
  22.6605020  11.9682080  20.3193200  23.3967500  11.4197540  20.5901770
  23.0445940  12.8338090  20.1799190  19.5450500   8.0355650  16.1934710
  18.6190280   8.2776790  16.1840120  20.0106930   8.8629910  16.0719460
  21.6663300  11.1528150  29.5078780  22.4676030  11.4740200  29.9214180
  21.1515120  10.7923730  30.2298690  25.7707330  11.1412390  12.1418770
  26.5635940  11.4301220  11.6900560  25.2511680  10.7104560  11.4631250
  30.5027930   7.2608020  29.4554190  29.8966090   7.2839620  28.7149940
  30.1982040   6.5291060  29.9921440  31.9328300  10.9888310  28.0663600
  32.8850050  10.9046330  28.0163840  31.7856520  11.6530020  28.7397390
  34.8237500  10.3682520  13.5655510  34.5379010   9.9547660  12.7509690
  34.6257050  11.2970230  13.4456030  19.3861110   3.6401610  28.4514830
  19.8900130   3.0608890  29.0231060  18.6468530   3.9241840  28.9891200
  26.2884730   6.3615800  12.0061120  26.1835370   5.7468150  12.7322500
  26.1208950   5.8381690  11.2224130  26.4399050   5.0472600  27.9850350
  25.6744720   5.6157600  27.9005020  26.6215010   4.7548810  27.0918580
  29.5287460   5.4235830  12.6103110  28.9797560   5.8705130  13.2545850
  30.1506720   4.9185080  13.1340780  33.5822400   6.7777930  28.5425370
  34.3231870   7.1153690  28.0392830  32.8195080   6.9469990  27.9895140
  21.4184190   1.7831200  29.3464900  21.4589530   1.4845070  30.2550130
  22.2729690   2.1838810  29.1872420  25.1962580   4.3826750  14.5068410
  25.6179000   4.2166620  15.3499800  25.3213420   3.5726980  14.0123550
  27.7090220   3.4064360  11.7545510  28.2295880   2.6913380  11.3886660
  28.3558620   4.0450230  12.0546020  32.2568060   4.8292760  27.0780580
  32.6709080   4.9837840  27.9271000  31.3219060   4.9547980  27.2406360
  27.0183290   4.7813240  25.0476510  27.4371400   5.6245970  24.8752750
  26.0991920   4.9185280  24.8183290  29.3547190   2.5129420  26.4314350
  29.4743400   1.9170560  27.1709190  30.2141190   2.5499110  26.0115650
  31.6935090   3.0666610  25.0076860  31.1670310   3.5909230  24.4042000
  32.0366430   3.6994000  25.6386590  24.8690710  11.0866250  26.1634240
  24.3311800  11.8112310  25.8442940  25.1224670  10.6096590  25.3731580
  27.7252920  12.3217460  26.4220890  27.6511620  13.2252600  26.7293260
  26.8231760  12.0029360  26.3942960  28.2738250  11.4875970  14.0447250
  29.1689040  11.8260940  14.0666010  28.3055880  10.7655380  13.4171530
  21.9134410   6.8603020  12.2734250  22.3509280   7.4032690  12.9291830
  22.3982140   6.0349970  12.2830590  19.1280210   9.6492050  19.7254510
  19.4583220   8.7813110  19.4933150  19.5571210   9.8550570  20.5559470
  23.7242130   7.9801060  17.3856480  23.4237670   7.8566030  18.2860390
  23.6179620   7.1209650  16.9772210  19.6170420  10.5162640  22.4636140
  19.1801410  10.6963440  23.2960290  20.1848100  11.2737260  22.3217860
  35.2532600  10.0179640  26.7513450  34.6534590  10.0772200  26.0077370
  35.3826500   9.0784620  26.8810300  36.4934050   7.7597460  12.0883160
  35.6627010   7.8274110  12.5590390  36.6705880   8.6501580  11.7850020
  35.9490510   4.5044940  14.5917360  36.7109420   5.0741590  14.6977050
  35.9644880   3.9372140  15.3625670  19.4494850   3.0282870  18.8225020
  18.7943690   2.7594510  18.1784720  20.2872800   2.9187350  18.3727000
  36.9550480   5.3595040  19.4359290  37.3259310   4.5762360  19.0295260
  37.5952410   6.0484140  19.2576590  33.9384240   6.7431620  24.8489610
  33.1244080   7.1728780  25.1115400  34.3458440   7.3550030  24.2358660
  36.0009680   4.7979310  11.7489880  36.2758520   5.7058190  11.6209100
  35.8120420   4.7341840  12.6851870  35.8975020   2.7348300  16.7419310
  35.5218620   1.9676230  16.3100600  35.1678140   3.1171000  17.2294240
  20.4870780   3.4135440  23.3628360  20.8543820   3.3262840  24.2424380
  19.9181600   2.6501990  23.2635220  35.2874640   1.8819820  26.3758830
  35.0560730   1.6532570  25.4756780  35.5479190   2.8019370  26.3303720
  33.9960290  11.4950220  18.3757880  34.5919360  11.1734790  17.6992300
  34.2538440  11.0222040  19.1671150  21.9022860   7.9268130  28.5248510
  21.8592490   7.5561040  29.4062970  22.0333870   8.8645700  28.6650330
  25.6028890   9.4827720  24.1258230  25.3620250   9.7502280  23.2388750
  26.5431530   9.6533450  24.1809090  36.8633050  11.5022100  24.9268870
  36.3691330  11.8990970  24.2096000  36.2546340  10.8771310  25.3206150
  21.7410890  10.8730380  25.6446290  21.1471210  10.7415080  26.3836330
  21.7334730  10.0368520  25.1788390  34.5472500  12.1445520  22.2055610
  34.0875470  12.8961330  21.8313630  33.9184960  11.4251990  22.1470410
  21.3723120   8.2388760  24.5954330  20.6457180   7.6194050  24.5280280
  21.4332270   8.6329370  23.7252410  24.9768220  10.4533760  21.3803740
  25.4933240   9.8421120  20.8552000  25.6265600  10.9562540  21.8714750
  27.7163720  11.3442250  22.2072720  28.0041530  11.0896550  21.3305730
  28.2286940  10.7919610  22.7978290  19.6553120  11.5563150  17.8051090
  19.4875160  10.9233830  18.5032980  18.7887630  11.7622550  17.4545280
  21.2615820  10.2496380  15.2501230  20.7363440  10.6304410  14.5463190
  21.1860400  10.8747150  15.9710940  27.7836080  12.2658350  29.5740920
  28.7103390  12.0302620  29.6176880  27.7686510  13.0930350  29.0926950
  36.0181140  11.8083920  16.5715170  36.1933330  11.1221660  15.9276090
  35.3202710  12.3330970  16.1791840  23.8608790  12.1978760  14.1250480
  24.5927610  11.9138040  13.5774370  24.1202460  11.9592040  15.0149860
  23.0223580   8.3143490  14.1296810  22.3932460   8.7828590  14.6782640
  23.1371410   7.4692710  14.5643000  34.3513640  11.4928210  29.3981960
  35.1438960  10.9977440  29.1907920  34.6446790  12.1718350  30.0057570
  28.6091340   4.1428170   2.1607280  27.8333440   3.6628610   2.4505850
  29.2604270   3.4633820   1.9863440  22.6257170   4.4547980   3.0383040
  21.7942050   4.1996690   3.4379550  23.2338150   4.5258750   3.7740960
  22.6058430   8.4888070   3.2341060  22.9086470   7.5985810   3.0551280
  23.3502020   9.0458290   3.0063310  28.0500330   6.8185360   2.1677440
  27.9808610   5.8775300   2.0066570  28.8120190   6.9086770   2.7400010
  24.5857190   5.2461480   4.6325910  24.2526570   5.8730400   5.2746980
  24.7623870   5.7723360   3.8527580  23.7976290   7.2142280   6.4475090
  24.4150290   7.8893360   6.1659540  22.9369410   7.6230260   6.3562590
  34.7153880   8.6781690   4.3629730  34.0317400   9.3480800   4.3546400
  35.2548170   8.8762340   3.5974590  32.2512620  10.5225820   3.0774910
  32.2639780  10.1188110   2.2097170  31.6987840  11.2973110   2.9736340
  31.6498060   5.4255660   4.4057520  32.0666850   5.2115770   3.5710980
  32.3737880   5.6828450   4.9766140  35.5960160   3.8242880   4.4973760
  34.7678790   3.8935970   4.0223890  36.1910640   4.4097190   4.0289590
  25.1616660   7.0839660   2.4686510  24.8644950   6.4785130   1.7894290
  26.1116480   7.1216970   2.3575870  33.2502270  10.6571530   6.1309610
  32.7732830  11.4643720   5.9382220  32.5664060  10.0049860   6.2835820
  24.2535090   6.8221350   9.1194310  23.3563620   7.0461320   9.3667710
  24.2787960   6.9456290   8.1705710  23.0806310   3.6934670   7.6951680
  22.9414080   4.5657470   8.0639080  22.1987670   3.3507480   7.5499620
  24.8786660   9.6356370   9.9036830  24.8502090  10.0399320   9.0365260
  24.7151630   8.7066730   9.7408430  36.8301480  10.4183470  11.2001000
  37.3061200  10.8966360  11.8790080  37.4508640  10.3500960  10.4746500
  19.0324960   5.4632220   3.6122590  19.1105380   5.5980990   2.6678310
  19.6466640   4.7548110   3.8050710  36.2334730   7.6096320   8.3601010
  36.3597790   7.3708200   7.4418190  36.2756110   6.7780860   8.8323090
  30.0951470  11.3124320   6.9295820  30.6096140  11.2232330   7.7318250
  29.2520550  11.6584020   7.2223730  19.0884480   6.5046390   6.1517050
  19.2515520   6.0351750   5.3336420  19.5536930   5.9969950   6.8165890
  20.6623460   5.8797820   8.3112860  20.2778250   5.2391490   8.9095820
  20.9735650   6.5833940   8.8807590  26.8120600   2.7274360   3.7921480
  27.1790730   2.2532930   4.5382820  26.6225660   3.6015930   4.1329820
  24.6019970   1.7683000   6.1105690  24.2977040   2.6474980   6.3356050
  25.5566430   1.8282790   6.1463130  33.8889740   4.9709350   2.4998930
  34.6088860   5.4664640   2.1095040  33.6871560   4.2927240   1.8552800
  29.2708540   5.0418410   8.3867930  29.2045850   4.1214080   8.1325520
  28.6413680   5.1393850   9.1012570  20.6583700   2.6085740   7.2577050
  20.2998640   3.2739590   7.8450390  20.3638260   1.7769290   7.6289670
  23.8596820   3.0669980  10.1416600  23.5596960   3.2127160   9.2444420
  24.6308060   2.5075270  10.0489990  29.2025270   7.8638980   8.1371730
  29.2169810   6.9319940   7.9190640  28.4950370   7.9498740   8.7761500
  35.4136480   4.5046320   7.4840310  34.6884670   5.0975100   7.2869700
  35.9411940   4.4969860   6.6853680  28.6359170   9.5056550   5.2312230
  29.2801390   9.7115930   5.9085650  28.9988610   8.7444950   4.7783080
  29.9091250   7.5088900   3.9489680  30.5513480   6.8082060   4.0621850
  30.4340600   8.2887340   3.7686570  31.6828870   8.3083800   7.1525740
  32.0185110   8.8950490   7.8303660  30.7629210   8.1776510   7.3823530
  19.5204860  10.0859240   8.9215680  19.6295980   9.1453980   8.7811070
  18.8685420  10.3513990   8.2729410  27.5117450   8.3575130  10.3213800
  27.1914320   7.6384370  10.8659490  26.8375810   9.0330200  10.3949860
  35.1887490   9.8750870   1.8732580  35.3134910  10.6982040   2.3456390
  36.0553050   9.6641600   1.5256730  21.6663300  11.1528150  10.7335290
  22.4676030  11.4740200  11.1470690  21.1515120  10.7923730  11.4555200
  30.5027930   7.2608020  10.6810700  29.8966090   7.2839620   9.9406450
  30.1982040   6.5291060  11.2177950  31.9328300  10.9888310   9.2920110
  32.8850050  10.9046330   9.2420350  31.7856520  11.6530020   9.9653900
  19.3861110   3.6401610   9.6771340  19.8900130   3.0608890  10.2487570
  18.6468530   3.9241840  10.2147710  26.4399050   5.0472600   9.2106860
  25.6744720   5.6157600   9.1261530  26.6215010   4.7548810   8.3175090
  33.5822400   6.7777930   9.7681880  34.3231870   7.1153690   9.2649340
  32.8195080   6.9469990   9.2151650  21.4184190   1.7831200  10.5721410
  21.4589530   1.4845070  11.4806640  22.2729690   2.1838810  10.4128930
  32.2568060   4.8292760   8.3037090  32.6709080   4.9837840   9.1527510
  31.3219060   4.9547980   8.4662870  27.0183290   4.7813240   6.2733020
  27.4371400   5.6245970   6.1009260  26.0991920   4.9185280   6.0439800
  29.3547190   2.5129420   7.6570860  29.4743400   1.9170560   8.3965700
  30.2141190   2.5499110   7.2372160  31.6935090   3.0666610   6.2333370
  31.1670310   3.5909230   5.6298510  32.0366430   3.6994000   6.8643100
  24.8690710  11.0866250   7.3890750  24.3311800  11.8112310   7.0699450
  25.1224670  10.6096590   6.5988090  27.7252920  12.3217460   7.6477400
  27.6511620  13.2252600   7.9549770  26.8231760  12.0029360   7.6199470
  19.6170420  10.5162640   3.6892650  19.1801410  10.6963440   4.5216800
  20.1848100  11.2737260   3.5474370  35.2532600  10.0179640   7.9769960
  34.6534590  10.0772200   7.2333880  35.3826500   9.0784620   8.1066810
  33.9384240   6.7431620   6.0746120  33.1244080   7.1728780   6.3371910
  34.3458440   7.3550030   5.4615170  20.4870780   3.4135440   4.5884870
  20.8543820   3.3262840   5.4680890  19.9181600   2.6501990   4.4891730
  35.2874640   1.8819820   7.6015340  35.0560730   1.6532570   6.7013290
  35.5479190   2.8019370   7.5560230  21.9022860   7.9268130   9.7505020
  21.8592490   7.5561040  10.6319480  22.0333870   8.8645700   9.8906840
  25.6028890   9.4827720   5.3514740  25.3620250   9.7502280   4.4645260
  26.5431530   9.6533450   5.4065600  36.8633050  11.5022100   6.1525380
  36.3691330  11.8990970   5.4352510  36.2546340  10.8771310   6.5462660
  21.7410890  10.8730380   6.8702800  21.1471210  10.7415080   7.6092840
  21.7334730  10.0368520   6.4044900  34.5472500  12.1445520   3.4312120
  34.0875470  12.8961330   3.0570140  33.9184960  11.4251990   3.3726920
  21.3723120   8.2388760   5.8210840  20.6457180   7.6194050   5.7536790
  21.4332270   8.6329370   4.9508920  24.9768220  10.4533760   2.6060250
  25.4933240   9.8421120   2.0808510  25.6265600  10.9562540   3.0971260
  27.7163720  11.3442250   3.4329230  28.0041530  11.0896550   2.5562240
  28.2286940  10.7919610   4.0234800  27.7836080  12.2658350  10.7997430
  28.7103390  12.0302620  10.8433390  27.7686510  13.0930350  10.3183460
  34.3513640  11.4928210  10.6238470  35.1438960  10.9977440  10.4164430
  34.6446790  12.1718350  11.2314080  11.7029810  96.2366600  75.3771970
  11.6223860  95.3221210  75.1063680  11.2894230  96.7333670  74.6711680
   4.4367020  91.8698820  72.9537770   4.5433770  92.7702550  73.2606530
   3.5259380  91.8216790  72.6632420  14.0886130  90.9923630  74.4248670
  14.9095750  90.5020200  74.4674150  14.1220210  91.5821290  75.1780510
   7.9254070  88.6775980  75.8841410   8.2329050  88.1222870  75.1676910
   6.9954770  88.8120440  75.7014400  10.3134830  96.7424810  72.6201530
   9.3864110  96.6762190  72.8490000  10.4659650  97.6804940  72.5056770
  10.3003910  93.0141810  69.6168690   9.3607580  93.1755770  69.7021150
  10.6187170  93.7327490  69.0704680  14.3432120  98.3045110  73.1236780
  13.7244540  97.9664660  72.4763080  14.3256570  97.6604870  73.8315970
   5.9191470  97.2689550  75.4021260   5.5148470  96.5566800  74.9067160
   6.0054590  96.9242790  76.2909300  12.5196820  97.5431920  70.1309530
  12.9590100  96.7054350  69.9847350  13.2325240  98.1761320  70.2173670
  16.1013960  88.7974730  68.4450570  15.7886620  88.8901560  69.3449640
  16.8626430  89.3755760  68.3948000   2.6196100  96.1634530  72.9027910
   2.4993700  96.8896620  72.2909180   2.3096990  95.3937440  72.4255820
   5.0859760  89.5069600  76.2851580   4.6427910  90.2879140  75.9536100
   5.6444750  89.8299490  76.9922520   8.2018580  89.1280300  71.1657410
   7.5772760  89.1240170  71.8910720   8.1148700  88.2611260  70.7693380
   4.8773980  94.6303170  74.0132830   4.6514900  94.4140340  74.9179450
   4.0966510  95.0631630  73.6678800  12.1071740  94.6366540  72.6123480
  11.5080630  95.3602340  72.4287100  12.6551350  94.5743320  71.8299930
  10.7136610  93.2730080  74.6426760  11.1066180  93.5902280  73.8295450
  11.0753460  92.3941960  74.7571280   7.7369140  92.5390030  77.1430030
   7.7405200  92.0979980  76.2934570   8.6320260  92.8607360  77.2501850
   3.5871520  92.4216520  76.1024240   3.2471570  92.8991750  76.8591290
   2.8248840  91.9681640  75.7425340   7.7989290  93.5402110  70.1336790
   7.9202110  93.4988590  71.0822610   7.4137800  94.4026260  69.9783520
   6.8110790  95.8503250  69.5320090   6.2427690  95.4021500  68.9056000
   7.5199790  96.2096030  68.9985240  10.5756190  90.2364760  71.7402280
   9.7620800  89.7377930  71.6647590  10.3818140  91.0763010  71.3238630
  13.2904580  94.6084410  70.0364440  14.1784200  94.9201640  69.8615780
  13.2609670  93.7356660  69.6445020  15.5618850  95.9196250  69.5044300
  15.4782570  96.3510470  68.6540740  16.2813040  96.3794600  69.9371120
   7.5583070  97.8667660  73.0993890   8.0145850  98.6772910  73.3254080
   7.2071280  97.5490800  73.9312380   3.4594850  88.2105310  73.5716410
   3.3309480  88.2023210  74.5201330   2.6356870  88.5488400  73.2207420
  15.3189590  91.4175680  71.5912120  14.6902750  91.5221350  70.8770350
  14.8241510  91.6372460  72.3806000   7.2873620  93.6961630  73.0070000
   6.5789770  94.1647970  73.4483610   7.5718100  93.0383640  73.6415190
  11.3189050  90.4212290  74.4465790  11.1956830  90.4398420  73.4975300
  12.2673610  90.4691230  74.5664190   5.4908640  92.0046710  70.3820710
   6.3399170  92.4416860  70.3160900   5.1239910  92.3166970  71.2092770
  14.4118420  96.5759470  75.2952280  13.4708560  96.5909700  75.4699970
  14.7262490  95.7895430  75.7412580   4.3900060  98.2579070  68.8556240
   5.1563330  98.1460430  69.4181670   4.4674750  97.5617040  68.2033010
   3.0846820  95.6904140  69.5389130   3.1650410  94.7431650  69.6506530
   3.9766570  96.0211020  69.6449790   6.4219090  98.2544200  70.8298880
   6.8435510  98.0884070  71.6730270   6.5469930  97.4444430  70.3354020
   8.9346730  97.2781810  68.0775980   9.4552390  96.5630830  67.7117130
   9.5815130  97.9167680  68.3776490   5.3177990  94.3277430  67.7757040
   5.1167050  93.4644790  68.1370380   5.1470040  94.2410790  66.8378640
  12.7966300  89.1385660  70.3043920  13.0768590  88.2953560  70.6603340
  12.0232030  89.3708770  70.8182670   4.1160790  91.4278050  67.7634920
   4.4186690  91.4345480  66.8554070   4.8555380  91.0775910  68.2602580
   7.3345720  90.3712670  68.7491120   6.9867720  89.6936660  68.1693570
   7.5358490  89.9102180  69.5634510  13.6241800  91.6941610  69.3673980
  14.0426680  91.5072590  68.5270640  13.3177860  90.8420660  69.6776910
  17.1231530  96.6065750  73.0649780  16.7475130  95.8393680  72.6331070
  16.3934650  96.9888450  73.5524710  16.3982490  94.8323240  76.3657020
  16.9219970  94.3385890  75.7347190  16.9841910  94.9673600  77.1104590
   2.4316650  93.1664790  68.9975200   3.1408350  92.7448010  68.5122480
   1.7156590  93.2340020  68.3658550   2.0790810  89.2204120  68.0377850
   2.8018940  89.7613060  68.3559070   2.3515330  88.9467540  67.1619390
  15.8882460  94.0896590  72.3049430  16.3841580  93.8567460  73.0898310
  15.6898530  93.2508430  71.8887070  17.3169620  92.7257540  74.8387110
  17.2068900  92.5713580  75.7769380  18.0777210  92.1978480  74.5962520
  18.2059890  90.5565460  68.0793250  19.1309200  90.4246640  67.8711540
  18.1835680  90.6358280  69.0329700  18.2798380  91.3276120  70.7049960
  17.4849880  91.2621240  71.2342870  18.4841660  92.2626760  70.6935310
  14.7118310  89.6573000  77.1548790  15.1526400  89.6018100  76.3070390
  14.4425900  90.5731010  77.2258970  16.5756880  89.2888240  75.1657610
  16.5145280  88.3449460  75.0188630  17.3548910  89.3968330  75.7111070
   8.0451460  91.3736650  74.6215730   7.2325970  90.9993540  74.2811610
   8.5493100  90.6181730  74.9236920  12.5476440  88.0379100  75.8598800
  13.1505810  88.6099310  76.3347320  11.8069430  88.6018540  75.6372700
  15.6911040  88.4400660  71.1339080  15.8861670  89.3384110  71.4006510
  14.9040910  88.2087740  71.6272030   3.8762800  89.7861430  70.1715390
   4.4055560  88.9991230  70.0423340   4.5091120  90.4652620  70.4050920
   6.0700640  89.5236570  73.2260780   5.4403380  88.8223880  73.3930910
   5.5305780  90.2840700  73.0093940  11.7029810  96.2366600  56.6028480
  11.6223860  95.3221210  56.3320190  11.2894230  96.7333670  55.8968190
   9.8347850  98.0145620  58.4837750   9.0589950  97.5346060  58.7736320
  10.4860780  97.3351270  58.3093910   3.8513680  98.3265430  59.3613510
   3.0198560  98.0714140  59.7610020   4.4594660  98.3976200  60.0971430
  10.3062010  93.4973190  58.7176840  10.6826830  92.6245070  58.6050510
  10.2081520  93.8331890  57.8267280   4.4367020  91.8698820  54.1794280
   4.5433770  92.7702550  54.4863040   3.5259380  91.8216790  53.8888930
  14.0886130  90.9923630  55.6505180  14.9095750  90.5020200  55.6930660
  14.1220210  91.5821290  56.4037020   2.0850180  93.7917830  59.4246870
   2.7660290  94.0556200  60.0434270   1.7698230  92.9518700  59.7584880
   6.2774750  94.8385190  58.5119460   6.7852970  95.3366160  59.1524480
   6.8087990  94.0620390  58.3358820  18.3785680  93.0090380  62.2148810
  17.6737850  93.3972090  61.6963920  18.6443600  93.7040670  62.8169740
   4.5610850  89.4783750  62.7782880   4.5629290  89.9956140  61.9728780
   3.7315160  89.0013930  62.7552810  14.3247610  92.9324010  58.4232720
  13.6203180  93.2208900  59.0035830  14.6859770  93.7424120  58.0632280
   4.2426180  91.1893710  60.7853330   4.5842990  92.0335760  60.4907200
   3.3041990  91.3377450  60.9018670  17.3934530  92.3778800  58.8141930
  16.4459440  92.4117780  58.9457360  17.7184520  93.1917750  59.1991290
   7.9254070  88.6775980  57.1097920   8.2329050  88.1222870  56.3933420
   6.9954770  88.8120440  56.9270910  10.3134830  96.7424810  53.8458040
   9.3864110  96.6762190  54.0746510  10.4659650  97.6804940  53.7313280
  10.3003910  93.0141810  50.8425200   9.3607580  93.1755770  50.9277660
  10.6187170  93.7327490  50.2961190  16.8216670  97.6960330  60.8204230
  15.9935300  97.7653420  60.3454360  17.4167150  98.2814640  60.3520060
  14.3432120  98.3045110  54.3493290  13.7244540  97.9664660  53.7019590
  14.3256570  97.6604870  55.0572480  13.7858680  94.4829650  61.7659100
  13.3729860  95.3083360  62.0199090  13.0534630  93.8974690  61.5735460
   5.9191470  97.2689550  56.6277770   5.5148470  96.5566800  56.1323670
   6.0054590  96.9242790  57.5165810   4.6320090  94.0432760  60.4076810
   5.1834680  94.1528100  59.6330060   5.1463600  94.4170360  61.1232040
  12.5196820  97.5431920  51.3566040  12.9590100  96.7054350  51.2103860
  13.2325240  98.1761320  51.4430180   4.3062820  97.5652120  64.0182150
   4.1670590  98.4374920  64.3869550   3.4244180  97.2224930  63.8730090
  16.1013960  88.7974730  49.6707080  15.7886620  88.8901560  50.5706150
  16.8626430  89.3755760  49.6204510   2.6196100  96.1634530  54.1284420
   2.4993700  96.8896620  53.5165690   2.3096990  95.3937440  53.6512330
  17.3115250  93.5346230  65.6481220  16.6959520  94.0425900  65.1196680
  16.9911670  92.6344560  65.5907160   5.0859760  89.5069600  57.5108090
   4.6427910  90.2879140  57.1792610   5.6444750  89.8299490  58.2179030
   9.3729570  92.3738120  63.1143410   8.9108940  92.5821140  63.9263350
   8.9707680  91.5597470  62.8114080  14.3734080  93.5947070  64.2440070
  13.5227670  93.2952820  64.5649140  14.2135870  93.8389080  63.3323890
  11.4683790  95.0948820  66.3438860  11.7937200  94.2612570  66.0041090
  12.2564120  95.6177340  66.4917190   8.2018580  89.1280300  52.3913920
   7.5772760  89.1240170  53.1167230   8.1148700  88.2611260  51.9949890
   7.1235660  90.0516930  59.3697690   7.4207990  90.9579760  59.2889710
   7.6721220  89.5635710  58.7557260   4.8773980  94.6303170  55.2389340
   4.6514900  94.4140340  56.1435960   4.0966510  95.0631630  54.8935310
  12.1071740  94.6366540  53.8379990  11.5080630  95.3602340  53.6543610
  12.6551350  94.5743320  53.0556440   7.3173190  95.5288750  65.9049610
   7.2216790  94.5883480  65.7550010   8.1605170  95.7503820  65.5097680
  10.7136610  93.2730080  55.8683270  11.1066180  93.5902280  55.0551960
  11.0753460  92.3941960  55.9827790   2.4483730  91.9402420  64.0583390
   2.0547120  92.7877630  64.2656170   1.7602130  91.3028790  64.2492030
   9.0228780  92.0237390  67.1280130   8.3327100  91.8309590  67.7626220
   9.7661080  92.3072030  67.6604430  11.2991750  95.8635830  59.9634050
  10.5672870  96.3722640  60.3124150  10.9016090  95.0465810  59.6622830
   7.7369140  92.5390030  58.3686540   7.7405200  92.0979980  57.5191080
   8.6320260  92.8607360  58.4758360   3.5871520  92.4216520  57.3280750
   3.2471570  92.8991750  58.0847800   2.8248840  91.9681640  56.9681850
   7.7989290  93.5402110  51.3593300   7.9202110  93.4988590  52.3079120
   7.4137800  94.4026260  51.2040030  11.7617660  91.3169510  59.3756990
  11.7790400  91.7678160  60.2198840  11.5133240  90.4175150  59.5890430
   6.8110790  95.8503250  50.7576600   6.2427690  95.4021500  50.1312510
   7.5199790  96.2096030  50.2241750  15.1888410  88.7301690  65.2143370
  15.5134180  87.9991350  65.7401350  15.2244920  88.4115330  64.3124360
   8.0377110  96.5991810  60.1151950   8.4047240  96.1250380  60.8613290
   7.8482170  97.4733380  60.4560290   5.8276480  95.6400450  62.4336160
   5.5233550  96.5192430  62.6586520   6.7822940  95.7000240  62.4693600
  10.5756190  90.2364760  52.9658790   9.7620800  89.7377930  52.8904100
  10.3818140  91.0763010  52.5495140  13.2904580  94.6084410  51.2620950
  14.1784200  94.9201640  51.0872290  13.2609670  93.7356660  50.8701530
   1.8840210  96.4803190  63.5807520   1.5255150  97.1457040  64.1680860
   1.5894770  95.6486740  63.9520140   5.0853330  96.9387430  66.4647070
   4.7853470  97.0844610  65.5674890   5.8564570  96.3792720  66.3720460
  15.5618850  95.9196250  50.7300810  15.4782570  96.3510470  49.8797250
  16.2813040  96.3794600  51.1627630   7.5583070  97.8667660  54.3250400
   8.0145850  98.6772910  54.5510590   7.2071280  97.5490800  55.1568890
   3.4594850  88.2105310  54.7972920   3.3309480  88.2023210  55.7457840
   2.6356870  88.5488400  54.4463930  11.9527560  92.4618740  62.0081070
  12.3208380  91.6413950  62.3360640  11.0925760  92.5220630  62.4236720
  15.3189590  91.4175680  52.8168630  14.6902750  91.5221350  52.1026860
  14.8241510  91.6372460  53.6062510   7.2873620  93.6961630  54.2326510
   6.5789770  94.1647970  54.6740120   7.5718100  93.0383640  54.8671700
   8.9129550  95.1158330  62.2319040   9.4114800  95.5904150  62.8970890
   9.0552500  94.1921850  62.4389070  11.3189050  90.4212290  55.6722300
  11.1956830  90.4398420  54.7231810  12.2673610  90.4691230  55.7920700
   5.4908640  92.0046710  51.6077220   6.3399170  92.4416860  51.5417410
   5.1239910  92.3166970  52.4349280  16.1196410  91.3326290  63.0747430
  15.6170010  92.0731690  63.4141240  16.9353070  91.7210290  62.7584220
  14.4118420  96.5759470  56.5208790  13.4708560  96.5909700  56.6956480
  14.7262490  95.7895430  56.9669090   4.3900060  98.2579070  50.0812750
   5.1563330  98.1460430  50.6438180   4.4674750  97.5617040  49.4289520
   3.0846820  95.6904140  50.7645640   3.1650410  94.7431650  50.8763040
   3.9766570  96.0211020  50.8706300   2.6440700  95.6548650  66.8951880
   2.6846040  95.3562520  67.8037110   3.4986200  96.0556260  66.7359400
   6.4219090  98.2544200  52.0555390   6.8435510  98.0884070  52.8986780
   6.5469930  97.4444430  51.5610530   4.5846510  94.2340750  64.8626370
   4.0542970  93.7431700  64.2349710   5.2534580  94.6624950  64.3284300
   8.9346730  97.2781810  49.3032490   9.4552390  96.5630830  48.9373640
   9.5815130  97.9167680  49.6033000  13.9546740  96.0406370  66.6306710
  14.5367510  95.2858690  66.5427190  14.1308510  96.5713810  65.8538190
   5.0718810  91.2003120  64.9423660   4.9775680  90.5823870  64.2174530
   4.4916200  91.9269410  64.7153570   7.8380250  89.7576360  61.9751050
   7.3897550  89.7800620  61.1296600   7.2045450  89.3595380  62.5721350
  10.5803700  96.3846870  63.9801330  10.6999910  95.7888010  64.7196170
  11.4397700  96.4216560  63.5602630  12.9191600  96.9384060  62.5563840
  12.3926820  97.4626680  61.9528980  13.2622940  97.5711450  63.1873570
   5.3177990  94.3277430  49.0013550   5.1167050  93.4644790  49.3626890
   5.1470040  94.2410790  48.0635150   7.3472470  92.9268220  65.2377150
   7.9372160  92.6184070  65.9254970   6.5292710  92.4547970  65.3937050
  12.1665900  92.5434030  65.4710170  11.4781420  91.8815570  65.4060160
  12.8871920  92.0972300  65.9158630  12.7966300  89.1385660  51.5300430
  13.0768590  88.2953560  51.8859850  12.0232030  89.3708770  52.0439180
   4.1160790  91.4278050  48.9891430   4.4186690  91.4345480  48.0810580
   4.8555380  91.0775910  49.4859090   7.3345720  90.3712670  49.9747630
   6.9867720  89.6936660  49.3950080   7.5358490  89.9102180  50.7891020
  13.6241800  91.6941610  50.5930490  14.0426680  91.5072590  49.7527150
  13.3177860  90.8420660  50.9033420  17.1231530  96.6065750  54.2906290
  16.7475130  95.8393680  53.8587580  16.3934650  96.9888450  54.7781220
  16.5131150  95.7537270  63.9245810  16.2817240  95.5250020  63.0243760
  16.7735700  96.6736820  63.8790700  14.9519220  90.9793700  66.7025510
  15.8289400  90.9877100  67.0859510  14.9640060  90.2424540  66.0917860
  16.3982490  94.8323240  57.5913530  16.9219970  94.3385890  56.9603700
  16.9841910  94.9673600  58.3361100  16.5772210  94.9163110  61.1133080
  15.6274920  94.8826650  61.2278070  16.7585220  95.8263220  60.8782850
   2.4316650  93.1664790  50.2231710   3.1408350  92.7448010  49.7378990
   1.7156590  93.2340020  49.5915060   2.0790810  89.2204120  49.2634360
   2.8018940  89.7613060  49.5815580   2.3515330  88.9467540  48.3875900
  15.8882460  94.0896590  53.5305940  16.3841580  93.8567460  54.3154820
  15.6898530  93.2508430  53.1143580   1.7683000  88.4710310  59.1656980
   2.4159190  87.9207690  58.7252140   2.1884840  88.7253460  59.9872790
  17.3169620  92.7257540  56.0643620  17.2068900  92.5713580  57.0025890
  18.0777210  92.1978480  55.8219030  15.6635340  88.6651670  62.5226620
  16.3007560  89.2785810  62.8885810  15.8110230  88.7012330  61.5775850
  18.2059890  90.5565460  49.3049760  19.1309200  90.4246640  49.0968050
  18.1835680  90.6358280  50.2586210  18.2798380  91.3276120  51.9306470
  17.4849880  91.2621240  52.4599380  18.4841660  92.2626760  51.9191820
   9.0339820  89.8177860  65.4301720   8.9728710  90.4099690  66.1797130
   9.9740200  89.7103820  65.2851980  11.6714380  89.4747920  65.0694010
  12.2854790  89.7927210  64.4075090  12.2163940  88.9896510  65.6889870
   2.1935640  88.1542180  65.1833070   2.7418630  87.9730230  64.4199180
   2.2590950  87.3636290  65.7189380  12.4122420  88.0380060  61.3963300
  11.5382260  88.3715170  61.1936230  12.3033170  87.5653240  62.2215170
  13.3194400  90.2450930  62.7805020  12.9907760  89.4302690  62.4006750
  14.2676700  90.2020740  62.6570710  10.1597240  88.9549900  60.3356210
   9.3769030  89.4295400  60.6152970   9.8660170  88.0504730  60.2269390
  14.7118310  89.6573000  58.3805300  15.1526400  89.6018100  57.5326900
  14.4425900  90.5731010  58.4515480  16.5756880  89.2888240  56.3914120
  16.5145280  88.3449460  56.2445140  17.3548910  89.3968330  56.9367580
   8.0451460  91.3736650  55.8472240   7.2325970  90.9993540  55.5068120
   8.5493100  90.6181730  56.1493430  12.5476440  88.0379100  57.0855310
  13.1505810  88.6099310  57.5603830  11.8069430  88.6018540  56.8629210
  15.6911040  88.4400660  52.3595590  15.8861670  89.3384110  52.6263020
  14.9040910  88.2087740  52.8528540   3.8762800  89.7861430  51.3971900
   4.4055560  88.9991230  51.2679850   4.5091120  90.4652620  51.6307430
   6.0700640  89.5236570  54.4517290   5.4403380  88.8223880  54.6187420
   5.5305780  90.2840700  54.2350450   6.1956200  88.8020550  66.8869780
   5.9140470  89.3054150  66.1230600   6.5775900  88.0042300  66.5211910
  12.7971660  88.2174130  67.4650250  12.6837110  88.5368740  68.3601770
  13.6141400  88.6186640  67.1687530  11.7029810  96.2366600  37.8284990
  11.6223860  95.3221210  37.5576700  11.2894230  96.7333670  37.1224700
   9.8347850  98.0145620  39.7094260   9.0589950  97.5346060  39.9992830
  10.4860780  97.3351270  39.5350420   3.8513680  98.3265430  40.5870020
   3.0198560  98.0714140  40.9866530   4.4594660  98.3976200  41.3227940
  10.3062010  93.4973190  39.9433350  10.6826830  92.6245070  39.8307020
  10.2081520  93.8331890  39.0523790   4.4367020  91.8698820  35.4050790
   4.5433770  92.7702550  35.7119550   3.5259380  91.8216790  35.1145440
  14.0886130  90.9923630  36.8761690  14.9095750  90.5020200  36.9187170
  14.1220210  91.5821290  37.6293530   2.0850180  93.7917830  40.6503380
   2.7660290  94.0556200  41.2690780   1.7698230  92.9518700  40.9841390
   6.2774750  94.8385190  39.7375970   6.7852970  95.3366160  40.3780990
   6.8087990  94.0620390  39.5615330  18.3785680  93.0090380  43.4405320
  17.6737850  93.3972090  42.9220430  18.6443600  93.7040670  44.0426250
   4.5610850  89.4783750  44.0039390   4.5629290  89.9956140  43.1985290
   3.7315160  89.0013930  43.9809320  14.3247610  92.9324010  39.6489230
  13.6203180  93.2208900  40.2292340  14.6859770  93.7424120  39.2888790
   4.2426180  91.1893710  42.0109840   4.5842990  92.0335760  41.7163710
   3.3041990  91.3377450  42.1275180  17.3934530  92.3778800  40.0398440
  16.4459440  92.4117780  40.1713870  17.7184520  93.1917750  40.4247800
   7.9254070  88.6775980  38.3354430   8.2329050  88.1222870  37.6189930
   6.9954770  88.8120440  38.1527420  10.3134830  96.7424810  35.0714550
   9.3864110  96.6762190  35.3003020  10.4659650  97.6804940  34.9569790
  10.3003910  93.0141810  32.0681710   9.3607580  93.1755770  32.1534170
  10.6187170  93.7327490  31.5217700  16.8216670  97.6960330  42.0460740
  15.9935300  97.7653420  41.5710870  17.4167150  98.2814640  41.5776570
  14.3432120  98.3045110  35.5749800  13.7244540  97.9664660  34.9276100
  14.3256570  97.6604870  36.2828990  13.7858680  94.4829650  42.9915610
  13.3729860  95.3083360  43.2455600  13.0534630  93.8974690  42.7991970
   5.9191470  97.2689550  37.8534280   5.5148470  96.5566800  37.3580180
   6.0054590  96.9242790  38.7422320   4.6320090  94.0432760  41.6333320
   5.1834680  94.1528100  40.8586570   5.1463600  94.4170360  42.3488550
  12.5196820  97.5431920  32.5822550  12.9590100  96.7054350  32.4360370
  13.2325240  98.1761320  32.6686690   4.3062820  97.5652120  45.2438660
   4.1670590  98.4374920  45.6126060   3.4244180  97.2224930  45.0986600
  16.1013960  88.7974730  30.8963590  15.7886620  88.8901560  31.7962660
  16.8626430  89.3755760  30.8461020   2.6196100  96.1634530  35.3540930
   2.4993700  96.8896620  34.7422200   2.3096990  95.3937440  34.8768840
  17.3115250  93.5346230  46.8737730  16.6959520  94.0425900  46.3453190
  16.9911670  92.6344560  46.8163670   5.0859760  89.5069600  38.7364600
   4.6427910  90.2879140  38.4049120   5.6444750  89.8299490  39.4435540
   9.3729570  92.3738120  44.3399920   8.9108940  92.5821140  45.1519860
   8.9707680  91.5597470  44.0370590  14.3734080  93.5947070  45.4696580
  13.5227670  93.2952820  45.7905650  14.2135870  93.8389080  44.5580400
  11.4683790  95.0948820  47.5695370  11.7937200  94.2612570  47.2297600
  12.2564120  95.6177340  47.7173700   8.2018580  89.1280300  33.6170430
   7.5772760  89.1240170  34.3423740   8.1148700  88.2611260  33.2206400
   7.1235660  90.0516930  40.5954200   7.4207990  90.9579760  40.5146220
   7.6721220  89.5635710  39.9813770   4.8773980  94.6303170  36.4645850
   4.6514900  94.4140340  37.3692470   4.0966510  95.0631630  36.1191820
  12.1071740  94.6366540  35.0636500  11.5080630  95.3602340  34.8800120
  12.6551350  94.5743320  34.2812950   7.3173190  95.5288750  47.1306120
   7.2216790  94.5883480  46.9806520   8.1605170  95.7503820  46.7354190
  10.7136610  93.2730080  37.0939780  11.1066180  93.5902280  36.2808470
  11.0753460  92.3941960  37.2084300   2.4483730  91.9402420  45.2839900
   2.0547120  92.7877630  45.4912680   1.7602130  91.3028790  45.4748540
   9.0228780  92.0237390  48.3536640   8.3327100  91.8309590  48.9882730
   9.7661080  92.3072030  48.8860940  11.2991750  95.8635830  41.1890560
  10.5672870  96.3722640  41.5380660  10.9016090  95.0465810  40.8879340
   7.7369140  92.5390030  39.5943050   7.7405200  92.0979980  38.7447590
   8.6320260  92.8607360  39.7014870   3.5871520  92.4216520  38.5537260
   3.2471570  92.8991750  39.3104310   2.8248840  91.9681640  38.1938360
   7.7989290  93.5402110  32.5849810   7.9202110  93.4988590  33.5335630
   7.4137800  94.4026260  32.4296540  11.7617660  91.3169510  40.6013500
  11.7790400  91.7678160  41.4455350  11.5133240  90.4175150  40.8146940
   6.8110790  95.8503250  31.9833110   6.2427690  95.4021500  31.3569020
   7.5199790  96.2096030  31.4498260  15.1888410  88.7301690  46.4399880
  15.5134180  87.9991350  46.9657860  15.2244920  88.4115330  45.5380870
   8.0377110  96.5991810  41.3408460   8.4047240  96.1250380  42.0869800
   7.8482170  97.4733380  41.6816800   5.8276480  95.6400450  43.6592670
   5.5233550  96.5192430  43.8843030   6.7822940  95.7000240  43.6950110
  10.5756190  90.2364760  34.1915300   9.7620800  89.7377930  34.1160610
  10.3818140  91.0763010  33.7751650  13.2904580  94.6084410  32.4877460
  14.1784200  94.9201640  32.3128800  13.2609670  93.7356660  32.0958040
   1.8840210  96.4803190  44.8064030   1.5255150  97.1457040  45.3937370
   1.5894770  95.6486740  45.1776650   5.0853330  96.9387430  47.6903580
   4.7853470  97.0844610  46.7931400   5.8564570  96.3792720  47.5976970
  15.5618850  95.9196250  31.9557320  15.4782570  96.3510470  31.1053760
  16.2813040  96.3794600  32.3884140   7.5583070  97.8667660  35.5506910
   8.0145850  98.6772910  35.7767100   7.2071280  97.5490800  36.3825400
   3.4594850  88.2105310  36.0229430   3.3309480  88.2023210  36.9714350
   2.6356870  88.5488400  35.6720440  11.9527560  92.4618740  43.2337580
  12.3208380  91.6413950  43.5617150  11.0925760  92.5220630  43.6493230
  15.3189590  91.4175680  34.0425140  14.6902750  91.5221350  33.3283370
  14.8241510  91.6372460  34.8319020   7.2873620  93.6961630  35.4583020
   6.5789770  94.1647970  35.8996630   7.5718100  93.0383640  36.0928210
   8.9129550  95.1158330  43.4575550   9.4114800  95.5904150  44.1227400
   9.0552500  94.1921850  43.6645580  11.3189050  90.4212290  36.8978810
  11.1956830  90.4398420  35.9488320  12.2673610  90.4691230  37.0177210
   5.4908640  92.0046710  32.8333730   6.3399170  92.4416860  32.7673920
   5.1239910  92.3166970  33.6605790  16.1196410  91.3326290  44.3003940
  15.6170010  92.0731690  44.6397750  16.9353070  91.7210290  43.9840730
  14.4118420  96.5759470  37.7465300  13.4708560  96.5909700  37.9212990
  14.7262490  95.7895430  38.1925600   4.3900060  98.2579070  31.3069260
   5.1563330  98.1460430  31.8694690   4.4674750  97.5617040  30.6546030
   3.0846820  95.6904140  31.9902150   3.1650410  94.7431650  32.1019550
   3.9766570  96.0211020  32.0962810   2.6440700  95.6548650  48.1208390
   2.6846040  95.3562520  49.0293620   3.4986200  96.0556260  47.9615910
   6.4219090  98.2544200  33.2811900   6.8435510  98.0884070  34.1243290
   6.5469930  97.4444430  32.7867040   4.5846510  94.2340750  46.0882880
   4.0542970  93.7431700  45.4606220   5.2534580  94.6624950  45.5540810
   8.9346730  97.2781810  30.5289000   9.4552390  96.5630830  30.1630150
   9.5815130  97.9167680  30.8289510  13.9546740  96.0406370  47.8563220
  14.5367510  95.2858690  47.7683700  14.1308510  96.5713810  47.0794700
   5.0718810  91.2003120  46.1680170   4.9775680  90.5823870  45.4431040
   4.4916200  91.9269410  45.9410080   7.8380250  89.7576360  43.2007560
   7.3897550  89.7800620  42.3553110   7.2045450  89.3595380  43.7977860
  10.5803700  96.3846870  45.2057840  10.6999910  95.7888010  45.9452680
  11.4397700  96.4216560  44.7859140  12.9191600  96.9384060  43.7820350
  12.3926820  97.4626680  43.1785490  13.2622940  97.5711450  44.4130080
   5.3177990  94.3277430  30.2270060   5.1167050  93.4644790  30.5883400
   5.1470040  94.2410790  29.2891660   7.3472470  92.9268220  46.4633660
   7.9372160  92.6184070  47.1511480   6.5292710  92.4547970  46.6193560
  12.1665900  92.5434030  46.6966680  11.4781420  91.8815570  46.6316670
  12.8871920  92.0972300  47.1415140  12.7966300  89.1385660  32.7556940
  13.0768590  88.2953560  33.1116360  12.0232030  89.3708770  33.2695690
   4.1160790  91.4278050  30.2147940   4.4186690  91.4345480  29.3067090
   4.8555380  91.0775910  30.7115600   7.3345720  90.3712670  31.2004140
   6.9867720  89.6936660  30.6206590   7.5358490  89.9102180  32.0147530
  13.6241800  91.6941610  31.8187000  14.0426680  91.5072590  30.9783660
  13.3177860  90.8420660  32.1289930  17.1231530  96.6065750  35.5162800
  16.7475130  95.8393680  35.0844090  16.3934650  96.9888450  36.0037730
  16.5131150  95.7537270  45.1502320  16.2817240  95.5250020  44.2500270
  16.7735700  96.6736820  45.1047210  14.9519220  90.9793700  47.9282020
  15.8289400  90.9877100  48.3116020  14.9640060  90.2424540  47.3174370
  16.3982490  94.8323240  38.8170040  16.9219970  94.3385890  38.1860210
  16.9841910  94.9673600  39.5617610  16.5772210  94.9163110  42.3389590
  15.6274920  94.8826650  42.4534580  16.7585220  95.8263220  42.1039360
   2.4316650  93.1664790  31.4488220   3.1408350  92.7448010  30.9635500
   1.7156590  93.2340020  30.8171570   2.0790810  89.2204120  30.4890870
   2.8018940  89.7613060  30.8072090   2.3515330  88.9467540  29.6132410
  15.8882460  94.0896590  34.7562450  16.3841580  93.8567460  35.5411330
  15.6898530  93.2508430  34.3400090   1.7683000  88.4710310  40.3913490
   2.4159190  87.9207690  39.9508650   2.1884840  88.7253460  41.2129300
  17.3169620  92.7257540  37.2900130  17.2068900  92.5713580  38.2282400
  18.0777210  92.1978480  37.0475540  15.6635340  88.6651670  43.7483130
  16.3007560  89.2785810  44.1142320  15.8110230  88.7012330  42.8032360
  18.2059890  90.5565460  30.5306270  19.1309200  90.4246640  30.3224560
  18.1835680  90.6358280  31.4842720  18.2798380  91.3276120  33.1562980
  17.4849880  91.2621240  33.6855890  18.4841660  92.2626760  33.1448330
   9.0339820  89.8177860  46.6558230   8.9728710  90.4099690  47.4053640
   9.9740200  89.7103820  46.5108490  11.6714380  89.4747920  46.2950520
  12.2854790  89.7927210  45.6331600  12.2163940  88.9896510  46.9146380
   2.1935640  88.1542180  46.4089580   2.7418630  87.9730230  45.6455690
   2.2590950  87.3636290  46.9445890  12.4122420  88.0380060  42.6219810
  11.5382260  88.3715170  42.4192740  12.3033170  87.5653240  43.4471680
  13.3194400  90.2450930  44.0061530  12.9907760  89.4302690  43.6263260
  14.2676700  90.2020740  43.8827220  10.1597240  88.9549900  41.5612720
   9.3769030  89.4295400  41.8409480   9.8660170  88.0504730  41.4525900
  14.7118310  89.6573000  39.6061810  15.1526400  89.6018100  38.7583410
  14.4425900  90.5731010  39.6771990  16.5756880  89.2888240  37.6170630
  16.5145280  88.3449460  37.4701650  17.3548910  89.3968330  38.1624090
   8.0451460  91.3736650  37.0728750   7.2325970  90.9993540  36.7324630
   8.5493100  90.6181730  37.3749940  12.5476440  88.0379100  38.3111820
  13.1505810  88.6099310  38.7860340  11.8069430  88.6018540  38.0885720
  15.6911040  88.4400660  33.5852100  15.8861670  89.3384110  33.8519530
  14.9040910  88.2087740  34.0785050   3.8762800  89.7861430  32.6228410
   4.4055560  88.9991230  32.4936360   4.5091120  90.4652620  32.8563940
   6.0700640  89.5236570  35.6773800   5.4403380  88.8223880  35.8443930
   5.5305780  90.2840700  35.4606960   6.1956200  88.8020550  48.1126290
   5.9140470  89.3054150  47.3487110   6.5775900  88.0042300  47.7468420
  12.7971660  88.2174130  48.6906760  12.6837110  88.5368740  49.5858280
  13.6141400  88.6186640  48.3944040  11.7029810  96.2366600  19.0541500
  11.6223860  95.3221210  18.7833210  11.2894230  96.7333670  18.3481210
   9.8347850  98.0145620  20.9350770   9.0589950  97.5346060  21.2249340
  10.4860780  97.3351270  20.7606930   3.8513680  98.3265430  21.8126530
   3.0198560  98.0714140  22.2123040   4.4594660  98.3976200  22.5484450
  10.3062010  93.4973190  21.1689860  10.6826830  92.6245070  21.0563530
  10.2081520  93.8331890  20.2780300   4.4367020  91.8698820  16.6307300
   4.5433770  92.7702550  16.9376060   3.5259380  91.8216790  16.3401950
  14.0886130  90.9923630  18.1018200  14.9095750  90.5020200  18.1443680
  14.1220210  91.5821290  18.8550040   2.0850180  93.7917830  21.8759890
   2.7660290  94.0556200  22.4947290   1.7698230  92.9518700  22.2097900
   6.2774750  94.8385190  20.9632480   6.7852970  95.3366160  21.6037500
   6.8087990  94.0620390  20.7871840  18.3785680  93.0090380  24.6661830
  17.6737850  93.3972090  24.1476940  18.6443600  93.7040670  25.2682760
   4.5610850  89.4783750  25.2295900   4.5629290  89.9956140  24.4241800
   3.7315160  89.0013930  25.2065830  14.3247610  92.9324010  20.8745740
  13.6203180  93.2208900  21.4548850  14.6859770  93.7424120  20.5145300
   4.2426180  91.1893710  23.2366350   4.5842990  92.0335760  22.9420220
   3.3041990  91.3377450  23.3531690  17.3934530  92.3778800  21.2654950
  16.4459440  92.4117780  21.3970380  17.7184520  93.1917750  21.6504310
   7.9254070  88.6775980  19.5610940   8.2329050  88.1222870  18.8446440
   6.9954770  88.8120440  19.3783930  10.3134830  96.7424810  16.2971060
   9.3864110  96.6762190  16.5259530  10.4659650  97.6804940  16.1826300
  10.3003910  93.0141810  13.2938220   9.3607580  93.1755770  13.3790680
  10.6187170  93.7327490  12.7474210  16.8216670  97.6960330  23.2717250
  15.9935300  97.7653420  22.7967380  17.4167150  98.2814640  22.8033080
  14.3432120  98.3045110  16.8006310  13.7244540  97.9664660  16.1532610
  14.3256570  97.6604870  17.5085500  13.7858680  94.4829650  24.2172120
  13.3729860  95.3083360  24.4712110  13.0534630  93.8974690  24.0248480
   5.9191470  97.2689550  19.0790790   5.5148470  96.5566800  18.5836690
   6.0054590  96.9242790  19.9678830   4.6320090  94.0432760  22.8589830
   5.1834680  94.1528100  22.0843080   5.1463600  94.4170360  23.5745060
  12.5196820  97.5431920  13.8079060  12.9590100  96.7054350  13.6616880
  13.2325240  98.1761320  13.8943200   4.3062820  97.5652120  26.4695170
   4.1670590  98.4374920  26.8382570   3.4244180  97.2224930  26.3243110
  16.1013960  88.7974730  12.1220100  15.7886620  88.8901560  13.0219170
  16.8626430  89.3755760  12.0717530   2.6196100  96.1634530  16.5797440
   2.4993700  96.8896620  15.9678710   2.3096990  95.3937440  16.1025350
  17.3115250  93.5346230  28.0994240  16.6959520  94.0425900  27.5709700
  16.9911670  92.6344560  28.0420180   5.0859760  89.5069600  19.9621110
   4.6427910  90.2879140  19.6305630   5.6444750  89.8299490  20.6692050
   9.3729570  92.3738120  25.5656430   8.9108940  92.5821140  26.3776370
   8.9707680  91.5597470  25.2627100  14.3734080  93.5947070  26.6953090
  13.5227670  93.2952820  27.0162160  14.2135870  93.8389080  25.7836910
  11.4683790  95.0948820  28.7951880  11.7937200  94.2612570  28.4554110
  12.2564120  95.6177340  28.9430210   8.2018580  89.1280300  14.8426940
   7.5772760  89.1240170  15.5680250   8.1148700  88.2611260  14.4462910
   7.1235660  90.0516930  21.8210710   7.4207990  90.9579760  21.7402730
   7.6721220  89.5635710  21.2070280   4.8773980  94.6303170  17.6902360
   4.6514900  94.4140340  18.5948980   4.0966510  95.0631630  17.3448330
  12.1071740  94.6366540  16.2893010  11.5080630  95.3602340  16.1056630
  12.6551350  94.5743320  15.5069460   7.3173190  95.5288750  28.3562630
   7.2216790  94.5883480  28.2063030   8.1605170  95.7503820  27.9610700
  10.7136610  93.2730080  18.3196290  11.1066180  93.5902280  17.5064980
  11.0753460  92.3941960  18.4340810   2.4483730  91.9402420  26.5096410
   2.0547120  92.7877630  26.7169190   1.7602130  91.3028790  26.7005050
   9.0228780  92.0237390  29.5793150   8.3327100  91.8309590  30.2139240
   9.7661080  92.3072030  30.1117450  11.2991750  95.8635830  22.4147070
  10.5672870  96.3722640  22.7637170  10.9016090  95.0465810  22.1135850
   7.7369140  92.5390030  20.8199560   7.7405200  92.0979980  19.9704100
   8.6320260  92.8607360  20.9271380   3.5871520  92.4216520  19.7793770
   3.2471570  92.8991750  20.5360820   2.8248840  91.9681640  19.4194870
   7.7989290  93.5402110  13.8106320   7.9202110  93.4988590  14.7592140
   7.4137800  94.4026260  13.6553050  11.7617660  91.3169510  21.8270010
  11.7790400  91.7678160  22.6711860  11.5133240  90.4175150  22.0403450
   6.8110790  95.8503250  13.2089620   6.2427690  95.4021500  12.5825530
   7.5199790  96.2096030  12.6754770  15.1888410  88.7301690  27.6656390
  15.5134180  87.9991350  28.1914370  15.2244920  88.4115330  26.7637380
   8.0377110  96.5991810  22.5664970   8.4047240  96.1250380  23.3126310
   7.8482170  97.4733380  22.9073310   5.8276480  95.6400450  24.8849180
   5.5233550  96.5192430  25.1099540   6.7822940  95.7000240  24.9206620
  10.5756190  90.2364760  15.4171810   9.7620800  89.7377930  15.3417120
  10.3818140  91.0763010  15.0008160  13.2904580  94.6084410  13.7133970
  14.1784200  94.9201640  13.5385310  13.2609670  93.7356660  13.3214550
   1.8840210  96.4803190  26.0320540   1.5255150  97.1457040  26.6193880
   1.5894770  95.6486740  26.4033160   5.0853330  96.9387430  28.9160090
   4.7853470  97.0844610  28.0187910   5.8564570  96.3792720  28.8233480
  15.5618850  95.9196250  13.1813830  15.4782570  96.3510470  12.3310270
  16.2813040  96.3794600  13.6140650   7.5583070  97.8667660  16.7763420
   8.0145850  98.6772910  17.0023610   7.2071280  97.5490800  17.6081910
   3.4594850  88.2105310  17.2485940   3.3309480  88.2023210  18.1970860
   2.6356870  88.5488400  16.8976950  11.9527560  92.4618740  24.4594090
  12.3208380  91.6413950  24.7873660  11.0925760  92.5220630  24.8749740
  15.3189590  91.4175680  15.2681650  14.6902750  91.5221350  14.5539880
  14.8241510  91.6372460  16.0575530   7.2873620  93.6961630  16.6839530
   6.5789770  94.1647970  17.1253140   7.5718100  93.0383640  17.3184720
   8.9129550  95.1158330  24.6832060   9.4114800  95.5904150  25.3483910
   9.0552500  94.1921850  24.8902090  11.3189050  90.4212290  18.1235320
  11.1956830  90.4398420  17.1744830  12.2673610  90.4691230  18.2433720
   5.4908640  92.0046710  14.0590240   6.3399170  92.4416860  13.9930430
   5.1239910  92.3166970  14.8862300  16.1196410  91.3326290  25.5260450
  15.6170010  92.0731690  25.8654260  16.9353070  91.7210290  25.2097240
  14.4118420  96.5759470  18.9721810  13.4708560  96.5909700  19.1469500
  14.7262490  95.7895430  19.4182110   4.3900060  98.2579070  12.5325770
   5.1563330  98.1460430  13.0951200   4.4674750  97.5617040  11.8802540
   3.0846820  95.6904140  13.2158660   3.1650410  94.7431650  13.3276060
   3.9766570  96.0211020  13.3219320   2.6440700  95.6548650  29.3464900
   2.6846040  95.3562520  30.2550130   3.4986200  96.0556260  29.1872420
   6.4219090  98.2544200  14.5068410   6.8435510  98.0884070  15.3499800
   6.5469930  97.4444430  14.0123550   4.5846510  94.2340750  27.3139390
   4.0542970  93.7431700  26.6862730   5.2534580  94.6624950  26.7797320
   8.9346730  97.2781810  11.7545510   9.4552390  96.5630830  11.3886660
   9.5815130  97.9167680  12.0546020  13.9546740  96.0406370  29.0819730
  14.5367510  95.2858690  28.9940210  14.1308510  96.5713810  28.3051210
   5.0718810  91.2003120  27.3936680   4.9775680  90.5823870  26.6687550
   4.4916200  91.9269410  27.1666590   7.8380250  89.7576360  24.4264070
   7.3897550  89.7800620  23.5809620   7.2045450  89.3595380  25.0234370
  10.5803700  96.3846870  26.4314350  10.6999910  95.7888010  27.1709190
  11.4397700  96.4216560  26.0115650  12.9191600  96.9384060  25.0076860
  12.3926820  97.4626680  24.4042000  13.2622940  97.5711450  25.6386590
   5.3177990  94.3277430  11.4526570   5.1167050  93.4644790  11.8139910
   5.1470040  94.2410790  10.5148170   7.3472470  92.9268220  27.6890170
   7.9372160  92.6184070  28.3767990   6.5292710  92.4547970  27.8450070
  12.1665900  92.5434030  27.9223190  11.4781420  91.8815570  27.8573180
  12.8871920  92.0972300  28.3671650  12.7966300  89.1385660  13.9813450
  13.0768590  88.2953560  14.3372870  12.0232030  89.3708770  14.4952200
   4.1160790  91.4278050  11.4404450   4.4186690  91.4345480  10.5323600
   4.8555380  91.0775910  11.9372110   7.3345720  90.3712670  12.4260650
   6.9867720  89.6936660  11.8463100   7.5358490  89.9102180  13.2404040
  13.6241800  91.6941610  13.0443510  14.0426680  91.5072590  12.2040170
  13.3177860  90.8420660  13.3546440  17.1231530  96.6065750  16.7419310
  16.7475130  95.8393680  16.3100600  16.3934650  96.9888450  17.2294240
  16.5131150  95.7537270  26.3758830  16.2817240  95.5250020  25.4756780
  16.7735700  96.6736820  26.3303720  14.9519220  90.9793700  29.1538530
  15.8289400  90.9877100  29.5372530  14.9640060  90.2424540  28.5430880
  16.3982490  94.8323240  20.0426550  16.9219970  94.3385890  19.4116720
  16.9841910  94.9673600  20.7874120  16.5772210  94.9163110  23.5646100
  15.6274920  94.8826650  23.6791090  16.7585220  95.8263220  23.3295870
   2.4316650  93.1664790  12.6744730   3.1408350  92.7448010  12.1892010
   1.7156590  93.2340020  12.0428080   2.0790810  89.2204120  11.7147380
   2.8018940  89.7613060  12.0328600   2.3515330  88.9467540  10.8388920
  15.8882460  94.0896590  15.9818960  16.3841580  93.8567460  16.7667840
  15.6898530  93.2508430  15.5656600   1.7683000  88.4710310  21.6170000
   2.4159190  87.9207690  21.1765160   2.1884840  88.7253460  22.4385810
  17.3169620  92.7257540  18.5156640  17.2068900  92.5713580  19.4538910
  18.0777210  92.1978480  18.2732050  15.6635340  88.6651670  24.9739640
  16.3007560  89.2785810  25.3398830  15.8110230  88.7012330  24.0288870
  18.2059890  90.5565460  11.7562780  19.1309200  90.4246640  11.5481070
  18.1835680  90.6358280  12.7099230  18.2798380  91.3276120  14.3819490
  17.4849880  91.2621240  14.9112400  18.4841660  92.2626760  14.3704840
   9.0339820  89.8177860  27.8814740   8.9728710  90.4099690  28.6310150
   9.9740200  89.7103820  27.7365000  11.6714380  89.4747920  27.5207030
  12.2854790  89.7927210  26.8588110  12.2163940  88.9896510  28.1402890
   2.1935640  88.1542180  27.6346090   2.7418630  87.9730230  26.8712200
   2.2590950  87.3636290  28.1702400  12.4122420  88.0380060  23.8476320
  11.5382260  88.3715170  23.6449250  12.3033170  87.5653240  24.6728190
  13.3194400  90.2450930  25.2318040  12.9907760  89.4302690  24.8519770
  14.2676700  90.2020740  25.1083730  10.1597240  88.9549900  22.7869230
   9.3769030  89.4295400  23.0665990   9.8660170  88.0504730  22.6782410
  14.7118310  89.6573000  20.8318320  15.1526400  89.6018100  19.9839920
  14.4425900  90.5731010  20.9028500  16.5756880  89.2888240  18.8427140
  16.5145280  88.3449460  18.6958160  17.3548910  89.3968330  19.3880600
   8.0451460  91.3736650  18.2985260   7.2325970  90.9993540  17.9581140
   8.5493100  90.6181730  18.6006450  12.5476440  88.0379100  19.5368330
  13.1505810  88.6099310  20.0116850  11.8069430  88.6018540  19.3142230
  15.6911040  88.4400660  14.8108610  15.8861670  89.3384110  15.0776040
  14.9040910  88.2087740  15.3041560   3.8762800  89.7861430  13.8484920
   4.4055560  88.9991230  13.7192870   4.5091120  90.4652620  14.0820450
   6.0700640  89.5236570  16.9030310   5.4403380  88.8223880  17.0700440
   5.5305780  90.2840700  16.6863470   6.1956200  88.8020550  29.3382800
   5.9140470  89.3054150  28.5743620   6.5775900  88.0042300  28.9724930
  12.7971660  88.2174130  29.9163270  12.6837110  88.5368740  30.8114790
  13.6141400  88.6186640  29.6200550   9.8347850  98.0145620   2.1607280
   9.0589950  97.5346060   2.4505850  10.4860780  97.3351270   1.9863440
   3.8513680  98.3265430   3.0383040   3.0198560  98.0714140   3.4379550
   4.4594660  98.3976200   3.7740960  10.3062010  93.4973190   2.3946370
  10.6826830  92.6245070   2.2820040  10.2081520  93.8331890   1.5036810
   2.0850180  93.7917830   3.1016400   2.7660290  94.0556200   3.7203800
   1.7698230  92.9518700   3.4354410   6.2774750  94.8385190   2.1888990
   6.7852970  95.3366160   2.8294010   6.8087990  94.0620390   2.0128350
  18.3785680  93.0090380   5.8918340  17.6737850  93.3972090   5.3733450
  18.6443600  93.7040670   6.4939270   4.5610850  89.4783750   6.4552410
   4.5629290  89.9956140   5.6498310   3.7315160  89.0013930   6.4322340
  14.3247610  92.9324010   2.1002250  13.6203180  93.2208900   2.6805360
  14.6859770  93.7424120   1.7401810   4.2426180  91.1893710   4.4622860
   4.5842990  92.0335760   4.1676730   3.3041990  91.3377450   4.5788200
  17.3934530  92.3778800   2.4911460  16.4459440  92.4117780   2.6226890
  17.7184520  93.1917750   2.8760820  16.8216670  97.6960330   4.4973760
  15.9935300  97.7653420   4.0223890  17.4167150  98.2814640   4.0289590
  13.7858680  94.4829650   5.4428630  13.3729860  95.3083360   5.6968620
  13.0534630  93.8974690   5.2504990   4.6320090  94.0432760   4.0846340
   5.1834680  94.1528100   3.3099590   5.1463600  94.4170360   4.8001570
   4.3062820  97.5652120   7.6951680   4.1670590  98.4374920   8.0639080
   3.4244180  97.2224930   7.5499620  17.3115250  93.5346230   9.3250750
  16.6959520  94.0425900   8.7966210  16.9911670  92.6344560   9.2676690
   9.3729570  92.3738120   6.7912940   8.9108940  92.5821140   7.6032880
   8.9707680  91.5597470   6.4883610  14.3734080  93.5947070   7.9209600
  13.5227670  93.2952820   8.2418670  14.2135870  93.8389080   7.0093420
  11.4683790  95.0948820  10.0208390  11.7937200  94.2612570   9.6810620
  12.2564120  95.6177340  10.1686720   7.1235660  90.0516930   3.0467220
   7.4207990  90.9579760   2.9659240   7.6721220  89.5635710   2.4326790
   7.3173190  95.5288750   9.5819140   7.2216790  94.5883480   9.4319540
   8.1605170  95.7503820   9.1867210   2.4483730  91.9402420   7.7352920
   2.0547120  92.7877630   7.9425700   1.7602130  91.3028790   7.9261560
   9.0228780  92.0237390  10.8049660   8.3327100  91.8309590  11.4395750
   9.7661080  92.3072030  11.3373960  11.2991750  95.8635830   3.6403580
  10.5672870  96.3722640   3.9893680  10.9016090  95.0465810   3.3392360
  11.7617660  91.3169510   3.0526520  11.7790400  91.7678160   3.8968370
  11.5133240  90.4175150   3.2659960  15.1888410  88.7301690   8.8912900
  15.5134180  87.9991350   9.4170880  15.2244920  88.4115330   7.9893890
   8.0377110  96.5991810   3.7921480   8.4047240  96.1250380   4.5382820
   7.8482170  97.4733380   4.1329820   5.8276480  95.6400450   6.1105690
   5.5233550  96.5192430   6.3356050   6.7822940  95.7000240   6.1463130
   1.8840210  96.4803190   7.2577050   1.5255150  97.1457040   7.8450390
   1.5894770  95.6486740   7.6289670   5.0853330  96.9387430  10.1416600
   4.7853470  97.0844610   9.2444420   5.8564570  96.3792720  10.0489990
  11.9527560  92.4618740   5.6850600  12.3208380  91.6413950   6.0130170
  11.0925760  92.5220630   6.1006250   8.9129550  95.1158330   5.9088570
   9.4114800  95.5904150   6.5740420   9.0552500  94.1921850   6.1158600
  16.1196410  91.3326290   6.7516960  15.6170010  92.0731690   7.0910770
  16.9353070  91.7210290   6.4353750   2.6440700  95.6548650  10.5721410
   2.6846040  95.3562520  11.4806640   3.4986200  96.0556260  10.4128930
   4.5846510  94.2340750   8.5395900   4.0542970  93.7431700   7.9119240
   5.2534580  94.6624950   8.0053830  13.9546740  96.0406370  10.3076240
  14.5367510  95.2858690  10.2196720  14.1308510  96.5713810   9.5307720
   5.0718810  91.2003120   8.6193190   4.9775680  90.5823870   7.8944060
   4.4916200  91.9269410   8.3923100   7.8380250  89.7576360   5.6520580
   7.3897550  89.7800620   4.8066130   7.2045450  89.3595380   6.2490880
  10.5803700  96.3846870   7.6570860  10.6999910  95.7888010   8.3965700
  11.4397700  96.4216560   7.2372160  12.9191600  96.9384060   6.2333370
  12.3926820  97.4626680   5.6298510  13.2622940  97.5711450   6.8643100
   7.3472470  92.9268220   8.9146680   7.9372160  92.6184070   9.6024500
   6.5292710  92.4547970   9.0706580  12.1665900  92.5434030   9.1479700
  11.4781420  91.8815570   9.0829690  12.8871920  92.0972300   9.5928160
  16.5131150  95.7537270   7.6015340  16.2817240  95.5250020   6.7013290
  16.7735700  96.6736820   7.5560230  14.9519220  90.9793700  10.3795040
  15.8289400  90.9877100  10.7629040  14.9640060  90.2424540   9.7687390
  16.5772210  94.9163110   4.7902610  15.6274920  94.8826650   4.9047600
  16.7585220  95.8263220   4.5552380   1.7683000  88.4710310   2.8426510
   2.4159190  87.9207690   2.4021670   2.1884840  88.7253460   3.6642320
  15.6635340  88.6651670   6.1996150  16.3007560  89.2785810   6.5655340
  15.8110230  88.7012330   5.2545380   9.0339820  89.8177860   9.1071250
   8.9728710  90.4099690   9.8566660   9.9740200  89.7103820   8.9621510
  11.6714380  89.4747920   8.7463540  12.2854790  89.7927210   8.0844620
  12.2163940  88.9896510   9.3659400   2.1935640  88.1542180   8.8602600
   2.7418630  87.9730230   8.0968710   2.2590950  87.3636290   9.3958910
  12.4122420  88.0380060   5.0732830  11.5382260  88.3715170   4.8705760
  12.3033170  87.5653240   5.8984700  13.3194400  90.2450930   6.4574550
  12.9907760  89.4302690   6.0776280  14.2676700  90.2020740   6.3340240
  10.1597240  88.9549900   4.0125740   9.3769030  89.4295400   4.2922500
   9.8660170  88.0504730   3.9038920   6.1956200  88.8020550  10.5639310
   5.9140470  89.3054150   9.8000130   6.5775900  88.0042300  10.1981440
  12.7971660  88.2174130  11.1419780  12.6837110  88.5368740  12.0371300
  13.6141400  88.6186640  10.8457060  11.7029810  77.4623110  75.3771970
  11.6223860  76.5477720  75.1063680  11.2894230  77.9590180  74.6711680
  13.8555280  83.6462320  76.0380370  13.3936810  82.8749560  76.3667540
  14.6680830  83.6728390  76.5432820  10.0818590  85.9320330  75.6584360
   9.4630030  86.3877830  75.0878800  10.9370370  86.0871790  75.2574060
   4.4367020  73.0955330  72.9537770   4.5433770  73.9959060  73.2606530
   3.5259380  73.0473300  72.6632420  14.0886130  72.2180140  74.4248670
  14.9095750  71.7276710  74.4674150  14.1220210  72.8077800  75.1780510
  10.9481940  80.8159570  73.0516270  10.3299210  81.2809020  72.4878990
  11.4605190  81.5087050  73.4685780   7.9254070  69.9032490  75.8841410
   8.2329050  69.3479380  75.1676910   6.9954770  70.0376950  75.7014400
  14.7714550  82.3416000  73.2639040  14.6610880  81.3990330  73.3888460
  14.7682800  82.7031640  74.1501800  10.3134830  77.9681320  72.6201530
   9.3864110  77.9018700  72.8490000  10.4659650  78.9061450  72.5056770
  10.3003910  74.2398320  69.6168690   9.3607580  74.4012280  69.7021150
  10.6187170  74.9584000  69.0704680  14.3432120  79.5301620  73.1236780
  13.7244540  79.1921170  72.4763080  14.3256570  78.8861380  73.8315970
   5.9191470  78.4946060  75.4021260   5.5148470  77.7823310  74.9067160
   6.0054590  78.1499300  76.2909300  12.5196820  78.7688430  70.1309530
  12.9590100  77.9310860  69.9847350  13.2325240  79.4017830  70.2173670
  10.6292200  83.7084500  74.0990770  11.0688110  84.4508830  73.6846160
  10.5679090  83.9511070  75.0229730  16.1013960  70.0231240  68.4450570
  15.7886620  70.1158070  69.3449640  16.8626430  70.6012270  68.3948000
   2.6196100  77.3891040  72.9027910   2.4993700  78.1153130  72.2909180
   2.3096990  76.6193950  72.4255820  13.2962380  86.6953620  71.4553780
  13.1363520  86.4056560  72.3535610  13.1309090  85.9193750  70.9199010
   5.7750760  86.4752150  73.2325400   5.5993240  85.5587690  73.0193200
   4.9206500  86.8339440  73.4723200  12.9988510  84.2041180  70.0151780
  12.3053670  84.2018470  69.3554060  13.7411370  83.7800500  69.5845950
  12.5638440  85.8303890  74.0900270  13.0195390  85.0493270  74.4038890
  12.9030960  86.5410710  74.6341450   5.0859760  70.7326110  76.2851580
   4.6427910  71.5135650  75.9536100   5.6444750  71.0556000  76.9922520
   8.2018580  70.3536810  71.1657410   7.5772760  70.3496680  71.8910720
   8.1148700  69.4867770  70.7693380   4.8773980  75.8559680  74.0132830
   4.6514900  75.6396850  74.9179450   4.0966510  76.2888140  73.6678800
  12.1071740  75.8623050  72.6123480  11.5080630  76.5858850  72.4287100
  12.6551350  75.7999830  71.8299930  10.7136610  74.4986590  74.6426760
  11.1066180  74.8158790  73.8295450  11.0753460  73.6198470  74.7571280
   7.7369140  73.7646540  77.1430030   7.7405200  73.3236490  76.2934570
   8.6320260  74.0863870  77.2501850   3.5871520  73.6473030  76.1024240
   3.2471570  74.1248260  76.8591290   2.8248840  73.1938150  75.7425340
   7.7989290  74.7658620  70.1336790   7.9202110  74.7245100  71.0822610
   7.4137800  75.6282770  69.9783520   6.8110790  77.0759760  69.5320090
   6.2427690  76.6278010  68.9056000   7.5199790  77.4352540  68.9985240
   4.3558270  81.0717950  71.8046500   3.5820530  80.5315570  71.6445220
   5.0852900  80.5524560  71.4664260  10.5756190  71.4621270  71.7402280
   9.7620800  70.9634440  71.6647590  10.3818140  72.3019520  71.3238630
  13.2904580  75.8340920  70.0364440  14.1784200  76.1458150  69.8615780
  13.2609670  74.9613170  69.6445020   4.3995670  80.7398330  75.4425310
   4.9174340  79.9366590  75.3882200   3.9479690  80.6777470  76.2842140
   9.2865170  82.0064610  70.7152610   9.6280870  82.7506840  70.2195930
   8.4577880  82.3195730  71.0777440  15.5618850  77.1452760  69.5044300
  15.4782570  77.5766980  68.6540740  16.2813040  77.6051110  69.9371120
  16.5906100  83.9995020  72.2326430  15.9482260  83.3450640  72.5070150
  16.2036760  84.4050110  71.4567100  12.1692580  81.3280450  76.0798120
  12.5216400  80.7308580  75.4199490  11.2854910  81.0024680  76.2506370
   8.2555860  82.0878140  73.4868530   8.9426990  82.6347350  73.8676120
   7.4688280  82.6318870  73.5218140   7.5583070  79.0924170  73.0993890
   8.0145850  79.9029420  73.3254080   7.2071280  78.7747310  73.9312380
   3.4594850  69.4361820  73.5716410   3.3309480  69.4279720  74.5201330
   2.6356870  69.7744910  73.2207420  14.9803480  82.8911480  68.7702780
  14.7541060  82.1741920  69.3627420  14.5899680  82.6423920  67.9324530
  14.5619730  80.8083420  70.4316940  14.2741430  81.2696110  71.2194820
  15.3571900  80.3481190  70.7001160   6.7788130  84.3009540  70.3620910
   6.7698230  85.0339230  69.7465420   5.8586490  84.0541120  70.4547870
   2.3794770  79.5224430  71.1067670   1.7722720  80.2623330  71.1162970
   2.8544120  79.6123790  70.2805870  15.3189590  72.6432190  71.5912120
  14.6902750  72.7477860  70.8770350  14.8241510  72.8628970  72.3806000
   9.7647730  84.3637780  69.0246100   9.8659710  84.1601770  68.0948080
   8.8649470  84.1096060  69.2293880   7.2873620  74.9218140  73.0070000
   6.5789770  75.3904480  73.4483610   7.5718100  74.2640150  73.6415190
  11.3189050  71.6468800  74.4465790  11.1956830  71.6654930  73.4975300
  12.2673610  71.6947740  74.5664190   8.4065840  86.8824100  73.7193770
   8.6607340  86.8445490  72.7973140   7.4578320  86.7557430  73.7122020
   5.4908640  73.2303220  70.3820710   6.3399170  73.6673370  70.3160900
   5.1239910  73.5423480  71.2092770  14.4118420  77.8015980  75.2952280
  13.4708560  77.8166210  75.4699970  14.7262490  77.0151940  75.7412580
   4.3900060  79.4835580  68.8556240   5.1563330  79.3716940  69.4181670
   4.4674750  78.7873550  68.2033010   3.0846820  76.9160650  69.5389130
   3.1650410  75.9688160  69.6506530   3.9766570  77.2467530  69.6449790
   3.8861530  87.0656040  76.6423670   4.6224010  86.5171500  76.9132240
   4.2702450  87.9312050  76.5029660   6.9963840  86.2386350  68.4649240
   7.7892450  86.5275180  68.0131030   6.4768190  85.8078520  67.7861720
  16.0494010  85.4656480  69.8885980  15.7635520  85.0521620  69.0740160
  15.8513560  86.3944190  69.7686500   7.5141240  81.4589760  68.3291590
   7.4091880  80.8442110  69.0552970   7.3465460  80.9355650  67.5454600
  10.7543970  80.5209790  68.9333580  10.2054070  80.9679090  69.5776320
  11.3763230  80.0159040  69.4571250   6.4219090  79.4800710  70.8298880
   6.8435510  79.3140580  71.6730270   6.5469930  78.6700940  70.3354020
   8.9346730  78.5038320  68.0775980   9.4552390  77.7887340  67.7117130
   9.5815130  79.1424190  68.3776490   5.3177990  75.5533940  67.7757040
   5.1167050  74.6901300  68.1370380   5.1470040  75.4667300  66.8378640
  12.7966300  70.3642170  70.3043920  13.0768590  69.5210070  70.6603340
  12.0232030  70.5965280  70.8182670   4.1160790  72.6534560  67.7634920
   4.4186690  72.6601990  66.8554070   4.8555380  72.3032420  68.2602580
   7.3345720  71.5969180  68.7491120   6.9867720  70.9193170  68.1693570
   7.5358490  71.1358690  69.5634510   9.4994760  86.5849930  70.3677720
  10.3945550  86.9234900  70.3896480   9.5312390  85.8629340  69.7402000
   3.1390920  81.9576980  68.5964720   3.5765790  82.5006650  69.2522300
   3.6238650  81.1323930  68.6061060   4.9498640  83.0775020  73.7086950
   4.6494180  82.9539990  74.6090860   4.8436130  82.2183610  73.3002680
  17.7190560  82.8571420  68.4113630  16.8883520  82.9248070  68.8820860
  17.8962390  83.7475540  68.1080490  17.1747020  79.6018900  70.9147830
  17.9365930  80.1715550  71.0207520  17.1901390  79.0346100  71.6856140
  18.1806990  80.4569000  75.7589760  18.5515820  79.6736320  75.3525730
  18.8208920  81.1458100  75.5807060  17.2266190  79.8953270  68.0720350
  17.5015030  80.8032150  67.9439570  17.0376930  79.8315800  69.0082340
  13.6241800  72.9198120  69.3673980  14.0426680  72.7329100  68.5270640
  13.3177860  72.0677170  69.6776910  17.1231530  77.8322260  73.0649780
  16.7475130  77.0650190  72.6331070  16.3934650  78.2144960  73.5524710
  16.3982490  76.0579750  76.3657020  16.9219970  75.5642400  75.7347190
  16.9841910  76.1930110  77.1104590   2.4316650  74.3921300  68.9975200
   3.1408350  73.9704520  68.5122480   1.7156590  74.4596530  68.3658550
   2.0790810  70.4460630  68.0377850   2.8018940  70.9869570  68.3559070
   2.3515330  70.1724050  67.1619390  15.8882460  75.3153100  72.3049430
  16.3841580  75.0823970  73.0898310  15.6898530  74.4764940  71.8887070
  17.3169620  73.9514050  74.8387110  17.2068900  73.7970090  75.7769380
  18.0777210  73.4234990  74.5962520  18.2059890  71.7821970  68.0793250
  19.1309200  71.6503150  67.8711540  18.1835680  71.8614790  69.0329700
  18.2798380  72.5532630  70.7049960  17.4849880  72.4877750  71.2342870
  18.4841660  73.4883270  70.6935310  15.2216800  86.5924180  74.6988350
  15.8175870  86.2708750  74.0222770  15.4794950  86.1196000  75.4901620
  14.7118310  70.8829510  77.1548790  15.1526400  70.8274610  76.3070390
  14.4425900  71.7987520  77.2258970  16.5756880  70.5144750  75.1657610
  16.5145280  69.5705970  75.0188630  17.3548910  70.6224840  75.7111070
   8.0451460  72.5993160  74.6215730   7.2325970  72.2250050  74.2811610
   8.5493100  71.8438240  74.9236920  12.5476440  69.2635610  75.8598800
  13.1505810  69.8355820  76.3347320  11.8069430  69.8275050  75.6372700
  15.6911040  69.6657170  71.1339080  15.8861670  70.5640620  71.4006510
  14.9040910  69.4344250  71.6272030   2.4872330  85.3470340  71.5731700
   1.9619950  85.7278370  70.8693660   2.4116910  85.9721110  72.2941410
   3.8762800  71.0117940  70.1715390   4.4055560  70.2247740  70.0423340
   4.5091120  71.6909130  70.4050920   6.0700640  70.7493080  73.2260780
   5.4403380  70.0480390  73.3930910   5.5305780  71.5097210  73.0093940
  17.2437650  86.9057880  72.8945640  17.4189840  86.2195620  72.2506560
  16.5459220  87.4304930  72.5022310   5.0865300  87.2952720  70.4480950
   5.8184120  87.0112000  69.9004840   5.3458970  87.0566000  71.3380330
   4.2480090  83.4117450  70.4527280   3.6188970  83.8802550  71.0013110
   4.3627920  82.5666670  70.8873470  11.7029810  77.4623110  56.6028480
  11.6223860  76.5477720  56.3320190  11.2894230  77.9590180  55.8968190
   9.8347850  79.2402130  58.4837750   9.0589950  78.7602570  58.7736320
  10.4860780  78.5607780  58.3093910   3.8513680  79.5521940  59.3613510
   3.0198560  79.2970650  59.7610020   4.4594660  79.6232710  60.0971430
  13.8555280  83.6462320  57.2636880  13.3936810  82.8749560  57.5924050
  14.6680830  83.6728390  57.7689330   3.8314940  83.5862030  59.5571530
   4.1342980  82.6959770  59.3781750   4.5758530  84.1432250  59.3293780
  10.0818590  85.9320330  56.8840870   9.4630030  86.3877830  56.3135310
  10.9370370  86.0871790  56.4830570   9.2756840  81.9159320  58.4907910
   9.2065120  80.9749260  58.3297040  10.0376700  82.0060730  59.0630480
  10.3062010  74.7229700  58.7176840  10.6826830  73.8501580  58.6050510
  10.2081520  75.0588400  57.8267280   4.4367020  73.0955330  54.1794280
   4.5433770  73.9959060  54.4863040   3.5259380  73.0473300  53.8888930
  14.0886130  72.2180140  55.6505180  14.9095750  71.7276710  55.6930660
  14.1220210  72.8077800  56.4037020   2.0850180  75.0174340  59.4246870
   2.7660290  75.2812710  60.0434270   1.7698230  74.1775210  59.7584880
   6.2774750  76.0641700  58.5119460   6.7852970  76.5622670  59.1524480
   6.8087990  75.2876900  58.3358820  18.3785680  74.2346890  62.2148810
  17.6737850  74.6228600  61.6963920  18.6443600  74.9297180  62.8169740
   4.5610850  70.7040260  62.7782880   4.5629290  71.2212650  61.9728780
   3.7315160  70.2270440  62.7552810  10.9481940  80.8159570  54.2772780
  10.3299210  81.2809020  53.7135500  11.4605190  81.5087050  54.6942290
   5.8113700  80.3435440  60.9556380   5.4783080  80.9704360  61.5977450
   5.9880380  80.8697320  60.1758050  14.3247610  74.1580520  58.4232720
  13.6203180  74.4465410  59.0035830  14.6859770  74.9680630  58.0632280
   4.2426180  72.4150220  60.7853330   4.5842990  73.2592270  60.4907200
   3.3041990  72.5633960  60.9018670   5.0232800  82.3116240  62.7705560
   5.6406800  82.9867320  62.4890010   4.1625920  82.7204220  62.6793060
  15.9410390  83.7755650  60.6860200  15.2573910  84.4454760  60.6776870
  16.4804680  83.9736300  59.9205060  17.3934530  73.6035310  58.8141930
  16.4459440  73.6374290  58.9457360  17.7184520  74.4174260  59.1991290
   7.9254070  69.9032490  57.1097920   8.2329050  69.3479380  56.3933420
   6.9954770  70.0376950  56.9270910  13.4769130  85.6199780  59.4005380
  13.4896290  85.2162070  58.5327640  12.9244350  86.3947070  59.2966810
  14.7714550  82.3416000  54.4895550  14.6610880  81.3990330  54.6144970
  14.7682800  82.7031640  55.3758310  12.8754570  80.5229620  60.7287990
  13.2923360  80.3089730  59.8941450  13.5994390  80.7802410  61.2996610
  10.3134830  77.9681320  53.8458040   9.3864110  77.9018700  54.0746510
  10.4659650  78.9061450  53.7313280  10.3003910  74.2398320  50.8425200
   9.3607580  74.4012280  50.9277660  10.6187170  74.9584000  50.2961190
  16.8216670  78.9216840  60.8204230  15.9935300  78.9909930  60.3454360
  17.4167150  79.5071150  60.3520060  14.3432120  79.5301620  54.3493290
  13.7244540  79.1921170  53.7019590  14.3256570  78.8861380  55.0572480
  13.7858680  75.7086160  61.7659100  13.3729860  76.5339870  62.0199090
  13.0534630  75.1231200  61.5735460   5.9191470  78.4946060  56.6277770
   5.5148470  77.7823310  56.1323670   6.0054590  78.1499300  57.5165810
   6.3873170  82.1813620  58.7916980   6.0901460  81.5759090  58.1124760
   7.3372990  82.2190930  58.6806340   4.6320090  75.2689270  60.4076810
   5.1834680  75.3784610  59.6330060   5.1463600  75.6426870  61.1232040
  14.4758780  85.7545490  62.4540080  13.9989340  86.5617680  62.2612690
  13.7920570  85.1023820  62.6066290   5.4791600  81.9195310  65.4424780
   4.5820130  82.1435280  65.6898180   5.5044470  82.0430250  64.4936180
  12.5196820  78.7688430  51.3566040  12.9590100  77.9310860  51.2103860
  13.2325240  79.4017830  51.4430180   4.3062820  78.7908630  64.0182150
   4.1670590  79.6631430  64.3869550   3.4244180  78.4481440  63.8730090
  10.6292200  83.7084500  55.3247280  11.0688110  84.4508830  54.9102670
  10.5679090  83.9511070  56.2486240   6.1043170  84.7330330  66.2267300
   6.0758600  85.1373280  65.3595730   5.9408140  83.8040690  66.0638900
  16.1013960  70.0231240  49.6707080  15.7886620  70.1158070  50.5706150
  16.8626430  70.6012270  49.6204510   2.6196100  77.3891040  54.1284420
   2.4993700  78.1153130  53.5165690   2.3096990  76.6193950  53.6512330
  18.0557990  85.5157430  67.5231470  18.5317710  85.9940320  68.2020550
  18.6765150  85.4474920  66.7976970  17.4591240  82.7070280  64.6831480
  17.5854300  82.4682160  63.7648660  17.5012620  81.8754820  65.1553560
  11.3207980  86.4098280  63.2526290  11.8352650  86.3206290  64.0548720
  10.4777060  86.7557980  63.5454200  13.2962380  86.6953620  52.6810290
  13.1363520  86.4056560  53.5792120  13.1309090  85.9193750  52.1455520
   5.7750760  86.4752150  54.4581910   5.5993240  85.5587690  54.2449710
   4.9206500  86.8339440  54.6979710  12.9988510  84.2041180  51.2408290
  12.3053670  84.2018470  50.5810570  13.7411370  83.7800500  50.8102460
  12.5638440  85.8303890  55.3156780  13.0195390  85.0493270  55.6295400
  12.9030960  86.5410710  55.8597960  17.3115250  74.7602740  65.6481220
  16.6959520  75.2682410  65.1196680  16.9911670  73.8601070  65.5907160
   5.0859760  70.7326110  57.5108090   4.6427910  71.5135650  57.1792610
   5.6444750  71.0556000  58.2179030   9.3729570  73.5994630  63.1143410
   8.9108940  73.8077650  63.9263350   8.9707680  72.7853980  62.8114080
  14.3734080  74.8203580  64.2440070  13.5227670  74.5209330  64.5649140
  14.2135870  75.0645590  63.3323890  11.4683790  76.3205330  66.3438860
  11.7937200  75.4869080  66.0041090  12.2564120  76.8433850  66.4917190
   8.2018580  70.3536810  52.3913920   7.5772760  70.3496680  53.1167230
   8.1148700  69.4867770  51.9949890   7.1235660  71.2773440  59.3697690
   7.4207990  72.1836270  59.2889710   7.6721220  70.7892220  58.7557260
   4.8773980  75.8559680  55.2389340   4.6514900  75.6396850  56.1435960
   4.0966510  76.2888140  54.8935310  12.1071740  75.8623050  53.8379990
  11.5080630  76.5858850  53.6543610  12.6551350  75.7999830  53.0556440
   7.3173190  76.7545260  65.9049610   7.2216790  75.8139990  65.7550010
   8.1605170  76.9760330  65.5097680  10.7136610  74.4986590  55.8683270
  11.1066180  74.8158790  55.0551960  11.0753460  73.6198470  55.9827790
   2.4483730  73.1658930  64.0583390   2.0547120  74.0134140  64.2656170
   1.7602130  72.5285300  64.2492030   9.0228780  73.2493900  67.1280130
   8.3327100  73.0566100  67.7626220   9.7661080  73.5328540  67.6604430
  11.2991750  77.0892340  59.9634050  10.5672870  77.5979150  60.3124150
  10.9016090  76.2722320  59.6622830   7.7369140  73.7646540  58.3686540
   7.7405200  73.3236490  57.5191080   8.6320260  74.0863870  58.4758360
   3.5871520  73.6473030  57.3280750   3.2471570  74.1248260  58.0847800
   2.8248840  73.1938150  56.9681850   7.7989290  74.7658620  51.3593300
   7.9202110  74.7245100  52.3079120   7.4137800  75.6282770  51.2040030
  11.7617660  72.5426020  59.3756990  11.7790400  72.9934670  60.2198840
  11.5133240  71.6431660  59.5890430   6.8110790  77.0759760  50.7576600
   6.2427690  76.6278010  50.1312510   7.5199790  77.4352540  50.2241750
  15.1888410  69.9558200  65.2143370  15.5134180  69.2247860  65.7401350
  15.2244920  69.6371840  64.3124360   8.0377110  77.8248320  60.1151950
   8.4047240  77.3506890  60.8613290   7.8482170  78.6989890  60.4560290
   5.8276480  76.8656960  62.4336160   5.5233550  77.7448940  62.6586520
   6.7822940  76.9256750  62.4693600   4.3558270  81.0717950  53.0303010
   3.5820530  80.5315570  52.8701730   5.0852900  80.5524560  52.6920770
  15.1146250  80.0683310  58.8229400  15.8345370  80.5638600  58.4325510
  14.9128070  79.3901200  58.1783270  10.5756190  71.4621270  52.9658790
   9.7620800  70.9634440  52.8904100  10.3818140  72.3019520  52.5495140
  10.4965050  80.1392370  64.7098400  10.4302360  79.2188040  64.4555990
   9.8670190  80.2367810  65.4243040  13.2904580  75.8340920  51.2620950
  14.1784200  76.1458150  51.0872290  13.2609670  74.9613170  50.8701530
   4.3995670  80.7398330  56.6681820   4.9174340  79.9366590  56.6138710
   3.9479690  80.6777470  57.5098650   9.2865170  82.0064610  51.9409120
   9.6280870  82.7506840  51.4452440   8.4577880  82.3195730  52.3033950
   1.8840210  77.7059700  63.5807520   1.5255150  78.3713550  64.1680860
   1.5894770  76.8743250  63.9520140   5.0853330  78.1643940  66.4647070
   4.7853470  78.3101120  65.5674890   5.8564570  77.6049230  66.3720460
  10.4281780  82.9612940  64.4602200  10.4426320  82.0293900  64.2421110
   9.7206880  83.0472700  65.0991970  15.5618850  77.1452760  50.7300810
  15.4782570  77.5766980  49.8797250  16.2813040  77.6051110  51.1627630
  16.6392990  79.6020280  63.8070780  15.9141180  80.1949060  63.6100170
  17.1668450  79.5943820  63.0084150  16.5906100  83.9995020  53.4582940
  15.9482260  83.3450640  53.7326660  16.2036760  84.4050110  52.6823610
  12.1692580  81.3280450  57.3054630  12.5216400  80.7308580  56.6456000
  11.2854910  81.0024680  57.4762880   8.2555860  82.0878140  54.7125040
   8.9426990  82.6347350  55.0932630   7.4688280  82.6318870  54.7474650
   7.5583070  79.0924170  54.3250400   8.0145850  79.9029420  54.5510590
   7.2071280  78.7747310  55.1568890   9.8615680  84.6030510  61.5542700
  10.5057900  84.8089890  62.2316120  10.2245120  83.8418910  61.1013550
   3.4594850  69.4361820  54.7972920   3.3309480  69.4279720  55.7457840
   2.6356870  69.7744910  54.4463930  11.1347760  82.6062860  60.2720150
  11.7769990  81.9056020  60.3852320  11.6597110  83.3861300  60.0917040
  14.9803480  82.8911480  49.9959290  14.7541060  82.1741920  50.5883930
  14.5899680  82.6423920  49.1581040  12.9085380  83.4057760  63.4756210
  13.2441620  83.9924450  64.1534130  11.9885720  83.2750470  63.7054000
  14.5619730  80.8083420  51.6573450  14.2741430  81.2696110  52.4451330
  15.3571900  80.3481190  51.9257670   8.7373960  83.4549090  66.6444270
   8.4170830  82.7358330  67.1889960   8.0632320  84.1304160  66.7180330
   6.7788130  84.3009540  51.5877420   6.7698230  85.0339230  50.9721930
   5.8586490  84.0541120  51.6804380   2.3794770  79.5224430  52.3324180
   1.7722720  80.2623330  52.3419480   2.8544120  79.6123790  51.5062380
  11.9527560  73.6875250  62.0081070  12.3208380  72.8670460  62.3360640
  11.0925760  73.7477140  62.4236720  15.3189590  72.6432190  52.8168630
  14.6902750  72.7477860  52.1026860  14.8241510  72.8628970  53.6062510
   9.7647730  84.3637780  50.2502610   9.8659710  84.1601770  49.3204590
   8.8649470  84.1096060  50.4550390   7.2873620  74.9218140  54.2326510
   6.5789770  75.3904480  54.6740120   7.5718100  74.2640150  54.8671700
   8.9129550  76.3414840  62.2319040   9.4114800  76.8160660  62.8970890
   9.0552500  75.4178360  62.4389070  11.3189050  71.6468800  55.6722300
  11.1956830  71.6654930  54.7231810  12.2673610  71.6947740  55.7920700
   8.4065840  86.8824100  54.9450280   8.6607340  86.8445490  54.0229650
   7.4578320  86.7557430  54.9378530   5.4908640  73.2303220  51.6077220
   6.3399170  73.6673370  51.5417410   5.1239910  73.5423480  52.4349280
  16.1196410  72.5582800  63.0747430  15.6170010  73.2988200  63.4141240
  16.9353070  72.9466800  62.7584220  14.4118420  77.8015980  56.5208790
  13.4708560  77.8166210  56.6956480  14.7262490  77.0151940  56.9669090
   4.3900060  79.4835580  50.0812750   5.1563330  79.3716940  50.6438180
   4.4674750  78.7873550  49.4289520   3.0846820  76.9160650  50.7645640
   3.1650410  75.9688160  50.8763040   3.9766570  77.2467530  50.8706300
  16.4144000  84.9724830  58.1963050  16.5391420  85.7956000  58.6686860
  17.2809560  84.7615560  57.8487200   3.8861530  87.0656040  57.8680180
   4.6224010  86.5171500  58.1388750   4.2702450  87.9312050  57.7286170
   2.8919810  86.2502110  67.0565760   3.6932540  86.5714160  67.4701160
   2.3771630  85.8897690  67.7785670   6.9963840  86.2386350  49.6905750
   7.7892450  86.5275180  49.2387540   6.4768190  85.8078520  49.0118230
  11.7284440  82.3581980  67.0041170  11.1222600  82.3813580  66.2636920
  11.4238550  81.6265020  67.5408420  13.1584810  86.0862270  65.6150580
  14.1106560  86.0020290  65.5650820  13.0113030  86.7503980  66.2884370
  16.0494010  85.4656480  51.1142490  15.7635520  85.0521620  50.2996670
  15.8513560  86.3944190  50.9943010   7.5141240  81.4589760  49.5548100
   7.4091880  80.8442110  50.2809480   7.3465460  80.9355650  48.7711110
   7.6655560  80.1446560  65.5337330   6.9001230  80.7131560  65.4492000
   7.8471520  79.8522770  64.6405560  10.7543970  80.5209790  50.1590090
  10.2054070  80.9679090  50.8032830  11.3763230  80.0159040  50.6827760
  14.8078910  81.8751890  66.0912350  15.5488380  82.2127650  65.5879810
  14.0451590  82.0443950  65.5382120   2.6440700  76.8805160  66.8951880
   2.6846040  76.5819030  67.8037110   3.4986200  77.2812770  66.7359400
   6.4219090  79.4800710  52.0555390   6.8435510  79.3140580  52.8986780
   6.5469930  78.6700940  51.5610530   4.5846510  75.4597260  64.8626370
   4.0542970  74.9688210  64.2349710   5.2534580  75.8881460  64.3284300
   8.9346730  78.5038320  49.3032490   9.4552390  77.7887340  48.9373640
   9.5815130  79.1424190  49.6033000  13.4824570  79.9266720  64.6267560
  13.8965590  80.0811800  65.4757980  12.5475570  80.0521940  64.7893340
  13.9546740  77.2662880  66.6306710  14.5367510  76.5115200  66.5427190
  14.1308510  77.7970320  65.8538190   5.0718810  72.4259630  64.9423660
   4.9775680  71.8080380  64.2174530   4.4916200  73.1525920  64.7153570
   7.8380250  70.9832870  61.9751050   7.3897550  71.0057130  61.1296600
   7.2045450  70.5851890  62.5721350   8.2439800  79.8787200  62.5963490
   8.6627910  80.7219930  62.4239730   7.3248430  80.0159240  62.3670270
  10.5803700  77.6103380  63.9801330  10.6999910  77.0144520  64.7196170
  11.4397700  77.6473070  63.5602630  12.9191600  78.1640570  62.5563840
  12.3926820  78.6883190  61.9528980  13.2622940  78.7967960  63.1873570
   5.3177990  75.5533940  49.0013550   5.1167050  74.6901300  49.3626890
   5.1470040  75.4667300  48.0635150   6.0947220  86.1840210  63.7121220
   5.5568310  86.9086270  63.3929920   6.3481180  85.7070550  62.9218560
   7.3472470  74.1524730  65.2377150   7.9372160  73.8440580  65.9254970
   6.5292710  73.6804480  65.3937050  12.1665900  73.7690540  65.4710170
  11.4781420  73.1072080  65.4060160  12.8871920  73.3228810  65.9158630
  12.7966300  70.3642170  51.5300430  13.0768590  69.5210070  51.8859850
  12.0232030  70.5965280  52.0439180   4.1160790  72.6534560  48.9891430
   4.4186690  72.6601990  48.0810580   4.8555380  72.3032420  49.4859090
   8.9509430  87.4191420  63.9707870   8.8768130  88.3226560  64.2780240
   8.0488270  87.1003320  63.9429940   7.3345720  71.5969180  49.9747630
   6.9867720  70.9193170  49.3950080   7.5358490  71.1358690  50.7891020
   9.4994760  86.5849930  51.5934230  10.3945550  86.9234900  51.6152990
   9.5312390  85.8629340  50.9658510   3.1390920  81.9576980  49.8221230
   3.5765790  82.5006650  50.4778810   3.6238650  81.1323930  49.8317570
   4.9498640  83.0775020  54.9343460   4.6494180  82.9539990  55.8347370
   4.8436130  82.2183610  54.5259190  16.4789110  85.1153600  64.3000430
  15.8791100  85.1746160  63.5564350  16.6083010  84.1758580  64.4297280
  17.7190560  82.8571420  49.6370140  16.8883520  82.9248070  50.1077370
  17.8962390  83.7475540  49.3337000  17.1747020  79.6018900  52.1404340
  17.9365930  80.1715550  52.2464030  17.1901390  79.0346100  52.9112650
  18.1806990  80.4569000  56.9846270  18.5515820  79.6736320  56.5782240
  18.8208920  81.1458100  56.8063570  15.1640750  81.8405580  62.3976590
  14.3500590  82.2702740  62.6602380  15.5714950  82.4523990  61.7845640
  17.2266190  79.8953270  49.2976860  17.5015030  80.8032150  49.1696080
  17.0376930  79.8315800  50.2338850  13.6241800  72.9198120  50.5930490
  14.0426680  72.7329100  49.7527150  13.3177860  72.0677170  50.9033420
  17.1231530  77.8322260  54.2906290  16.7475130  77.0650190  53.8587580
  16.3934650  78.2144960  54.7781220  16.5131150  76.9793780  63.9245810
  16.2817240  76.7506530  63.0243760  16.7735700  77.8993330  63.8790700
  14.9519220  72.2050210  66.7025510  15.8289400  72.2133610  67.0859510
  14.9640060  71.4681050  66.0917860  16.3982490  76.0579750  57.5913530
  16.9219970  75.5642400  56.9603700  16.9841910  76.1930110  58.3361100
  16.5772210  76.1419620  61.1133080  15.6274920  76.1083160  61.2278070
  16.7585220  77.0519730  60.8782850   2.4316650  74.3921300  50.2231710
   3.1408350  73.9704520  49.7378990   1.7156590  74.4596530  49.5915060
   2.0790810  70.4460630  49.2634360   2.8018940  70.9869570  49.5815580
   2.3515330  70.1724050  48.3875900  15.8882460  75.3153100  53.5305940
  16.3841580  75.0823970  54.3154820  15.6898530  74.4764940  53.1143580
   1.7683000  69.6966820  59.1656980   2.4159190  69.1464200  58.7252140
   2.1884840  69.9509970  59.9872790  17.3169620  73.9514050  56.0643620
  17.2068900  73.7970090  57.0025890  18.0777210  73.4234990  55.8219030
  15.6635340  69.8908180  62.5226620  16.3007560  70.5042320  62.8885810
  15.8110230  69.9268840  61.5775850  18.2059890  71.7821970  49.3049760
  19.1309200  71.6503150  49.0968050  18.1835680  71.8614790  50.2586210
  18.2798380  72.5532630  51.9306470  17.4849880  72.4877750  52.4599380
  18.4841660  73.4883270  51.9191820  15.2216800  86.5924180  55.9244860
  15.8175870  86.2708750  55.2479280  15.4794950  86.1196000  56.7158130
   3.1279370  83.0242090  66.0735490   3.0849000  82.6535000  66.9549950
   3.2590380  83.9619660  66.2137310   6.8285400  84.5801680  61.6745210
   6.5876760  84.8476240  60.7875730   7.7688040  84.7507410  61.7296070
   9.0339820  71.0434370  65.4301720   8.9728710  71.6356200  66.1797130
   9.9740200  70.9360330  65.2851980  11.6714380  70.7004430  65.0694010
  12.2854790  71.0183720  64.4075090  12.2163940  70.2153020  65.6889870
  18.0889560  86.5996060  62.4755850  17.5947840  86.9964930  61.7582980
  17.4802850  85.9745270  62.8693130   2.1935640  69.3798690  65.1833070
   2.7418630  69.1986740  64.4199180   2.2590950  68.5892800  65.7189380
   2.9667400  85.9704340  63.1933270   2.3727720  85.8389040  63.9323310
   2.9591240  85.1342480  62.7275370  12.4122420  69.2636570  61.3963300
  11.5382260  69.5971680  61.1936230  12.3033170  68.7909750  62.2215170
  13.3194400  71.4707440  62.7805020  12.9907760  70.6559200  62.4006750
  14.2676700  71.4277250  62.6570710  15.7729010  87.2419480  59.7542590
  15.3131980  87.9935290  59.3800610  15.1441470  86.5225950  59.6957390
   2.5979630  83.3362720  62.1441310   1.8713690  82.7168010  62.0767260
   2.6588780  83.7303330  61.2739390   6.2024730  85.5507720  58.9290720
   6.7189750  84.9395080  58.4038980   6.8522110  86.0536500  59.4201730
   8.9420230  86.4416210  59.7559700   9.2298040  86.1870510  58.8792710
   9.4543450  85.8893570  60.3465270  10.1597240  70.1806410  60.3356210
   9.3769030  70.6551910  60.6152970   9.8660170  69.2761240  60.2269390
  14.7118310  70.8829510  58.3805300  15.1526400  70.8274610  57.5326900
  14.4425900  71.7987520  58.4515480  16.5756880  70.5144750  56.3914120
  16.5145280  69.5705970  56.2445140  17.3548910  70.6224840  56.9367580
   8.0451460  72.5993160  55.8472240   7.2325970  72.2250050  55.5068120
   8.5493100  71.8438240  56.1493430  12.5476440  69.2635610  57.0855310
  13.1505810  69.8355820  57.5603830  11.8069430  69.8275050  56.8629210
  15.6911040  69.6657170  52.3595590  15.8861670  70.5640620  52.6263020
  14.9040910  69.4344250  52.8528540   2.4872330  85.3470340  52.7988210
   1.9619950  85.7278370  52.0950170   2.4116910  85.9721110  53.5197920
   3.8762800  71.0117940  51.3971900   4.4055560  70.2247740  51.2679850
   4.5091120  71.6909130  51.6307430   6.0700640  70.7493080  54.4517290
   5.4403380  70.0480390  54.6187420   5.5305780  71.5097210  54.2350450
   9.0092590  87.3632310  67.1227900   9.9359900  87.1276580  67.1663860
   8.9943020  88.1904310  66.6413930  17.2437650  86.9057880  54.1202150
  17.4189840  86.2195620  53.4763070  16.5459220  87.4304930  53.7278820
   6.1956200  70.0277060  66.8869780   5.9140470  70.5310660  66.1230600
   6.5775900  69.2298810  66.5211910   5.0865300  87.2952720  51.6737460
   5.8184120  87.0112000  51.1261350   5.3458970  87.0566000  52.5636840
   4.2480090  83.4117450  51.6783790   3.6188970  83.8802550  52.2269620
   4.3627920  82.5666670  52.1129980  12.7971660  69.4430640  67.4650250
  12.6837110  69.7625250  68.3601770  13.6141400  69.8443150  67.1687530
  15.5770150  86.5902170  66.9468940  16.3695470  86.0951400  66.7394900
  15.8703300  87.2692310  67.5544550  11.7029810  77.4623110  37.8284990
  11.6223860  76.5477720  37.5576700  11.2894230  77.9590180  37.1224700
   9.8347850  79.2402130  39.7094260   9.0589950  78.7602570  39.9992830
  10.4860780  78.5607780  39.5350420   3.8513680  79.5521940  40.5870020
   3.0198560  79.2970650  40.9866530   4.4594660  79.6232710  41.3227940
  13.8555280  83.6462320  38.4893390  13.3936810  82.8749560  38.8180560
  14.6680830  83.6728390  38.9945840   3.8314940  83.5862030  40.7828040
   4.1342980  82.6959770  40.6038260   4.5758530  84.1432250  40.5550290
  10.0818590  85.9320330  38.1097380   9.4630030  86.3877830  37.5391820
  10.9370370  86.0871790  37.7087080   9.2756840  81.9159320  39.7164420
   9.2065120  80.9749260  39.5553550  10.0376700  82.0060730  40.2886990
  10.3062010  74.7229700  39.9433350  10.6826830  73.8501580  39.8307020
  10.2081520  75.0588400  39.0523790   4.4367020  73.0955330  35.4050790
   4.5433770  73.9959060  35.7119550   3.5259380  73.0473300  35.1145440
  14.0886130  72.2180140  36.8761690  14.9095750  71.7276710  36.9187170
  14.1220210  72.8077800  37.6293530   2.0850180  75.0174340  40.6503380
   2.7660290  75.2812710  41.2690780   1.7698230  74.1775210  40.9841390
   6.2774750  76.0641700  39.7375970   6.7852970  76.5622670  40.3780990
   6.8087990  75.2876900  39.5615330  18.3785680  74.2346890  43.4405320
  17.6737850  74.6228600  42.9220430  18.6443600  74.9297180  44.0426250
   4.5610850  70.7040260  44.0039390   4.5629290  71.2212650  43.1985290
   3.7315160  70.2270440  43.9809320  10.9481940  80.8159570  35.5029290
  10.3299210  81.2809020  34.9392010  11.4605190  81.5087050  35.9198800
   5.8113700  80.3435440  42.1812890   5.4783080  80.9704360  42.8233960
   5.9880380  80.8697320  41.4014560  14.3247610  74.1580520  39.6489230
  13.6203180  74.4465410  40.2292340  14.6859770  74.9680630  39.2888790
   4.2426180  72.4150220  42.0109840   4.5842990  73.2592270  41.7163710
   3.3041990  72.5633960  42.1275180   5.0232800  82.3116240  43.9962070
   5.6406800  82.9867320  43.7146520   4.1625920  82.7204220  43.9049570
  15.9410390  83.7755650  41.9116710  15.2573910  84.4454760  41.9033380
  16.4804680  83.9736300  41.1461570  17.3934530  73.6035310  40.0398440
  16.4459440  73.6374290  40.1713870  17.7184520  74.4174260  40.4247800
   7.9254070  69.9032490  38.3354430   8.2329050  69.3479380  37.6189930
   6.9954770  70.0376950  38.1527420  13.4769130  85.6199780  40.6261890
  13.4896290  85.2162070  39.7584150  12.9244350  86.3947070  40.5223320
  14.7714550  82.3416000  35.7152060  14.6610880  81.3990330  35.8401480
  14.7682800  82.7031640  36.6014820  12.8754570  80.5229620  41.9544500
  13.2923360  80.3089730  41.1197960  13.5994390  80.7802410  42.5253120
  10.3134830  77.9681320  35.0714550   9.3864110  77.9018700  35.3003020
  10.4659650  78.9061450  34.9569790  10.3003910  74.2398320  32.0681710
   9.3607580  74.4012280  32.1534170  10.6187170  74.9584000  31.5217700
  16.8216670  78.9216840  42.0460740  15.9935300  78.9909930  41.5710870
  17.4167150  79.5071150  41.5776570  14.3432120  79.5301620  35.5749800
  13.7244540  79.1921170  34.9276100  14.3256570  78.8861380  36.2828990
  13.7858680  75.7086160  42.9915610  13.3729860  76.5339870  43.2455600
  13.0534630  75.1231200  42.7991970   5.9191470  78.4946060  37.8534280
   5.5148470  77.7823310  37.3580180   6.0054590  78.1499300  38.7422320
   6.3873170  82.1813620  40.0173490   6.0901460  81.5759090  39.3381270
   7.3372990  82.2190930  39.9062850   4.6320090  75.2689270  41.6333320
   5.1834680  75.3784610  40.8586570   5.1463600  75.6426870  42.3488550
  14.4758780  85.7545490  43.6796590  13.9989340  86.5617680  43.4869200
  13.7920570  85.1023820  43.8322800   5.4791600  81.9195310  46.6681290
   4.5820130  82.1435280  46.9154690   5.5044470  82.0430250  45.7192690
  12.5196820  78.7688430  32.5822550  12.9590100  77.9310860  32.4360370
  13.2325240  79.4017830  32.6686690   4.3062820  78.7908630  45.2438660
   4.1670590  79.6631430  45.6126060   3.4244180  78.4481440  45.0986600
  10.6292200  83.7084500  36.5503790  11.0688110  84.4508830  36.1359180
  10.5679090  83.9511070  37.4742750   6.1043170  84.7330330  47.4523810
   6.0758600  85.1373280  46.5852240   5.9408140  83.8040690  47.2895410
  16.1013960  70.0231240  30.8963590  15.7886620  70.1158070  31.7962660
  16.8626430  70.6012270  30.8461020   2.6196100  77.3891040  35.3540930
   2.4993700  78.1153130  34.7422200   2.3096990  76.6193950  34.8768840
  18.0557990  85.5157430  48.7487980  18.5317710  85.9940320  49.4277060
  18.6765150  85.4474920  48.0233480  17.4591240  82.7070280  45.9087990
  17.5854300  82.4682160  44.9905170  17.5012620  81.8754820  46.3810070
  11.3207980  86.4098280  44.4782800  11.8352650  86.3206290  45.2805230
  10.4777060  86.7557980  44.7710710  13.2962380  86.6953620  33.9066800
  13.1363520  86.4056560  34.8048630  13.1309090  85.9193750  33.3712030
   5.7750760  86.4752150  35.6838420   5.5993240  85.5587690  35.4706220
   4.9206500  86.8339440  35.9236220  12.9988510  84.2041180  32.4664800
  12.3053670  84.2018470  31.8067080  13.7411370  83.7800500  32.0358970
  12.5638440  85.8303890  36.5413290  13.0195390  85.0493270  36.8551910
  12.9030960  86.5410710  37.0854470  17.3115250  74.7602740  46.8737730
  16.6959520  75.2682410  46.3453190  16.9911670  73.8601070  46.8163670
   5.0859760  70.7326110  38.7364600   4.6427910  71.5135650  38.4049120
   5.6444750  71.0556000  39.4435540   9.3729570  73.5994630  44.3399920
   8.9108940  73.8077650  45.1519860   8.9707680  72.7853980  44.0370590
  14.3734080  74.8203580  45.4696580  13.5227670  74.5209330  45.7905650
  14.2135870  75.0645590  44.5580400  11.4683790  76.3205330  47.5695370
  11.7937200  75.4869080  47.2297600  12.2564120  76.8433850  47.7173700
   8.2018580  70.3536810  33.6170430   7.5772760  70.3496680  34.3423740
   8.1148700  69.4867770  33.2206400   7.1235660  71.2773440  40.5954200
   7.4207990  72.1836270  40.5146220   7.6721220  70.7892220  39.9813770
   4.8773980  75.8559680  36.4645850   4.6514900  75.6396850  37.3692470
   4.0966510  76.2888140  36.1191820  12.1071740  75.8623050  35.0636500
  11.5080630  76.5858850  34.8800120  12.6551350  75.7999830  34.2812950
   7.3173190  76.7545260  47.1306120   7.2216790  75.8139990  46.9806520
   8.1605170  76.9760330  46.7354190  10.7136610  74.4986590  37.0939780
  11.1066180  74.8158790  36.2808470  11.0753460  73.6198470  37.2084300
   2.4483730  73.1658930  45.2839900   2.0547120  74.0134140  45.4912680
   1.7602130  72.5285300  45.4748540   9.0228780  73.2493900  48.3536640
   8.3327100  73.0566100  48.9882730   9.7661080  73.5328540  48.8860940
  11.2991750  77.0892340  41.1890560  10.5672870  77.5979150  41.5380660
  10.9016090  76.2722320  40.8879340   7.7369140  73.7646540  39.5943050
   7.7405200  73.3236490  38.7447590   8.6320260  74.0863870  39.7014870
   3.5871520  73.6473030  38.5537260   3.2471570  74.1248260  39.3104310
   2.8248840  73.1938150  38.1938360   7.7989290  74.7658620  32.5849810
   7.9202110  74.7245100  33.5335630   7.4137800  75.6282770  32.4296540
  11.7617660  72.5426020  40.6013500  11.7790400  72.9934670  41.4455350
  11.5133240  71.6431660  40.8146940   6.8110790  77.0759760  31.9833110
   6.2427690  76.6278010  31.3569020   7.5199790  77.4352540  31.4498260
  15.1888410  69.9558200  46.4399880  15.5134180  69.2247860  46.9657860
  15.2244920  69.6371840  45.5380870   8.0377110  77.8248320  41.3408460
   8.4047240  77.3506890  42.0869800   7.8482170  78.6989890  41.6816800
   5.8276480  76.8656960  43.6592670   5.5233550  77.7448940  43.8843030
   6.7822940  76.9256750  43.6950110   4.3558270  81.0717950  34.2559520
   3.5820530  80.5315570  34.0958240   5.0852900  80.5524560  33.9177280
  15.1146250  80.0683310  40.0485910  15.8345370  80.5638600  39.6582020
  14.9128070  79.3901200  39.4039780  10.5756190  71.4621270  34.1915300
   9.7620800  70.9634440  34.1160610  10.3818140  72.3019520  33.7751650
  10.4965050  80.1392370  45.9354910  10.4302360  79.2188040  45.6812500
   9.8670190  80.2367810  46.6499550  13.2904580  75.8340920  32.4877460
  14.1784200  76.1458150  32.3128800  13.2609670  74.9613170  32.0958040
   4.3995670  80.7398330  37.8938330   4.9174340  79.9366590  37.8395220
   3.9479690  80.6777470  38.7355160   9.2865170  82.0064610  33.1665630
   9.6280870  82.7506840  32.6708950   8.4577880  82.3195730  33.5290460
   1.8840210  77.7059700  44.8064030   1.5255150  78.3713550  45.3937370
   1.5894770  76.8743250  45.1776650   5.0853330  78.1643940  47.6903580
   4.7853470  78.3101120  46.7931400   5.8564570  77.6049230  47.5976970
  10.4281780  82.9612940  45.6858710  10.4426320  82.0293900  45.4677620
   9.7206880  83.0472700  46.3248480  15.5618850  77.1452760  31.9557320
  15.4782570  77.5766980  31.1053760  16.2813040  77.6051110  32.3884140
  16.6392990  79.6020280  45.0327290  15.9141180  80.1949060  44.8356680
  17.1668450  79.5943820  44.2340660  16.5906100  83.9995020  34.6839450
  15.9482260  83.3450640  34.9583170  16.2036760  84.4050110  33.9080120
  12.1692580  81.3280450  38.5311140  12.5216400  80.7308580  37.8712510
  11.2854910  81.0024680  38.7019390   8.2555860  82.0878140  35.9381550
   8.9426990  82.6347350  36.3189140   7.4688280  82.6318870  35.9731160
   7.5583070  79.0924170  35.5506910   8.0145850  79.9029420  35.7767100
   7.2071280  78.7747310  36.3825400   9.8615680  84.6030510  42.7799210
  10.5057900  84.8089890  43.4572630  10.2245120  83.8418910  42.3270060
   3.4594850  69.4361820  36.0229430   3.3309480  69.4279720  36.9714350
   2.6356870  69.7744910  35.6720440  11.1347760  82.6062860  41.4976660
  11.7769990  81.9056020  41.6108830  11.6597110  83.3861300  41.3173550
  14.9803480  82.8911480  31.2215800  14.7541060  82.1741920  31.8140440
  14.5899680  82.6423920  30.3837550  12.9085380  83.4057760  44.7012720
  13.2441620  83.9924450  45.3790640  11.9885720  83.2750470  44.9310510
  14.5619730  80.8083420  32.8829960  14.2741430  81.2696110  33.6707840
  15.3571900  80.3481190  33.1514180   8.7373960  83.4549090  47.8700780
   8.4170830  82.7358330  48.4146470   8.0632320  84.1304160  47.9436840
   6.7788130  84.3009540  32.8133930   6.7698230  85.0339230  32.1978440
   5.8586490  84.0541120  32.9060890   2.3794770  79.5224430  33.5580690
   1.7722720  80.2623330  33.5675990   2.8544120  79.6123790  32.7318890
  11.9527560  73.6875250  43.2337580  12.3208380  72.8670460  43.5617150
  11.0925760  73.7477140  43.6493230  15.3189590  72.6432190  34.0425140
  14.6902750  72.7477860  33.3283370  14.8241510  72.8628970  34.8319020
   9.7647730  84.3637780  31.4759120   9.8659710  84.1601770  30.5461100
   8.8649470  84.1096060  31.6806900   7.2873620  74.9218140  35.4583020
   6.5789770  75.3904480  35.8996630   7.5718100  74.2640150  36.0928210
   8.9129550  76.3414840  43.4575550   9.4114800  76.8160660  44.1227400
   9.0552500  75.4178360  43.6645580  11.3189050  71.6468800  36.8978810
  11.1956830  71.6654930  35.9488320  12.2673610  71.6947740  37.0177210
   8.4065840  86.8824100  36.1706790   8.6607340  86.8445490  35.2486160
   7.4578320  86.7557430  36.1635040   5.4908640  73.2303220  32.8333730
   6.3399170  73.6673370  32.7673920   5.1239910  73.5423480  33.6605790
  16.1196410  72.5582800  44.3003940  15.6170010  73.2988200  44.6397750
  16.9353070  72.9466800  43.9840730  14.4118420  77.8015980  37.7465300
  13.4708560  77.8166210  37.9212990  14.7262490  77.0151940  38.1925600
   4.3900060  79.4835580  31.3069260   5.1563330  79.3716940  31.8694690
   4.4674750  78.7873550  30.6546030   3.0846820  76.9160650  31.9902150
   3.1650410  75.9688160  32.1019550   3.9766570  77.2467530  32.0962810
  16.4144000  84.9724830  39.4219560  16.5391420  85.7956000  39.8943370
  17.2809560  84.7615560  39.0743710   3.8861530  87.0656040  39.0936690
   4.6224010  86.5171500  39.3645260   4.2702450  87.9312050  38.9542680
   2.8919810  86.2502110  48.2822270   3.6932540  86.5714160  48.6957670
   2.3771630  85.8897690  49.0042180   6.9963840  86.2386350  30.9162260
   7.7892450  86.5275180  30.4644050   6.4768190  85.8078520  30.2374740
  11.7284440  82.3581980  48.2297680  11.1222600  82.3813580  47.4893430
  11.4238550  81.6265020  48.7664930  13.1584810  86.0862270  46.8407090
  14.1106560  86.0020290  46.7907330  13.0113030  86.7503980  47.5140880
  16.0494010  85.4656480  32.3399000  15.7635520  85.0521620  31.5253180
  15.8513560  86.3944190  32.2199520   7.5141240  81.4589760  30.7804610
   7.4091880  80.8442110  31.5065990   7.3465460  80.9355650  29.9967620
   7.6655560  80.1446560  46.7593840   6.9001230  80.7131560  46.6748510
   7.8471520  79.8522770  45.8662070  10.7543970  80.5209790  31.3846600
  10.2054070  80.9679090  32.0289340  11.3763230  80.0159040  31.9084270
  14.8078910  81.8751890  47.3168860  15.5488380  82.2127650  46.8136320
  14.0451590  82.0443950  46.7638630   2.6440700  76.8805160  48.1208390
   2.6846040  76.5819030  49.0293620   3.4986200  77.2812770  47.9615910
   6.4219090  79.4800710  33.2811900   6.8435510  79.3140580  34.1243290
   6.5469930  78.6700940  32.7867040   4.5846510  75.4597260  46.0882880
   4.0542970  74.9688210  45.4606220   5.2534580  75.8881460  45.5540810
   8.9346730  78.5038320  30.5289000   9.4552390  77.7887340  30.1630150
   9.5815130  79.1424190  30.8289510  13.4824570  79.9266720  45.8524070
  13.8965590  80.0811800  46.7014490  12.5475570  80.0521940  46.0149850
  13.9546740  77.2662880  47.8563220  14.5367510  76.5115200  47.7683700
  14.1308510  77.7970320  47.0794700   5.0718810  72.4259630  46.1680170
   4.9775680  71.8080380  45.4431040   4.4916200  73.1525920  45.9410080
   7.8380250  70.9832870  43.2007560   7.3897550  71.0057130  42.3553110
   7.2045450  70.5851890  43.7977860   8.2439800  79.8787200  43.8220000
   8.6627910  80.7219930  43.6496240   7.3248430  80.0159240  43.5926780
  10.5803700  77.6103380  45.2057840  10.6999910  77.0144520  45.9452680
  11.4397700  77.6473070  44.7859140  12.9191600  78.1640570  43.7820350
  12.3926820  78.6883190  43.1785490  13.2622940  78.7967960  44.4130080
   5.3177990  75.5533940  30.2270060   5.1167050  74.6901300  30.5883400
   5.1470040  75.4667300  29.2891660   6.0947220  86.1840210  44.9377730
   5.5568310  86.9086270  44.6186430   6.3481180  85.7070550  44.1475070
   7.3472470  74.1524730  46.4633660   7.9372160  73.8440580  47.1511480
   6.5292710  73.6804480  46.6193560  12.1665900  73.7690540  46.6966680
  11.4781420  73.1072080  46.6316670  12.8871920  73.3228810  47.1415140
  12.7966300  70.3642170  32.7556940  13.0768590  69.5210070  33.1116360
  12.0232030  70.5965280  33.2695690   4.1160790  72.6534560  30.2147940
   4.4186690  72.6601990  29.3067090   4.8555380  72.3032420  30.7115600
   8.9509430  87.4191420  45.1964380   8.8768130  88.3226560  45.5036750
   8.0488270  87.1003320  45.1686450   7.3345720  71.5969180  31.2004140
   6.9867720  70.9193170  30.6206590   7.5358490  71.1358690  32.0147530
   9.4994760  86.5849930  32.8190740  10.3945550  86.9234900  32.8409500
   9.5312390  85.8629340  32.1915020   3.1390920  81.9576980  31.0477740
   3.5765790  82.5006650  31.7035320   3.6238650  81.1323930  31.0574080
   4.9498640  83.0775020  36.1599970   4.6494180  82.9539990  37.0603880
   4.8436130  82.2183610  35.7515700  16.4789110  85.1153600  45.5256940
  15.8791100  85.1746160  44.7820860  16.6083010  84.1758580  45.6553790
  17.7190560  82.8571420  30.8626650  16.8883520  82.9248070  31.3333880
  17.8962390  83.7475540  30.5593510  17.1747020  79.6018900  33.3660850
  17.9365930  80.1715550  33.4720540  17.1901390  79.0346100  34.1369160
  18.1806990  80.4569000  38.2102780  18.5515820  79.6736320  37.8038750
  18.8208920  81.1458100  38.0320080  15.1640750  81.8405580  43.6233100
  14.3500590  82.2702740  43.8858890  15.5714950  82.4523990  43.0102150
  17.2266190  79.8953270  30.5233370  17.5015030  80.8032150  30.3952590
  17.0376930  79.8315800  31.4595360  13.6241800  72.9198120  31.8187000
  14.0426680  72.7329100  30.9783660  13.3177860  72.0677170  32.1289930
  17.1231530  77.8322260  35.5162800  16.7475130  77.0650190  35.0844090
  16.3934650  78.2144960  36.0037730  16.5131150  76.9793780  45.1502320
  16.2817240  76.7506530  44.2500270  16.7735700  77.8993330  45.1047210
  14.9519220  72.2050210  47.9282020  15.8289400  72.2133610  48.3116020
  14.9640060  71.4681050  47.3174370  16.3982490  76.0579750  38.8170040
  16.9219970  75.5642400  38.1860210  16.9841910  76.1930110  39.5617610
  16.5772210  76.1419620  42.3389590  15.6274920  76.1083160  42.4534580
  16.7585220  77.0519730  42.1039360   2.4316650  74.3921300  31.4488220
   3.1408350  73.9704520  30.9635500   1.7156590  74.4596530  30.8171570
   2.0790810  70.4460630  30.4890870   2.8018940  70.9869570  30.8072090
   2.3515330  70.1724050  29.6132410  15.8882460  75.3153100  34.7562450
  16.3841580  75.0823970  35.5411330  15.6898530  74.4764940  34.3400090
   1.7683000  69.6966820  40.3913490   2.4159190  69.1464200  39.9508650
   2.1884840  69.9509970  41.2129300  17.3169620  73.9514050  37.2900130
  17.2068900  73.7970090  38.2282400  18.0777210  73.4234990  37.0475540
  15.6635340  69.8908180  43.7483130  16.3007560  70.5042320  44.1142320
  15.8110230  69.9268840  42.8032360  18.2059890  71.7821970  30.5306270
  19.1309200  71.6503150  30.3224560  18.1835680  71.8614790  31.4842720
  18.2798380  72.5532630  33.1562980  17.4849880  72.4877750  33.6855890
  18.4841660  73.4883270  33.1448330  15.2216800  86.5924180  37.1501370
  15.8175870  86.2708750  36.4735790  15.4794950  86.1196000  37.9414640
   3.1279370  83.0242090  47.2992000   3.0849000  82.6535000  48.1806460
   3.2590380  83.9619660  47.4393820   6.8285400  84.5801680  42.9001720
   6.5876760  84.8476240  42.0132240   7.7688040  84.7507410  42.9552580
   9.0339820  71.0434370  46.6558230   8.9728710  71.6356200  47.4053640
   9.9740200  70.9360330  46.5108490  11.6714380  70.7004430  46.2950520
  12.2854790  71.0183720  45.6331600  12.2163940  70.2153020  46.9146380
  18.0889560  86.5996060  43.7012360  17.5947840  86.9964930  42.9839490
  17.4802850  85.9745270  44.0949640   2.1935640  69.3798690  46.4089580
   2.7418630  69.1986740  45.6455690   2.2590950  68.5892800  46.9445890
   2.9667400  85.9704340  44.4189780   2.3727720  85.8389040  45.1579820
   2.9591240  85.1342480  43.9531880  12.4122420  69.2636570  42.6219810
  11.5382260  69.5971680  42.4192740  12.3033170  68.7909750  43.4471680
  13.3194400  71.4707440  44.0061530  12.9907760  70.6559200  43.6263260
  14.2676700  71.4277250  43.8827220  15.7729010  87.2419480  40.9799100
  15.3131980  87.9935290  40.6057120  15.1441470  86.5225950  40.9213900
   2.5979630  83.3362720  43.3697820   1.8713690  82.7168010  43.3023770
   2.6588780  83.7303330  42.4995900   6.2024730  85.5507720  40.1547230
   6.7189750  84.9395080  39.6295490   6.8522110  86.0536500  40.6458240
   8.9420230  86.4416210  40.9816210   9.2298040  86.1870510  40.1049220
   9.4543450  85.8893570  41.5721780  10.1597240  70.1806410  41.5612720
   9.3769030  70.6551910  41.8409480   9.8660170  69.2761240  41.4525900
  14.7118310  70.8829510  39.6061810  15.1526400  70.8274610  38.7583410
  14.4425900  71.7987520  39.6771990  16.5756880  70.5144750  37.6170630
  16.5145280  69.5705970  37.4701650  17.3548910  70.6224840  38.1624090
   8.0451460  72.5993160  37.0728750   7.2325970  72.2250050  36.7324630
   8.5493100  71.8438240  37.3749940  12.5476440  69.2635610  38.3111820
  13.1505810  69.8355820  38.7860340  11.8069430  69.8275050  38.0885720
  15.6911040  69.6657170  33.5852100  15.8861670  70.5640620  33.8519530
  14.9040910  69.4344250  34.0785050   2.4872330  85.3470340  34.0244720
   1.9619950  85.7278370  33.3206680   2.4116910  85.9721110  34.7454430
   3.8762800  71.0117940  32.6228410   4.4055560  70.2247740  32.4936360
   4.5091120  71.6909130  32.8563940   6.0700640  70.7493080  35.6773800
   5.4403380  70.0480390  35.8443930   5.5305780  71.5097210  35.4606960
   9.0092590  87.3632310  48.3484410   9.9359900  87.1276580  48.3920370
   8.9943020  88.1904310  47.8670440  17.2437650  86.9057880  35.3458660
  17.4189840  86.2195620  34.7019580  16.5459220  87.4304930  34.9535330
   6.1956200  70.0277060  48.1126290   5.9140470  70.5310660  47.3487110
   6.5775900  69.2298810  47.7468420   5.0865300  87.2952720  32.8993970
   5.8184120  87.0112000  32.3517860   5.3458970  87.0566000  33.7893350
   4.2480090  83.4117450  32.9040300   3.6188970  83.8802550  33.4526130
   4.3627920  82.5666670  33.3386490  12.7971660  69.4430640  48.6906760
  12.6837110  69.7625250  49.5858280  13.6141400  69.8443150  48.3944040
  15.5770150  86.5902170  48.1725450  16.3695470  86.0951400  47.9651410
  15.8703300  87.2692310  48.7801060  11.7029810  77.4623110  19.0541500
  11.6223860  76.5477720  18.7833210  11.2894230  77.9590180  18.3481210
   9.8347850  79.2402130  20.9350770   9.0589950  78.7602570  21.2249340
  10.4860780  78.5607780  20.7606930   3.8513680  79.5521940  21.8126530
   3.0198560  79.2970650  22.2123040   4.4594660  79.6232710  22.5484450
  13.8555280  83.6462320  19.7149900  13.3936810  82.8749560  20.0437070
  14.6680830  83.6728390  20.2202350   3.8314940  83.5862030  22.0084550
   4.1342980  82.6959770  21.8294770   4.5758530  84.1432250  21.7806800
  10.0818590  85.9320330  19.3353890   9.4630030  86.3877830  18.7648330
  10.9370370  86.0871790  18.9343590   9.2756840  81.9159320  20.9420930
   9.2065120  80.9749260  20.7810060  10.0376700  82.0060730  21.5143500
  10.3062010  74.7229700  21.1689860  10.6826830  73.8501580  21.0563530
  10.2081520  75.0588400  20.2780300   4.4367020  73.0955330  16.6307300
   4.5433770  73.9959060  16.9376060   3.5259380  73.0473300  16.3401950
  14.0886130  72.2180140  18.1018200  14.9095750  71.7276710  18.1443680
  14.1220210  72.8077800  18.8550040   2.0850180  75.0174340  21.8759890
   2.7660290  75.2812710  22.4947290   1.7698230  74.1775210  22.2097900
   6.2774750  76.0641700  20.9632480   6.7852970  76.5622670  21.6037500
   6.8087990  75.2876900  20.7871840  18.3785680  74.2346890  24.6661830
  17.6737850  74.6228600  24.1476940  18.6443600  74.9297180  25.2682760
   4.5610850  70.7040260  25.2295900   4.5629290  71.2212650  24.4241800
   3.7315160  70.2270440  25.2065830  10.9481940  80.8159570  16.7285800
  10.3299210  81.2809020  16.1648520  11.4605190  81.5087050  17.1455310
   5.8113700  80.3435440  23.4069400   5.4783080  80.9704360  24.0490470
   5.9880380  80.8697320  22.6271070  14.3247610  74.1580520  20.8745740
  13.6203180  74.4465410  21.4548850  14.6859770  74.9680630  20.5145300
   4.2426180  72.4150220  23.2366350   4.5842990  73.2592270  22.9420220
   3.3041990  72.5633960  23.3531690   5.0232800  82.3116240  25.2218580
   5.6406800  82.9867320  24.9403030   4.1625920  82.7204220  25.1306080
  15.9410390  83.7755650  23.1373220  15.2573910  84.4454760  23.1289890
  16.4804680  83.9736300  22.3718080  17.3934530  73.6035310  21.2654950
  16.4459440  73.6374290  21.3970380  17.7184520  74.4174260  21.6504310
   7.9254070  69.9032490  19.5610940   8.2329050  69.3479380  18.8446440
   6.9954770  70.0376950  19.3783930  13.4769130  85.6199780  21.8518400
  13.4896290  85.2162070  20.9840660  12.9244350  86.3947070  21.7479830
  14.7714550  82.3416000  16.9408570  14.6610880  81.3990330  17.0657990
  14.7682800  82.7031640  17.8271330  12.8754570  80.5229620  23.1801010
  13.2923360  80.3089730  22.3454470  13.5994390  80.7802410  23.7509630
  10.3134830  77.9681320  16.2971060   9.3864110  77.9018700  16.5259530
  10.4659650  78.9061450  16.1826300  10.3003910  74.2398320  13.2938220
   9.3607580  74.4012280  13.3790680  10.6187170  74.9584000  12.7474210
  16.8216670  78.9216840  23.2717250  15.9935300  78.9909930  22.7967380
  17.4167150  79.5071150  22.8033080  14.3432120  79.5301620  16.8006310
  13.7244540  79.1921170  16.1532610  14.3256570  78.8861380  17.5085500
  13.7858680  75.7086160  24.2172120  13.3729860  76.5339870  24.4712110
  13.0534630  75.1231200  24.0248480   5.9191470  78.4946060  19.0790790
   5.5148470  77.7823310  18.5836690   6.0054590  78.1499300  19.9678830
   6.3873170  82.1813620  21.2430000   6.0901460  81.5759090  20.5637780
   7.3372990  82.2190930  21.1319360   4.6320090  75.2689270  22.8589830
   5.1834680  75.3784610  22.0843080   5.1463600  75.6426870  23.5745060
  14.4758780  85.7545490  24.9053100  13.9989340  86.5617680  24.7125710
  13.7920570  85.1023820  25.0579310   5.4791600  81.9195310  27.8937800
   4.5820130  82.1435280  28.1411200   5.5044470  82.0430250  26.9449200
  12.5196820  78.7688430  13.8079060  12.9590100  77.9310860  13.6616880
  13.2325240  79.4017830  13.8943200   4.3062820  78.7908630  26.4695170
   4.1670590  79.6631430  26.8382570   3.4244180  78.4481440  26.3243110
  10.6292200  83.7084500  17.7760300  11.0688110  84.4508830  17.3615690
  10.5679090  83.9511070  18.6999260   6.1043170  84.7330330  28.6780320
   6.0758600  85.1373280  27.8108750   5.9408140  83.8040690  28.5151920
  16.1013960  70.0231240  12.1220100  15.7886620  70.1158070  13.0219170
  16.8626430  70.6012270  12.0717530   2.6196100  77.3891040  16.5797440
   2.4993700  78.1153130  15.9678710   2.3096990  76.6193950  16.1025350
  18.0557990  85.5157430  29.9744490  18.5317710  85.9940320  30.6533570
  18.6765150  85.4474920  29.2489990  17.4591240  82.7070280  27.1344500
  17.5854300  82.4682160  26.2161680  17.5012620  81.8754820  27.6066580
  11.3207980  86.4098280  25.7039310  11.8352650  86.3206290  26.5061740
  10.4777060  86.7557980  25.9967220  13.2962380  86.6953620  15.1323310
  13.1363520  86.4056560  16.0305140  13.1309090  85.9193750  14.5968540
   5.7750760  86.4752150  16.9094930   5.5993240  85.5587690  16.6962730
   4.9206500  86.8339440  17.1492730  12.9988510  84.2041180  13.6921310
  12.3053670  84.2018470  13.0323590  13.7411370  83.7800500  13.2615480
  12.5638440  85.8303890  17.7669800  13.0195390  85.0493270  18.0808420
  12.9030960  86.5410710  18.3110980  17.3115250  74.7602740  28.0994240
  16.6959520  75.2682410  27.5709700  16.9911670  73.8601070  28.0420180
   5.0859760  70.7326110  19.9621110   4.6427910  71.5135650  19.6305630
   5.6444750  71.0556000  20.6692050   9.3729570  73.5994630  25.5656430
   8.9108940  73.8077650  26.3776370   8.9707680  72.7853980  25.2627100
  14.3734080  74.8203580  26.6953090  13.5227670  74.5209330  27.0162160
  14.2135870  75.0645590  25.7836910  11.4683790  76.3205330  28.7951880
  11.7937200  75.4869080  28.4554110  12.2564120  76.8433850  28.9430210
   8.2018580  70.3536810  14.8426940   7.5772760  70.3496680  15.5680250
   8.1148700  69.4867770  14.4462910   7.1235660  71.2773440  21.8210710
   7.4207990  72.1836270  21.7402730   7.6721220  70.7892220  21.2070280
   4.8773980  75.8559680  17.6902360   4.6514900  75.6396850  18.5948980
   4.0966510  76.2888140  17.3448330  12.1071740  75.8623050  16.2893010
  11.5080630  76.5858850  16.1056630  12.6551350  75.7999830  15.5069460
   7.3173190  76.7545260  28.3562630   7.2216790  75.8139990  28.2063030
   8.1605170  76.9760330  27.9610700  10.7136610  74.4986590  18.3196290
  11.1066180  74.8158790  17.5064980  11.0753460  73.6198470  18.4340810
   2.4483730  73.1658930  26.5096410   2.0547120  74.0134140  26.7169190
   1.7602130  72.5285300  26.7005050   9.0228780  73.2493900  29.5793150
   8.3327100  73.0566100  30.2139240   9.7661080  73.5328540  30.1117450
  11.2991750  77.0892340  22.4147070  10.5672870  77.5979150  22.7637170
  10.9016090  76.2722320  22.1135850   7.7369140  73.7646540  20.8199560
   7.7405200  73.3236490  19.9704100   8.6320260  74.0863870  20.9271380
   3.5871520  73.6473030  19.7793770   3.2471570  74.1248260  20.5360820
   2.8248840  73.1938150  19.4194870   7.7989290  74.7658620  13.8106320
   7.9202110  74.7245100  14.7592140   7.4137800  75.6282770  13.6553050
  11.7617660  72.5426020  21.8270010  11.7790400  72.9934670  22.6711860
  11.5133240  71.6431660  22.0403450   6.8110790  77.0759760  13.2089620
   6.2427690  76.6278010  12.5825530   7.5199790  77.4352540  12.6754770
  15.1888410  69.9558200  27.6656390  15.5134180  69.2247860  28.1914370
  15.2244920  69.6371840  26.7637380   8.0377110  77.8248320  22.5664970
   8.4047240  77.3506890  23.3126310   7.8482170  78.6989890  22.9073310
   5.8276480  76.8656960  24.8849180   5.5233550  77.7448940  25.1099540
   6.7822940  76.9256750  24.9206620   4.3558270  81.0717950  15.4816030
   3.5820530  80.5315570  15.3214750   5.0852900  80.5524560  15.1433790
  15.1146250  80.0683310  21.2742420  15.8345370  80.5638600  20.8838530
  14.9128070  79.3901200  20.6296290  10.5756190  71.4621270  15.4171810
   9.7620800  70.9634440  15.3417120  10.3818140  72.3019520  15.0008160
  10.4965050  80.1392370  27.1611420  10.4302360  79.2188040  26.9069010
   9.8670190  80.2367810  27.8756060  13.2904580  75.8340920  13.7133970
  14.1784200  76.1458150  13.5385310  13.2609670  74.9613170  13.3214550
   4.3995670  80.7398330  19.1194840   4.9174340  79.9366590  19.0651730
   3.9479690  80.6777470  19.9611670   9.2865170  82.0064610  14.3922140
   9.6280870  82.7506840  13.8965460   8.4577880  82.3195730  14.7546970
   1.8840210  77.7059700  26.0320540   1.5255150  78.3713550  26.6193880
   1.5894770  76.8743250  26.4033160   5.0853330  78.1643940  28.9160090
   4.7853470  78.3101120  28.0187910   5.8564570  77.6049230  28.8233480
  10.4281780  82.9612940  26.9115220  10.4426320  82.0293900  26.6934130
   9.7206880  83.0472700  27.5504990  15.5618850  77.1452760  13.1813830
  15.4782570  77.5766980  12.3310270  16.2813040  77.6051110  13.6140650
  16.6392990  79.6020280  26.2583800  15.9141180  80.1949060  26.0613190
  17.1668450  79.5943820  25.4597170  16.5906100  83.9995020  15.9095960
  15.9482260  83.3450640  16.1839680  16.2036760  84.4050110  15.1336630
  12.1692580  81.3280450  19.7567650  12.5216400  80.7308580  19.0969020
  11.2854910  81.0024680  19.9275900   8.2555860  82.0878140  17.1638060
   8.9426990  82.6347350  17.5445650   7.4688280  82.6318870  17.1987670
   7.5583070  79.0924170  16.7763420   8.0145850  79.9029420  17.0023610
   7.2071280  78.7747310  17.6081910   9.8615680  84.6030510  24.0055720
  10.5057900  84.8089890  24.6829140  10.2245120  83.8418910  23.5526570
   3.4594850  69.4361820  17.2485940   3.3309480  69.4279720  18.1970860
   2.6356870  69.7744910  16.8976950  11.1347760  82.6062860  22.7233170
  11.7769990  81.9056020  22.8365340  11.6597110  83.3861300  22.5430060
  14.9803480  82.8911480  12.4472310  14.7541060  82.1741920  13.0396950
  14.5899680  82.6423920  11.6094060  12.9085380  83.4057760  25.9269230
  13.2441620  83.9924450  26.6047150  11.9885720  83.2750470  26.1567020
  14.5619730  80.8083420  14.1086470  14.2741430  81.2696110  14.8964350
  15.3571900  80.3481190  14.3770690   8.7373960  83.4549090  29.0957290
   8.4170830  82.7358330  29.6402980   8.0632320  84.1304160  29.1693350
   6.7788130  84.3009540  14.0390440   6.7698230  85.0339230  13.4234950
   5.8586490  84.0541120  14.1317400   2.3794770  79.5224430  14.7837200
   1.7722720  80.2623330  14.7932500   2.8544120  79.6123790  13.9575400
  11.9527560  73.6875250  24.4594090  12.3208380  72.8670460  24.7873660
  11.0925760  73.7477140  24.8749740  15.3189590  72.6432190  15.2681650
  14.6902750  72.7477860  14.5539880  14.8241510  72.8628970  16.0575530
   9.7647730  84.3637780  12.7015630   9.8659710  84.1601770  11.7717610
   8.8649470  84.1096060  12.9063410   7.2873620  74.9218140  16.6839530
   6.5789770  75.3904480  17.1253140   7.5718100  74.2640150  17.3184720
   8.9129550  76.3414840  24.6832060   9.4114800  76.8160660  25.3483910
   9.0552500  75.4178360  24.8902090  11.3189050  71.6468800  18.1235320
  11.1956830  71.6654930  17.1744830  12.2673610  71.6947740  18.2433720
   8.4065840  86.8824100  17.3963300   8.6607340  86.8445490  16.4742670
   7.4578320  86.7557430  17.3891550   5.4908640  73.2303220  14.0590240
   6.3399170  73.6673370  13.9930430   5.1239910  73.5423480  14.8862300
  16.1196410  72.5582800  25.5260450  15.6170010  73.2988200  25.8654260
  16.9353070  72.9466800  25.2097240  14.4118420  77.8015980  18.9721810
  13.4708560  77.8166210  19.1469500  14.7262490  77.0151940  19.4182110
   4.3900060  79.4835580  12.5325770   5.1563330  79.3716940  13.0951200
   4.4674750  78.7873550  11.8802540   3.0846820  76.9160650  13.2158660
   3.1650410  75.9688160  13.3276060   3.9766570  77.2467530  13.3219320
  16.4144000  84.9724830  20.6476070  16.5391420  85.7956000  21.1199880
  17.2809560  84.7615560  20.3000220   3.8861530  87.0656040  20.3193200
   4.6224010  86.5171500  20.5901770   4.2702450  87.9312050  20.1799190
   2.8919810  86.2502110  29.5078780   3.6932540  86.5714160  29.9214180
   2.3771630  85.8897690  30.2298690   6.9963840  86.2386350  12.1418770
   7.7892450  86.5275180  11.6900560   6.4768190  85.8078520  11.4631250
  11.7284440  82.3581980  29.4554190  11.1222600  82.3813580  28.7149940
  11.4238550  81.6265020  29.9921440  13.1584810  86.0862270  28.0663600
  14.1106560  86.0020290  28.0163840  13.0113030  86.7503980  28.7397390
  16.0494010  85.4656480  13.5655510  15.7635520  85.0521620  12.7509690
  15.8513560  86.3944190  13.4456030   7.5141240  81.4589760  12.0061120
   7.4091880  80.8442110  12.7322500   7.3465460  80.9355650  11.2224130
   7.6655560  80.1446560  27.9850350   6.9001230  80.7131560  27.9005020
   7.8471520  79.8522770  27.0918580  10.7543970  80.5209790  12.6103110
  10.2054070  80.9679090  13.2545850  11.3763230  80.0159040  13.1340780
  14.8078910  81.8751890  28.5425370  15.5488380  82.2127650  28.0392830
  14.0451590  82.0443950  27.9895140   2.6440700  76.8805160  29.3464900
   2.6846040  76.5819030  30.2550130   3.4986200  77.2812770  29.1872420
   6.4219090  79.4800710  14.5068410   6.8435510  79.3140580  15.3499800
   6.5469930  78.6700940  14.0123550   4.5846510  75.4597260  27.3139390
   4.0542970  74.9688210  26.6862730   5.2534580  75.8881460  26.7797320
   8.9346730  78.5038320  11.7545510   9.4552390  77.7887340  11.3886660
   9.5815130  79.1424190  12.0546020  13.4824570  79.9266720  27.0780580
  13.8965590  80.0811800  27.9271000  12.5475570  80.0521940  27.2406360
  13.9546740  77.2662880  29.0819730  14.5367510  76.5115200  28.9940210
  14.1308510  77.7970320  28.3051210   5.0718810  72.4259630  27.3936680
   4.9775680  71.8080380  26.6687550   4.4916200  73.1525920  27.1666590
   7.8380250  70.9832870  24.4264070   7.3897550  71.0057130  23.5809620
   7.2045450  70.5851890  25.0234370   8.2439800  79.8787200  25.0476510
   8.6627910  80.7219930  24.8752750   7.3248430  80.0159240  24.8183290
  10.5803700  77.6103380  26.4314350  10.6999910  77.0144520  27.1709190
  11.4397700  77.6473070  26.0115650  12.9191600  78.1640570  25.0076860
  12.3926820  78.6883190  24.4042000  13.2622940  78.7967960  25.6386590
   5.3177990  75.5533940  11.4526570   5.1167050  74.6901300  11.8139910
   5.1470040  75.4667300  10.5148170   6.0947220  86.1840210  26.1634240
   5.5568310  86.9086270  25.8442940   6.3481180  85.7070550  25.3731580
   7.3472470  74.1524730  27.6890170   7.9372160  73.8440580  28.3767990
   6.5292710  73.6804480  27.8450070  12.1665900  73.7690540  27.9223190
  11.4781420  73.1072080  27.8573180  12.8871920  73.3228810  28.3671650
  12.7966300  70.3642170  13.9813450  13.0768590  69.5210070  14.3372870
  12.0232030  70.5965280  14.4952200   4.1160790  72.6534560  11.4404450
   4.4186690  72.6601990  10.5323600   4.8555380  72.3032420  11.9372110
   8.9509430  87.4191420  26.4220890   8.8768130  88.3226560  26.7293260
   8.0488270  87.1003320  26.3942960   7.3345720  71.5969180  12.4260650
   6.9867720  70.9193170  11.8463100   7.5358490  71.1358690  13.2404040
   9.4994760  86.5849930  14.0447250  10.3945550  86.9234900  14.0666010
   9.5312390  85.8629340  13.4171530   3.1390920  81.9576980  12.2734250
   3.5765790  82.5006650  12.9291830   3.6238650  81.1323930  12.2830590
   4.9498640  83.0775020  17.3856480   4.6494180  82.9539990  18.2860390
   4.8436130  82.2183610  16.9772210  16.4789110  85.1153600  26.7513450
  15.8791100  85.1746160  26.0077370  16.6083010  84.1758580  26.8810300
  17.7190560  82.8571420  12.0883160  16.8883520  82.9248070  12.5590390
  17.8962390  83.7475540  11.7850020  17.1747020  79.6018900  14.5917360
  17.9365930  80.1715550  14.6977050  17.1901390  79.0346100  15.3625670
  18.1806990  80.4569000  19.4359290  18.5515820  79.6736320  19.0295260
  18.8208920  81.1458100  19.2576590  15.1640750  81.8405580  24.8489610
  14.3500590  82.2702740  25.1115400  15.5714950  82.4523990  24.2358660
  17.2266190  79.8953270  11.7489880  17.5015030  80.8032150  11.6209100
  17.0376930  79.8315800  12.6851870  13.6241800  72.9198120  13.0443510
  14.0426680  72.7329100  12.2040170  13.3177860  72.0677170  13.3546440
  17.1231530  77.8322260  16.7419310  16.7475130  77.0650190  16.3100600
  16.3934650  78.2144960  17.2294240  16.5131150  76.9793780  26.3758830
  16.2817240  76.7506530  25.4756780  16.7735700  77.8993330  26.3303720
  14.9519220  72.2050210  29.1538530  15.8289400  72.2133610  29.5372530
  14.9640060  71.4681050  28.5430880  16.3982490  76.0579750  20.0426550
  16.9219970  75.5642400  19.4116720  16.9841910  76.1930110  20.7874120
  16.5772210  76.1419620  23.5646100  15.6274920  76.1083160  23.6791090
  16.7585220  77.0519730  23.3295870   2.4316650  74.3921300  12.6744730
   3.1408350  73.9704520  12.1892010   1.7156590  74.4596530  12.0428080
   2.0790810  70.4460630  11.7147380   2.8018940  70.9869570  12.0328600
   2.3515330  70.1724050  10.8388920  15.8882460  75.3153100  15.9818960
  16.3841580  75.0823970  16.7667840  15.6898530  74.4764940  15.5656600
   1.7683000  69.6966820  21.6170000   2.4159190  69.1464200  21.1765160
   2.1884840  69.9509970  22.4385810  17.3169620  73.9514050  18.5156640
  17.2068900  73.7970090  19.4538910  18.0777210  73.4234990  18.2732050
  15.6635340  69.8908180  24.9739640  16.3007560  70.5042320  25.3398830
  15.8110230  69.9268840  24.0288870  18.2059890  71.7821970  11.7562780
  19.1309200  71.6503150  11.5481070  18.1835680  71.8614790  12.7099230
  18.2798380  72.5532630  14.3819490  17.4849880  72.4877750  14.9112400
  18.4841660  73.4883270  14.3704840  15.2216800  86.5924180  18.3757880
  15.8175870  86.2708750  17.6992300  15.4794950  86.1196000  19.1671150
   3.1279370  83.0242090  28.5248510   3.0849000  82.6535000  29.4062970
   3.2590380  83.9619660  28.6650330   6.8285400  84.5801680  24.1258230
   6.5876760  84.8476240  23.2388750   7.7688040  84.7507410  24.1809090
   9.0339820  71.0434370  27.8814740   8.9728710  71.6356200  28.6310150
   9.9740200  70.9360330  27.7365000  11.6714380  70.7004430  27.5207030
  12.2854790  71.0183720  26.8588110  12.2163940  70.2153020  28.1402890
  18.0889560  86.5996060  24.9268870  17.5947840  86.9964930  24.2096000
  17.4802850  85.9745270  25.3206150   2.1935640  69.3798690  27.6346090
   2.7418630  69.1986740  26.8712200   2.2590950  68.5892800  28.1702400
   2.9667400  85.9704340  25.6446290   2.3727720  85.8389040  26.3836330
   2.9591240  85.1342480  25.1788390  12.4122420  69.2636570  23.8476320
  11.5382260  69.5971680  23.6449250  12.3033170  68.7909750  24.6728190
  13.3194400  71.4707440  25.2318040  12.9907760  70.6559200  24.8519770
  14.2676700  71.4277250  25.1083730  15.7729010  87.2419480  22.2055610
  15.3131980  87.9935290  21.8313630  15.1441470  86.5225950  22.1470410
   2.5979630  83.3362720  24.5954330   1.8713690  82.7168010  24.5280280
   2.6588780  83.7303330  23.7252410   6.2024730  85.5507720  21.3803740
   6.7189750  84.9395080  20.8552000   6.8522110  86.0536500  21.8714750
   8.9420230  86.4416210  22.2072720   9.2298040  86.1870510  21.3305730
   9.4543450  85.8893570  22.7978290  10.1597240  70.1806410  22.7869230
   9.3769030  70.6551910  23.0665990   9.8660170  69.2761240  22.6782410
  14.7118310  70.8829510  20.8318320  15.1526400  70.8274610  19.9839920
  14.4425900  71.7987520  20.9028500  16.5756880  70.5144750  18.8427140
  16.5145280  69.5705970  18.6958160  17.3548910  70.6224840  19.3880600
   8.0451460  72.5993160  18.2985260   7.2325970  72.2250050  17.9581140
   8.5493100  71.8438240  18.6006450  12.5476440  69.2635610  19.5368330
  13.1505810  69.8355820  20.0116850  11.8069430  69.8275050  19.3142230
  15.6911040  69.6657170  14.8108610  15.8861670  70.5640620  15.0776040
  14.9040910  69.4344250  15.3041560   2.4872330  85.3470340  15.2501230
   1.9619950  85.7278370  14.5463190   2.4116910  85.9721110  15.9710940
   3.8762800  71.0117940  13.8484920   4.4055560  70.2247740  13.7192870
   4.5091120  71.6909130  14.0820450   6.0700640  70.7493080  16.9030310
   5.4403380  70.0480390  17.0700440   5.5305780  71.5097210  16.6863470
   9.0092590  87.3632310  29.5740920   9.9359900  87.1276580  29.6176880
   8.9943020  88.1904310  29.0926950  17.2437650  86.9057880  16.5715170
  17.4189840  86.2195620  15.9276090  16.5459220  87.4304930  16.1791840
   6.1956200  70.0277060  29.3382800   5.9140470  70.5310660  28.5743620
   6.5775900  69.2298810  28.9724930   5.0865300  87.2952720  14.1250480
   5.8184120  87.0112000  13.5774370   5.3458970  87.0566000  15.0149860
   4.2480090  83.4117450  14.1296810   3.6188970  83.8802550  14.6782640
   4.3627920  82.5666670  14.5643000  12.7971660  69.4430640  29.9163270
  12.6837110  69.7625250  30.8114790  13.6141400  69.8443150  29.6200550
  15.5770150  86.5902170  29.3981960  16.3695470  86.0951400  29.1907920
  15.8703300  87.2692310  30.0057570   9.8347850  79.2402130   2.1607280
   9.0589950  78.7602570   2.4505850  10.4860780  78.5607780   1.9863440
   3.8513680  79.5521940   3.0383040   3.0198560  79.2970650   3.4379550
   4.4594660  79.6232710   3.7740960   3.8314940  83.5862030   3.2341060
   4.1342980  82.6959770   3.0551280   4.5758530  84.1432250   3.0063310
   9.2756840  81.9159320   2.1677440   9.2065120  80.9749260   2.0066570
  10.0376700  82.0060730   2.7400010  10.3062010  74.7229700   2.3946370
  10.6826830  73.8501580   2.2820040  10.2081520  75.0588400   1.5036810
   2.0850180  75.0174340   3.1016400   2.7660290  75.2812710   3.7203800
   1.7698230  74.1775210   3.4354410   6.2774750  76.0641700   2.1888990
   6.7852970  76.5622670   2.8294010   6.8087990  75.2876900   2.0128350
  18.3785680  74.2346890   5.8918340  17.6737850  74.6228600   5.3733450
  18.6443600  74.9297180   6.4939270   4.5610850  70.7040260   6.4552410
   4.5629290  71.2212650   5.6498310   3.7315160  70.2270440   6.4322340
   5.8113700  80.3435440   4.6325910   5.4783080  80.9704360   5.2746980
   5.9880380  80.8697320   3.8527580  14.3247610  74.1580520   2.1002250
  13.6203180  74.4465410   2.6805360  14.6859770  74.9680630   1.7401810
   4.2426180  72.4150220   4.4622860   4.5842990  73.2592270   4.1676730
   3.3041990  72.5633960   4.5788200   5.0232800  82.3116240   6.4475090
   5.6406800  82.9867320   6.1659540   4.1625920  82.7204220   6.3562590
  15.9410390  83.7755650   4.3629730  15.2573910  84.4454760   4.3546400
  16.4804680  83.9736300   3.5974590  17.3934530  73.6035310   2.4911460
  16.4459440  73.6374290   2.6226890  17.7184520  74.4174260   2.8760820
  13.4769130  85.6199780   3.0774910  13.4896290  85.2162070   2.2097170
  12.9244350  86.3947070   2.9736340  12.8754570  80.5229620   4.4057520
  13.2923360  80.3089730   3.5710980  13.5994390  80.7802410   4.9766140
  16.8216670  78.9216840   4.4973760  15.9935300  78.9909930   4.0223890
  17.4167150  79.5071150   4.0289590  13.7858680  75.7086160   5.4428630
  13.3729860  76.5339870   5.6968620  13.0534630  75.1231200   5.2504990
   6.3873170  82.1813620   2.4686510   6.0901460  81.5759090   1.7894290
   7.3372990  82.2190930   2.3575870   4.6320090  75.2689270   4.0846340
   5.1834680  75.3784610   3.3099590   5.1463600  75.6426870   4.8001570
  14.4758780  85.7545490   6.1309610  13.9989340  86.5617680   5.9382220
  13.7920570  85.1023820   6.2835820   5.4791600  81.9195310   9.1194310
   4.5820130  82.1435280   9.3667710   5.5044470  82.0430250   8.1705710
   4.3062820  78.7908630   7.6951680   4.1670590  79.6631430   8.0639080
   3.4244180  78.4481440   7.5499620   6.1043170  84.7330330   9.9036830
   6.0758600  85.1373280   9.0365260   5.9408140  83.8040690   9.7408430
  18.0557990  85.5157430  11.2001000  18.5317710  85.9940320  11.8790080
  18.6765150  85.4474920  10.4746500  17.4591240  82.7070280   8.3601010
  17.5854300  82.4682160   7.4418190  17.5012620  81.8754820   8.8323090
  11.3207980  86.4098280   6.9295820  11.8352650  86.3206290   7.7318250
  10.4777060  86.7557980   7.2223730  17.3115250  74.7602740   9.3250750
  16.6959520  75.2682410   8.7966210  16.9911670  73.8601070   9.2676690
   9.3729570  73.5994630   6.7912940   8.9108940  73.8077650   7.6032880
   8.9707680  72.7853980   6.4883610  14.3734080  74.8203580   7.9209600
  13.5227670  74.5209330   8.2418670  14.2135870  75.0645590   7.0093420
  11.4683790  76.3205330  10.0208390  11.7937200  75.4869080   9.6810620
  12.2564120  76.8433850  10.1686720   7.1235660  71.2773440   3.0467220
   7.4207990  72.1836270   2.9659240   7.6721220  70.7892220   2.4326790
   7.3173190  76.7545260   9.5819140   7.2216790  75.8139990   9.4319540
   8.1605170  76.9760330   9.1867210   2.4483730  73.1658930   7.7352920
   2.0547120  74.0134140   7.9425700   1.7602130  72.5285300   7.9261560
   9.0228780  73.2493900  10.8049660   8.3327100  73.0566100  11.4395750
   9.7661080  73.5328540  11.3373960  11.2991750  77.0892340   3.6403580
  10.5672870  77.5979150   3.9893680  10.9016090  76.2722320   3.3392360
  11.7617660  72.5426020   3.0526520  11.7790400  72.9934670   3.8968370
  11.5133240  71.6431660   3.2659960  15.1888410  69.9558200   8.8912900
  15.5134180  69.2247860   9.4170880  15.2244920  69.6371840   7.9893890
   8.0377110  77.8248320   3.7921480   8.4047240  77.3506890   4.5382820
   7.8482170  78.6989890   4.1329820   5.8276480  76.8656960   6.1105690
   5.5233550  77.7448940   6.3356050   6.7822940  76.9256750   6.1463130
  15.1146250  80.0683310   2.4998930  15.8345370  80.5638600   2.1095040
  14.9128070  79.3901200   1.8552800  10.4965050  80.1392370   8.3867930
  10.4302360  79.2188040   8.1325520   9.8670190  80.2367810   9.1012570
   1.8840210  77.7059700   7.2577050   1.5255150  78.3713550   7.8450390
   1.5894770  76.8743250   7.6289670   5.0853330  78.1643940  10.1416600
   4.7853470  78.3101120   9.2444420   5.8564570  77.6049230  10.0489990
  10.4281780  82.9612940   8.1371730  10.4426320  82.0293900   7.9190640
   9.7206880  83.0472700   8.7761500  16.6392990  79.6020280   7.4840310
  15.9141180  80.1949060   7.2869700  17.1668450  79.5943820   6.6853680
   9.8615680  84.6030510   5.2312230  10.5057900  84.8089890   5.9085650
  10.2245120  83.8418910   4.7783080  11.1347760  82.6062860   3.9489680
  11.7769990  81.9056020   4.0621850  11.6597110  83.3861300   3.7686570
  12.9085380  83.4057760   7.1525740  13.2441620  83.9924450   7.8303660
  11.9885720  83.2750470   7.3823530   8.7373960  83.4549090  10.3213800
   8.4170830  82.7358330  10.8659490   8.0632320  84.1304160  10.3949860
  11.9527560  73.6875250   5.6850600  12.3208380  72.8670460   6.0130170
  11.0925760  73.7477140   6.1006250   8.9129550  76.3414840   5.9088570
   9.4114800  76.8160660   6.5740420   9.0552500  75.4178360   6.1158600
  16.1196410  72.5582800   6.7516960  15.6170010  73.2988200   7.0910770
  16.9353070  72.9466800   6.4353750  16.4144000  84.9724830   1.8732580
  16.5391420  85.7956000   2.3456390  17.2809560  84.7615560   1.5256730
   2.8919810  86.2502110  10.7335290   3.6932540  86.5714160  11.1470690
   2.3771630  85.8897690  11.4555200  11.7284440  82.3581980  10.6810700
  11.1222600  82.3813580   9.9406450  11.4238550  81.6265020  11.2177950
  13.1584810  86.0862270   9.2920110  14.1106560  86.0020290   9.2420350
  13.0113030  86.7503980   9.9653900   7.6655560  80.1446560   9.2106860
   6.9001230  80.7131560   9.1261530   7.8471520  79.8522770   8.3175090
  14.8078910  81.8751890   9.7681880  15.5488380  82.2127650   9.2649340
  14.0451590  82.0443950   9.2151650   2.6440700  76.8805160  10.5721410
   2.6846040  76.5819030  11.4806640   3.4986200  77.2812770  10.4128930
   4.5846510  75.4597260   8.5395900   4.0542970  74.9688210   7.9119240
   5.2534580  75.8881460   8.0053830  13.4824570  79.9266720   8.3037090
  13.8965590  80.0811800   9.1527510  12.5475570  80.0521940   8.4662870
  13.9546740  77.2662880  10.3076240  14.5367510  76.5115200  10.2196720
  14.1308510  77.7970320   9.5307720   5.0718810  72.4259630   8.6193190
   4.9775680  71.8080380   7.8944060   4.4916200  73.1525920   8.3923100
   7.8380250  70.9832870   5.6520580   7.3897550  71.0057130   4.8066130
   7.2045450  70.5851890   6.2490880   8.2439800  79.8787200   6.2733020
   8.6627910  80.7219930   6.1009260   7.3248430  80.0159240   6.0439800
  10.5803700  77.6103380   7.6570860  10.6999910  77.0144520   8.3965700
  11.4397700  77.6473070   7.2372160  12.9191600  78.1640570   6.2333370
  12.3926820  78.6883190   5.6298510  13.2622940  78.7967960   6.8643100
   6.0947220  86.1840210   7.3890750   5.5568310  86.9086270   7.0699450
   6.3481180  85.7070550   6.5988090   7.3472470  74.1524730   8.9146680
   7.9372160  73.8440580   9.6024500   6.5292710  73.6804480   9.0706580
  12.1665900  73.7690540   9.1479700  11.4781420  73.1072080   9.0829690
  12.8871920  73.3228810   9.5928160   8.9509430  87.4191420   7.6477400
   8.8768130  88.3226560   7.9549770   8.0488270  87.1003320   7.6199470
  16.4789110  85.1153600   7.9769960  15.8791100  85.1746160   7.2333880
  16.6083010  84.1758580   8.1066810  15.1640750  81.8405580   6.0746120
  14.3500590  82.2702740   6.3371910  15.5714950  82.4523990   5.4615170
  16.5131150  76.9793780   7.6015340  16.2817240  76.7506530   6.7013290
  16.7735700  77.8993330   7.5560230  14.9519220  72.2050210  10.3795040
  15.8289400  72.2133610  10.7629040  14.9640060  71.4681050   9.7687390
  16.5772210  76.1419620   4.7902610  15.6274920  76.1083160   4.9047600
  16.7585220  77.0519730   4.5552380   1.7683000  69.6966820   2.8426510
   2.4159190  69.1464200   2.4021670   2.1884840  69.9509970   3.6642320
  15.6635340  69.8908180   6.1996150  16.3007560  70.5042320   6.5655340
  15.8110230  69.9268840   5.2545380   3.1279370  83.0242090   9.7505020
   3.0849000  82.6535000  10.6319480   3.2590380  83.9619660   9.8906840
   6.8285400  84.5801680   5.3514740   6.5876760  84.8476240   4.4645260
   7.7688040  84.7507410   5.4065600   9.0339820  71.0434370   9.1071250
   8.9728710  71.6356200   9.8566660   9.9740200  70.9360330   8.9621510
  11.6714380  70.7004430   8.7463540  12.2854790  71.0183720   8.0844620
  12.2163940  70.2153020   9.3659400  18.0889560  86.5996060   6.1525380
  17.5947840  86.9964930   5.4352510  17.4802850  85.9745270   6.5462660
   2.1935640  69.3798690   8.8602600   2.7418630  69.1986740   8.0968710
   2.2590950  68.5892800   9.3958910   2.9667400  85.9704340   6.8702800
   2.3727720  85.8389040   7.6092840   2.9591240  85.1342480   6.4044900
  12.4122420  69.2636570   5.0732830  11.5382260  69.5971680   4.8705760
  12.3033170  68.7909750   5.8984700  13.3194400  71.4707440   6.4574550
  12.9907760  70.6559200   6.0776280  14.2676700  71.4277250   6.3340240
  15.7729010  87.2419480   3.4312120  15.3131980  87.9935290   3.0570140
  15.1441470  86.5225950   3.3726920   2.5979630  83.3362720   5.8210840
   1.8713690  82.7168010   5.7536790   2.6588780  83.7303330   4.9508920
   6.2024730  85.5507720   2.6060250   6.7189750  84.9395080   2.0808510
   6.8522110  86.0536500   3.0971260   8.9420230  86.4416210   3.4329230
   9.2298040  86.1870510   2.5562240   9.4543450  85.8893570   4.0234800
  10.1597240  70.1806410   4.0125740   9.3769030  70.6551910   4.2922500
   9.8660170  69.2761240   3.9038920   9.0092590  87.3632310  10.7997430
   9.9359900  87.1276580  10.8433390   8.9943020  88.1904310  10.3183460
   6.1956200  70.0277060  10.5639310   5.9140470  70.5310660   9.8000130
   6.5775900  69.2298810  10.1981440  12.7971660  69.4430640  11.1419780
  12.6837110  69.7625250  12.0371300  13.6141400  69.8443150  10.8457060
  15.5770150  86.5902170  10.6238470  16.3695470  86.0951400  10.4164430
  15.8703300  87.2692310  11.2314080  11.7029810  58.6879620  75.3771970
  11.6223860  57.7734230  75.1063680  11.2894230  59.1846690  74.6711680
  13.8555280  64.8718830  76.0380370  13.3936810  64.1006070  76.3667540
  14.6680830  64.8984900  76.5432820  10.0818590  67.1576840  75.6584360
   9.4630030  67.6134340  75.0878800  10.9370370  67.3128300  75.2574060
   4.4367020  54.3211840  72.9537770   4.5433770  55.2215570  73.2606530
   3.5259380  54.2729810  72.6632420  14.0886130  53.4436650  74.4248670
  14.9095750  52.9533220  74.4674150  14.1220210  54.0334310  75.1780510
  10.9481940  62.0416080  73.0516270  10.3299210  62.5065530  72.4878990
  11.4605190  62.7343560  73.4685780   7.9254070  51.1289000  75.8841410
   8.2329050  50.5735890  75.1676910   6.9954770  51.2633460  75.7014400
  14.7714550  63.5672510  73.2639040  14.6610880  62.6246840  73.3888460
  14.7682800  63.9288150  74.1501800  10.3134830  59.1937830  72.6201530
   9.3864110  59.1275210  72.8490000  10.4659650  60.1317960  72.5056770
  10.3003910  55.4654830  69.6168690   9.3607580  55.6268790  69.7021150
  10.6187170  56.1840510  69.0704680  14.3432120  60.7558130  73.1236780
  13.7244540  60.4177680  72.4763080  14.3256570  60.1117890  73.8315970
   5.9191470  59.7202570  75.4021260   5.5148470  59.0079820  74.9067160
   6.0054590  59.3755810  76.2909300  12.5196820  59.9944940  70.1309530
  12.9590100  59.1567370  69.9847350  13.2325240  60.6274340  70.2173670
  10.6292200  64.9341010  74.0990770  11.0688110  65.6765340  73.6846160
  10.5679090  65.1767580  75.0229730  16.1013960  51.2487750  68.4450570
  15.7886620  51.3414580  69.3449640  16.8626430  51.8268780  68.3948000
   2.6196100  58.6147550  72.9027910   2.4993700  59.3409640  72.2909180
   2.3096990  57.8450460  72.4255820  13.2962380  67.9210130  71.4553780
  13.1363520  67.6313070  72.3535610  13.1309090  67.1450260  70.9199010
   5.7750760  67.7008660  73.2325400   5.5993240  66.7844200  73.0193200
   4.9206500  68.0595950  73.4723200  12.9988510  65.4297690  70.0151780
  12.3053670  65.4274980  69.3554060  13.7411370  65.0057010  69.5845950
  12.5638440  67.0560400  74.0900270  13.0195390  66.2749780  74.4038890
  12.9030960  67.7667220  74.6341450   5.0859760  51.9582620  76.2851580
   4.6427910  52.7392160  75.9536100   5.6444750  52.2812510  76.9922520
   8.2018580  51.5793320  71.1657410   7.5772760  51.5753190  71.8910720
   8.1148700  50.7124280  70.7693380   4.8773980  57.0816190  74.0132830
   4.6514900  56.8653360  74.9179450   4.0966510  57.5144650  73.6678800
  12.1071740  57.0879560  72.6123480  11.5080630  57.8115360  72.4287100
  12.6551350  57.0256340  71.8299930  10.7136610  55.7243100  74.6426760
  11.1066180  56.0415300  73.8295450  11.0753460  54.8454980  74.7571280
   7.7369140  54.9903050  77.1430030   7.7405200  54.5493000  76.2934570
   8.6320260  55.3120380  77.2501850   3.5871520  54.8729540  76.1024240
   3.2471570  55.3504770  76.8591290   2.8248840  54.4194660  75.7425340
   7.7989290  55.9915130  70.1336790   7.9202110  55.9501610  71.0822610
   7.4137800  56.8539280  69.9783520   6.8110790  58.3016270  69.5320090
   6.2427690  57.8534520  68.9056000   7.5199790  58.6609050  68.9985240
   4.3558270  62.2974460  71.8046500   3.5820530  61.7572080  71.6445220
   5.0852900  61.7781070  71.4664260  10.5756190  52.6877780  71.7402280
   9.7620800  52.1890950  71.6647590  10.3818140  53.5276030  71.3238630
  13.2904580  57.0597430  70.0364440  14.1784200  57.3714660  69.8615780
  13.2609670  56.1869680  69.6445020   4.3995670  61.9654840  75.4425310
   4.9174340  61.1623100  75.3882200   3.9479690  61.9033980  76.2842140
   9.2865170  63.2321120  70.7152610   9.6280870  63.9763350  70.2195930
   8.4577880  63.5452240  71.0777440  15.5618850  58.3709270  69.5044300
  15.4782570  58.8023490  68.6540740  16.2813040  58.8307620  69.9371120
  16.5906100  65.2251530  72.2326430  15.9482260  64.5707150  72.5070150
  16.2036760  65.6306620  71.4567100  12.1692580  62.5536960  76.0798120
  12.5216400  61.9565090  75.4199490  11.2854910  62.2281190  76.2506370
   8.2555860  63.3134650  73.4868530   8.9426990  63.8603860  73.8676120
   7.4688280  63.8575380  73.5218140   7.5583070  60.3180680  73.0993890
   8.0145850  61.1285930  73.3254080   7.2071280  60.0003820  73.9312380
   3.4594850  50.6618330  73.5716410   3.3309480  50.6536230  74.5201330
   2.6356870  51.0001420  73.2207420  14.9803480  64.1167990  68.7702780
  14.7541060  63.3998430  69.3627420  14.5899680  63.8680430  67.9324530
  14.5619730  62.0339930  70.4316940  14.2741430  62.4952620  71.2194820
  15.3571900  61.5737700  70.7001160   6.7788130  65.5266050  70.3620910
   6.7698230  66.2595740  69.7465420   5.8586490  65.2797630  70.4547870
   2.3794770  60.7480940  71.1067670   1.7722720  61.4879840  71.1162970
   2.8544120  60.8380300  70.2805870  15.3189590  53.8688700  71.5912120
  14.6902750  53.9734370  70.8770350  14.8241510  54.0885480  72.3806000
   9.7647730  65.5894290  69.0246100   9.8659710  65.3858280  68.0948080
   8.8649470  65.3352570  69.2293880   7.2873620  56.1474650  73.0070000
   6.5789770  56.6160990  73.4483610   7.5718100  55.4896660  73.6415190
  11.3189050  52.8725310  74.4465790  11.1956830  52.8911440  73.4975300
  12.2673610  52.9204250  74.5664190   8.4065840  68.1080610  73.7193770
   8.6607340  68.0702000  72.7973140   7.4578320  67.9813940  73.7122020
   5.4908640  54.4559730  70.3820710   6.3399170  54.8929880  70.3160900
   5.1239910  54.7679990  71.2092770  14.4118420  59.0272490  75.2952280
  13.4708560  59.0422720  75.4699970  14.7262490  58.2408450  75.7412580
   4.3900060  60.7092090  68.8556240   5.1563330  60.5973450  69.4181670
   4.4674750  60.0130060  68.2033010   3.0846820  58.1417160  69.5389130
   3.1650410  57.1944670  69.6506530   3.9766570  58.4724040  69.6449790
   3.8861530  68.2912550  76.6423670   4.6224010  67.7428010  76.9132240
   4.2702450  69.1568560  76.5029660   6.9963840  67.4642860  68.4649240
   7.7892450  67.7531690  68.0131030   6.4768190  67.0335030  67.7861720
  16.0494010  66.6912990  69.8885980  15.7635520  66.2778130  69.0740160
  15.8513560  67.6200700  69.7686500   7.5141240  62.6846270  68.3291590
   7.4091880  62.0698620  69.0552970   7.3465460  62.1612160  67.5454600
  10.7543970  61.7466300  68.9333580  10.2054070  62.1935600  69.5776320
  11.3763230  61.2415550  69.4571250   6.4219090  60.7057220  70.8298880
   6.8435510  60.5397090  71.6730270   6.5469930  59.8957450  70.3354020
   8.9346730  59.7294830  68.0775980   9.4552390  59.0143850  67.7117130
   9.5815130  60.3680700  68.3776490   5.3177990  56.7790450  67.7757040
   5.1167050  55.9157810  68.1370380   5.1470040  56.6923810  66.8378640
  12.7966300  51.5898680  70.3043920  13.0768590  50.7466580  70.6603340
  12.0232030  51.8221790  70.8182670   4.1160790  53.8791070  67.7634920
   4.4186690  53.8858500  66.8554070   4.8555380  53.5288930  68.2602580
   7.3345720  52.8225690  68.7491120   6.9867720  52.1449680  68.1693570
   7.5358490  52.3615200  69.5634510   9.4994760  67.8106440  70.3677720
  10.3945550  68.1491410  70.3896480   9.5312390  67.0885850  69.7402000
   3.1390920  63.1833490  68.5964720   3.5765790  63.7263160  69.2522300
   3.6238650  62.3580440  68.6061060   4.9498640  64.3031530  73.7086950
   4.6494180  64.1796500  74.6090860   4.8436130  63.4440120  73.3002680
  17.7190560  64.0827930  68.4113630  16.8883520  64.1504580  68.8820860
  17.8962390  64.9732050  68.1080490  17.1747020  60.8275410  70.9147830
  17.9365930  61.3972060  71.0207520  17.1901390  60.2602610  71.6856140
  18.1806990  61.6825510  75.7589760  18.5515820  60.8992830  75.3525730
  18.8208920  62.3714610  75.5807060  17.2266190  61.1209780  68.0720350
  17.5015030  62.0288660  67.9439570  17.0376930  61.0572310  69.0082340
  13.6241800  54.1454630  69.3673980  14.0426680  53.9585610  68.5270640
  13.3177860  53.2933680  69.6776910  17.1231530  59.0578770  73.0649780
  16.7475130  58.2906700  72.6331070  16.3934650  59.4401470  73.5524710
  16.3982490  57.2836260  76.3657020  16.9219970  56.7898910  75.7347190
  16.9841910  57.4186620  77.1104590   2.4316650  55.6177810  68.9975200
   3.1408350  55.1961030  68.5122480   1.7156590  55.6853040  68.3658550
   2.0790810  51.6717140  68.0377850   2.8018940  52.2126080  68.3559070
   2.3515330  51.3980560  67.1619390  15.8882460  56.5409610  72.3049430
  16.3841580  56.3080480  73.0898310  15.6898530  55.7021450  71.8887070
  17.3169620  55.1770560  74.8387110  17.2068900  55.0226600  75.7769380
  18.0777210  54.6491500  74.5962520  18.2059890  53.0078480  68.0793250
  19.1309200  52.8759660  67.8711540  18.1835680  53.0871300  69.0329700
  18.2798380  53.7789140  70.7049960  17.4849880  53.7134260  71.2342870
  18.4841660  54.7139780  70.6935310  15.2216800  67.8180690  74.6988350
  15.8175870  67.4965260  74.0222770  15.4794950  67.3452510  75.4901620
  14.7118310  52.1086020  77.1548790  15.1526400  52.0531120  76.3070390
  14.4425900  53.0244030  77.2258970  16.5756880  51.7401260  75.1657610
  16.5145280  50.7962480  75.0188630  17.3548910  51.8481350  75.7111070
   8.0451460  53.8249670  74.6215730   7.2325970  53.4506560  74.2811610
   8.5493100  53.0694750  74.9236920  12.5476440  50.4892120  75.8598800
  13.1505810  51.0612330  76.3347320  11.8069430  51.0531560  75.6372700
  15.6911040  50.8913680  71.1339080  15.8861670  51.7897130  71.4006510
  14.9040910  50.6600760  71.6272030   2.4872330  66.5726850  71.5731700
   1.9619950  66.9534880  70.8693660   2.4116910  67.1977620  72.2941410
   3.8762800  52.2374450  70.1715390   4.4055560  51.4504250  70.0423340
   4.5091120  52.9165640  70.4050920   6.0700640  51.9749590  73.2260780
   5.4403380  51.2736900  73.3930910   5.5305780  52.7353720  73.0093940
  17.2437650  68.1314390  72.8945640  17.4189840  67.4452130  72.2506560
  16.5459220  68.6561440  72.5022310   5.0865300  68.5209230  70.4480950
   5.8184120  68.2368510  69.9004840   5.3458970  68.2822510  71.3380330
   4.2480090  64.6373960  70.4527280   3.6188970  65.1059060  71.0013110
   4.3627920  63.7923180  70.8873470  11.7029810  58.6879620  56.6028480
  11.6223860  57.7734230  56.3320190  11.2894230  59.1846690  55.8968190
   9.8347850  60.4658640  58.4837750   9.0589950  59.9859080  58.7736320
  10.4860780  59.7864290  58.3093910   3.8513680  60.7778450  59.3613510
   3.0198560  60.5227160  59.7610020   4.4594660  60.8489220  60.0971430
  13.8555280  64.8718830  57.2636880  13.3936810  64.1006070  57.5924050
  14.6680830  64.8984900  57.7689330   3.8314940  64.8118540  59.5571530
   4.1342980  63.9216280  59.3781750   4.5758530  65.3688760  59.3293780
  10.0818590  67.1576840  56.8840870   9.4630030  67.6134340  56.3135310
  10.9370370  67.3128300  56.4830570   9.2756840  63.1415830  58.4907910
   9.2065120  62.2005770  58.3297040  10.0376700  63.2317240  59.0630480
  10.3062010  55.9486210  58.7176840  10.6826830  55.0758090  58.6050510
  10.2081520  56.2844910  57.8267280   4.4367020  54.3211840  54.1794280
   4.5433770  55.2215570  54.4863040   3.5259380  54.2729810  53.8888930
  14.0886130  53.4436650  55.6505180  14.9095750  52.9533220  55.6930660
  14.1220210  54.0334310  56.4037020   2.0850180  56.2430850  59.4246870
   2.7660290  56.5069220  60.0434270   1.7698230  55.4031720  59.7584880
   6.2774750  57.2898210  58.5119460   6.7852970  57.7879180  59.1524480
   6.8087990  56.5133410  58.3358820  18.3785680  55.4603400  62.2148810
  17.6737850  55.8485110  61.6963920  18.6443600  56.1553690  62.8169740
   4.5610850  51.9296770  62.7782880   4.5629290  52.4469160  61.9728780
   3.7315160  51.4526950  62.7552810  10.9481940  62.0416080  54.2772780
  10.3299210  62.5065530  53.7135500  11.4605190  62.7343560  54.6942290
   5.8113700  61.5691950  60.9556380   5.4783080  62.1960870  61.5977450
   5.9880380  62.0953830  60.1758050  14.3247610  55.3837030  58.4232720
  13.6203180  55.6721920  59.0035830  14.6859770  56.1937140  58.0632280
   4.2426180  53.6406730  60.7853330   4.5842990  54.4848780  60.4907200
   3.3041990  53.7890470  60.9018670   5.0232800  63.5372750  62.7705560
   5.6406800  64.2123830  62.4890010   4.1625920  63.9460730  62.6793060
  15.9410390  65.0012160  60.6860200  15.2573910  65.6711270  60.6776870
  16.4804680  65.1992810  59.9205060  17.3934530  54.8291820  58.8141930
  16.4459440  54.8630800  58.9457360  17.7184520  55.6430770  59.1991290
   7.9254070  51.1289000  57.1097920   8.2329050  50.5735890  56.3933420
   6.9954770  51.2633460  56.9270910  13.4769130  66.8456290  59.4005380
  13.4896290  66.4418580  58.5327640  12.9244350  67.6203580  59.2966810
  14.7714550  63.5672510  54.4895550  14.6610880  62.6246840  54.6144970
  14.7682800  63.9288150  55.3758310  12.8754570  61.7486130  60.7287990
  13.2923360  61.5346240  59.8941450  13.5994390  62.0058920  61.2996610
  10.3134830  59.1937830  53.8458040   9.3864110  59.1275210  54.0746510
  10.4659650  60.1317960  53.7313280  10.3003910  55.4654830  50.8425200
   9.3607580  55.6268790  50.9277660  10.6187170  56.1840510  50.2961190
  16.8216670  60.1473350  60.8204230  15.9935300  60.2166440  60.3454360
  17.4167150  60.7327660  60.3520060  14.3432120  60.7558130  54.3493290
  13.7244540  60.4177680  53.7019590  14.3256570  60.1117890  55.0572480
  13.7858680  56.9342670  61.7659100  13.3729860  57.7596380  62.0199090
  13.0534630  56.3487710  61.5735460   5.9191470  59.7202570  56.6277770
   5.5148470  59.0079820  56.1323670   6.0054590  59.3755810  57.5165810
   6.3873170  63.4070130  58.7916980   6.0901460  62.8015600  58.1124760
   7.3372990  63.4447440  58.6806340   4.6320090  56.4945780  60.4076810
   5.1834680  56.6041120  59.6330060   5.1463600  56.8683380  61.1232040
  14.4758780  66.9802000  62.4540080  13.9989340  67.7874190  62.2612690
  13.7920570  66.3280330  62.6066290   5.4791600  63.1451820  65.4424780
   4.5820130  63.3691790  65.6898180   5.5044470  63.2686760  64.4936180
  12.5196820  59.9944940  51.3566040  12.9590100  59.1567370  51.2103860
  13.2325240  60.6274340  51.4430180   4.3062820  60.0165140  64.0182150
   4.1670590  60.8887940  64.3869550   3.4244180  59.6737950  63.8730090
  10.6292200  64.9341010  55.3247280  11.0688110  65.6765340  54.9102670
  10.5679090  65.1767580  56.2486240   6.1043170  65.9586840  66.2267300
   6.0758600  66.3629790  65.3595730   5.9408140  65.0297200  66.0638900
  16.1013960  51.2487750  49.6707080  15.7886620  51.3414580  50.5706150
  16.8626430  51.8268780  49.6204510   2.6196100  58.6147550  54.1284420
   2.4993700  59.3409640  53.5165690   2.3096990  57.8450460  53.6512330
  18.0557990  66.7413940  67.5231470  18.5317710  67.2196830  68.2020550
  18.6765150  66.6731430  66.7976970  17.4591240  63.9326790  64.6831480
  17.5854300  63.6938670  63.7648660  17.5012620  63.1011330  65.1553560
  11.3207980  67.6354790  63.2526290  11.8352650  67.5462800  64.0548720
  10.4777060  67.9814490  63.5454200  13.2962380  67.9210130  52.6810290
  13.1363520  67.6313070  53.5792120  13.1309090  67.1450260  52.1455520
   5.7750760  67.7008660  54.4581910   5.5993240  66.7844200  54.2449710
   4.9206500  68.0595950  54.6979710  12.9988510  65.4297690  51.2408290
  12.3053670  65.4274980  50.5810570  13.7411370  65.0057010  50.8102460
  12.5638440  67.0560400  55.3156780  13.0195390  66.2749780  55.6295400
  12.9030960  67.7667220  55.8597960  17.3115250  55.9859250  65.6481220
  16.6959520  56.4938920  65.1196680  16.9911670  55.0857580  65.5907160
   5.0859760  51.9582620  57.5108090   4.6427910  52.7392160  57.1792610
   5.6444750  52.2812510  58.2179030   9.3729570  54.8251140  63.1143410
   8.9108940  55.0334160  63.9263350   8.9707680  54.0110490  62.8114080
  14.3734080  56.0460090  64.2440070  13.5227670  55.7465840  64.5649140
  14.2135870  56.2902100  63.3323890  11.4683790  57.5461840  66.3438860
  11.7937200  56.7125590  66.0041090  12.2564120  58.0690360  66.4917190
   8.2018580  51.5793320  52.3913920   7.5772760  51.5753190  53.1167230
   8.1148700  50.7124280  51.9949890   7.1235660  52.5029950  59.3697690
   7.4207990  53.4092780  59.2889710   7.6721220  52.0148730  58.7557260
   4.8773980  57.0816190  55.2389340   4.6514900  56.8653360  56.1435960
   4.0966510  57.5144650  54.8935310  12.1071740  57.0879560  53.8379990
  11.5080630  57.8115360  53.6543610  12.6551350  57.0256340  53.0556440
   7.3173190  57.9801770  65.9049610   7.2216790  57.0396500  65.7550010
   8.1605170  58.2016840  65.5097680  10.7136610  55.7243100  55.8683270
  11.1066180  56.0415300  55.0551960  11.0753460  54.8454980  55.9827790
   2.4483730  54.3915440  64.0583390   2.0547120  55.2390650  64.2656170
   1.7602130  53.7541810  64.2492030   9.0228780  54.4750410  67.1280130
   8.3327100  54.2822610  67.7626220   9.7661080  54.7585050  67.6604430
  11.2991750  58.3148850  59.9634050  10.5672870  58.8235660  60.3124150
  10.9016090  57.4978830  59.6622830   7.7369140  54.9903050  58.3686540
   7.7405200  54.5493000  57.5191080   8.6320260  55.3120380  58.4758360
   3.5871520  54.8729540  57.3280750   3.2471570  55.3504770  58.0847800
   2.8248840  54.4194660  56.9681850   7.7989290  55.9915130  51.3593300
   7.9202110  55.9501610  52.3079120   7.4137800  56.8539280  51.2040030
  11.7617660  53.7682530  59.3756990  11.7790400  54.2191180  60.2198840
  11.5133240  52.8688170  59.5890430   6.8110790  58.3016270  50.7576600
   6.2427690  57.8534520  50.1312510   7.5199790  58.6609050  50.2241750
  15.1888410  51.1814710  65.2143370  15.5134180  50.4504370  65.7401350
  15.2244920  50.8628350  64.3124360   8.0377110  59.0504830  60.1151950
   8.4047240  58.5763400  60.8613290   7.8482170  59.9246400  60.4560290
   5.8276480  58.0913470  62.4336160   5.5233550  58.9705450  62.6586520
   6.7822940  58.1513260  62.4693600   4.3558270  62.2974460  53.0303010
   3.5820530  61.7572080  52.8701730   5.0852900  61.7781070  52.6920770
  15.1146250  61.2939820  58.8229400  15.8345370  61.7895110  58.4325510
  14.9128070  60.6157710  58.1783270  10.5756190  52.6877780  52.9658790
   9.7620800  52.1890950  52.8904100  10.3818140  53.5276030  52.5495140
  10.4965050  61.3648880  64.7098400  10.4302360  60.4444550  64.4555990
   9.8670190  61.4624320  65.4243040  13.2904580  57.0597430  51.2620950
  14.1784200  57.3714660  51.0872290  13.2609670  56.1869680  50.8701530
   4.3995670  61.9654840  56.6681820   4.9174340  61.1623100  56.6138710
   3.9479690  61.9033980  57.5098650   9.2865170  63.2321120  51.9409120
   9.6280870  63.9763350  51.4452440   8.4577880  63.5452240  52.3033950
   1.8840210  58.9316210  63.5807520   1.5255150  59.5970060  64.1680860
   1.5894770  58.0999760  63.9520140   5.0853330  59.3900450  66.4647070
   4.7853470  59.5357630  65.5674890   5.8564570  58.8305740  66.3720460
  10.4281780  64.1869450  64.4602200  10.4426320  63.2550410  64.2421110
   9.7206880  64.2729210  65.0991970  15.5618850  58.3709270  50.7300810
  15.4782570  58.8023490  49.8797250  16.2813040  58.8307620  51.1627630
  16.6392990  60.8276790  63.8070780  15.9141180  61.4205570  63.6100170
  17.1668450  60.8200330  63.0084150  16.5906100  65.2251530  53.4582940
  15.9482260  64.5707150  53.7326660  16.2036760  65.6306620  52.6823610
  12.1692580  62.5536960  57.3054630  12.5216400  61.9565090  56.6456000
  11.2854910  62.2281190  57.4762880   8.2555860  63.3134650  54.7125040
   8.9426990  63.8603860  55.0932630   7.4688280  63.8575380  54.7474650
   7.5583070  60.3180680  54.3250400   8.0145850  61.1285930  54.5510590
   7.2071280  60.0003820  55.1568890   9.8615680  65.8287020  61.5542700
  10.5057900  66.0346400  62.2316120  10.2245120  65.0675420  61.1013550
   3.4594850  50.6618330  54.7972920   3.3309480  50.6536230  55.7457840
   2.6356870  51.0001420  54.4463930  11.1347760  63.8319370  60.2720150
  11.7769990  63.1312530  60.3852320  11.6597110  64.6117810  60.0917040
  14.9803480  64.1167990  49.9959290  14.7541060  63.3998430  50.5883930
  14.5899680  63.8680430  49.1581040  12.9085380  64.6314270  63.4756210
  13.2441620  65.2180960  64.1534130  11.9885720  64.5006980  63.7054000
  14.5619730  62.0339930  51.6573450  14.2741430  62.4952620  52.4451330
  15.3571900  61.5737700  51.9257670   8.7373960  64.6805600  66.6444270
   8.4170830  63.9614840  67.1889960   8.0632320  65.3560670  66.7180330
   6.7788130  65.5266050  51.5877420   6.7698230  66.2595740  50.9721930
   5.8586490  65.2797630  51.6804380   2.3794770  60.7480940  52.3324180
   1.7722720  61.4879840  52.3419480   2.8544120  60.8380300  51.5062380
  11.9527560  54.9131760  62.0081070  12.3208380  54.0926970  62.3360640
  11.0925760  54.9733650  62.4236720  15.3189590  53.8688700  52.8168630
  14.6902750  53.9734370  52.1026860  14.8241510  54.0885480  53.6062510
   9.7647730  65.5894290  50.2502610   9.8659710  65.3858280  49.3204590
   8.8649470  65.3352570  50.4550390   7.2873620  56.1474650  54.2326510
   6.5789770  56.6160990  54.6740120   7.5718100  55.4896660  54.8671700
   8.9129550  57.5671350  62.2319040   9.4114800  58.0417170  62.8970890
   9.0552500  56.6434870  62.4389070  11.3189050  52.8725310  55.6722300
  11.1956830  52.8911440  54.7231810  12.2673610  52.9204250  55.7920700
   8.4065840  68.1080610  54.9450280   8.6607340  68.0702000  54.0229650
   7.4578320  67.9813940  54.9378530   5.4908640  54.4559730  51.6077220
   6.3399170  54.8929880  51.5417410   5.1239910  54.7679990  52.4349280
  16.1196410  53.7839310  63.0747430  15.6170010  54.5244710  63.4141240
  16.9353070  54.1723310  62.7584220  14.4118420  59.0272490  56.5208790
  13.4708560  59.0422720  56.6956480  14.7262490  58.2408450  56.9669090
   4.3900060  60.7092090  50.0812750   5.1563330  60.5973450  50.6438180
   4.4674750  60.0130060  49.4289520   3.0846820  58.1417160  50.7645640
   3.1650410  57.1944670  50.8763040   3.9766570  58.4724040  50.8706300
  16.4144000  66.1981340  58.1963050  16.5391420  67.0212510  58.6686860
  17.2809560  65.9872070  57.8487200   3.8861530  68.2912550  57.8680180
   4.6224010  67.7428010  58.1388750   4.2702450  69.1568560  57.7286170
   2.8919810  67.4758620  67.0565760   3.6932540  67.7970670  67.4701160
   2.3771630  67.1154200  67.7785670   6.9963840  67.4642860  49.6905750
   7.7892450  67.7531690  49.2387540   6.4768190  67.0335030  49.0118230
  11.7284440  63.5838490  67.0041170  11.1222600  63.6070090  66.2636920
  11.4238550  62.8521530  67.5408420  13.1584810  67.3118780  65.6150580
  14.1106560  67.2276800  65.5650820  13.0113030  67.9760490  66.2884370
  16.0494010  66.6912990  51.1142490  15.7635520  66.2778130  50.2996670
  15.8513560  67.6200700  50.9943010   7.5141240  62.6846270  49.5548100
   7.4091880  62.0698620  50.2809480   7.3465460  62.1612160  48.7711110
   7.6655560  61.3703070  65.5337330   6.9001230  61.9388070  65.4492000
   7.8471520  61.0779280  64.6405560  10.7543970  61.7466300  50.1590090
  10.2054070  62.1935600  50.8032830  11.3763230  61.2415550  50.6827760
  14.8078910  63.1008400  66.0912350  15.5488380  63.4384160  65.5879810
  14.0451590  63.2700460  65.5382120   2.6440700  58.1061670  66.8951880
   2.6846040  57.8075540  67.8037110   3.4986200  58.5069280  66.7359400
   6.4219090  60.7057220  52.0555390   6.8435510  60.5397090  52.8986780
   6.5469930  59.8957450  51.5610530   4.5846510  56.6853770  64.8626370
   4.0542970  56.1944720  64.2349710   5.2534580  57.1137970  64.3284300
   8.9346730  59.7294830  49.3032490   9.4552390  59.0143850  48.9373640
   9.5815130  60.3680700  49.6033000  13.4824570  61.1523230  64.6267560
  13.8965590  61.3068310  65.4757980  12.5475570  61.2778450  64.7893340
  13.9546740  58.4919390  66.6306710  14.5367510  57.7371710  66.5427190
  14.1308510  59.0226830  65.8538190   5.0718810  53.6516140  64.9423660
   4.9775680  53.0336890  64.2174530   4.4916200  54.3782430  64.7153570
   7.8380250  52.2089380  61.9751050   7.3897550  52.2313640  61.1296600
   7.2045450  51.8108400  62.5721350   8.2439800  61.1043710  62.5963490
   8.6627910  61.9476440  62.4239730   7.3248430  61.2415750  62.3670270
  10.5803700  58.8359890  63.9801330  10.6999910  58.2401030  64.7196170
  11.4397700  58.8729580  63.5602630  12.9191600  59.3897080  62.5563840
  12.3926820  59.9139700  61.9528980  13.2622940  60.0224470  63.1873570
   5.3177990  56.7790450  49.0013550   5.1167050  55.9157810  49.3626890
   5.1470040  56.6923810  48.0635150   6.0947220  67.4096720  63.7121220
   5.5568310  68.1342780  63.3929920   6.3481180  66.9327060  62.9218560
   7.3472470  55.3781240  65.2377150   7.9372160  55.0697090  65.9254970
   6.5292710  54.9060990  65.3937050  12.1665900  54.9947050  65.4710170
  11.4781420  54.3328590  65.4060160  12.8871920  54.5485320  65.9158630
  12.7966300  51.5898680  51.5300430  13.0768590  50.7466580  51.8859850
  12.0232030  51.8221790  52.0439180   4.1160790  53.8791070  48.9891430
   4.4186690  53.8858500  48.0810580   4.8555380  53.5288930  49.4859090
   8.9509430  68.6447930  63.9707870   8.8768130  69.5483070  64.2780240
   8.0488270  68.3259830  63.9429940   7.3345720  52.8225690  49.9747630
   6.9867720  52.1449680  49.3950080   7.5358490  52.3615200  50.7891020
   9.4994760  67.8106440  51.5934230  10.3945550  68.1491410  51.6152990
   9.5312390  67.0885850  50.9658510   3.1390920  63.1833490  49.8221230
   3.5765790  63.7263160  50.4778810   3.6238650  62.3580440  49.8317570
   4.9498640  64.3031530  54.9343460   4.6494180  64.1796500  55.8347370
   4.8436130  63.4440120  54.5259190  16.4789110  66.3410110  64.3000430
  15.8791100  66.4002670  63.5564350  16.6083010  65.4015090  64.4297280
  17.7190560  64.0827930  49.6370140  16.8883520  64.1504580  50.1077370
  17.8962390  64.9732050  49.3337000  17.1747020  60.8275410  52.1404340
  17.9365930  61.3972060  52.2464030  17.1901390  60.2602610  52.9112650
  18.1806990  61.6825510  56.9846270  18.5515820  60.8992830  56.5782240
  18.8208920  62.3714610  56.8063570  15.1640750  63.0662090  62.3976590
  14.3500590  63.4959250  62.6602380  15.5714950  63.6780500  61.7845640
  17.2266190  61.1209780  49.2976860  17.5015030  62.0288660  49.1696080
  17.0376930  61.0572310  50.2338850  13.6241800  54.1454630  50.5930490
  14.0426680  53.9585610  49.7527150  13.3177860  53.2933680  50.9033420
  17.1231530  59.0578770  54.2906290  16.7475130  58.2906700  53.8587580
  16.3934650  59.4401470  54.7781220  16.5131150  58.2050290  63.9245810
  16.2817240  57.9763040  63.0243760  16.7735700  59.1249840  63.8790700
  14.9519220  53.4306720  66.7025510  15.8289400  53.4390120  67.0859510
  14.9640060  52.6937560  66.0917860  16.3982490  57.2836260  57.5913530
  16.9219970  56.7898910  56.9603700  16.9841910  57.4186620  58.3361100
  16.5772210  57.3676130  61.1133080  15.6274920  57.3339670  61.2278070
  16.7585220  58.2776240  60.8782850   2.4316650  55.6177810  50.2231710
   3.1408350  55.1961030  49.7378990   1.7156590  55.6853040  49.5915060
   2.0790810  51.6717140  49.2634360   2.8018940  52.2126080  49.5815580
   2.3515330  51.3980560  48.3875900  15.8882460  56.5409610  53.5305940
  16.3841580  56.3080480  54.3154820  15.6898530  55.7021450  53.1143580
   1.7683000  50.9223330  59.1656980   2.4159190  50.3720710  58.7252140
   2.1884840  51.1766480  59.9872790  17.3169620  55.1770560  56.0643620
  17.2068900  55.0226600  57.0025890  18.0777210  54.6491500  55.8219030
  15.6635340  51.1164690  62.5226620  16.3007560  51.7298830  62.8885810
  15.8110230  51.1525350  61.5775850  18.2059890  53.0078480  49.3049760
  19.1309200  52.8759660  49.0968050  18.1835680  53.0871300  50.2586210
  18.2798380  53.7789140  51.9306470  17.4849880  53.7134260  52.4599380
  18.4841660  54.7139780  51.9191820  15.2216800  67.8180690  55.9244860
  15.8175870  67.4965260  55.2479280  15.4794950  67.3452510  56.7158130
   3.1279370  64.2498600  66.0735490   3.0849000  63.8791510  66.9549950
   3.2590380  65.1876170  66.2137310   6.8285400  65.8058190  61.6745210
   6.5876760  66.0732750  60.7875730   7.7688040  65.9763920  61.7296070
   9.0339820  52.2690880  65.4301720   8.9728710  52.8612710  66.1797130
   9.9740200  52.1616840  65.2851980  11.6714380  51.9260940  65.0694010
  12.2854790  52.2440230  64.4075090  12.2163940  51.4409530  65.6889870
  18.0889560  67.8252570  62.4755850  17.5947840  68.2221440  61.7582980
  17.4802850  67.2001780  62.8693130   2.1935640  50.6055200  65.1833070
   2.7418630  50.4243250  64.4199180   2.2590950  49.8149310  65.7189380
   2.9667400  67.1960850  63.1933270   2.3727720  67.0645550  63.9323310
   2.9591240  66.3598990  62.7275370  12.4122420  50.4893080  61.3963300
  11.5382260  50.8228190  61.1936230  12.3033170  50.0166260  62.2215170
  13.3194400  52.6963950  62.7805020  12.9907760  51.8815710  62.4006750
  14.2676700  52.6533760  62.6570710  15.7729010  68.4675990  59.7542590
  15.3131980  69.2191800  59.3800610  15.1441470  67.7482460  59.6957390
   2.5979630  64.5619230  62.1441310   1.8713690  63.9424520  62.0767260
   2.6588780  64.9559840  61.2739390   6.2024730  66.7764230  58.9290720
   6.7189750  66.1651590  58.4038980   6.8522110  67.2793010  59.4201730
   8.9420230  67.6672720  59.7559700   9.2298040  67.4127020  58.8792710
   9.4543450  67.1150080  60.3465270  10.1597240  51.4062920  60.3356210
   9.3769030  51.8808420  60.6152970   9.8660170  50.5017750  60.2269390
  14.7118310  52.1086020  58.3805300  15.1526400  52.0531120  57.5326900
  14.4425900  53.0244030  58.4515480  16.5756880  51.7401260  56.3914120
  16.5145280  50.7962480  56.2445140  17.3548910  51.8481350  56.9367580
   8.0451460  53.8249670  55.8472240   7.2325970  53.4506560  55.5068120
   8.5493100  53.0694750  56.1493430  12.5476440  50.4892120  57.0855310
  13.1505810  51.0612330  57.5603830  11.8069430  51.0531560  56.8629210
  15.6911040  50.8913680  52.3595590  15.8861670  51.7897130  52.6263020
  14.9040910  50.6600760  52.8528540   2.4872330  66.5726850  52.7988210
   1.9619950  66.9534880  52.0950170   2.4116910  67.1977620  53.5197920
   3.8762800  52.2374450  51.3971900   4.4055560  51.4504250  51.2679850
   4.5091120  52.9165640  51.6307430   6.0700640  51.9749590  54.4517290
   5.4403380  51.2736900  54.6187420   5.5305780  52.7353720  54.2350450
   9.0092590  68.5888820  67.1227900   9.9359900  68.3533090  67.1663860
   8.9943020  69.4160820  66.6413930  17.2437650  68.1314390  54.1202150
  17.4189840  67.4452130  53.4763070  16.5459220  68.6561440  53.7278820
   6.1956200  51.2533570  66.8869780   5.9140470  51.7567170  66.1230600
   6.5775900  50.4555320  66.5211910   5.0865300  68.5209230  51.6737460
   5.8184120  68.2368510  51.1261350   5.3458970  68.2822510  52.5636840
   4.2480090  64.6373960  51.6783790   3.6188970  65.1059060  52.2269620
   4.3627920  63.7923180  52.1129980  12.7971660  50.6687150  67.4650250
  12.6837110  50.9881760  68.3601770  13.6141400  51.0699660  67.1687530
  15.5770150  67.8158680  66.9468940  16.3695470  67.3207910  66.7394900
  15.8703300  68.4948820  67.5544550  11.7029810  58.6879620  37.8284990
  11.6223860  57.7734230  37.5576700  11.2894230  59.1846690  37.1224700
   9.8347850  60.4658640  39.7094260   9.0589950  59.9859080  39.9992830
  10.4860780  59.7864290  39.5350420   3.8513680  60.7778450  40.5870020
   3.0198560  60.5227160  40.9866530   4.4594660  60.8489220  41.3227940
  13.8555280  64.8718830  38.4893390  13.3936810  64.1006070  38.8180560
  14.6680830  64.8984900  38.9945840   3.8314940  64.8118540  40.7828040
   4.1342980  63.9216280  40.6038260   4.5758530  65.3688760  40.5550290
  10.0818590  67.1576840  38.1097380   9.4630030  67.6134340  37.5391820
  10.9370370  67.3128300  37.7087080   9.2756840  63.1415830  39.7164420
   9.2065120  62.2005770  39.5553550  10.0376700  63.2317240  40.2886990
  10.3062010  55.9486210  39.9433350  10.6826830  55.0758090  39.8307020
  10.2081520  56.2844910  39.0523790   4.4367020  54.3211840  35.4050790
   4.5433770  55.2215570  35.7119550   3.5259380  54.2729810  35.1145440
  14.0886130  53.4436650  36.8761690  14.9095750  52.9533220  36.9187170
  14.1220210  54.0334310  37.6293530   2.0850180  56.2430850  40.6503380
   2.7660290  56.5069220  41.2690780   1.7698230  55.4031720  40.9841390
   6.2774750  57.2898210  39.7375970   6.7852970  57.7879180  40.3780990
   6.8087990  56.5133410  39.5615330  18.3785680  55.4603400  43.4405320
  17.6737850  55.8485110  42.9220430  18.6443600  56.1553690  44.0426250
   4.5610850  51.9296770  44.0039390   4.5629290  52.4469160  43.1985290
   3.7315160  51.4526950  43.9809320  10.9481940  62.0416080  35.5029290
  10.3299210  62.5065530  34.9392010  11.4605190  62.7343560  35.9198800
   5.8113700  61.5691950  42.1812890   5.4783080  62.1960870  42.8233960
   5.9880380  62.0953830  41.4014560  14.3247610  55.3837030  39.6489230
  13.6203180  55.6721920  40.2292340  14.6859770  56.1937140  39.2888790
   4.2426180  53.6406730  42.0109840   4.5842990  54.4848780  41.7163710
   3.3041990  53.7890470  42.1275180   5.0232800  63.5372750  43.9962070
   5.6406800  64.2123830  43.7146520   4.1625920  63.9460730  43.9049570
  15.9410390  65.0012160  41.9116710  15.2573910  65.6711270  41.9033380
  16.4804680  65.1992810  41.1461570  17.3934530  54.8291820  40.0398440
  16.4459440  54.8630800  40.1713870  17.7184520  55.6430770  40.4247800
   7.9254070  51.1289000  38.3354430   8.2329050  50.5735890  37.6189930
   6.9954770  51.2633460  38.1527420  13.4769130  66.8456290  40.6261890
  13.4896290  66.4418580  39.7584150  12.9244350  67.6203580  40.5223320
  14.7714550  63.5672510  35.7152060  14.6610880  62.6246840  35.8401480
  14.7682800  63.9288150  36.6014820  12.8754570  61.7486130  41.9544500
  13.2923360  61.5346240  41.1197960  13.5994390  62.0058920  42.5253120
  10.3134830  59.1937830  35.0714550   9.3864110  59.1275210  35.3003020
  10.4659650  60.1317960  34.9569790  10.3003910  55.4654830  32.0681710
   9.3607580  55.6268790  32.1534170  10.6187170  56.1840510  31.5217700
  16.8216670  60.1473350  42.0460740  15.9935300  60.2166440  41.5710870
  17.4167150  60.7327660  41.5776570  14.3432120  60.7558130  35.5749800
  13.7244540  60.4177680  34.9276100  14.3256570  60.1117890  36.2828990
  13.7858680  56.9342670  42.9915610  13.3729860  57.7596380  43.2455600
  13.0534630  56.3487710  42.7991970   5.9191470  59.7202570  37.8534280
   5.5148470  59.0079820  37.3580180   6.0054590  59.3755810  38.7422320
   6.3873170  63.4070130  40.0173490   6.0901460  62.8015600  39.3381270
   7.3372990  63.4447440  39.9062850   4.6320090  56.4945780  41.6333320
   5.1834680  56.6041120  40.8586570   5.1463600  56.8683380  42.3488550
  14.4758780  66.9802000  43.6796590  13.9989340  67.7874190  43.4869200
  13.7920570  66.3280330  43.8322800   5.4791600  63.1451820  46.6681290
   4.5820130  63.3691790  46.9154690   5.5044470  63.2686760  45.7192690
  12.5196820  59.9944940  32.5822550  12.9590100  59.1567370  32.4360370
  13.2325240  60.6274340  32.6686690   4.3062820  60.0165140  45.2438660
   4.1670590  60.8887940  45.6126060   3.4244180  59.6737950  45.0986600
  10.6292200  64.9341010  36.5503790  11.0688110  65.6765340  36.1359180
  10.5679090  65.1767580  37.4742750   6.1043170  65.9586840  47.4523810
   6.0758600  66.3629790  46.5852240   5.9408140  65.0297200  47.2895410
  16.1013960  51.2487750  30.8963590  15.7886620  51.3414580  31.7962660
  16.8626430  51.8268780  30.8461020   2.6196100  58.6147550  35.3540930
   2.4993700  59.3409640  34.7422200   2.3096990  57.8450460  34.8768840
  18.0557990  66.7413940  48.7487980  18.5317710  67.2196830  49.4277060
  18.6765150  66.6731430  48.0233480  17.4591240  63.9326790  45.9087990
  17.5854300  63.6938670  44.9905170  17.5012620  63.1011330  46.3810070
  11.3207980  67.6354790  44.4782800  11.8352650  67.5462800  45.2805230
  10.4777060  67.9814490  44.7710710  13.2962380  67.9210130  33.9066800
  13.1363520  67.6313070  34.8048630  13.1309090  67.1450260  33.3712030
   5.7750760  67.7008660  35.6838420   5.5993240  66.7844200  35.4706220
   4.9206500  68.0595950  35.9236220  12.9988510  65.4297690  32.4664800
  12.3053670  65.4274980  31.8067080  13.7411370  65.0057010  32.0358970
  12.5638440  67.0560400  36.5413290  13.0195390  66.2749780  36.8551910
  12.9030960  67.7667220  37.0854470  17.3115250  55.9859250  46.8737730
  16.6959520  56.4938920  46.3453190  16.9911670  55.0857580  46.8163670
   5.0859760  51.9582620  38.7364600   4.6427910  52.7392160  38.4049120
   5.6444750  52.2812510  39.4435540   9.3729570  54.8251140  44.3399920
   8.9108940  55.0334160  45.1519860   8.9707680  54.0110490  44.0370590
  14.3734080  56.0460090  45.4696580  13.5227670  55.7465840  45.7905650
  14.2135870  56.2902100  44.5580400  11.4683790  57.5461840  47.5695370
  11.7937200  56.7125590  47.2297600  12.2564120  58.0690360  47.7173700
   8.2018580  51.5793320  33.6170430   7.5772760  51.5753190  34.3423740
   8.1148700  50.7124280  33.2206400   7.1235660  52.5029950  40.5954200
   7.4207990  53.4092780  40.5146220   7.6721220  52.0148730  39.9813770
   4.8773980  57.0816190  36.4645850   4.6514900  56.8653360  37.3692470
   4.0966510  57.5144650  36.1191820  12.1071740  57.0879560  35.0636500
  11.5080630  57.8115360  34.8800120  12.6551350  57.0256340  34.2812950
   7.3173190  57.9801770  47.1306120   7.2216790  57.0396500  46.9806520
   8.1605170  58.2016840  46.7354190  10.7136610  55.7243100  37.0939780
  11.1066180  56.0415300  36.2808470  11.0753460  54.8454980  37.2084300
   2.4483730  54.3915440  45.2839900   2.0547120  55.2390650  45.4912680
   1.7602130  53.7541810  45.4748540   9.0228780  54.4750410  48.3536640
   8.3327100  54.2822610  48.9882730   9.7661080  54.7585050  48.8860940
  11.2991750  58.3148850  41.1890560  10.5672870  58.8235660  41.5380660
  10.9016090  57.4978830  40.8879340   7.7369140  54.9903050  39.5943050
   7.7405200  54.5493000  38.7447590   8.6320260  55.3120380  39.7014870
   3.5871520  54.8729540  38.5537260   3.2471570  55.3504770  39.3104310
   2.8248840  54.4194660  38.1938360   7.7989290  55.9915130  32.5849810
   7.9202110  55.9501610  33.5335630   7.4137800  56.8539280  32.4296540
  11.7617660  53.7682530  40.6013500  11.7790400  54.2191180  41.4455350
  11.5133240  52.8688170  40.8146940   6.8110790  58.3016270  31.9833110
   6.2427690  57.8534520  31.3569020   7.5199790  58.6609050  31.4498260
  15.1888410  51.1814710  46.4399880  15.5134180  50.4504370  46.9657860
  15.2244920  50.8628350  45.5380870   8.0377110  59.0504830  41.3408460
   8.4047240  58.5763400  42.0869800   7.8482170  59.9246400  41.6816800
   5.8276480  58.0913470  43.6592670   5.5233550  58.9705450  43.8843030
   6.7822940  58.1513260  43.6950110   4.3558270  62.2974460  34.2559520
   3.5820530  61.7572080  34.0958240   5.0852900  61.7781070  33.9177280
  15.1146250  61.2939820  40.0485910  15.8345370  61.7895110  39.6582020
  14.9128070  60.6157710  39.4039780  10.5756190  52.6877780  34.1915300
   9.7620800  52.1890950  34.1160610  10.3818140  53.5276030  33.7751650
  10.4965050  61.3648880  45.9354910  10.4302360  60.4444550  45.6812500
   9.8670190  61.4624320  46.6499550  13.2904580  57.0597430  32.4877460
  14.1784200  57.3714660  32.3128800  13.2609670  56.1869680  32.0958040
   4.3995670  61.9654840  37.8938330   4.9174340  61.1623100  37.8395220
   3.9479690  61.9033980  38.7355160   9.2865170  63.2321120  33.1665630
   9.6280870  63.9763350  32.6708950   8.4577880  63.5452240  33.5290460
   1.8840210  58.9316210  44.8064030   1.5255150  59.5970060  45.3937370
   1.5894770  58.0999760  45.1776650   5.0853330  59.3900450  47.6903580
   4.7853470  59.5357630  46.7931400   5.8564570  58.8305740  47.5976970
  10.4281780  64.1869450  45.6858710  10.4426320  63.2550410  45.4677620
   9.7206880  64.2729210  46.3248480  15.5618850  58.3709270  31.9557320
  15.4782570  58.8023490  31.1053760  16.2813040  58.8307620  32.3884140
  16.6392990  60.8276790  45.0327290  15.9141180  61.4205570  44.8356680
  17.1668450  60.8200330  44.2340660  16.5906100  65.2251530  34.6839450
  15.9482260  64.5707150  34.9583170  16.2036760  65.6306620  33.9080120
  12.1692580  62.5536960  38.5311140  12.5216400  61.9565090  37.8712510
  11.2854910  62.2281190  38.7019390   8.2555860  63.3134650  35.9381550
   8.9426990  63.8603860  36.3189140   7.4688280  63.8575380  35.9731160
   7.5583070  60.3180680  35.5506910   8.0145850  61.1285930  35.7767100
   7.2071280  60.0003820  36.3825400   9.8615680  65.8287020  42.7799210
  10.5057900  66.0346400  43.4572630  10.2245120  65.0675420  42.3270060
   3.4594850  50.6618330  36.0229430   3.3309480  50.6536230  36.9714350
   2.6356870  51.0001420  35.6720440  11.1347760  63.8319370  41.4976660
  11.7769990  63.1312530  41.6108830  11.6597110  64.6117810  41.3173550
  14.9803480  64.1167990  31.2215800  14.7541060  63.3998430  31.8140440
  14.5899680  63.8680430  30.3837550  12.9085380  64.6314270  44.7012720
  13.2441620  65.2180960  45.3790640  11.9885720  64.5006980  44.9310510
  14.5619730  62.0339930  32.8829960  14.2741430  62.4952620  33.6707840
  15.3571900  61.5737700  33.1514180   8.7373960  64.6805600  47.8700780
   8.4170830  63.9614840  48.4146470   8.0632320  65.3560670  47.9436840
   6.7788130  65.5266050  32.8133930   6.7698230  66.2595740  32.1978440
   5.8586490  65.2797630  32.9060890   2.3794770  60.7480940  33.5580690
   1.7722720  61.4879840  33.5675990   2.8544120  60.8380300  32.7318890
  11.9527560  54.9131760  43.2337580  12.3208380  54.0926970  43.5617150
  11.0925760  54.9733650  43.6493230  15.3189590  53.8688700  34.0425140
  14.6902750  53.9734370  33.3283370  14.8241510  54.0885480  34.8319020
   9.7647730  65.5894290  31.4759120   9.8659710  65.3858280  30.5461100
   8.8649470  65.3352570  31.6806900   7.2873620  56.1474650  35.4583020
   6.5789770  56.6160990  35.8996630   7.5718100  55.4896660  36.0928210
   8.9129550  57.5671350  43.4575550   9.4114800  58.0417170  44.1227400
   9.0552500  56.6434870  43.6645580  11.3189050  52.8725310  36.8978810
  11.1956830  52.8911440  35.9488320  12.2673610  52.9204250  37.0177210
   8.4065840  68.1080610  36.1706790   8.6607340  68.0702000  35.2486160
   7.4578320  67.9813940  36.1635040   5.4908640  54.4559730  32.8333730
   6.3399170  54.8929880  32.7673920   5.1239910  54.7679990  33.6605790
  16.1196410  53.7839310  44.3003940  15.6170010  54.5244710  44.6397750
  16.9353070  54.1723310  43.9840730  14.4118420  59.0272490  37.7465300
  13.4708560  59.0422720  37.9212990  14.7262490  58.2408450  38.1925600
   4.3900060  60.7092090  31.3069260   5.1563330  60.5973450  31.8694690
   4.4674750  60.0130060  30.6546030   3.0846820  58.1417160  31.9902150
   3.1650410  57.1944670  32.1019550   3.9766570  58.4724040  32.0962810
  16.4144000  66.1981340  39.4219560  16.5391420  67.0212510  39.8943370
  17.2809560  65.9872070  39.0743710   3.8861530  68.2912550  39.0936690
   4.6224010  67.7428010  39.3645260   4.2702450  69.1568560  38.9542680
   2.8919810  67.4758620  48.2822270   3.6932540  67.7970670  48.6957670
   2.3771630  67.1154200  49.0042180   6.9963840  67.4642860  30.9162260
   7.7892450  67.7531690  30.4644050   6.4768190  67.0335030  30.2374740
  11.7284440  63.5838490  48.2297680  11.1222600  63.6070090  47.4893430
  11.4238550  62.8521530  48.7664930  13.1584810  67.3118780  46.8407090
  14.1106560  67.2276800  46.7907330  13.0113030  67.9760490  47.5140880
  16.0494010  66.6912990  32.3399000  15.7635520  66.2778130  31.5253180
  15.8513560  67.6200700  32.2199520   7.5141240  62.6846270  30.7804610
   7.4091880  62.0698620  31.5065990   7.3465460  62.1612160  29.9967620
   7.6655560  61.3703070  46.7593840   6.9001230  61.9388070  46.6748510
   7.8471520  61.0779280  45.8662070  10.7543970  61.7466300  31.3846600
  10.2054070  62.1935600  32.0289340  11.3763230  61.2415550  31.9084270
  14.8078910  63.1008400  47.3168860  15.5488380  63.4384160  46.8136320
  14.0451590  63.2700460  46.7638630   2.6440700  58.1061670  48.1208390
   2.6846040  57.8075540  49.0293620   3.4986200  58.5069280  47.9615910
   6.4219090  60.7057220  33.2811900   6.8435510  60.5397090  34.1243290
   6.5469930  59.8957450  32.7867040   4.5846510  56.6853770  46.0882880
   4.0542970  56.1944720  45.4606220   5.2534580  57.1137970  45.5540810
   8.9346730  59.7294830  30.5289000   9.4552390  59.0143850  30.1630150
   9.5815130  60.3680700  30.8289510  13.4824570  61.1523230  45.8524070
  13.8965590  61.3068310  46.7014490  12.5475570  61.2778450  46.0149850
  13.9546740  58.4919390  47.8563220  14.5367510  57.7371710  47.7683700
  14.1308510  59.0226830  47.0794700   5.0718810  53.6516140  46.1680170
   4.9775680  53.0336890  45.4431040   4.4916200  54.3782430  45.9410080
   7.8380250  52.2089380  43.2007560   7.3897550  52.2313640  42.3553110
   7.2045450  51.8108400  43.7977860   8.2439800  61.1043710  43.8220000
   8.6627910  61.9476440  43.6496240   7.3248430  61.2415750  43.5926780
  10.5803700  58.8359890  45.2057840  10.6999910  58.2401030  45.9452680
  11.4397700  58.8729580  44.7859140  12.9191600  59.3897080  43.7820350
  12.3926820  59.9139700  43.1785490  13.2622940  60.0224470  44.4130080
   5.3177990  56.7790450  30.2270060   5.1167050  55.9157810  30.5883400
   5.1470040  56.6923810  29.2891660   6.0947220  67.4096720  44.9377730
   5.5568310  68.1342780  44.6186430   6.3481180  66.9327060  44.1475070
   7.3472470  55.3781240  46.4633660   7.9372160  55.0697090  47.1511480
   6.5292710  54.9060990  46.6193560  12.1665900  54.9947050  46.6966680
  11.4781420  54.3328590  46.6316670  12.8871920  54.5485320  47.1415140
  12.7966300  51.5898680  32.7556940  13.0768590  50.7466580  33.1116360
  12.0232030  51.8221790  33.2695690   4.1160790  53.8791070  30.2147940
   4.4186690  53.8858500  29.3067090   4.8555380  53.5288930  30.7115600
   8.9509430  68.6447930  45.1964380   8.8768130  69.5483070  45.5036750
   8.0488270  68.3259830  45.1686450   7.3345720  52.8225690  31.2004140
   6.9867720  52.1449680  30.6206590   7.5358490  52.3615200  32.0147530
   9.4994760  67.8106440  32.8190740  10.3945550  68.1491410  32.8409500
   9.5312390  67.0885850  32.1915020   3.1390920  63.1833490  31.0477740
   3.5765790  63.7263160  31.7035320   3.6238650  62.3580440  31.0574080
   4.9498640  64.3031530  36.1599970   4.6494180  64.1796500  37.0603880
   4.8436130  63.4440120  35.7515700  16.4789110  66.3410110  45.5256940
  15.8791100  66.4002670  44.7820860  16.6083010  65.4015090  45.6553790
  17.7190560  64.0827930  30.8626650  16.8883520  64.1504580  31.3333880
  17.8962390  64.9732050  30.5593510  17.1747020  60.8275410  33.3660850
  17.9365930  61.3972060  33.4720540  17.1901390  60.2602610  34.1369160
  18.1806990  61.6825510  38.2102780  18.5515820  60.8992830  37.8038750
  18.8208920  62.3714610  38.0320080  15.1640750  63.0662090  43.6233100
  14.3500590  63.4959250  43.8858890  15.5714950  63.6780500  43.0102150
  17.2266190  61.1209780  30.5233370  17.5015030  62.0288660  30.3952590
  17.0376930  61.0572310  31.4595360  13.6241800  54.1454630  31.8187000
  14.0426680  53.9585610  30.9783660  13.3177860  53.2933680  32.1289930
  17.1231530  59.0578770  35.5162800  16.7475130  58.2906700  35.0844090
  16.3934650  59.4401470  36.0037730  16.5131150  58.2050290  45.1502320
  16.2817240  57.9763040  44.2500270  16.7735700  59.1249840  45.1047210
  14.9519220  53.4306720  47.9282020  15.8289400  53.4390120  48.3116020
  14.9640060  52.6937560  47.3174370  16.3982490  57.2836260  38.8170040
  16.9219970  56.7898910  38.1860210  16.9841910  57.4186620  39.5617610
  16.5772210  57.3676130  42.3389590  15.6274920  57.3339670  42.4534580
  16.7585220  58.2776240  42.1039360   2.4316650  55.6177810  31.4488220
   3.1408350  55.1961030  30.9635500   1.7156590  55.6853040  30.8171570
   2.0790810  51.6717140  30.4890870   2.8018940  52.2126080  30.8072090
   2.3515330  51.3980560  29.6132410  15.8882460  56.5409610  34.7562450
  16.3841580  56.3080480  35.5411330  15.6898530  55.7021450  34.3400090
   1.7683000  50.9223330  40.3913490   2.4159190  50.3720710  39.9508650
   2.1884840  51.1766480  41.2129300  17.3169620  55.1770560  37.2900130
  17.2068900  55.0226600  38.2282400  18.0777210  54.6491500  37.0475540
  15.6635340  51.1164690  43.7483130  16.3007560  51.7298830  44.1142320
  15.8110230  51.1525350  42.8032360  18.2059890  53.0078480  30.5306270
  19.1309200  52.8759660  30.3224560  18.1835680  53.0871300  31.4842720
  18.2798380  53.7789140  33.1562980  17.4849880  53.7134260  33.6855890
  18.4841660  54.7139780  33.1448330  15.2216800  67.8180690  37.1501370
  15.8175870  67.4965260  36.4735790  15.4794950  67.3452510  37.9414640
   3.1279370  64.2498600  47.2992000   3.0849000  63.8791510  48.1806460
   3.2590380  65.1876170  47.4393820   6.8285400  65.8058190  42.9001720
   6.5876760  66.0732750  42.0132240   7.7688040  65.9763920  42.9552580
   9.0339820  52.2690880  46.6558230   8.9728710  52.8612710  47.4053640
   9.9740200  52.1616840  46.5108490  11.6714380  51.9260940  46.2950520
  12.2854790  52.2440230  45.6331600  12.2163940  51.4409530  46.9146380
  18.0889560  67.8252570  43.7012360  17.5947840  68.2221440  42.9839490
  17.4802850  67.2001780  44.0949640   2.1935640  50.6055200  46.4089580
   2.7418630  50.4243250  45.6455690   2.2590950  49.8149310  46.9445890
   2.9667400  67.1960850  44.4189780   2.3727720  67.0645550  45.1579820
   2.9591240  66.3598990  43.9531880  12.4122420  50.4893080  42.6219810
  11.5382260  50.8228190  42.4192740  12.3033170  50.0166260  43.4471680
  13.3194400  52.6963950  44.0061530  12.9907760  51.8815710  43.6263260
  14.2676700  52.6533760  43.8827220  15.7729010  68.4675990  40.9799100
  15.3131980  69.2191800  40.6057120  15.1441470  67.7482460  40.9213900
   2.5979630  64.5619230  43.3697820   1.8713690  63.9424520  43.3023770
   2.6588780  64.9559840  42.4995900   6.2024730  66.7764230  40.1547230
   6.7189750  66.1651590  39.6295490   6.8522110  67.2793010  40.6458240
   8.9420230  67.6672720  40.9816210   9.2298040  67.4127020  40.1049220
   9.4543450  67.1150080  41.5721780  10.1597240  51.4062920  41.5612720
   9.3769030  51.8808420  41.8409480   9.8660170  50.5017750  41.4525900
  14.7118310  52.1086020  39.6061810  15.1526400  52.0531120  38.7583410
  14.4425900  53.0244030  39.6771990  16.5756880  51.7401260  37.6170630
  16.5145280  50.7962480  37.4701650  17.3548910  51.8481350  38.1624090
   8.0451460  53.8249670  37.0728750   7.2325970  53.4506560  36.7324630
   8.5493100  53.0694750  37.3749940  12.5476440  50.4892120  38.3111820
  13.1505810  51.0612330  38.7860340  11.8069430  51.0531560  38.0885720
  15.6911040  50.8913680  33.5852100  15.8861670  51.7897130  33.8519530
  14.9040910  50.6600760  34.0785050   2.4872330  66.5726850  34.0244720
   1.9619950  66.9534880  33.3206680   2.4116910  67.1977620  34.7454430
   3.8762800  52.2374450  32.6228410   4.4055560  51.4504250  32.4936360
   4.5091120  52.9165640  32.8563940   6.0700640  51.9749590  35.6773800
   5.4403380  51.2736900  35.8443930   5.5305780  52.7353720  35.4606960
   9.0092590  68.5888820  48.3484410   9.9359900  68.3533090  48.3920370
   8.9943020  69.4160820  47.8670440  17.2437650  68.1314390  35.3458660
  17.4189840  67.4452130  34.7019580  16.5459220  68.6561440  34.9535330
   6.1956200  51.2533570  48.1126290   5.9140470  51.7567170  47.3487110
   6.5775900  50.4555320  47.7468420   5.0865300  68.5209230  32.8993970
   5.8184120  68.2368510  32.3517860   5.3458970  68.2822510  33.7893350
   4.2480090  64.6373960  32.9040300   3.6188970  65.1059060  33.4526130
   4.3627920  63.7923180  33.3386490  12.7971660  50.6687150  48.6906760
  12.6837110  50.9881760  49.5858280  13.6141400  51.0699660  48.3944040
  15.5770150  67.8158680  48.1725450  16.3695470  67.3207910  47.9651410
  15.8703300  68.4948820  48.7801060  11.7029810  58.6879620  19.0541500
  11.6223860  57.7734230  18.7833210  11.2894230  59.1846690  18.3481210
   9.8347850  60.4658640  20.9350770   9.0589950  59.9859080  21.2249340
  10.4860780  59.7864290  20.7606930   3.8513680  60.7778450  21.8126530
   3.0198560  60.5227160  22.2123040   4.4594660  60.8489220  22.5484450
  13.8555280  64.8718830  19.7149900  13.3936810  64.1006070  20.0437070
  14.6680830  64.8984900  20.2202350   3.8314940  64.8118540  22.0084550
   4.1342980  63.9216280  21.8294770   4.5758530  65.3688760  21.7806800
  10.0818590  67.1576840  19.3353890   9.4630030  67.6134340  18.7648330
  10.9370370  67.3128300  18.9343590   9.2756840  63.1415830  20.9420930
   9.2065120  62.2005770  20.7810060  10.0376700  63.2317240  21.5143500
  10.3062010  55.9486210  21.1689860  10.6826830  55.0758090  21.0563530
  10.2081520  56.2844910  20.2780300   4.4367020  54.3211840  16.6307300
   4.5433770  55.2215570  16.9376060   3.5259380  54.2729810  16.3401950
  14.0886130  53.4436650  18.1018200  14.9095750  52.9533220  18.1443680
  14.1220210  54.0334310  18.8550040   2.0850180  56.2430850  21.8759890
   2.7660290  56.5069220  22.4947290   1.7698230  55.4031720  22.2097900
   6.2774750  57.2898210  20.9632480   6.7852970  57.7879180  21.6037500
   6.8087990  56.5133410  20.7871840  18.3785680  55.4603400  24.6661830
  17.6737850  55.8485110  24.1476940  18.6443600  56.1553690  25.2682760
   4.5610850  51.9296770  25.2295900   4.5629290  52.4469160  24.4241800
   3.7315160  51.4526950  25.2065830  10.9481940  62.0416080  16.7285800
  10.3299210  62.5065530  16.1648520  11.4605190  62.7343560  17.1455310
   5.8113700  61.5691950  23.4069400   5.4783080  62.1960870  24.0490470
   5.9880380  62.0953830  22.6271070  14.3247610  55.3837030  20.8745740
  13.6203180  55.6721920  21.4548850  14.6859770  56.1937140  20.5145300
   4.2426180  53.6406730  23.2366350   4.5842990  54.4848780  22.9420220
   3.3041990  53.7890470  23.3531690   5.0232800  63.5372750  25.2218580
   5.6406800  64.2123830  24.9403030   4.1625920  63.9460730  25.1306080
  15.9410390  65.0012160  23.1373220  15.2573910  65.6711270  23.1289890
  16.4804680  65.1992810  22.3718080  17.3934530  54.8291820  21.2654950
  16.4459440  54.8630800  21.3970380  17.7184520  55.6430770  21.6504310
   7.9254070  51.1289000  19.5610940   8.2329050  50.5735890  18.8446440
   6.9954770  51.2633460  19.3783930  13.4769130  66.8456290  21.8518400
  13.4896290  66.4418580  20.9840660  12.9244350  67.6203580  21.7479830
  14.7714550  63.5672510  16.9408570  14.6610880  62.6246840  17.0657990
  14.7682800  63.9288150  17.8271330  12.8754570  61.7486130  23.1801010
  13.2923360  61.5346240  22.3454470  13.5994390  62.0058920  23.7509630
  10.3134830  59.1937830  16.2971060   9.3864110  59.1275210  16.5259530
  10.4659650  60.1317960  16.1826300  10.3003910  55.4654830  13.2938220
   9.3607580  55.6268790  13.3790680  10.6187170  56.1840510  12.7474210
  16.8216670  60.1473350  23.2717250  15.9935300  60.2166440  22.7967380
  17.4167150  60.7327660  22.8033080  14.3432120  60.7558130  16.8006310
  13.7244540  60.4177680  16.1532610  14.3256570  60.1117890  17.5085500
  13.7858680  56.9342670  24.2172120  13.3729860  57.7596380  24.4712110
  13.0534630  56.3487710  24.0248480   5.9191470  59.7202570  19.0790790
   5.5148470  59.0079820  18.5836690   6.0054590  59.3755810  19.9678830
   6.3873170  63.4070130  21.2430000   6.0901460  62.8015600  20.5637780
   7.3372990  63.4447440  21.1319360   4.6320090  56.4945780  22.8589830
   5.1834680  56.6041120  22.0843080   5.1463600  56.8683380  23.5745060
  14.4758780  66.9802000  24.9053100  13.9989340  67.7874190  24.7125710
  13.7920570  66.3280330  25.0579310   5.4791600  63.1451820  27.8937800
   4.5820130  63.3691790  28.1411200   5.5044470  63.2686760  26.9449200
  12.5196820  59.9944940  13.8079060  12.9590100  59.1567370  13.6616880
  13.2325240  60.6274340  13.8943200   4.3062820  60.0165140  26.4695170
   4.1670590  60.8887940  26.8382570   3.4244180  59.6737950  26.3243110
  10.6292200  64.9341010  17.7760300  11.0688110  65.6765340  17.3615690
  10.5679090  65.1767580  18.6999260   6.1043170  65.9586840  28.6780320
   6.0758600  66.3629790  27.8108750   5.9408140  65.0297200  28.5151920
  16.1013960  51.2487750  12.1220100  15.7886620  51.3414580  13.0219170
  16.8626430  51.8268780  12.0717530   2.6196100  58.6147550  16.5797440
   2.4993700  59.3409640  15.9678710   2.3096990  57.8450460  16.1025350
  18.0557990  66.7413940  29.9744490  18.5317710  67.2196830  30.6533570
  18.6765150  66.6731430  29.2489990  17.4591240  63.9326790  27.1344500
  17.5854300  63.6938670  26.2161680  17.5012620  63.1011330  27.6066580
  11.3207980  67.6354790  25.7039310  11.8352650  67.5462800  26.5061740
  10.4777060  67.9814490  25.9967220  13.2962380  67.9210130  15.1323310
  13.1363520  67.6313070  16.0305140  13.1309090  67.1450260  14.5968540
   5.7750760  67.7008660  16.9094930   5.5993240  66.7844200  16.6962730
   4.9206500  68.0595950  17.1492730  12.9988510  65.4297690  13.6921310
  12.3053670  65.4274980  13.0323590  13.7411370  65.0057010  13.2615480
  12.5638440  67.0560400  17.7669800  13.0195390  66.2749780  18.0808420
  12.9030960  67.7667220  18.3110980  17.3115250  55.9859250  28.0994240
  16.6959520  56.4938920  27.5709700  16.9911670  55.0857580  28.0420180
   5.0859760  51.9582620  19.9621110   4.6427910  52.7392160  19.6305630
   5.6444750  52.2812510  20.6692050   9.3729570  54.8251140  25.5656430
   8.9108940  55.0334160  26.3776370   8.9707680  54.0110490  25.2627100
  14.3734080  56.0460090  26.6953090  13.5227670  55.7465840  27.0162160
  14.2135870  56.2902100  25.7836910  11.4683790  57.5461840  28.7951880
  11.7937200  56.7125590  28.4554110  12.2564120  58.0690360  28.9430210
   8.2018580  51.5793320  14.8426940   7.5772760  51.5753190  15.5680250
   8.1148700  50.7124280  14.4462910   7.1235660  52.5029950  21.8210710
   7.4207990  53.4092780  21.7402730   7.6721220  52.0148730  21.2070280
   4.8773980  57.0816190  17.6902360   4.6514900  56.8653360  18.5948980
   4.0966510  57.5144650  17.3448330  12.1071740  57.0879560  16.2893010
  11.5080630  57.8115360  16.1056630  12.6551350  57.0256340  15.5069460
   7.3173190  57.9801770  28.3562630   7.2216790  57.0396500  28.2063030
   8.1605170  58.2016840  27.9610700  10.7136610  55.7243100  18.3196290
  11.1066180  56.0415300  17.5064980  11.0753460  54.8454980  18.4340810
   2.4483730  54.3915440  26.5096410   2.0547120  55.2390650  26.7169190
   1.7602130  53.7541810  26.7005050   9.0228780  54.4750410  29.5793150
   8.3327100  54.2822610  30.2139240   9.7661080  54.7585050  30.1117450
  11.2991750  58.3148850  22.4147070  10.5672870  58.8235660  22.7637170
  10.9016090  57.4978830  22.1135850   7.7369140  54.9903050  20.8199560
   7.7405200  54.5493000  19.9704100   8.6320260  55.3120380  20.9271380
   3.5871520  54.8729540  19.7793770   3.2471570  55.3504770  20.5360820
   2.8248840  54.4194660  19.4194870   7.7989290  55.9915130  13.8106320
   7.9202110  55.9501610  14.7592140   7.4137800  56.8539280  13.6553050
  11.7617660  53.7682530  21.8270010  11.7790400  54.2191180  22.6711860
  11.5133240  52.8688170  22.0403450   6.8110790  58.3016270  13.2089620
   6.2427690  57.8534520  12.5825530   7.5199790  58.6609050  12.6754770
  15.1888410  51.1814710  27.6656390  15.5134180  50.4504370  28.1914370
  15.2244920  50.8628350  26.7637380   8.0377110  59.0504830  22.5664970
   8.4047240  58.5763400  23.3126310   7.8482170  59.9246400  22.9073310
   5.8276480  58.0913470  24.8849180   5.5233550  58.9705450  25.1099540
   6.7822940  58.1513260  24.9206620   4.3558270  62.2974460  15.4816030
   3.5820530  61.7572080  15.3214750   5.0852900  61.7781070  15.1433790
  15.1146250  61.2939820  21.2742420  15.8345370  61.7895110  20.8838530
  14.9128070  60.6157710  20.6296290  10.5756190  52.6877780  15.4171810
   9.7620800  52.1890950  15.3417120  10.3818140  53.5276030  15.0008160
  10.4965050  61.3648880  27.1611420  10.4302360  60.4444550  26.9069010
   9.8670190  61.4624320  27.8756060  13.2904580  57.0597430  13.7133970
  14.1784200  57.3714660  13.5385310  13.2609670  56.1869680  13.3214550
   4.3995670  61.9654840  19.1194840   4.9174340  61.1623100  19.0651730
   3.9479690  61.9033980  19.9611670   9.2865170  63.2321120  14.3922140
   9.6280870  63.9763350  13.8965460   8.4577880  63.5452240  14.7546970
   1.8840210  58.9316210  26.0320540   1.5255150  59.5970060  26.6193880
   1.5894770  58.0999760  26.4033160   5.0853330  59.3900450  28.9160090
   4.7853470  59.5357630  28.0187910   5.8564570  58.8305740  28.8233480
  10.4281780  64.1869450  26.9115220  10.4426320  63.2550410  26.6934130
   9.7206880  64.2729210  27.5504990  15.5618850  58.3709270  13.1813830
  15.4782570  58.8023490  12.3310270  16.2813040  58.8307620  13.6140650
  16.6392990  60.8276790  26.2583800  15.9141180  61.4205570  26.0613190
  17.1668450  60.8200330  25.4597170  16.5906100  65.2251530  15.9095960
  15.9482260  64.5707150  16.1839680  16.2036760  65.6306620  15.1336630
  12.1692580  62.5536960  19.7567650  12.5216400  61.9565090  19.0969020
  11.2854910  62.2281190  19.9275900   8.2555860  63.3134650  17.1638060
   8.9426990  63.8603860  17.5445650   7.4688280  63.8575380  17.1987670
   7.5583070  60.3180680  16.7763420   8.0145850  61.1285930  17.0023610
   7.2071280  60.0003820  17.6081910   9.8615680  65.8287020  24.0055720
  10.5057900  66.0346400  24.6829140  10.2245120  65.0675420  23.5526570
   3.4594850  50.6618330  17.2485940   3.3309480  50.6536230  18.1970860
   2.6356870  51.0001420  16.8976950  11.1347760  63.8319370  22.7233170
  11.7769990  63.1312530  22.8365340  11.6597110  64.6117810  22.5430060
  14.9803480  64.1167990  12.4472310  14.7541060  63.3998430  13.0396950
  14.5899680  63.8680430  11.6094060  12.9085380  64.6314270  25.9269230
  13.2441620  65.2180960  26.6047150  11.9885720  64.5006980  26.1567020
  14.5619730  62.0339930  14.1086470  14.2741430  62.4952620  14.8964350
  15.3571900  61.5737700  14.3770690   8.7373960  64.6805600  29.0957290
   8.4170830  63.9614840  29.6402980   8.0632320  65.3560670  29.1693350
   6.7788130  65.5266050  14.0390440   6.7698230  66.2595740  13.4234950
   5.8586490  65.2797630  14.1317400   2.3794770  60.7480940  14.7837200
   1.7722720  61.4879840  14.7932500   2.8544120  60.8380300  13.9575400
  11.9527560  54.9131760  24.4594090  12.3208380  54.0926970  24.7873660
  11.0925760  54.9733650  24.8749740  15.3189590  53.8688700  15.2681650
  14.6902750  53.9734370  14.5539880  14.8241510  54.0885480  16.0575530
   9.7647730  65.5894290  12.7015630   9.8659710  65.3858280  11.7717610
   8.8649470  65.3352570  12.9063410   7.2873620  56.1474650  16.6839530
   6.5789770  56.6160990  17.1253140   7.5718100  55.4896660  17.3184720
   8.9129550  57.5671350  24.6832060   9.4114800  58.0417170  25.3483910
   9.0552500  56.6434870  24.8902090  11.3189050  52.8725310  18.1235320
  11.1956830  52.8911440  17.1744830  12.2673610  52.9204250  18.2433720
   8.4065840  68.1080610  17.3963300   8.6607340  68.0702000  16.4742670
   7.4578320  67.9813940  17.3891550   5.4908640  54.4559730  14.0590240
   6.3399170  54.8929880  13.9930430   5.1239910  54.7679990  14.8862300
  16.1196410  53.7839310  25.5260450  15.6170010  54.5244710  25.8654260
  16.9353070  54.1723310  25.2097240  14.4118420  59.0272490  18.9721810
  13.4708560  59.0422720  19.1469500  14.7262490  58.2408450  19.4182110
   4.3900060  60.7092090  12.5325770   5.1563330  60.5973450  13.0951200
   4.4674750  60.0130060  11.8802540   3.0846820  58.1417160  13.2158660
   3.1650410  57.1944670  13.3276060   3.9766570  58.4724040  13.3219320
  16.4144000  66.1981340  20.6476070  16.5391420  67.0212510  21.1199880
  17.2809560  65.9872070  20.3000220   3.8861530  68.2912550  20.3193200
   4.6224010  67.7428010  20.5901770   4.2702450  69.1568560  20.1799190
   2.8919810  67.4758620  29.5078780   3.6932540  67.7970670  29.9214180
   2.3771630  67.1154200  30.2298690   6.9963840  67.4642860  12.1418770
   7.7892450  67.7531690  11.6900560   6.4768190  67.0335030  11.4631250
  11.7284440  63.5838490  29.4554190  11.1222600  63.6070090  28.7149940
  11.4238550  62.8521530  29.9921440  13.1584810  67.3118780  28.0663600
  14.1106560  67.2276800  28.0163840  13.0113030  67.9760490  28.7397390
  16.0494010  66.6912990  13.5655510  15.7635520  66.2778130  12.7509690
  15.8513560  67.6200700  13.4456030   7.5141240  62.6846270  12.0061120
   7.4091880  62.0698620  12.7322500   7.3465460  62.1612160  11.2224130
   7.6655560  61.3703070  27.9850350   6.9001230  61.9388070  27.9005020
   7.8471520  61.0779280  27.0918580  10.7543970  61.7466300  12.6103110
  10.2054070  62.1935600  13.2545850  11.3763230  61.2415550  13.1340780
  14.8078910  63.1008400  28.5425370  15.5488380  63.4384160  28.0392830
  14.0451590  63.2700460  27.9895140   2.6440700  58.1061670  29.3464900
   2.6846040  57.8075540  30.2550130   3.4986200  58.5069280  29.1872420
   6.4219090  60.7057220  14.5068410   6.8435510  60.5397090  15.3499800
   6.5469930  59.8957450  14.0123550   4.5846510  56.6853770  27.3139390
   4.0542970  56.1944720  26.6862730   5.2534580  57.1137970  26.7797320
   8.9346730  59.7294830  11.7545510   9.4552390  59.0143850  11.3886660
   9.5815130  60.3680700  12.0546020  13.4824570  61.1523230  27.0780580
  13.8965590  61.3068310  27.9271000  12.5475570  61.2778450  27.2406360
  13.9546740  58.4919390  29.0819730  14.5367510  57.7371710  28.9940210
  14.1308510  59.0226830  28.3051210   5.0718810  53.6516140  27.3936680
   4.9775680  53.0336890  26.6687550   4.4916200  54.3782430  27.1666590
   7.8380250  52.2089380  24.4264070   7.3897550  52.2313640  23.5809620
   7.2045450  51.8108400  25.0234370   8.2439800  61.1043710  25.0476510
   8.6627910  61.9476440  24.8752750   7.3248430  61.2415750  24.8183290
  10.5803700  58.8359890  26.4314350  10.6999910  58.2401030  27.1709190
  11.4397700  58.8729580  26.0115650  12.9191600  59.3897080  25.0076860
  12.3926820  59.9139700  24.4042000  13.2622940  60.0224470  25.6386590
   5.3177990  56.7790450  11.4526570   5.1167050  55.9157810  11.8139910
   5.1470040  56.6923810  10.5148170   6.0947220  67.4096720  26.1634240
   5.5568310  68.1342780  25.8442940   6.3481180  66.9327060  25.3731580
   7.3472470  55.3781240  27.6890170   7.9372160  55.0697090  28.3767990
   6.5292710  54.9060990  27.8450070  12.1665900  54.9947050  27.9223190
  11.4781420  54.3328590  27.8573180  12.8871920  54.5485320  28.3671650
  12.7966300  51.5898680  13.9813450  13.0768590  50.7466580  14.3372870
  12.0232030  51.8221790  14.4952200   4.1160790  53.8791070  11.4404450
   4.4186690  53.8858500  10.5323600   4.8555380  53.5288930  11.9372110
   8.9509430  68.6447930  26.4220890   8.8768130  69.5483070  26.7293260
   8.0488270  68.3259830  26.3942960   7.3345720  52.8225690  12.4260650
   6.9867720  52.1449680  11.8463100   7.5358490  52.3615200  13.2404040
   9.4994760  67.8106440  14.0447250  10.3945550  68.1491410  14.0666010
   9.5312390  67.0885850  13.4171530   3.1390920  63.1833490  12.2734250
   3.5765790  63.7263160  12.9291830   3.6238650  62.3580440  12.2830590
   4.9498640  64.3031530  17.3856480   4.6494180  64.1796500  18.2860390
   4.8436130  63.4440120  16.9772210  16.4789110  66.3410110  26.7513450
  15.8791100  66.4002670  26.0077370  16.6083010  65.4015090  26.8810300
  17.7190560  64.0827930  12.0883160  16.8883520  64.1504580  12.5590390
  17.8962390  64.9732050  11.7850020  17.1747020  60.8275410  14.5917360
  17.9365930  61.3972060  14.6977050  17.1901390  60.2602610  15.3625670
  18.1806990  61.6825510  19.4359290  18.5515820  60.8992830  19.0295260
  18.8208920  62.3714610  19.2576590  15.1640750  63.0662090  24.8489610
  14.3500590  63.4959250  25.1115400  15.5714950  63.6780500  24.2358660
  17.2266190  61.1209780  11.7489880  17.5015030  62.0288660  11.6209100
  17.0376930  61.0572310  12.6851870  13.6241800  54.1454630  13.0443510
  14.0426680  53.9585610  12.2040170  13.3177860  53.2933680  13.3546440
  17.1231530  59.0578770  16.7419310  16.7475130  58.2906700  16.3100600
  16.3934650  59.4401470  17.2294240  16.5131150  58.2050290  26.3758830
  16.2817240  57.9763040  25.4756780  16.7735700  59.1249840  26.3303720
  14.9519220  53.4306720  29.1538530  15.8289400  53.4390120  29.5372530
  14.9640060  52.6937560  28.5430880  16.3982490  57.2836260  20.0426550
  16.9219970  56.7898910  19.4116720  16.9841910  57.4186620  20.7874120
  16.5772210  57.3676130  23.5646100  15.6274920  57.3339670  23.6791090
  16.7585220  58.2776240  23.3295870   2.4316650  55.6177810  12.6744730
   3.1408350  55.1961030  12.1892010   1.7156590  55.6853040  12.0428080
   2.0790810  51.6717140  11.7147380   2.8018940  52.2126080  12.0328600
   2.3515330  51.3980560  10.8388920  15.8882460  56.5409610  15.9818960
  16.3841580  56.3080480  16.7667840  15.6898530  55.7021450  15.5656600
   1.7683000  50.9223330  21.6170000   2.4159190  50.3720710  21.1765160
   2.1884840  51.1766480  22.4385810  17.3169620  55.1770560  18.5156640
  17.2068900  55.0226600  19.4538910  18.0777210  54.6491500  18.2732050
  15.6635340  51.1164690  24.9739640  16.3007560  51.7298830  25.3398830
  15.8110230  51.1525350  24.0288870  18.2059890  53.0078480  11.7562780
  19.1309200  52.8759660  11.5481070  18.1835680  53.0871300  12.7099230
  18.2798380  53.7789140  14.3819490  17.4849880  53.7134260  14.9112400
  18.4841660  54.7139780  14.3704840  15.2216800  67.8180690  18.3757880
  15.8175870  67.4965260  17.6992300  15.4794950  67.3452510  19.1671150
   3.1279370  64.2498600  28.5248510   3.0849000  63.8791510  29.4062970
   3.2590380  65.1876170  28.6650330   6.8285400  65.8058190  24.1258230
   6.5876760  66.0732750  23.2388750   7.7688040  65.9763920  24.1809090
   9.0339820  52.2690880  27.8814740   8.9728710  52.8612710  28.6310150
   9.9740200  52.1616840  27.7365000  11.6714380  51.9260940  27.5207030
  12.2854790  52.2440230  26.8588110  12.2163940  51.4409530  28.1402890
  18.0889560  67.8252570  24.9268870  17.5947840  68.2221440  24.2096000
  17.4802850  67.2001780  25.3206150   2.1935640  50.6055200  27.6346090
   2.7418630  50.4243250  26.8712200   2.2590950  49.8149310  28.1702400
   2.9667400  67.1960850  25.6446290   2.3727720  67.0645550  26.3836330
   2.9591240  66.3598990  25.1788390  12.4122420  50.4893080  23.8476320
  11.5382260  50.8228190  23.6449250  12.3033170  50.0166260  24.6728190
  13.3194400  52.6963950  25.2318040  12.9907760  51.8815710  24.8519770
  14.2676700  52.6533760  25.1083730  15.7729010  68.4675990  22.2055610
  15.3131980  69.2191800  21.8313630  15.1441470  67.7482460  22.1470410
   2.5979630  64.5619230  24.5954330   1.8713690  63.9424520  24.5280280
   2.6588780  64.9559840  23.7252410   6.2024730  66.7764230  21.3803740
   6.7189750  66.1651590  20.8552000   6.8522110  67.2793010  21.8714750
   8.9420230  67.6672720  22.2072720   9.2298040  67.4127020  21.3305730
   9.4543450  67.1150080  22.7978290  10.1597240  51.4062920  22.7869230
   9.3769030  51.8808420  23.0665990   9.8660170  50.5017750  22.6782410
  14.7118310  52.1086020  20.8318320  15.1526400  52.0531120  19.9839920
  14.4425900  53.0244030  20.9028500  16.5756880  51.7401260  18.8427140
  16.5145280  50.7962480  18.6958160  17.3548910  51.8481350  19.3880600
   8.0451460  53.8249670  18.2985260   7.2325970  53.4506560  17.9581140
   8.5493100  53.0694750  18.6006450  12.5476440  50.4892120  19.5368330
  13.1505810  51.0612330  20.0116850  11.8069430  51.0531560  19.3142230
  15.6911040  50.8913680  14.8108610  15.8861670  51.7897130  15.0776040
  14.9040910  50.6600760  15.3041560   2.4872330  66.5726850  15.2501230
   1.9619950  66.9534880  14.5463190   2.4116910  67.1977620  15.9710940
   3.8762800  52.2374450  13.8484920   4.4055560  51.4504250  13.7192870
   4.5091120  52.9165640  14.0820450   6.0700640  51.9749590  16.9030310
   5.4403380  51.2736900  17.0700440   5.5305780  52.7353720  16.6863470
   9.0092590  68.5888820  29.5740920   9.9359900  68.3533090  29.6176880
   8.9943020  69.4160820  29.0926950  17.2437650  68.1314390  16.5715170
  17.4189840  67.4452130  15.9276090  16.5459220  68.6561440  16.1791840
   6.1956200  51.2533570  29.3382800   5.9140470  51.7567170  28.5743620
   6.5775900  50.4555320  28.9724930   5.0865300  68.5209230  14.1250480
   5.8184120  68.2368510  13.5774370   5.3458970  68.2822510  15.0149860
   4.2480090  64.6373960  14.1296810   3.6188970  65.1059060  14.6782640
   4.3627920  63.7923180  14.5643000  12.7971660  50.6687150  29.9163270
  12.6837110  50.9881760  30.8114790  13.6141400  51.0699660  29.6200550
  15.5770150  67.8158680  29.3981960  16.3695470  67.3207910  29.1907920
  15.8703300  68.4948820  30.0057570   9.8347850  60.4658640   2.1607280
   9.0589950  59.9859080   2.4505850  10.4860780  59.7864290   1.9863440
   3.8513680  60.7778450   3.0383040   3.0198560  60.5227160   3.4379550
   4.4594660  60.8489220   3.7740960   3.8314940  64.8118540   3.2341060
   4.1342980  63.9216280   3.0551280   4.5758530  65.3688760   3.0063310
   9.2756840  63.1415830   2.1677440   9.2065120  62.2005770   2.0066570
  10.0376700  63.2317240   2.7400010  10.3062010  55.9486210   2.3946370
  10.6826830  55.0758090   2.2820040  10.2081520  56.2844910   1.5036810
   2.0850180  56.2430850   3.1016400   2.7660290  56.5069220   3.7203800
   1.7698230  55.4031720   3.4354410   6.2774750  57.2898210   2.1888990
   6.7852970  57.7879180   2.8294010   6.8087990  56.5133410   2.0128350
  18.3785680  55.4603400   5.8918340  17.6737850  55.8485110   5.3733450
  18.6443600  56.1553690   6.4939270   4.5610850  51.9296770   6.4552410
   4.5629290  52.4469160   5.6498310   3.7315160  51.4526950   6.4322340
   5.8113700  61.5691950   4.6325910   5.4783080  62.1960870   5.2746980
   5.9880380  62.0953830   3.8527580  14.3247610  55.3837030   2.1002250
  13.6203180  55.6721920   2.6805360  14.6859770  56.1937140   1.7401810
   4.2426180  53.6406730   4.4622860   4.5842990  54.4848780   4.1676730
   3.3041990  53.7890470   4.5788200   5.0232800  63.5372750   6.4475090
   5.6406800  64.2123830   6.1659540   4.1625920  63.9460730   6.3562590
  15.9410390  65.0012160   4.3629730  15.2573910  65.6711270   4.3546400
  16.4804680  65.1992810   3.5974590  17.3934530  54.8291820   2.4911460
  16.4459440  54.8630800   2.6226890  17.7184520  55.6430770   2.8760820
  13.4769130  66.8456290   3.0774910  13.4896290  66.4418580   2.2097170
  12.9244350  67.6203580   2.9736340  12.8754570  61.7486130   4.4057520
  13.2923360  61.5346240   3.5710980  13.5994390  62.0058920   4.9766140
  16.8216670  60.1473350   4.4973760  15.9935300  60.2166440   4.0223890
  17.4167150  60.7327660   4.0289590  13.7858680  56.9342670   5.4428630
  13.3729860  57.7596380   5.6968620  13.0534630  56.3487710   5.2504990
   6.3873170  63.4070130   2.4686510   6.0901460  62.8015600   1.7894290
   7.3372990  63.4447440   2.3575870   4.6320090  56.4945780   4.0846340
   5.1834680  56.6041120   3.3099590   5.1463600  56.8683380   4.8001570
  14.4758780  66.9802000   6.1309610  13.9989340  67.7874190   5.9382220
  13.7920570  66.3280330   6.2835820   5.4791600  63.1451820   9.1194310
   4.5820130  63.3691790   9.3667710   5.5044470  63.2686760   8.1705710
   4.3062820  60.0165140   7.6951680   4.1670590  60.8887940   8.0639080
   3.4244180  59.6737950   7.5499620   6.1043170  65.9586840   9.9036830
   6.0758600  66.3629790   9.0365260   5.9408140  65.0297200   9.7408430
  18.0557990  66.7413940  11.2001000  18.5317710  67.2196830  11.8790080
  18.6765150  66.6731430  10.4746500  17.4591240  63.9326790   8.3601010
  17.5854300  63.6938670   7.4418190  17.5012620  63.1011330   8.8323090
  11.3207980  67.6354790   6.9295820  11.8352650  67.5462800   7.7318250
  10.4777060  67.9814490   7.2223730  17.3115250  55.9859250   9.3250750
  16.6959520  56.4938920   8.7966210  16.9911670  55.0857580   9.2676690
   9.3729570  54.8251140   6.7912940   8.9108940  55.0334160   7.6032880
   8.9707680  54.0110490   6.4883610  14.3734080  56.0460090   7.9209600
  13.5227670  55.7465840   8.2418670  14.2135870  56.2902100   7.0093420
  11.4683790  57.5461840  10.0208390  11.7937200  56.7125590   9.6810620
  12.2564120  58.0690360  10.1686720   7.1235660  52.5029950   3.0467220
   7.4207990  53.4092780   2.9659240   7.6721220  52.0148730   2.4326790
   7.3173190  57.9801770   9.5819140   7.2216790  57.0396500   9.4319540
   8.1605170  58.2016840   9.1867210   2.4483730  54.3915440   7.7352920
   2.0547120  55.2390650   7.9425700   1.7602130  53.7541810   7.9261560
   9.0228780  54.4750410  10.8049660   8.3327100  54.2822610  11.4395750
   9.7661080  54.7585050  11.3373960  11.2991750  58.3148850   3.6403580
  10.5672870  58.8235660   3.9893680  10.9016090  57.4978830   3.3392360
  11.7617660  53.7682530   3.0526520  11.7790400  54.2191180   3.8968370
  11.5133240  52.8688170   3.2659960  15.1888410  51.1814710   8.8912900
  15.5134180  50.4504370   9.4170880  15.2244920  50.8628350   7.9893890
   8.0377110  59.0504830   3.7921480   8.4047240  58.5763400   4.5382820
   7.8482170  59.9246400   4.1329820   5.8276480  58.0913470   6.1105690
   5.5233550  58.9705450   6.3356050   6.7822940  58.1513260   6.1463130
  15.1146250  61.2939820   2.4998930  15.8345370  61.7895110   2.1095040
  14.9128070  60.6157710   1.8552800  10.4965050  61.3648880   8.3867930
  10.4302360  60.4444550   8.1325520   9.8670190  61.4624320   9.1012570
   1.8840210  58.9316210   7.2577050   1.5255150  59.5970060   7.8450390
   1.5894770  58.0999760   7.6289670   5.0853330  59.3900450  10.1416600
   4.7853470  59.5357630   9.2444420   5.8564570  58.8305740  10.0489990
  10.4281780  64.1869450   8.1371730  10.4426320  63.2550410   7.9190640
   9.7206880  64.2729210   8.7761500  16.6392990  60.8276790   7.4840310
  15.9141180  61.4205570   7.2869700  17.1668450  60.8200330   6.6853680
   9.8615680  65.8287020   5.2312230  10.5057900  66.0346400   5.9085650
  10.2245120  65.0675420   4.7783080  11.1347760  63.8319370   3.9489680
  11.7769990  63.1312530   4.0621850  11.6597110  64.6117810   3.7686570
  12.9085380  64.6314270   7.1525740  13.2441620  65.2180960   7.8303660
  11.9885720  64.5006980   7.3823530   8.7373960  64.6805600  10.3213800
   8.4170830  63.9614840  10.8659490   8.0632320  65.3560670  10.3949860
  11.9527560  54.9131760   5.6850600  12.3208380  54.0926970   6.0130170
  11.0925760  54.9733650   6.1006250   8.9129550  57.5671350   5.9088570
   9.4114800  58.0417170   6.5740420   9.0552500  56.6434870   6.1158600
  16.1196410  53.7839310   6.7516960  15.6170010  54.5244710   7.0910770
  16.9353070  54.1723310   6.4353750  16.4144000  66.1981340   1.8732580
  16.5391420  67.0212510   2.3456390  17.2809560  65.9872070   1.5256730
   2.8919810  67.4758620  10.7335290   3.6932540  67.7970670  11.1470690
   2.3771630  67.1154200  11.4555200  11.7284440  63.5838490  10.6810700
  11.1222600  63.6070090   9.9406450  11.4238550  62.8521530  11.2177950
  13.1584810  67.3118780   9.2920110  14.1106560  67.2276800   9.2420350
  13.0113030  67.9760490   9.9653900   7.6655560  61.3703070   9.2106860
   6.9001230  61.9388070   9.1261530   7.8471520  61.0779280   8.3175090
  14.8078910  63.1008400   9.7681880  15.5488380  63.4384160   9.2649340
  14.0451590  63.2700460   9.2151650   2.6440700  58.1061670  10.5721410
   2.6846040  57.8075540  11.4806640   3.4986200  58.5069280  10.4128930
   4.5846510  56.6853770   8.5395900   4.0542970  56.1944720   7.9119240
   5.2534580  57.1137970   8.0053830  13.4824570  61.1523230   8.3037090
  13.8965590  61.3068310   9.1527510  12.5475570  61.2778450   8.4662870
  13.9546740  58.4919390  10.3076240  14.5367510  57.7371710  10.2196720
  14.1308510  59.0226830   9.5307720   5.0718810  53.6516140   8.6193190
   4.9775680  53.0336890   7.8944060   4.4916200  54.3782430   8.3923100
   7.8380250  52.2089380   5.6520580   7.3897550  52.2313640   4.8066130
   7.2045450  51.8108400   6.2490880   8.2439800  61.1043710   6.2733020
   8.6627910  61.9476440   6.1009260   7.3248430  61.2415750   6.0439800
  10.5803700  58.8359890   7.6570860  10.6999910  58.2401030   8.3965700
  11.4397700  58.8729580   7.2372160  12.9191600  59.3897080   6.2333370
  12.3926820  59.9139700   5.6298510  13.2622940  60.0224470   6.8643100
   6.0947220  67.4096720   7.3890750   5.5568310  68.1342780   7.0699450
   6.3481180  66.9327060   6.5988090   7.3472470  55.3781240   8.9146680
   7.9372160  55.0697090   9.6024500   6.5292710  54.9060990   9.0706580
  12.1665900  54.9947050   9.1479700  11.4781420  54.3328590   9.0829690
  12.8871920  54.5485320   9.5928160   8.9509430  68.6447930   7.6477400
   8.8768130  69.5483070   7.9549770   8.0488270  68.3259830   7.6199470
  16.4789110  66.3410110   7.9769960  15.8791100  66.4002670   7.2333880
  16.6083010  65.4015090   8.1066810  15.1640750  63.0662090   6.0746120
  14.3500590  63.4959250   6.3371910  15.5714950  63.6780500   5.4615170
  16.5131150  58.2050290   7.6015340  16.2817240  57.9763040   6.7013290
  16.7735700  59.1249840   7.5560230  14.9519220  53.4306720  10.3795040
  15.8289400  53.4390120  10.7629040  14.9640060  52.6937560   9.7687390
  16.5772210  57.3676130   4.7902610  15.6274920  57.3339670   4.9047600
  16.7585220  58.2776240   4.5552380   1.7683000  50.9223330   2.8426510
   2.4159190  50.3720710   2.4021670   2.1884840  51.1766480   3.6642320
  15.6635340  51.1164690   6.1996150  16.3007560  51.7298830   6.5655340
  15.8110230  51.1525350   5.2545380   3.1279370  64.2498600   9.7505020
   3.0849000  63.8791510  10.6319480   3.2590380  65.1876170   9.8906840
   6.8285400  65.8058190   5.3514740   6.5876760  66.0732750   4.4645260
   7.7688040  65.9763920   5.4065600   9.0339820  52.2690880   9.1071250
   8.9728710  52.8612710   9.8566660   9.9740200  52.1616840   8.9621510
  11.6714380  51.9260940   8.7463540  12.2854790  52.2440230   8.0844620
  12.2163940  51.4409530   9.3659400  18.0889560  67.8252570   6.1525380
  17.5947840  68.2221440   5.4352510  17.4802850  67.2001780   6.5462660
   2.1935640  50.6055200   8.8602600   2.7418630  50.4243250   8.0968710
   2.2590950  49.8149310   9.3958910   2.9667400  67.1960850   6.8702800
   2.3727720  67.0645550   7.6092840   2.9591240  66.3598990   6.4044900
  12.4122420  50.4893080   5.0732830  11.5382260  50.8228190   4.8705760
  12.3033170  50.0166260   5.8984700  13.3194400  52.6963950   6.4574550
  12.9907760  51.8815710   6.0776280  14.2676700  52.6533760   6.3340240
  15.7729010  68.4675990   3.4312120  15.3131980  69.2191800   3.0570140
  15.1441470  67.7482460   3.3726920   2.5979630  64.5619230   5.8210840
   1.8713690  63.9424520   5.7536790   2.6588780  64.9559840   4.9508920
   6.2024730  66.7764230   2.6060250   6.7189750  66.1651590   2.0808510
   6.8522110  67.2793010   3.0971260   8.9420230  67.6672720   3.4329230
   9.2298040  67.4127020   2.5562240   9.4543450  67.1150080   4.0234800
  10.1597240  51.4062920   4.0125740   9.3769030  51.8808420   4.2922500
   9.8660170  50.5017750   3.9038920   9.0092590  68.5888820  10.7997430
   9.9359900  68.3533090  10.8433390   8.9943020  69.4160820  10.3183460
   6.1956200  51.2533570  10.5639310   5.9140470  51.7567170   9.8000130
   6.5775900  50.4555320  10.1981440  12.7971660  50.6687150  11.1419780
  12.6837110  50.9881760  12.0371300  13.6141400  51.0699660  10.8457060
  15.5770150  67.8158680  10.6238470  16.3695470  67.3207910  10.4164430
  15.8703300  68.4948820  11.2314080  11.7029810  39.9136130  75.3771970
  11.6223860  38.9990740  75.1063680  11.2894230  40.4103200  74.6711680
  13.8555280  46.0975340  76.0380370  13.3936810  45.3262580  76.3667540
  14.6680830  46.1241410  76.5432820  10.0818590  48.3833350  75.6584360
   9.4630030  48.8390850  75.0878800  10.9370370  48.5384810  75.2574060
   4.4367020  35.5468350  72.9537770   4.5433770  36.4472080  73.2606530
   3.5259380  35.4986320  72.6632420  14.0886130  34.6693160  74.4248670
  14.9095750  34.1789730  74.4674150  14.1220210  35.2590820  75.1780510
  10.9481940  43.2672590  73.0516270  10.3299210  43.7322040  72.4878990
  11.4605190  43.9600070  73.4685780   7.9254070  32.3545510  75.8841410
   8.2329050  31.7992400  75.1676910   6.9954770  32.4889970  75.7014400
  14.7714550  44.7929020  73.2639040  14.6610880  43.8503350  73.3888460
  14.7682800  45.1544660  74.1501800  10.3134830  40.4194340  72.6201530
   9.3864110  40.3531720  72.8490000  10.4659650  41.3574470  72.5056770
  10.3003910  36.6911340  69.6168690   9.3607580  36.8525300  69.7021150
  10.6187170  37.4097020  69.0704680  14.3432120  41.9814640  73.1236780
  13.7244540  41.6434190  72.4763080  14.3256570  41.3374400  73.8315970
   5.9191470  40.9459080  75.4021260   5.5148470  40.2336330  74.9067160
   6.0054590  40.6012320  76.2909300  12.5196820  41.2201450  70.1309530
  12.9590100  40.3823880  69.9847350  13.2325240  41.8530850  70.2173670
  10.6292200  46.1597520  74.0990770  11.0688110  46.9021850  73.6846160
  10.5679090  46.4024090  75.0229730  16.1013960  32.4744260  68.4450570
  15.7886620  32.5671090  69.3449640  16.8626430  33.0525290  68.3948000
   2.6196100  39.8404060  72.9027910   2.4993700  40.5666150  72.2909180
   2.3096990  39.0706970  72.4255820  13.2962380  49.1466640  71.4553780
  13.1363520  48.8569580  72.3535610  13.1309090  48.3706770  70.9199010
   5.7750760  48.9265170  73.2325400   5.5993240  48.0100710  73.0193200
   4.9206500  49.2852460  73.4723200  12.9988510  46.6554200  70.0151780
  12.3053670  46.6531490  69.3554060  13.7411370  46.2313520  69.5845950
  12.5638440  48.2816910  74.0900270  13.0195390  47.5006290  74.4038890
  12.9030960  48.9923730  74.6341450   5.0859760  33.1839130  76.2851580
   4.6427910  33.9648670  75.9536100   5.6444750  33.5069020  76.9922520
   8.2018580  32.8049830  71.1657410   7.5772760  32.8009700  71.8910720
   8.1148700  31.9380790  70.7693380   4.8773980  38.3072700  74.0132830
   4.6514900  38.0909870  74.9179450   4.0966510  38.7401160  73.6678800
  12.1071740  38.3136070  72.6123480  11.5080630  39.0371870  72.4287100
  12.6551350  38.2512850  71.8299930  10.7136610  36.9499610  74.6426760
  11.1066180  37.2671810  73.8295450  11.0753460  36.0711490  74.7571280
   7.7369140  36.2159560  77.1430030   7.7405200  35.7749510  76.2934570
   8.6320260  36.5376890  77.2501850   3.5871520  36.0986050  76.1024240
   3.2471570  36.5761280  76.8591290   2.8248840  35.6451170  75.7425340
   7.7989290  37.2171640  70.1336790   7.9202110  37.1758120  71.0822610
   7.4137800  38.0795790  69.9783520   6.8110790  39.5272780  69.5320090
   6.2427690  39.0791030  68.9056000   7.5199790  39.8865560  68.9985240
   4.3558270  43.5230970  71.8046500   3.5820530  42.9828590  71.6445220
   5.0852900  43.0037580  71.4664260  10.5756190  33.9134290  71.7402280
   9.7620800  33.4147460  71.6647590  10.3818140  34.7532540  71.3238630
  13.2904580  38.2853940  70.0364440  14.1784200  38.5971170  69.8615780
  13.2609670  37.4126190  69.6445020   4.3995670  43.1911350  75.4425310
   4.9174340  42.3879610  75.3882200   3.9479690  43.1290490  76.2842140
   9.2865170  44.4577630  70.7152610   9.6280870  45.2019860  70.2195930
   8.4577880  44.7708750  71.0777440  15.5618850  39.5965780  69.5044300
  15.4782570  40.0280000  68.6540740  16.2813040  40.0564130  69.9371120
  16.5906100  46.4508040  72.2326430  15.9482260  45.7963660  72.5070150
  16.2036760  46.8563130  71.4567100  12.1692580  43.7793470  76.0798120
  12.5216400  43.1821600  75.4199490  11.2854910  43.4537700  76.2506370
   8.2555860  44.5391160  73.4868530   8.9426990  45.0860370  73.8676120
   7.4688280  45.0831890  73.5218140   7.5583070  41.5437190  73.0993890
   8.0145850  42.3542440  73.3254080   7.2071280  41.2260330  73.9312380
   3.4594850  31.8874840  73.5716410   3.3309480  31.8792740  74.5201330
   2.6356870  32.2257930  73.2207420  14.9803480  45.3424500  68.7702780
  14.7541060  44.6254940  69.3627420  14.5899680  45.0936940  67.9324530
  14.5619730  43.2596440  70.4316940  14.2741430  43.7209130  71.2194820
  15.3571900  42.7994210  70.7001160   6.7788130  46.7522560  70.3620910
   6.7698230  47.4852250  69.7465420   5.8586490  46.5054140  70.4547870
   2.3794770  41.9737450  71.1067670   1.7722720  42.7136350  71.1162970
   2.8544120  42.0636810  70.2805870  15.3189590  35.0945210  71.5912120
  14.6902750  35.1990880  70.8770350  14.8241510  35.3141990  72.3806000
   9.7647730  46.8150800  69.0246100   9.8659710  46.6114790  68.0948080
   8.8649470  46.5609080  69.2293880   7.2873620  37.3731160  73.0070000
   6.5789770  37.8417500  73.4483610   7.5718100  36.7153170  73.6415190
  11.3189050  34.0981820  74.4465790  11.1956830  34.1167950  73.4975300
  12.2673610  34.1460760  74.5664190   8.4065840  49.3337120  73.7193770
   8.6607340  49.2958510  72.7973140   7.4578320  49.2070450  73.7122020
   5.4908640  35.6816240  70.3820710   6.3399170  36.1186390  70.3160900
   5.1239910  35.9936500  71.2092770  14.4118420  40.2529000  75.2952280
  13.4708560  40.2679230  75.4699970  14.7262490  39.4664960  75.7412580
   4.3900060  41.9348600  68.8556240   5.1563330  41.8229960  69.4181670
   4.4674750  41.2386570  68.2033010   3.0846820  39.3673670  69.5389130
   3.1650410  38.4201180  69.6506530   3.9766570  39.6980550  69.6449790
   3.8861530  49.5169060  76.6423670   4.6224010  48.9684520  76.9132240
   4.2702450  50.3825070  76.5029660   6.9963840  48.6899370  68.4649240
   7.7892450  48.9788200  68.0131030   6.4768190  48.2591540  67.7861720
  16.0494010  47.9169500  69.8885980  15.7635520  47.5034640  69.0740160
  15.8513560  48.8457210  69.7686500   7.5141240  43.9102780  68.3291590
   7.4091880  43.2955130  69.0552970   7.3465460  43.3868670  67.5454600
  10.7543970  42.9722810  68.9333580  10.2054070  43.4192110  69.5776320
  11.3763230  42.4672060  69.4571250   6.4219090  41.9313730  70.8298880
   6.8435510  41.7653600  71.6730270   6.5469930  41.1213960  70.3354020
   8.9346730  40.9551340  68.0775980   9.4552390  40.2400360  67.7117130
   9.5815130  41.5937210  68.3776490   5.3177990  38.0046960  67.7757040
   5.1167050  37.1414320  68.1370380   5.1470040  37.9180320  66.8378640
  12.7966300  32.8155190  70.3043920  13.0768590  31.9723090  70.6603340
  12.0232030  33.0478300  70.8182670   4.1160790  35.1047580  67.7634920
   4.4186690  35.1115010  66.8554070   4.8555380  34.7545440  68.2602580
   7.3345720  34.0482200  68.7491120   6.9867720  33.3706190  68.1693570
   7.5358490  33.5871710  69.5634510   9.4994760  49.0362950  70.3677720
  10.3945550  49.3747920  70.3896480   9.5312390  48.3142360  69.7402000
   3.1390920  44.4090000  68.5964720   3.5765790  44.9519670  69.2522300
   3.6238650  43.5836950  68.6061060   4.9498640  45.5288040  73.7086950
   4.6494180  45.4053010  74.6090860   4.8436130  44.6696630  73.3002680
  17.7190560  45.3084440  68.4113630  16.8883520  45.3761090  68.8820860
  17.8962390  46.1988560  68.1080490  17.1747020  42.0531920  70.9147830
  17.9365930  42.6228570  71.0207520  17.1901390  41.4859120  71.6856140
  18.1806990  42.9082020  75.7589760  18.5515820  42.1249340  75.3525730
  18.8208920  43.5971120  75.5807060  17.2266190  42.3466290  68.0720350
  17.5015030  43.2545170  67.9439570  17.0376930  42.2828820  69.0082340
  13.6241800  35.3711140  69.3673980  14.0426680  35.1842120  68.5270640
  13.3177860  34.5190190  69.6776910  17.1231530  40.2835280  73.0649780
  16.7475130  39.5163210  72.6331070  16.3934650  40.6657980  73.5524710
  16.3982490  38.5092770  76.3657020  16.9219970  38.0155420  75.7347190
  16.9841910  38.6443130  77.1104590   2.4316650  36.8434320  68.9975200
   3.1408350  36.4217540  68.5122480   1.7156590  36.9109550  68.3658550
   2.0790810  32.8973650  68.0377850   2.8018940  33.4382590  68.3559070
   2.3515330  32.6237070  67.1619390  15.8882460  37.7666120  72.3049430
  16.3841580  37.5336990  73.0898310  15.6898530  36.9277960  71.8887070
  17.3169620  36.4027070  74.8387110  17.2068900  36.2483110  75.7769380
  18.0777210  35.8748010  74.5962520  18.2059890  34.2334990  68.0793250
  19.1309200  34.1016170  67.8711540  18.1835680  34.3127810  69.0329700
  18.2798380  35.0045650  70.7049960  17.4849880  34.9390770  71.2342870
  18.4841660  35.9396290  70.6935310  15.2216800  49.0437200  74.6988350
  15.8175870  48.7221770  74.0222770  15.4794950  48.5709020  75.4901620
  14.7118310  33.3342530  77.1548790  15.1526400  33.2787630  76.3070390
  14.4425900  34.2500540  77.2258970  16.5756880  32.9657770  75.1657610
  16.5145280  32.0218990  75.0188630  17.3548910  33.0737860  75.7111070
   8.0451460  35.0506180  74.6215730   7.2325970  34.6763070  74.2811610
   8.5493100  34.2951260  74.9236920  12.5476440  31.7148630  75.8598800
  13.1505810  32.2868840  76.3347320  11.8069430  32.2788070  75.6372700
  15.6911040  32.1170190  71.1339080  15.8861670  33.0153640  71.4006510
  14.9040910  31.8857270  71.6272030   2.4872330  47.7983360  71.5731700
   1.9619950  48.1791390  70.8693660   2.4116910  48.4234130  72.2941410
   3.8762800  33.4630960  70.1715390   4.4055560  32.6760760  70.0423340
   4.5091120  34.1422150  70.4050920   6.0700640  33.2006100  73.2260780
   5.4403380  32.4993410  73.3930910   5.5305780  33.9610230  73.0093940
  17.2437650  49.3570900  72.8945640  17.4189840  48.6708640  72.2506560
  16.5459220  49.8817950  72.5022310   5.0865300  49.7465740  70.4480950
   5.8184120  49.4625020  69.9004840   5.3458970  49.5079020  71.3380330
   4.2480090  45.8630470  70.4527280   3.6188970  46.3315570  71.0013110
   4.3627920  45.0179690  70.8873470  11.7029810  39.9136130  56.6028480
  11.6223860  38.9990740  56.3320190  11.2894230  40.4103200  55.8968190
   9.8347850  41.6915150  58.4837750   9.0589950  41.2115590  58.7736320
  10.4860780  41.0120800  58.3093910   3.8513680  42.0034960  59.3613510
   3.0198560  41.7483670  59.7610020   4.4594660  42.0745730  60.0971430
  13.8555280  46.0975340  57.2636880  13.3936810  45.3262580  57.5924050
  14.6680830  46.1241410  57.7689330   3.8314940  46.0375050  59.5571530
   4.1342980  45.1472790  59.3781750   4.5758530  46.5945270  59.3293780
  10.0818590  48.3833350  56.8840870   9.4630030  48.8390850  56.3135310
  10.9370370  48.5384810  56.4830570   9.2756840  44.3672340  58.4907910
   9.2065120  43.4262280  58.3297040  10.0376700  44.4573750  59.0630480
  10.3062010  37.1742720  58.7176840  10.6826830  36.3014600  58.6050510
  10.2081520  37.5101420  57.8267280   4.4367020  35.5468350  54.1794280
   4.5433770  36.4472080  54.4863040   3.5259380  35.4986320  53.8888930
  14.0886130  34.6693160  55.6505180  14.9095750  34.1789730  55.6930660
  14.1220210  35.2590820  56.4037020   2.0850180  37.4687360  59.4246870
   2.7660290  37.7325730  60.0434270   1.7698230  36.6288230  59.7584880
   6.2774750  38.5154720  58.5119460   6.7852970  39.0135690  59.1524480
   6.8087990  37.7389920  58.3358820  18.3785680  36.6859910  62.2148810
  17.6737850  37.0741620  61.6963920  18.6443600  37.3810200  62.8169740
   4.5610850  33.1553280  62.7782880   4.5629290  33.6725670  61.9728780
   3.7315160  32.6783460  62.7552810  10.9481940  43.2672590  54.2772780
  10.3299210  43.7322040  53.7135500  11.4605190  43.9600070  54.6942290
   5.8113700  42.7948460  60.9556380   5.4783080  43.4217380  61.5977450
   5.9880380  43.3210340  60.1758050  14.3247610  36.6093540  58.4232720
  13.6203180  36.8978430  59.0035830  14.6859770  37.4193650  58.0632280
   4.2426180  34.8663240  60.7853330   4.5842990  35.7105290  60.4907200
   3.3041990  35.0146980  60.9018670   5.0232800  44.7629260  62.7705560
   5.6406800  45.4380340  62.4890010   4.1625920  45.1717240  62.6793060
  15.9410390  46.2268670  60.6860200  15.2573910  46.8967780  60.6776870
  16.4804680  46.4249320  59.9205060  17.3934530  36.0548330  58.8141930
  16.4459440  36.0887310  58.9457360  17.7184520  36.8687280  59.1991290
   7.9254070  32.3545510  57.1097920   8.2329050  31.7992400  56.3933420
   6.9954770  32.4889970  56.9270910  13.4769130  48.0712800  59.4005380
  13.4896290  47.6675090  58.5327640  12.9244350  48.8460090  59.2966810
  14.7714550  44.7929020  54.4895550  14.6610880  43.8503350  54.6144970
  14.7682800  45.1544660  55.3758310  12.8754570  42.9742640  60.7287990
  13.2923360  42.7602750  59.8941450  13.5994390  43.2315430  61.2996610
  10.3134830  40.4194340  53.8458040   9.3864110  40.3531720  54.0746510
  10.4659650  41.3574470  53.7313280  10.3003910  36.6911340  50.8425200
   9.3607580  36.8525300  50.9277660  10.6187170  37.4097020  50.2961190
  16.8216670  41.3729860  60.8204230  15.9935300  41.4422950  60.3454360
  17.4167150  41.9584170  60.3520060  14.3432120  41.9814640  54.3493290
  13.7244540  41.6434190  53.7019590  14.3256570  41.3374400  55.0572480
  13.7858680  38.1599180  61.7659100  13.3729860  38.9852890  62.0199090
  13.0534630  37.5744220  61.5735460   5.9191470  40.9459080  56.6277770
   5.5148470  40.2336330  56.1323670   6.0054590  40.6012320  57.5165810
   6.3873170  44.6326640  58.7916980   6.0901460  44.0272110  58.1124760
   7.3372990  44.6703950  58.6806340   4.6320090  37.7202290  60.4076810
   5.1834680  37.8297630  59.6330060   5.1463600  38.0939890  61.1232040
  14.4758780  48.2058510  62.4540080  13.9989340  49.0130700  62.2612690
  13.7920570  47.5536840  62.6066290   5.4791600  44.3708330  65.4424780
   4.5820130  44.5948300  65.6898180   5.5044470  44.4943270  64.4936180
  12.5196820  41.2201450  51.3566040  12.9590100  40.3823880  51.2103860
  13.2325240  41.8530850  51.4430180   4.3062820  41.2421650  64.0182150
   4.1670590  42.1144450  64.3869550   3.4244180  40.8994460  63.8730090
  10.6292200  46.1597520  55.3247280  11.0688110  46.9021850  54.9102670
  10.5679090  46.4024090  56.2486240   6.1043170  47.1843350  66.2267300
   6.0758600  47.5886300  65.3595730   5.9408140  46.2553710  66.0638900
  16.1013960  32.4744260  49.6707080  15.7886620  32.5671090  50.5706150
  16.8626430  33.0525290  49.6204510   2.6196100  39.8404060  54.1284420
   2.4993700  40.5666150  53.5165690   2.3096990  39.0706970  53.6512330
  18.0557990  47.9670450  67.5231470  18.5317710  48.4453340  68.2020550
  18.6765150  47.8987940  66.7976970  17.4591240  45.1583300  64.6831480
  17.5854300  44.9195180  63.7648660  17.5012620  44.3267840  65.1553560
  11.3207980  48.8611300  63.2526290  11.8352650  48.7719310  64.0548720
  10.4777060  49.2071000  63.5454200  13.2962380  49.1466640  52.6810290
  13.1363520  48.8569580  53.5792120  13.1309090  48.3706770  52.1455520
   5.7750760  48.9265170  54.4581910   5.5993240  48.0100710  54.2449710
   4.9206500  49.2852460  54.6979710  12.9988510  46.6554200  51.2408290
  12.3053670  46.6531490  50.5810570  13.7411370  46.2313520  50.8102460
  12.5638440  48.2816910  55.3156780  13.0195390  47.5006290  55.6295400
  12.9030960  48.9923730  55.8597960  17.3115250  37.2115760  65.6481220
  16.6959520  37.7195430  65.1196680  16.9911670  36.3114090  65.5907160
   5.0859760  33.1839130  57.5108090   4.6427910  33.9648670  57.1792610
   5.6444750  33.5069020  58.2179030   9.3729570  36.0507650  63.1143410
   8.9108940  36.2590670  63.9263350   8.9707680  35.2367000  62.8114080
  14.3734080  37.2716600  64.2440070  13.5227670  36.9722350  64.5649140
  14.2135870  37.5158610  63.3323890  11.4683790  38.7718350  66.3438860
  11.7937200  37.9382100  66.0041090  12.2564120  39.2946870  66.4917190
   8.2018580  32.8049830  52.3913920   7.5772760  32.8009700  53.1167230
   8.1148700  31.9380790  51.9949890   7.1235660  33.7286460  59.3697690
   7.4207990  34.6349290  59.2889710   7.6721220  33.2405240  58.7557260
   4.8773980  38.3072700  55.2389340   4.6514900  38.0909870  56.1435960
   4.0966510  38.7401160  54.8935310  12.1071740  38.3136070  53.8379990
  11.5080630  39.0371870  53.6543610  12.6551350  38.2512850  53.0556440
   7.3173190  39.2058280  65.9049610   7.2216790  38.2653010  65.7550010
   8.1605170  39.4273350  65.5097680  10.7136610  36.9499610  55.8683270
  11.1066180  37.2671810  55.0551960  11.0753460  36.0711490  55.9827790
   2.4483730  35.6171950  64.0583390   2.0547120  36.4647160  64.2656170
   1.7602130  34.9798320  64.2492030   9.0228780  35.7006920  67.1280130
   8.3327100  35.5079120  67.7626220   9.7661080  35.9841560  67.6604430
  11.2991750  39.5405360  59.9634050  10.5672870  40.0492170  60.3124150
  10.9016090  38.7235340  59.6622830   7.7369140  36.2159560  58.3686540
   7.7405200  35.7749510  57.5191080   8.6320260  36.5376890  58.4758360
   3.5871520  36.0986050  57.3280750   3.2471570  36.5761280  58.0847800
   2.8248840  35.6451170  56.9681850   7.7989290  37.2171640  51.3593300
   7.9202110  37.1758120  52.3079120   7.4137800  38.0795790  51.2040030
  11.7617660  34.9939040  59.3756990  11.7790400  35.4447690  60.2198840
  11.5133240  34.0944680  59.5890430   6.8110790  39.5272780  50.7576600
   6.2427690  39.0791030  50.1312510   7.5199790  39.8865560  50.2241750
  15.1888410  32.4071220  65.2143370  15.5134180  31.6760880  65.7401350
  15.2244920  32.0884860  64.3124360   8.0377110  40.2761340  60.1151950
   8.4047240  39.8019910  60.8613290   7.8482170  41.1502910  60.4560290
   5.8276480  39.3169980  62.4336160   5.5233550  40.1961960  62.6586520
   6.7822940  39.3769770  62.4693600   4.3558270  43.5230970  53.0303010
   3.5820530  42.9828590  52.8701730   5.0852900  43.0037580  52.6920770
  15.1146250  42.5196330  58.8229400  15.8345370  43.0151620  58.4325510
  14.9128070  41.8414220  58.1783270  10.5756190  33.9134290  52.9658790
   9.7620800  33.4147460  52.8904100  10.3818140  34.7532540  52.5495140
  10.4965050  42.5905390  64.7098400  10.4302360  41.6701060  64.4555990
   9.8670190  42.6880830  65.4243040  13.2904580  38.2853940  51.2620950
  14.1784200  38.5971170  51.0872290  13.2609670  37.4126190  50.8701530
   4.3995670  43.1911350  56.6681820   4.9174340  42.3879610  56.6138710
   3.9479690  43.1290490  57.5098650   9.2865170  44.4577630  51.9409120
   9.6280870  45.2019860  51.4452440   8.4577880  44.7708750  52.3033950
   1.8840210  40.1572720  63.5807520   1.5255150  40.8226570  64.1680860
   1.5894770  39.3256270  63.9520140   5.0853330  40.6156960  66.4647070
   4.7853470  40.7614140  65.5674890   5.8564570  40.0562250  66.3720460
  10.4281780  45.4125960  64.4602200  10.4426320  44.4806920  64.2421110
   9.7206880  45.4985720  65.0991970  15.5618850  39.5965780  50.7300810
  15.4782570  40.0280000  49.8797250  16.2813040  40.0564130  51.1627630
  16.6392990  42.0533300  63.8070780  15.9141180  42.6462080  63.6100170
  17.1668450  42.0456840  63.0084150  16.5906100  46.4508040  53.4582940
  15.9482260  45.7963660  53.7326660  16.2036760  46.8563130  52.6823610
  12.1692580  43.7793470  57.3054630  12.5216400  43.1821600  56.6456000
  11.2854910  43.4537700  57.4762880   8.2555860  44.5391160  54.7125040
   8.9426990  45.0860370  55.0932630   7.4688280  45.0831890  54.7474650
   7.5583070  41.5437190  54.3250400   8.0145850  42.3542440  54.5510590
   7.2071280  41.2260330  55.1568890   9.8615680  47.0543530  61.5542700
  10.5057900  47.2602910  62.2316120  10.2245120  46.2931930  61.1013550
   3.4594850  31.8874840  54.7972920   3.3309480  31.8792740  55.7457840
   2.6356870  32.2257930  54.4463930  11.1347760  45.0575880  60.2720150
  11.7769990  44.3569040  60.3852320  11.6597110  45.8374320  60.0917040
  14.9803480  45.3424500  49.9959290  14.7541060  44.6254940  50.5883930
  14.5899680  45.0936940  49.1581040  12.9085380  45.8570780  63.4756210
  13.2441620  46.4437470  64.1534130  11.9885720  45.7263490  63.7054000
  14.5619730  43.2596440  51.6573450  14.2741430  43.7209130  52.4451330
  15.3571900  42.7994210  51.9257670   8.7373960  45.9062110  66.6444270
   8.4170830  45.1871350  67.1889960   8.0632320  46.5817180  66.7180330
   6.7788130  46.7522560  51.5877420   6.7698230  47.4852250  50.9721930
   5.8586490  46.5054140  51.6804380   2.3794770  41.9737450  52.3324180
   1.7722720  42.7136350  52.3419480   2.8544120  42.0636810  51.5062380
  11.9527560  36.1388270  62.0081070  12.3208380  35.3183480  62.3360640
  11.0925760  36.1990160  62.4236720  15.3189590  35.0945210  52.8168630
  14.6902750  35.1990880  52.1026860  14.8241510  35.3141990  53.6062510
   9.7647730  46.8150800  50.2502610   9.8659710  46.6114790  49.3204590
   8.8649470  46.5609080  50.4550390   7.2873620  37.3731160  54.2326510
   6.5789770  37.8417500  54.6740120   7.5718100  36.7153170  54.8671700
   8.9129550  38.7927860  62.2319040   9.4114800  39.2673680  62.8970890
   9.0552500  37.8691380  62.4389070  11.3189050  34.0981820  55.6722300
  11.1956830  34.1167950  54.7231810  12.2673610  34.1460760  55.7920700
   8.4065840  49.3337120  54.9450280   8.6607340  49.2958510  54.0229650
   7.4578320  49.2070450  54.9378530   5.4908640  35.6816240  51.6077220
   6.3399170  36.1186390  51.5417410   5.1239910  35.9936500  52.4349280
  16.1196410  35.0095820  63.0747430  15.6170010  35.7501220  63.4141240
  16.9353070  35.3979820  62.7584220  14.4118420  40.2529000  56.5208790
  13.4708560  40.2679230  56.6956480  14.7262490  39.4664960  56.9669090
   4.3900060  41.9348600  50.0812750   5.1563330  41.8229960  50.6438180
   4.4674750  41.2386570  49.4289520   3.0846820  39.3673670  50.7645640
   3.1650410  38.4201180  50.8763040   3.9766570  39.6980550  50.8706300
  16.4144000  47.4237850  58.1963050  16.5391420  48.2469020  58.6686860
  17.2809560  47.2128580  57.8487200   3.8861530  49.5169060  57.8680180
   4.6224010  48.9684520  58.1388750   4.2702450  50.3825070  57.7286170
   2.8919810  48.7015130  67.0565760   3.6932540  49.0227180  67.4701160
   2.3771630  48.3410710  67.7785670   6.9963840  48.6899370  49.6905750
   7.7892450  48.9788200  49.2387540   6.4768190  48.2591540  49.0118230
  11.7284440  44.8095000  67.0041170  11.1222600  44.8326600  66.2636920
  11.4238550  44.0778040  67.5408420  13.1584810  48.5375290  65.6150580
  14.1106560  48.4533310  65.5650820  13.0113030  49.2017000  66.2884370
  16.0494010  47.9169500  51.1142490  15.7635520  47.5034640  50.2996670
  15.8513560  48.8457210  50.9943010   7.5141240  43.9102780  49.5548100
   7.4091880  43.2955130  50.2809480   7.3465460  43.3868670  48.7711110
   7.6655560  42.5959580  65.5337330   6.9001230  43.1644580  65.4492000
   7.8471520  42.3035790  64.6405560  10.7543970  42.9722810  50.1590090
  10.2054070  43.4192110  50.8032830  11.3763230  42.4672060  50.6827760
  14.8078910  44.3264910  66.0912350  15.5488380  44.6640670  65.5879810
  14.0451590  44.4956970  65.5382120   2.6440700  39.3318180  66.8951880
   2.6846040  39.0332050  67.8037110   3.4986200  39.7325790  66.7359400
   6.4219090  41.9313730  52.0555390   6.8435510  41.7653600  52.8986780
   6.5469930  41.1213960  51.5610530   4.5846510  37.9110280  64.8626370
   4.0542970  37.4201230  64.2349710   5.2534580  38.3394480  64.3284300
   8.9346730  40.9551340  49.3032490   9.4552390  40.2400360  48.9373640
   9.5815130  41.5937210  49.6033000  13.4824570  42.3779740  64.6267560
  13.8965590  42.5324820  65.4757980  12.5475570  42.5034960  64.7893340
  13.9546740  39.7175900  66.6306710  14.5367510  38.9628220  66.5427190
  14.1308510  40.2483340  65.8538190   5.0718810  34.8772650  64.9423660
   4.9775680  34.2593400  64.2174530   4.4916200  35.6038940  64.7153570
   7.8380250  33.4345890  61.9751050   7.3897550  33.4570150  61.1296600
   7.2045450  33.0364910  62.5721350   8.2439800  42.3300220  62.5963490
   8.6627910  43.1732950  62.4239730   7.3248430  42.4672260  62.3670270
  10.5803700  40.0616400  63.9801330  10.6999910  39.4657540  64.7196170
  11.4397700  40.0986090  63.5602630  12.9191600  40.6153590  62.5563840
  12.3926820  41.1396210  61.9528980  13.2622940  41.2480980  63.1873570
   5.3177990  38.0046960  49.0013550   5.1167050  37.1414320  49.3626890
   5.1470040  37.9180320  48.0635150   6.0947220  48.6353230  63.7121220
   5.5568310  49.3599290  63.3929920   6.3481180  48.1583570  62.9218560
   7.3472470  36.6037750  65.2377150   7.9372160  36.2953600  65.9254970
   6.5292710  36.1317500  65.3937050  12.1665900  36.2203560  65.4710170
  11.4781420  35.5585100  65.4060160  12.8871920  35.7741830  65.9158630
  12.7966300  32.8155190  51.5300430  13.0768590  31.9723090  51.8859850
  12.0232030  33.0478300  52.0439180   4.1160790  35.1047580  48.9891430
   4.4186690  35.1115010  48.0810580   4.8555380  34.7545440  49.4859090
   8.9509430  49.8704440  63.9707870   8.8768130  50.7739580  64.2780240
   8.0488270  49.5516340  63.9429940   7.3345720  34.0482200  49.9747630
   6.9867720  33.3706190  49.3950080   7.5358490  33.5871710  50.7891020
   9.4994760  49.0362950  51.5934230  10.3945550  49.3747920  51.6152990
   9.5312390  48.3142360  50.9658510   3.1390920  44.4090000  49.8221230
   3.5765790  44.9519670  50.4778810   3.6238650  43.5836950  49.8317570
   4.9498640  45.5288040  54.9343460   4.6494180  45.4053010  55.8347370
   4.8436130  44.6696630  54.5259190  16.4789110  47.5666620  64.3000430
  15.8791100  47.6259180  63.5564350  16.6083010  46.6271600  64.4297280
  17.7190560  45.3084440  49.6370140  16.8883520  45.3761090  50.1077370
  17.8962390  46.1988560  49.3337000  17.1747020  42.0531920  52.1404340
  17.9365930  42.6228570  52.2464030  17.1901390  41.4859120  52.9112650
  18.1806990  42.9082020  56.9846270  18.5515820  42.1249340  56.5782240
  18.8208920  43.5971120  56.8063570  15.1640750  44.2918600  62.3976590
  14.3500590  44.7215760  62.6602380  15.5714950  44.9037010  61.7845640
  17.2266190  42.3466290  49.2976860  17.5015030  43.2545170  49.1696080
  17.0376930  42.2828820  50.2338850  13.6241800  35.3711140  50.5930490
  14.0426680  35.1842120  49.7527150  13.3177860  34.5190190  50.9033420
  17.1231530  40.2835280  54.2906290  16.7475130  39.5163210  53.8587580
  16.3934650  40.6657980  54.7781220  16.5131150  39.4306800  63.9245810
  16.2817240  39.2019550  63.0243760  16.7735700  40.3506350  63.8790700
  14.9519220  34.6563230  66.7025510  15.8289400  34.6646630  67.0859510
  14.9640060  33.9194070  66.0917860  16.3982490  38.5092770  57.5913530
  16.9219970  38.0155420  56.9603700  16.9841910  38.6443130  58.3361100
  16.5772210  38.5932640  61.1133080  15.6274920  38.5596180  61.2278070
  16.7585220  39.5032750  60.8782850   2.4316650  36.8434320  50.2231710
   3.1408350  36.4217540  49.7378990   1.7156590  36.9109550  49.5915060
   2.0790810  32.8973650  49.2634360   2.8018940  33.4382590  49.5815580
   2.3515330  32.6237070  48.3875900  15.8882460  37.7666120  53.5305940
  16.3841580  37.5336990  54.3154820  15.6898530  36.9277960  53.1143580
   1.7683000  32.1479840  59.1656980   2.4159190  31.5977220  58.7252140
   2.1884840  32.4022990  59.9872790  17.3169620  36.4027070  56.0643620
  17.2068900  36.2483110  57.0025890  18.0777210  35.8748010  55.8219030
  15.6635340  32.3421200  62.5226620  16.3007560  32.9555340  62.8885810
  15.8110230  32.3781860  61.5775850  18.2059890  34.2334990  49.3049760
  19.1309200  34.1016170  49.0968050  18.1835680  34.3127810  50.2586210
  18.2798380  35.0045650  51.9306470  17.4849880  34.9390770  52.4599380
  18.4841660  35.9396290  51.9191820  15.2216800  49.0437200  55.9244860
  15.8175870  48.7221770  55.2479280  15.4794950  48.5709020  56.7158130
   3.1279370  45.4755110  66.0735490   3.0849000  45.1048020  66.9549950
   3.2590380  46.4132680  66.2137310   6.8285400  47.0314700  61.6745210
   6.5876760  47.2989260  60.7875730   7.7688040  47.2020430  61.7296070
   9.0339820  33.4947390  65.4301720   8.9728710  34.0869220  66.1797130
   9.9740200  33.3873350  65.2851980  11.6714380  33.1517450  65.0694010
  12.2854790  33.4696740  64.4075090  12.2163940  32.6666040  65.6889870
  18.0889560  49.0509080  62.4755850  17.5947840  49.4477950  61.7582980
  17.4802850  48.4258290  62.8693130   2.1935640  31.8311710  65.1833070
   2.7418630  31.6499760  64.4199180   2.2590950  31.0405820  65.7189380
   2.9667400  48.4217360  63.1933270   2.3727720  48.2902060  63.9323310
   2.9591240  47.5855500  62.7275370  12.4122420  31.7149590  61.3963300
  11.5382260  32.0484700  61.1936230  12.3033170  31.2422770  62.2215170
  13.3194400  33.9220460  62.7805020  12.9907760  33.1072220  62.4006750
  14.2676700  33.8790270  62.6570710  15.7729010  49.6932500  59.7542590
  15.3131980  50.4448310  59.3800610  15.1441470  48.9738970  59.6957390
   2.5979630  45.7875740  62.1441310   1.8713690  45.1681030  62.0767260
   2.6588780  46.1816350  61.2739390   6.2024730  48.0020740  58.9290720
   6.7189750  47.3908100  58.4038980   6.8522110  48.5049520  59.4201730
   8.9420230  48.8929230  59.7559700   9.2298040  48.6383530  58.8792710
   9.4543450  48.3406590  60.3465270  10.1597240  32.6319430  60.3356210
   9.3769030  33.1064930  60.6152970   9.8660170  31.7274260  60.2269390
  14.7118310  33.3342530  58.3805300  15.1526400  33.2787630  57.5326900
  14.4425900  34.2500540  58.4515480  16.5756880  32.9657770  56.3914120
  16.5145280  32.0218990  56.2445140  17.3548910  33.0737860  56.9367580
   8.0451460  35.0506180  55.8472240   7.2325970  34.6763070  55.5068120
   8.5493100  34.2951260  56.1493430  12.5476440  31.7148630  57.0855310
  13.1505810  32.2868840  57.5603830  11.8069430  32.2788070  56.8629210
  15.6911040  32.1170190  52.3595590  15.8861670  33.0153640  52.6263020
  14.9040910  31.8857270  52.8528540   2.4872330  47.7983360  52.7988210
   1.9619950  48.1791390  52.0950170   2.4116910  48.4234130  53.5197920
   3.8762800  33.4630960  51.3971900   4.4055560  32.6760760  51.2679850
   4.5091120  34.1422150  51.6307430   6.0700640  33.2006100  54.4517290
   5.4403380  32.4993410  54.6187420   5.5305780  33.9610230  54.2350450
   9.0092590  49.8145330  67.1227900   9.9359900  49.5789600  67.1663860
   8.9943020  50.6417330  66.6413930  17.2437650  49.3570900  54.1202150
  17.4189840  48.6708640  53.4763070  16.5459220  49.8817950  53.7278820
   6.1956200  32.4790080  66.8869780   5.9140470  32.9823680  66.1230600
   6.5775900  31.6811830  66.5211910   5.0865300  49.7465740  51.6737460
   5.8184120  49.4625020  51.1261350   5.3458970  49.5079020  52.5636840
   4.2480090  45.8630470  51.6783790   3.6188970  46.3315570  52.2269620
   4.3627920  45.0179690  52.1129980  12.7971660  31.8943660  67.4650250
  12.6837110  32.2138270  68.3601770  13.6141400  32.2956170  67.1687530
  15.5770150  49.0415190  66.9468940  16.3695470  48.5464420  66.7394900
  15.8703300  49.7205330  67.5544550  11.7029810  39.9136130  37.8284990
  11.6223860  38.9990740  37.5576700  11.2894230  40.4103200  37.1224700
   9.8347850  41.6915150  39.7094260   9.0589950  41.2115590  39.9992830
  10.4860780  41.0120800  39.5350420   3.8513680  42.0034960  40.5870020
   3.0198560  41.7483670  40.9866530   4.4594660  42.0745730  41.3227940
  13.8555280  46.0975340  38.4893390  13.3936810  45.3262580  38.8180560
  14.6680830  46.1241410  38.9945840   3.8314940  46.0375050  40.7828040
   4.1342980  45.1472790  40.6038260   4.5758530  46.5945270  40.5550290
  10.0818590  48.3833350  38.1097380   9.4630030  48.8390850  37.5391820
  10.9370370  48.5384810  37.7087080   9.2756840  44.3672340  39.7164420
   9.2065120  43.4262280  39.5553550  10.0376700  44.4573750  40.2886990
  10.3062010  37.1742720  39.9433350  10.6826830  36.3014600  39.8307020
  10.2081520  37.5101420  39.0523790   4.4367020  35.5468350  35.4050790
   4.5433770  36.4472080  35.7119550   3.5259380  35.4986320  35.1145440
  14.0886130  34.6693160  36.8761690  14.9095750  34.1789730  36.9187170
  14.1220210  35.2590820  37.6293530   2.0850180  37.4687360  40.6503380
   2.7660290  37.7325730  41.2690780   1.7698230  36.6288230  40.9841390
   6.2774750  38.5154720  39.7375970   6.7852970  39.0135690  40.3780990
   6.8087990  37.7389920  39.5615330  18.3785680  36.6859910  43.4405320
  17.6737850  37.0741620  42.9220430  18.6443600  37.3810200  44.0426250
   4.5610850  33.1553280  44.0039390   4.5629290  33.6725670  43.1985290
   3.7315160  32.6783460  43.9809320  10.9481940  43.2672590  35.5029290
  10.3299210  43.7322040  34.9392010  11.4605190  43.9600070  35.9198800
   5.8113700  42.7948460  42.1812890   5.4783080  43.4217380  42.8233960
   5.9880380  43.3210340  41.4014560  14.3247610  36.6093540  39.6489230
  13.6203180  36.8978430  40.2292340  14.6859770  37.4193650  39.2888790
   4.2426180  34.8663240  42.0109840   4.5842990  35.7105290  41.7163710
   3.3041990  35.0146980  42.1275180   5.0232800  44.7629260  43.9962070
   5.6406800  45.4380340  43.7146520   4.1625920  45.1717240  43.9049570
  15.9410390  46.2268670  41.9116710  15.2573910  46.8967780  41.9033380
  16.4804680  46.4249320  41.1461570  17.3934530  36.0548330  40.0398440
  16.4459440  36.0887310  40.1713870  17.7184520  36.8687280  40.4247800
   7.9254070  32.3545510  38.3354430   8.2329050  31.7992400  37.6189930
   6.9954770  32.4889970  38.1527420  13.4769130  48.0712800  40.6261890
  13.4896290  47.6675090  39.7584150  12.9244350  48.8460090  40.5223320
  14.7714550  44.7929020  35.7152060  14.6610880  43.8503350  35.8401480
  14.7682800  45.1544660  36.6014820  12.8754570  42.9742640  41.9544500
  13.2923360  42.7602750  41.1197960  13.5994390  43.2315430  42.5253120
  10.3134830  40.4194340  35.0714550   9.3864110  40.3531720  35.3003020
  10.4659650  41.3574470  34.9569790  10.3003910  36.6911340  32.0681710
   9.3607580  36.8525300  32.1534170  10.6187170  37.4097020  31.5217700
  16.8216670  41.3729860  42.0460740  15.9935300  41.4422950  41.5710870
  17.4167150  41.9584170  41.5776570  14.3432120  41.9814640  35.5749800
  13.7244540  41.6434190  34.9276100  14.3256570  41.3374400  36.2828990
  13.7858680  38.1599180  42.9915610  13.3729860  38.9852890  43.2455600
  13.0534630  37.5744220  42.7991970   5.9191470  40.9459080  37.8534280
   5.5148470  40.2336330  37.3580180   6.0054590  40.6012320  38.7422320
   6.3873170  44.6326640  40.0173490   6.0901460  44.0272110  39.3381270
   7.3372990  44.6703950  39.9062850   4.6320090  37.7202290  41.6333320
   5.1834680  37.8297630  40.8586570   5.1463600  38.0939890  42.3488550
  14.4758780  48.2058510  43.6796590  13.9989340  49.0130700  43.4869200
  13.7920570  47.5536840  43.8322800   5.4791600  44.3708330  46.6681290
   4.5820130  44.5948300  46.9154690   5.5044470  44.4943270  45.7192690
  12.5196820  41.2201450  32.5822550  12.9590100  40.3823880  32.4360370
  13.2325240  41.8530850  32.6686690   4.3062820  41.2421650  45.2438660
   4.1670590  42.1144450  45.6126060   3.4244180  40.8994460  45.0986600
  10.6292200  46.1597520  36.5503790  11.0688110  46.9021850  36.1359180
  10.5679090  46.4024090  37.4742750   6.1043170  47.1843350  47.4523810
   6.0758600  47.5886300  46.5852240   5.9408140  46.2553710  47.2895410
  16.1013960  32.4744260  30.8963590  15.7886620  32.5671090  31.7962660
  16.8626430  33.0525290  30.8461020   2.6196100  39.8404060  35.3540930
   2.4993700  40.5666150  34.7422200   2.3096990  39.0706970  34.8768840
  18.0557990  47.9670450  48.7487980  18.5317710  48.4453340  49.4277060
  18.6765150  47.8987940  48.0233480  17.4591240  45.1583300  45.9087990
  17.5854300  44.9195180  44.9905170  17.5012620  44.3267840  46.3810070
  11.3207980  48.8611300  44.4782800  11.8352650  48.7719310  45.2805230
  10.4777060  49.2071000  44.7710710  13.2962380  49.1466640  33.9066800
  13.1363520  48.8569580  34.8048630  13.1309090  48.3706770  33.3712030
   5.7750760  48.9265170  35.6838420   5.5993240  48.0100710  35.4706220
   4.9206500  49.2852460  35.9236220  12.9988510  46.6554200  32.4664800
  12.3053670  46.6531490  31.8067080  13.7411370  46.2313520  32.0358970
  12.5638440  48.2816910  36.5413290  13.0195390  47.5006290  36.8551910
  12.9030960  48.9923730  37.0854470  17.3115250  37.2115760  46.8737730
  16.6959520  37.7195430  46.3453190  16.9911670  36.3114090  46.8163670
   5.0859760  33.1839130  38.7364600   4.6427910  33.9648670  38.4049120
   5.6444750  33.5069020  39.4435540   9.3729570  36.0507650  44.3399920
   8.9108940  36.2590670  45.1519860   8.9707680  35.2367000  44.0370590
  14.3734080  37.2716600  45.4696580  13.5227670  36.9722350  45.7905650
  14.2135870  37.5158610  44.5580400  11.4683790  38.7718350  47.5695370
  11.7937200  37.9382100  47.2297600  12.2564120  39.2946870  47.7173700
   8.2018580  32.8049830  33.6170430   7.5772760  32.8009700  34.3423740
   8.1148700  31.9380790  33.2206400   7.1235660  33.7286460  40.5954200
   7.4207990  34.6349290  40.5146220   7.6721220  33.2405240  39.9813770
   4.8773980  38.3072700  36.4645850   4.6514900  38.0909870  37.3692470
   4.0966510  38.7401160  36.1191820  12.1071740  38.3136070  35.0636500
  11.5080630  39.0371870  34.8800120  12.6551350  38.2512850  34.2812950
   7.3173190  39.2058280  47.1306120   7.2216790  38.2653010  46.9806520
   8.1605170  39.4273350  46.7354190  10.7136610  36.9499610  37.0939780
  11.1066180  37.2671810  36.2808470  11.0753460  36.0711490  37.2084300
   2.4483730  35.6171950  45.2839900   2.0547120  36.4647160  45.4912680
   1.7602130  34.9798320  45.4748540   9.0228780  35.7006920  48.3536640
   8.3327100  35.5079120  48.9882730   9.7661080  35.9841560  48.8860940
  11.2991750  39.5405360  41.1890560  10.5672870  40.0492170  41.5380660
  10.9016090  38.7235340  40.8879340   7.7369140  36.2159560  39.5943050
   7.7405200  35.7749510  38.7447590   8.6320260  36.5376890  39.7014870
   3.5871520  36.0986050  38.5537260   3.2471570  36.5761280  39.3104310
   2.8248840  35.6451170  38.1938360   7.7989290  37.2171640  32.5849810
   7.9202110  37.1758120  33.5335630   7.4137800  38.0795790  32.4296540
  11.7617660  34.9939040  40.6013500  11.7790400  35.4447690  41.4455350
  11.5133240  34.0944680  40.8146940   6.8110790  39.5272780  31.9833110
   6.2427690  39.0791030  31.3569020   7.5199790  39.8865560  31.4498260
  15.1888410  32.4071220  46.4399880  15.5134180  31.6760880  46.9657860
  15.2244920  32.0884860  45.5380870   8.0377110  40.2761340  41.3408460
   8.4047240  39.8019910  42.0869800   7.8482170  41.1502910  41.6816800
   5.8276480  39.3169980  43.6592670   5.5233550  40.1961960  43.8843030
   6.7822940  39.3769770  43.6950110   4.3558270  43.5230970  34.2559520
   3.5820530  42.9828590  34.0958240   5.0852900  43.0037580  33.9177280
  15.1146250  42.5196330  40.0485910  15.8345370  43.0151620  39.6582020
  14.9128070  41.8414220  39.4039780  10.5756190  33.9134290  34.1915300
   9.7620800  33.4147460  34.1160610  10.3818140  34.7532540  33.7751650
  10.4965050  42.5905390  45.9354910  10.4302360  41.6701060  45.6812500
   9.8670190  42.6880830  46.6499550  13.2904580  38.2853940  32.4877460
  14.1784200  38.5971170  32.3128800  13.2609670  37.4126190  32.0958040
   4.3995670  43.1911350  37.8938330   4.9174340  42.3879610  37.8395220
   3.9479690  43.1290490  38.7355160   9.2865170  44.4577630  33.1665630
   9.6280870  45.2019860  32.6708950   8.4577880  44.7708750  33.5290460
   1.8840210  40.1572720  44.8064030   1.5255150  40.8226570  45.3937370
   1.5894770  39.3256270  45.1776650   5.0853330  40.6156960  47.6903580
   4.7853470  40.7614140  46.7931400   5.8564570  40.0562250  47.5976970
  10.4281780  45.4125960  45.6858710  10.4426320  44.4806920  45.4677620
   9.7206880  45.4985720  46.3248480  15.5618850  39.5965780  31.9557320
  15.4782570  40.0280000  31.1053760  16.2813040  40.0564130  32.3884140
  16.6392990  42.0533300  45.0327290  15.9141180  42.6462080  44.8356680
  17.1668450  42.0456840  44.2340660  16.5906100  46.4508040  34.6839450
  15.9482260  45.7963660  34.9583170  16.2036760  46.8563130  33.9080120
  12.1692580  43.7793470  38.5311140  12.5216400  43.1821600  37.8712510
  11.2854910  43.4537700  38.7019390   8.2555860  44.5391160  35.9381550
   8.9426990  45.0860370  36.3189140   7.4688280  45.0831890  35.9731160
   7.5583070  41.5437190  35.5506910   8.0145850  42.3542440  35.7767100
   7.2071280  41.2260330  36.3825400   9.8615680  47.0543530  42.7799210
  10.5057900  47.2602910  43.4572630  10.2245120  46.2931930  42.3270060
   3.4594850  31.8874840  36.0229430   3.3309480  31.8792740  36.9714350
   2.6356870  32.2257930  35.6720440  11.1347760  45.0575880  41.4976660
  11.7769990  44.3569040  41.6108830  11.6597110  45.8374320  41.3173550
  14.9803480  45.3424500  31.2215800  14.7541060  44.6254940  31.8140440
  14.5899680  45.0936940  30.3837550  12.9085380  45.8570780  44.7012720
  13.2441620  46.4437470  45.3790640  11.9885720  45.7263490  44.9310510
  14.5619730  43.2596440  32.8829960  14.2741430  43.7209130  33.6707840
  15.3571900  42.7994210  33.1514180   8.7373960  45.9062110  47.8700780
   8.4170830  45.1871350  48.4146470   8.0632320  46.5817180  47.9436840
   6.7788130  46.7522560  32.8133930   6.7698230  47.4852250  32.1978440
   5.8586490  46.5054140  32.9060890   2.3794770  41.9737450  33.5580690
   1.7722720  42.7136350  33.5675990   2.8544120  42.0636810  32.7318890
  11.9527560  36.1388270  43.2337580  12.3208380  35.3183480  43.5617150
  11.0925760  36.1990160  43.6493230  15.3189590  35.0945210  34.0425140
  14.6902750  35.1990880  33.3283370  14.8241510  35.3141990  34.8319020
   9.7647730  46.8150800  31.4759120   9.8659710  46.6114790  30.5461100
   8.8649470  46.5609080  31.6806900   7.2873620  37.3731160  35.4583020
   6.5789770  37.8417500  35.8996630   7.5718100  36.7153170  36.0928210
   8.9129550  38.7927860  43.4575550   9.4114800  39.2673680  44.1227400
   9.0552500  37.8691380  43.6645580  11.3189050  34.0981820  36.8978810
  11.1956830  34.1167950  35.9488320  12.2673610  34.1460760  37.0177210
   8.4065840  49.3337120  36.1706790   8.6607340  49.2958510  35.2486160
   7.4578320  49.2070450  36.1635040   5.4908640  35.6816240  32.8333730
   6.3399170  36.1186390  32.7673920   5.1239910  35.9936500  33.6605790
  16.1196410  35.0095820  44.3003940  15.6170010  35.7501220  44.6397750
  16.9353070  35.3979820  43.9840730  14.4118420  40.2529000  37.7465300
  13.4708560  40.2679230  37.9212990  14.7262490  39.4664960  38.1925600
   4.3900060  41.9348600  31.3069260   5.1563330  41.8229960  31.8694690
   4.4674750  41.2386570  30.6546030   3.0846820  39.3673670  31.9902150
   3.1650410  38.4201180  32.1019550   3.9766570  39.6980550  32.0962810
  16.4144000  47.4237850  39.4219560  16.5391420  48.2469020  39.8943370
  17.2809560  47.2128580  39.0743710   3.8861530  49.5169060  39.0936690
   4.6224010  48.9684520  39.3645260   4.2702450  50.3825070  38.9542680
   2.8919810  48.7015130  48.2822270   3.6932540  49.0227180  48.6957670
   2.3771630  48.3410710  49.0042180   6.9963840  48.6899370  30.9162260
   7.7892450  48.9788200  30.4644050   6.4768190  48.2591540  30.2374740
  11.7284440  44.8095000  48.2297680  11.1222600  44.8326600  47.4893430
  11.4238550  44.0778040  48.7664930  13.1584810  48.5375290  46.8407090
  14.1106560  48.4533310  46.7907330  13.0113030  49.2017000  47.5140880
  16.0494010  47.9169500  32.3399000  15.7635520  47.5034640  31.5253180
  15.8513560  48.8457210  32.2199520   7.5141240  43.9102780  30.7804610
   7.4091880  43.2955130  31.5065990   7.3465460  43.3868670  29.9967620
   7.6655560  42.5959580  46.7593840   6.9001230  43.1644580  46.6748510
   7.8471520  42.3035790  45.8662070  10.7543970  42.9722810  31.3846600
  10.2054070  43.4192110  32.0289340  11.3763230  42.4672060  31.9084270
  14.8078910  44.3264910  47.3168860  15.5488380  44.6640670  46.8136320
  14.0451590  44.4956970  46.7638630   2.6440700  39.3318180  48.1208390
   2.6846040  39.0332050  49.0293620   3.4986200  39.7325790  47.9615910
   6.4219090  41.9313730  33.2811900   6.8435510  41.7653600  34.1243290
   6.5469930  41.1213960  32.7867040   4.5846510  37.9110280  46.0882880
   4.0542970  37.4201230  45.4606220   5.2534580  38.3394480  45.5540810
   8.9346730  40.9551340  30.5289000   9.4552390  40.2400360  30.1630150
   9.5815130  41.5937210  30.8289510  13.4824570  42.3779740  45.8524070
  13.8965590  42.5324820  46.7014490  12.5475570  42.5034960  46.0149850
  13.9546740  39.7175900  47.8563220  14.5367510  38.9628220  47.7683700
  14.1308510  40.2483340  47.0794700   5.0718810  34.8772650  46.1680170
   4.9775680  34.2593400  45.4431040   4.4916200  35.6038940  45.9410080
   7.8380250  33.4345890  43.2007560   7.3897550  33.4570150  42.3553110
   7.2045450  33.0364910  43.7977860   8.2439800  42.3300220  43.8220000
   8.6627910  43.1732950  43.6496240   7.3248430  42.4672260  43.5926780
  10.5803700  40.0616400  45.2057840  10.6999910  39.4657540  45.9452680
  11.4397700  40.0986090  44.7859140  12.9191600  40.6153590  43.7820350
  12.3926820  41.1396210  43.1785490  13.2622940  41.2480980  44.4130080
   5.3177990  38.0046960  30.2270060   5.1167050  37.1414320  30.5883400
   5.1470040  37.9180320  29.2891660   6.0947220  48.6353230  44.9377730
   5.5568310  49.3599290  44.6186430   6.3481180  48.1583570  44.1475070
   7.3472470  36.6037750  46.4633660   7.9372160  36.2953600  47.1511480
   6.5292710  36.1317500  46.6193560  12.1665900  36.2203560  46.6966680
  11.4781420  35.5585100  46.6316670  12.8871920  35.7741830  47.1415140
  12.7966300  32.8155190  32.7556940  13.0768590  31.9723090  33.1116360
  12.0232030  33.0478300  33.2695690   4.1160790  35.1047580  30.2147940
   4.4186690  35.1115010  29.3067090   4.8555380  34.7545440  30.7115600
   8.9509430  49.8704440  45.1964380   8.8768130  50.7739580  45.5036750
   8.0488270  49.5516340  45.1686450   7.3345720  34.0482200  31.2004140
   6.9867720  33.3706190  30.6206590   7.5358490  33.5871710  32.0147530
   9.4994760  49.0362950  32.8190740  10.3945550  49.3747920  32.8409500
   9.5312390  48.3142360  32.1915020   3.1390920  44.4090000  31.0477740
   3.5765790  44.9519670  31.7035320   3.6238650  43.5836950  31.0574080
   4.9498640  45.5288040  36.1599970   4.6494180  45.4053010  37.0603880
   4.8436130  44.6696630  35.7515700  16.4789110  47.5666620  45.5256940
  15.8791100  47.6259180  44.7820860  16.6083010  46.6271600  45.6553790
  17.7190560  45.3084440  30.8626650  16.8883520  45.3761090  31.3333880
  17.8962390  46.1988560  30.5593510  17.1747020  42.0531920  33.3660850
  17.9365930  42.6228570  33.4720540  17.1901390  41.4859120  34.1369160
  18.1806990  42.9082020  38.2102780  18.5515820  42.1249340  37.8038750
  18.8208920  43.5971120  38.0320080  15.1640750  44.2918600  43.6233100
  14.3500590  44.7215760  43.8858890  15.5714950  44.9037010  43.0102150
  17.2266190  42.3466290  30.5233370  17.5015030  43.2545170  30.3952590
  17.0376930  42.2828820  31.4595360  13.6241800  35.3711140  31.8187000
  14.0426680  35.1842120  30.9783660  13.3177860  34.5190190  32.1289930
  17.1231530  40.2835280  35.5162800  16.7475130  39.5163210  35.0844090
  16.3934650  40.6657980  36.0037730  16.5131150  39.4306800  45.1502320
  16.2817240  39.2019550  44.2500270  16.7735700  40.3506350  45.1047210
  14.9519220  34.6563230  47.9282020  15.8289400  34.6646630  48.3116020
  14.9640060  33.9194070  47.3174370  16.3982490  38.5092770  38.8170040
  16.9219970  38.0155420  38.1860210  16.9841910  38.6443130  39.5617610
  16.5772210  38.5932640  42.3389590  15.6274920  38.5596180  42.4534580
  16.7585220  39.5032750  42.1039360   2.4316650  36.8434320  31.4488220
   3.1408350  36.4217540  30.9635500   1.7156590  36.9109550  30.8171570
   2.0790810  32.8973650  30.4890870   2.8018940  33.4382590  30.8072090
   2.3515330  32.6237070  29.6132410  15.8882460  37.7666120  34.7562450
  16.3841580  37.5336990  35.5411330  15.6898530  36.9277960  34.3400090
   1.7683000  32.1479840  40.3913490   2.4159190  31.5977220  39.9508650
   2.1884840  32.4022990  41.2129300  17.3169620  36.4027070  37.2900130
  17.2068900  36.2483110  38.2282400  18.0777210  35.8748010  37.0475540
  15.6635340  32.3421200  43.7483130  16.3007560  32.9555340  44.1142320
  15.8110230  32.3781860  42.8032360  18.2059890  34.2334990  30.5306270
  19.1309200  34.1016170  30.3224560  18.1835680  34.3127810  31.4842720
  18.2798380  35.0045650  33.1562980  17.4849880  34.9390770  33.6855890
  18.4841660  35.9396290  33.1448330  15.2216800  49.0437200  37.1501370
  15.8175870  48.7221770  36.4735790  15.4794950  48.5709020  37.9414640
   3.1279370  45.4755110  47.2992000   3.0849000  45.1048020  48.1806460
   3.2590380  46.4132680  47.4393820   6.8285400  47.0314700  42.9001720
   6.5876760  47.2989260  42.0132240   7.7688040  47.2020430  42.9552580
   9.0339820  33.4947390  46.6558230   8.9728710  34.0869220  47.4053640
   9.9740200  33.3873350  46.5108490  11.6714380  33.1517450  46.2950520
  12.2854790  33.4696740  45.6331600  12.2163940  32.6666040  46.9146380
  18.0889560  49.0509080  43.7012360  17.5947840  49.4477950  42.9839490
  17.4802850  48.4258290  44.0949640   2.1935640  31.8311710  46.4089580
   2.7418630  31.6499760  45.6455690   2.2590950  31.0405820  46.9445890
   2.9667400  48.4217360  44.4189780   2.3727720  48.2902060  45.1579820
   2.9591240  47.5855500  43.9531880  12.4122420  31.7149590  42.6219810
  11.5382260  32.0484700  42.4192740  12.3033170  31.2422770  43.4471680
  13.3194400  33.9220460  44.0061530  12.9907760  33.1072220  43.6263260
  14.2676700  33.8790270  43.8827220  15.7729010  49.6932500  40.9799100
  15.3131980  50.4448310  40.6057120  15.1441470  48.9738970  40.9213900
   2.5979630  45.7875740  43.3697820   1.8713690  45.1681030  43.3023770
   2.6588780  46.1816350  42.4995900   6.2024730  48.0020740  40.1547230
   6.7189750  47.3908100  39.6295490   6.8522110  48.5049520  40.6458240
   8.9420230  48.8929230  40.9816210   9.2298040  48.6383530  40.1049220
   9.4543450  48.3406590  41.5721780  10.1597240  32.6319430  41.5612720
   9.3769030  33.1064930  41.8409480   9.8660170  31.7274260  41.4525900
  14.7118310  33.3342530  39.6061810  15.1526400  33.2787630  38.7583410
  14.4425900  34.2500540  39.6771990  16.5756880  32.9657770  37.6170630
  16.5145280  32.0218990  37.4701650  17.3548910  33.0737860  38.1624090
   8.0451460  35.0506180  37.0728750   7.2325970  34.6763070  36.7324630
   8.5493100  34.2951260  37.3749940  12.5476440  31.7148630  38.3111820
  13.1505810  32.2868840  38.7860340  11.8069430  32.2788070  38.0885720
  15.6911040  32.1170190  33.5852100  15.8861670  33.0153640  33.8519530
  14.9040910  31.8857270  34.0785050   2.4872330  47.7983360  34.0244720
   1.9619950  48.1791390  33.3206680   2.4116910  48.4234130  34.7454430
   3.8762800  33.4630960  32.6228410   4.4055560  32.6760760  32.4936360
   4.5091120  34.1422150  32.8563940   6.0700640  33.2006100  35.6773800
   5.4403380  32.4993410  35.8443930   5.5305780  33.9610230  35.4606960
   9.0092590  49.8145330  48.3484410   9.9359900  49.5789600  48.3920370
   8.9943020  50.6417330  47.8670440  17.2437650  49.3570900  35.3458660
  17.4189840  48.6708640  34.7019580  16.5459220  49.8817950  34.9535330
   6.1956200  32.4790080  48.1126290   5.9140470  32.9823680  47.3487110
   6.5775900  31.6811830  47.7468420   5.0865300  49.7465740  32.8993970
   5.8184120  49.4625020  32.3517860   5.3458970  49.5079020  33.7893350
   4.2480090  45.8630470  32.9040300   3.6188970  46.3315570  33.4526130
   4.3627920  45.0179690  33.3386490  12.7971660  31.8943660  48.6906760
  12.6837110  32.2138270  49.5858280  13.6141400  32.2956170  48.3944040
  15.5770150  49.0415190  48.1725450  16.3695470  48.5464420  47.9651410
  15.8703300  49.7205330  48.7801060  11.7029810  39.9136130  19.0541500
  11.6223860  38.9990740  18.7833210  11.2894230  40.4103200  18.3481210
   9.8347850  41.6915150  20.9350770   9.0589950  41.2115590  21.2249340
  10.4860780  41.0120800  20.7606930   3.8513680  42.0034960  21.8126530
   3.0198560  41.7483670  22.2123040   4.4594660  42.0745730  22.5484450
  13.8555280  46.0975340  19.7149900  13.3936810  45.3262580  20.0437070
  14.6680830  46.1241410  20.2202350   3.8314940  46.0375050  22.0084550
   4.1342980  45.1472790  21.8294770   4.5758530  46.5945270  21.7806800
  10.0818590  48.3833350  19.3353890   9.4630030  48.8390850  18.7648330
  10.9370370  48.5384810  18.9343590   9.2756840  44.3672340  20.9420930
   9.2065120  43.4262280  20.7810060  10.0376700  44.4573750  21.5143500
  10.3062010  37.1742720  21.1689860  10.6826830  36.3014600  21.0563530
  10.2081520  37.5101420  20.2780300   4.4367020  35.5468350  16.6307300
   4.5433770  36.4472080  16.9376060   3.5259380  35.4986320  16.3401950
  14.0886130  34.6693160  18.1018200  14.9095750  34.1789730  18.1443680
  14.1220210  35.2590820  18.8550040   2.0850180  37.4687360  21.8759890
   2.7660290  37.7325730  22.4947290   1.7698230  36.6288230  22.2097900
   6.2774750  38.5154720  20.9632480   6.7852970  39.0135690  21.6037500
   6.8087990  37.7389920  20.7871840  18.3785680  36.6859910  24.6661830
  17.6737850  37.0741620  24.1476940  18.6443600  37.3810200  25.2682760
   4.5610850  33.1553280  25.2295900   4.5629290  33.6725670  24.4241800
   3.7315160  32.6783460  25.2065830  10.9481940  43.2672590  16.7285800
  10.3299210  43.7322040  16.1648520  11.4605190  43.9600070  17.1455310
   5.8113700  42.7948460  23.4069400   5.4783080  43.4217380  24.0490470
   5.9880380  43.3210340  22.6271070  14.3247610  36.6093540  20.8745740
  13.6203180  36.8978430  21.4548850  14.6859770  37.4193650  20.5145300
   4.2426180  34.8663240  23.2366350   4.5842990  35.7105290  22.9420220
   3.3041990  35.0146980  23.3531690   5.0232800  44.7629260  25.2218580
   5.6406800  45.4380340  24.9403030   4.1625920  45.1717240  25.1306080
  15.9410390  46.2268670  23.1373220  15.2573910  46.8967780  23.1289890
  16.4804680  46.4249320  22.3718080  17.3934530  36.0548330  21.2654950
  16.4459440  36.0887310  21.3970380  17.7184520  36.8687280  21.6504310
   7.9254070  32.3545510  19.5610940   8.2329050  31.7992400  18.8446440
   6.9954770  32.4889970  19.3783930  13.4769130  48.0712800  21.8518400
  13.4896290  47.6675090  20.9840660  12.9244350  48.8460090  21.7479830
  14.7714550  44.7929020  16.9408570  14.6610880  43.8503350  17.0657990
  14.7682800  45.1544660  17.8271330  12.8754570  42.9742640  23.1801010
  13.2923360  42.7602750  22.3454470  13.5994390  43.2315430  23.7509630
  10.3134830  40.4194340  16.2971060   9.3864110  40.3531720  16.5259530
  10.4659650  41.3574470  16.1826300  10.3003910  36.6911340  13.2938220
   9.3607580  36.8525300  13.3790680  10.6187170  37.4097020  12.7474210
  16.8216670  41.3729860  23.2717250  15.9935300  41.4422950  22.7967380
  17.4167150  41.9584170  22.8033080  14.3432120  41.9814640  16.8006310
  13.7244540  41.6434190  16.1532610  14.3256570  41.3374400  17.5085500
  13.7858680  38.1599180  24.2172120  13.3729860  38.9852890  24.4712110
  13.0534630  37.5744220  24.0248480   5.9191470  40.9459080  19.0790790
   5.5148470  40.2336330  18.5836690   6.0054590  40.6012320  19.9678830
   6.3873170  44.6326640  21.2430000   6.0901460  44.0272110  20.5637780
   7.3372990  44.6703950  21.1319360   4.6320090  37.7202290  22.8589830
   5.1834680  37.8297630  22.0843080   5.1463600  38.0939890  23.5745060
  14.4758780  48.2058510  24.9053100  13.9989340  49.0130700  24.7125710
  13.7920570  47.5536840  25.0579310   5.4791600  44.3708330  27.8937800
   4.5820130  44.5948300  28.1411200   5.5044470  44.4943270  26.9449200
  12.5196820  41.2201450  13.8079060  12.9590100  40.3823880  13.6616880
  13.2325240  41.8530850  13.8943200   4.3062820  41.2421650  26.4695170
   4.1670590  42.1144450  26.8382570   3.4244180  40.8994460  26.3243110
  10.6292200  46.1597520  17.7760300  11.0688110  46.9021850  17.3615690
  10.5679090  46.4024090  18.6999260   6.1043170  47.1843350  28.6780320
   6.0758600  47.5886300  27.8108750   5.9408140  46.2553710  28.5151920
  16.1013960  32.4744260  12.1220100  15.7886620  32.5671090  13.0219170
  16.8626430  33.0525290  12.0717530   2.6196100  39.8404060  16.5797440
   2.4993700  40.5666150  15.9678710   2.3096990  39.0706970  16.1025350
  18.0557990  47.9670450  29.9744490  18.5317710  48.4453340  30.6533570
  18.6765150  47.8987940  29.2489990  17.4591240  45.1583300  27.1344500
  17.5854300  44.9195180  26.2161680  17.5012620  44.3267840  27.6066580
  11.3207980  48.8611300  25.7039310  11.8352650  48.7719310  26.5061740
  10.4777060  49.2071000  25.9967220  13.2962380  49.1466640  15.1323310
  13.1363520  48.8569580  16.0305140  13.1309090  48.3706770  14.5968540
   5.7750760  48.9265170  16.9094930   5.5993240  48.0100710  16.6962730
   4.9206500  49.2852460  17.1492730  12.9988510  46.6554200  13.6921310
  12.3053670  46.6531490  13.0323590  13.7411370  46.2313520  13.2615480
  12.5638440  48.2816910  17.7669800  13.0195390  47.5006290  18.0808420
  12.9030960  48.9923730  18.3110980  17.3115250  37.2115760  28.0994240
  16.6959520  37.7195430  27.5709700  16.9911670  36.3114090  28.0420180
   5.0859760  33.1839130  19.9621110   4.6427910  33.9648670  19.6305630
   5.6444750  33.5069020  20.6692050   9.3729570  36.0507650  25.5656430
   8.9108940  36.2590670  26.3776370   8.9707680  35.2367000  25.2627100
  14.3734080  37.2716600  26.6953090  13.5227670  36.9722350  27.0162160
  14.2135870  37.5158610  25.7836910  11.4683790  38.7718350  28.7951880
  11.7937200  37.9382100  28.4554110  12.2564120  39.2946870  28.9430210
   8.2018580  32.8049830  14.8426940   7.5772760  32.8009700  15.5680250
   8.1148700  31.9380790  14.4462910   7.1235660  33.7286460  21.8210710
   7.4207990  34.6349290  21.7402730   7.6721220  33.2405240  21.2070280
   4.8773980  38.3072700  17.6902360   4.6514900  38.0909870  18.5948980
   4.0966510  38.7401160  17.3448330  12.1071740  38.3136070  16.2893010
  11.5080630  39.0371870  16.1056630  12.6551350  38.2512850  15.5069460
   7.3173190  39.2058280  28.3562630   7.2216790  38.2653010  28.2063030
   8.1605170  39.4273350  27.9610700  10.7136610  36.9499610  18.3196290
  11.1066180  37.2671810  17.5064980  11.0753460  36.0711490  18.4340810
   2.4483730  35.6171950  26.5096410   2.0547120  36.4647160  26.7169190
   1.7602130  34.9798320  26.7005050   9.0228780  35.7006920  29.5793150
   8.3327100  35.5079120  30.2139240   9.7661080  35.9841560  30.1117450
  11.2991750  39.5405360  22.4147070  10.5672870  40.0492170  22.7637170
  10.9016090  38.7235340  22.1135850   7.7369140  36.2159560  20.8199560
   7.7405200  35.7749510  19.9704100   8.6320260  36.5376890  20.9271380
   3.5871520  36.0986050  19.7793770   3.2471570  36.5761280  20.5360820
   2.8248840  35.6451170  19.4194870   7.7989290  37.2171640  13.8106320
   7.9202110  37.1758120  14.7592140   7.4137800  38.0795790  13.6553050
  11.7617660  34.9939040  21.8270010  11.7790400  35.4447690  22.6711860
  11.5133240  34.0944680  22.0403450   6.8110790  39.5272780  13.2089620
   6.2427690  39.0791030  12.5825530   7.5199790  39.8865560  12.6754770
  15.1888410  32.4071220  27.6656390  15.5134180  31.6760880  28.1914370
  15.2244920  32.0884860  26.7637380   8.0377110  40.2761340  22.5664970
   8.4047240  39.8019910  23.3126310   7.8482170  41.1502910  22.9073310
   5.8276480  39.3169980  24.8849180   5.5233550  40.1961960  25.1099540
   6.7822940  39.3769770  24.9206620   4.3558270  43.5230970  15.4816030
   3.5820530  42.9828590  15.3214750   5.0852900  43.0037580  15.1433790
  15.1146250  42.5196330  21.2742420  15.8345370  43.0151620  20.8838530
  14.9128070  41.8414220  20.6296290  10.5756190  33.9134290  15.4171810
   9.7620800  33.4147460  15.3417120  10.3818140  34.7532540  15.0008160
  10.4965050  42.5905390  27.1611420  10.4302360  41.6701060  26.9069010
   9.8670190  42.6880830  27.8756060  13.2904580  38.2853940  13.7133970
  14.1784200  38.5971170  13.5385310  13.2609670  37.4126190  13.3214550
   4.3995670  43.1911350  19.1194840   4.9174340  42.3879610  19.0651730
   3.9479690  43.1290490  19.9611670   9.2865170  44.4577630  14.3922140
   9.6280870  45.2019860  13.8965460   8.4577880  44.7708750  14.7546970
   1.8840210  40.1572720  26.0320540   1.5255150  40.8226570  26.6193880
   1.5894770  39.3256270  26.4033160   5.0853330  40.6156960  28.9160090
   4.7853470  40.7614140  28.0187910   5.8564570  40.0562250  28.8233480
  10.4281780  45.4125960  26.9115220  10.4426320  44.4806920  26.6934130
   9.7206880  45.4985720  27.5504990  15.5618850  39.5965780  13.1813830
  15.4782570  40.0280000  12.3310270  16.2813040  40.0564130  13.6140650
  16.6392990  42.0533300  26.2583800  15.9141180  42.6462080  26.0613190
  17.1668450  42.0456840  25.4597170  16.5906100  46.4508040  15.9095960
  15.9482260  45.7963660  16.1839680  16.2036760  46.8563130  15.1336630
  12.1692580  43.7793470  19.7567650  12.5216400  43.1821600  19.0969020
  11.2854910  43.4537700  19.9275900   8.2555860  44.5391160  17.1638060
   8.9426990  45.0860370  17.5445650   7.4688280  45.0831890  17.1987670
   7.5583070  41.5437190  16.7763420   8.0145850  42.3542440  17.0023610
   7.2071280  41.2260330  17.6081910   9.8615680  47.0543530  24.0055720
  10.5057900  47.2602910  24.6829140  10.2245120  46.2931930  23.5526570
   3.4594850  31.8874840  17.2485940   3.3309480  31.8792740  18.1970860
   2.6356870  32.2257930  16.8976950  11.1347760  45.0575880  22.7233170
  11.7769990  44.3569040  22.8365340  11.6597110  45.8374320  22.5430060
  14.9803480  45.3424500  12.4472310  14.7541060  44.6254940  13.0396950
  14.5899680  45.0936940  11.6094060  12.9085380  45.8570780  25.9269230
  13.2441620  46.4437470  26.6047150  11.9885720  45.7263490  26.1567020
  14.5619730  43.2596440  14.1086470  14.2741430  43.7209130  14.8964350
  15.3571900  42.7994210  14.3770690   8.7373960  45.9062110  29.0957290
   8.4170830  45.1871350  29.6402980   8.0632320  46.5817180  29.1693350
   6.7788130  46.7522560  14.0390440   6.7698230  47.4852250  13.4234950
   5.8586490  46.5054140  14.1317400   2.3794770  41.9737450  14.7837200
   1.7722720  42.7136350  14.7932500   2.8544120  42.0636810  13.9575400
  11.9527560  36.1388270  24.4594090  12.3208380  35.3183480  24.7873660
  11.0925760  36.1990160  24.8749740  15.3189590  35.0945210  15.2681650
  14.6902750  35.1990880  14.5539880  14.8241510  35.3141990  16.0575530
   9.7647730  46.8150800  12.7015630   9.8659710  46.6114790  11.7717610
   8.8649470  46.5609080  12.9063410   7.2873620  37.3731160  16.6839530
   6.5789770  37.8417500  17.1253140   7.5718100  36.7153170  17.3184720
   8.9129550  38.7927860  24.6832060   9.4114800  39.2673680  25.3483910
   9.0552500  37.8691380  24.8902090  11.3189050  34.0981820  18.1235320
  11.1956830  34.1167950  17.1744830  12.2673610  34.1460760  18.2433720
   8.4065840  49.3337120  17.3963300   8.6607340  49.2958510  16.4742670
   7.4578320  49.2070450  17.3891550   5.4908640  35.6816240  14.0590240
   6.3399170  36.1186390  13.9930430   5.1239910  35.9936500  14.8862300
  16.1196410  35.0095820  25.5260450  15.6170010  35.7501220  25.8654260
  16.9353070  35.3979820  25.2097240  14.4118420  40.2529000  18.9721810
  13.4708560  40.2679230  19.1469500  14.7262490  39.4664960  19.4182110
   4.3900060  41.9348600  12.5325770   5.1563330  41.8229960  13.0951200
   4.4674750  41.2386570  11.8802540   3.0846820  39.3673670  13.2158660
   3.1650410  38.4201180  13.3276060   3.9766570  39.6980550  13.3219320
  16.4144000  47.4237850  20.6476070  16.5391420  48.2469020  21.1199880
  17.2809560  47.2128580  20.3000220   3.8861530  49.5169060  20.3193200
   4.6224010  48.9684520  20.5901770   4.2702450  50.3825070  20.1799190
   2.8919810  48.7015130  29.5078780   3.6932540  49.0227180  29.9214180
   2.3771630  48.3410710  30.2298690   6.9963840  48.6899370  12.1418770
   7.7892450  48.9788200  11.6900560   6.4768190  48.2591540  11.4631250
  11.7284440  44.8095000  29.4554190  11.1222600  44.8326600  28.7149940
  11.4238550  44.0778040  29.9921440  13.1584810  48.5375290  28.0663600
  14.1106560  48.4533310  28.0163840  13.0113030  49.2017000  28.7397390
  16.0494010  47.9169500  13.5655510  15.7635520  47.5034640  12.7509690
  15.8513560  48.8457210  13.4456030   7.5141240  43.9102780  12.0061120
   7.4091880  43.2955130  12.7322500   7.3465460  43.3868670  11.2224130
   7.6655560  42.5959580  27.9850350   6.9001230  43.1644580  27.9005020
   7.8471520  42.3035790  27.0918580  10.7543970  42.9722810  12.6103110
  10.2054070  43.4192110  13.2545850  11.3763230  42.4672060  13.1340780
  14.8078910  44.3264910  28.5425370  15.5488380  44.6640670  28.0392830
  14.0451590  44.4956970  27.9895140   2.6440700  39.3318180  29.3464900
   2.6846040  39.0332050  30.2550130   3.4986200  39.7325790  29.1872420
   6.4219090  41.9313730  14.5068410   6.8435510  41.7653600  15.3499800
   6.5469930  41.1213960  14.0123550   4.5846510  37.9110280  27.3139390
   4.0542970  37.4201230  26.6862730   5.2534580  38.3394480  26.7797320
   8.9346730  40.9551340  11.7545510   9.4552390  40.2400360  11.3886660
   9.5815130  41.5937210  12.0546020  13.4824570  42.3779740  27.0780580
  13.8965590  42.5324820  27.9271000  12.5475570  42.5034960  27.2406360
  13.9546740  39.7175900  29.0819730  14.5367510  38.9628220  28.9940210
  14.1308510  40.2483340  28.3051210   5.0718810  34.8772650  27.3936680
   4.9775680  34.2593400  26.6687550   4.4916200  35.6038940  27.1666590
   7.8380250  33.4345890  24.4264070   7.3897550  33.4570150  23.5809620
   7.2045450  33.0364910  25.0234370   8.2439800  42.3300220  25.0476510
   8.6627910  43.1732950  24.8752750   7.3248430  42.4672260  24.8183290
  10.5803700  40.0616400  26.4314350  10.6999910  39.4657540  27.1709190
  11.4397700  40.0986090  26.0115650  12.9191600  40.6153590  25.0076860
  12.3926820  41.1396210  24.4042000  13.2622940  41.2480980  25.6386590
   5.3177990  38.0046960  11.4526570   5.1167050  37.1414320  11.8139910
   5.1470040  37.9180320  10.5148170   6.0947220  48.6353230  26.1634240
   5.5568310  49.3599290  25.8442940   6.3481180  48.1583570  25.3731580
   7.3472470  36.6037750  27.6890170   7.9372160  36.2953600  28.3767990
   6.5292710  36.1317500  27.8450070  12.1665900  36.2203560  27.9223190
  11.4781420  35.5585100  27.8573180  12.8871920  35.7741830  28.3671650
  12.7966300  32.8155190  13.9813450  13.0768590  31.9723090  14.3372870
  12.0232030  33.0478300  14.4952200   4.1160790  35.1047580  11.4404450
   4.4186690  35.1115010  10.5323600   4.8555380  34.7545440  11.9372110
   8.9509430  49.8704440  26.4220890   8.8768130  50.7739580  26.7293260
   8.0488270  49.5516340  26.3942960   7.3345720  34.0482200  12.4260650
   6.9867720  33.3706190  11.8463100   7.5358490  33.5871710  13.2404040
   9.4994760  49.0362950  14.0447250  10.3945550  49.3747920  14.0666010
   9.5312390  48.3142360  13.4171530   3.1390920  44.4090000  12.2734250
   3.5765790  44.9519670  12.9291830   3.6238650  43.5836950  12.2830590
   4.9498640  45.5288040  17.3856480   4.6494180  45.4053010  18.2860390
   4.8436130  44.6696630  16.9772210  16.4789110  47.5666620  26.7513450
  15.8791100  47.6259180  26.0077370  16.6083010  46.6271600  26.8810300
  17.7190560  45.3084440  12.0883160  16.8883520  45.3761090  12.5590390
  17.8962390  46.1988560  11.7850020  17.1747020  42.0531920  14.5917360
  17.9365930  42.6228570  14.6977050  17.1901390  41.4859120  15.3625670
  18.1806990  42.9082020  19.4359290  18.5515820  42.1249340  19.0295260
  18.8208920  43.5971120  19.2576590  15.1640750  44.2918600  24.8489610
  14.3500590  44.7215760  25.1115400  15.5714950  44.9037010  24.2358660
  17.2266190  42.3466290  11.7489880  17.5015030  43.2545170  11.6209100
  17.0376930  42.2828820  12.6851870  13.6241800  35.3711140  13.0443510
  14.0426680  35.1842120  12.2040170  13.3177860  34.5190190  13.3546440
  17.1231530  40.2835280  16.7419310  16.7475130  39.5163210  16.3100600
  16.3934650  40.6657980  17.2294240  16.5131150  39.4306800  26.3758830
  16.2817240  39.2019550  25.4756780  16.7735700  40.3506350  26.3303720
  14.9519220  34.6563230  29.1538530  15.8289400  34.6646630  29.5372530
  14.9640060  33.9194070  28.5430880  16.3982490  38.5092770  20.0426550
  16.9219970  38.0155420  19.4116720  16.9841910  38.6443130  20.7874120
  16.5772210  38.5932640  23.5646100  15.6274920  38.5596180  23.6791090
  16.7585220  39.5032750  23.3295870   2.4316650  36.8434320  12.6744730
   3.1408350  36.4217540  12.1892010   1.7156590  36.9109550  12.0428080
   2.0790810  32.8973650  11.7147380   2.8018940  33.4382590  12.0328600
   2.3515330  32.6237070  10.8388920  15.8882460  37.7666120  15.9818960
  16.3841580  37.5336990  16.7667840  15.6898530  36.9277960  15.5656600
   1.7683000  32.1479840  21.6170000   2.4159190  31.5977220  21.1765160
   2.1884840  32.4022990  22.4385810  17.3169620  36.4027070  18.5156640
  17.2068900  36.2483110  19.4538910  18.0777210  35.8748010  18.2732050
  15.6635340  32.3421200  24.9739640  16.3007560  32.9555340  25.3398830
  15.8110230  32.3781860  24.0288870  18.2059890  34.2334990  11.7562780
  19.1309200  34.1016170  11.5481070  18.1835680  34.3127810  12.7099230
  18.2798380  35.0045650  14.3819490  17.4849880  34.9390770  14.9112400
  18.4841660  35.9396290  14.3704840  15.2216800  49.0437200  18.3757880
  15.8175870  48.7221770  17.6992300  15.4794950  48.5709020  19.1671150
   3.1279370  45.4755110  28.5248510   3.0849000  45.1048020  29.4062970
   3.2590380  46.4132680  28.6650330   6.8285400  47.0314700  24.1258230
   6.5876760  47.2989260  23.2388750   7.7688040  47.2020430  24.1809090
   9.0339820  33.4947390  27.8814740   8.9728710  34.0869220  28.6310150
   9.9740200  33.3873350  27.7365000  11.6714380  33.1517450  27.5207030
  12.2854790  33.4696740  26.8588110  12.2163940  32.6666040  28.1402890
  18.0889560  49.0509080  24.9268870  17.5947840  49.4477950  24.2096000
  17.4802850  48.4258290  25.3206150   2.1935640  31.8311710  27.6346090
   2.7418630  31.6499760  26.8712200   2.2590950  31.0405820  28.1702400
   2.9667400  48.4217360  25.6446290   2.3727720  48.2902060  26.3836330
   2.9591240  47.5855500  25.1788390  12.4122420  31.7149590  23.8476320
  11.5382260  32.0484700  23.6449250  12.3033170  31.2422770  24.6728190
  13.3194400  33.9220460  25.2318040  12.9907760  33.1072220  24.8519770
  14.2676700  33.8790270  25.1083730  15.7729010  49.6932500  22.2055610
  15.3131980  50.4448310  21.8313630  15.1441470  48.9738970  22.1470410
   2.5979630  45.7875740  24.5954330   1.8713690  45.1681030  24.5280280
   2.6588780  46.1816350  23.7252410   6.2024730  48.0020740  21.3803740
   6.7189750  47.3908100  20.8552000   6.8522110  48.5049520  21.8714750
   8.9420230  48.8929230  22.2072720   9.2298040  48.6383530  21.3305730
   9.4543450  48.3406590  22.7978290  10.1597240  32.6319430  22.7869230
   9.3769030  33.1064930  23.0665990   9.8660170  31.7274260  22.6782410
  14.7118310  33.3342530  20.8318320  15.1526400  33.2787630  19.9839920
  14.4425900  34.2500540  20.9028500  16.5756880  32.9657770  18.8427140
  16.5145280  32.0218990  18.6958160  17.3548910  33.0737860  19.3880600
   8.0451460  35.0506180  18.2985260   7.2325970  34.6763070  17.9581140
   8.5493100  34.2951260  18.6006450  12.5476440  31.7148630  19.5368330
  13.1505810  32.2868840  20.0116850  11.8069430  32.2788070  19.3142230
  15.6911040  32.1170190  14.8108610  15.8861670  33.0153640  15.0776040
  14.9040910  31.8857270  15.3041560   2.4872330  47.7983360  15.2501230
   1.9619950  48.1791390  14.5463190   2.4116910  48.4234130  15.9710940
   3.8762800  33.4630960  13.8484920   4.4055560  32.6760760  13.7192870
   4.5091120  34.1422150  14.0820450   6.0700640  33.2006100  16.9030310
   5.4403380  32.4993410  17.0700440   5.5305780  33.9610230  16.6863470
   9.0092590  49.8145330  29.5740920   9.9359900  49.5789600  29.6176880
   8.9943020  50.6417330  29.0926950  17.2437650  49.3570900  16.5715170
  17.4189840  48.6708640  15.9276090  16.5459220  49.8817950  16.1791840
   6.1956200  32.4790080  29.3382800   5.9140470  32.9823680  28.5743620
   6.5775900  31.6811830  28.9724930   5.0865300  49.7465740  14.1250480
   5.8184120  49.4625020  13.5774370   5.3458970  49.5079020  15.0149860
   4.2480090  45.8630470  14.1296810   3.6188970  46.3315570  14.6782640
   4.3627920  45.0179690  14.5643000  12.7971660  31.8943660  29.9163270
  12.6837110  32.2138270  30.8114790  13.6141400  32.2956170  29.6200550
  15.5770150  49.0415190  29.3981960  16.3695470  48.5464420  29.1907920
  15.8703300  49.7205330  30.0057570   9.8347850  41.6915150   2.1607280
   9.0589950  41.2115590   2.4505850  10.4860780  41.0120800   1.9863440
   3.8513680  42.0034960   3.0383040   3.0198560  41.7483670   3.4379550
   4.4594660  42.0745730   3.7740960   3.8314940  46.0375050   3.2341060
   4.1342980  45.1472790   3.0551280   4.5758530  46.5945270   3.0063310
   9.2756840  44.3672340   2.1677440   9.2065120  43.4262280   2.0066570
  10.0376700  44.4573750   2.7400010  10.3062010  37.1742720   2.3946370
  10.6826830  36.3014600   2.2820040  10.2081520  37.5101420   1.5036810
   2.0850180  37.4687360   3.1016400   2.7660290  37.7325730   3.7203800
   1.7698230  36.6288230   3.4354410   6.2774750  38.5154720   2.1888990
   6.7852970  39.0135690   2.8294010   6.8087990  37.7389920   2.0128350
  18.3785680  36.6859910   5.8918340  17.6737850  37.0741620   5.3733450
  18.6443600  37.3810200   6.4939270   4.5610850  33.1553280   6.4552410
   4.5629290  33.6725670   5.6498310   3.7315160  32.6783460   6.4322340
   5.8113700  42.7948460   4.6325910   5.4783080  43.4217380   5.2746980
   5.9880380  43.3210340   3.8527580  14.3247610  36.6093540   2.1002250
  13.6203180  36.8978430   2.6805360  14.6859770  37.4193650   1.7401810
   4.2426180  34.8663240   4.4622860   4.5842990  35.7105290   4.1676730
   3.3041990  35.0146980   4.5788200   5.0232800  44.7629260   6.4475090
   5.6406800  45.4380340   6.1659540   4.1625920  45.1717240   6.3562590
  15.9410390  46.2268670   4.3629730  15.2573910  46.8967780   4.3546400
  16.4804680  46.4249320   3.5974590  17.3934530  36.0548330   2.4911460
  16.4459440  36.0887310   2.6226890  17.7184520  36.8687280   2.8760820
  13.4769130  48.0712800   3.0774910  13.4896290  47.6675090   2.2097170
  12.9244350  48.8460090   2.9736340  12.8754570  42.9742640   4.4057520
  13.2923360  42.7602750   3.5710980  13.5994390  43.2315430   4.9766140
  16.8216670  41.3729860   4.4973760  15.9935300  41.4422950   4.0223890
  17.4167150  41.9584170   4.0289590  13.7858680  38.1599180   5.4428630
  13.3729860  38.9852890   5.6968620  13.0534630  37.5744220   5.2504990
   6.3873170  44.6326640   2.4686510   6.0901460  44.0272110   1.7894290
   7.3372990  44.6703950   2.3575870   4.6320090  37.7202290   4.0846340
   5.1834680  37.8297630   3.3099590   5.1463600  38.0939890   4.8001570
  14.4758780  48.2058510   6.1309610  13.9989340  49.0130700   5.9382220
  13.7920570  47.5536840   6.2835820   5.4791600  44.3708330   9.1194310
   4.5820130  44.5948300   9.3667710   5.5044470  44.4943270   8.1705710
   4.3062820  41.2421650   7.6951680   4.1670590  42.1144450   8.0639080
   3.4244180  40.8994460   7.5499620   6.1043170  47.1843350   9.9036830
   6.0758600  47.5886300   9.0365260   5.9408140  46.2553710   9.7408430
  18.0557990  47.9670450  11.2001000  18.5317710  48.4453340  11.8790080
  18.6765150  47.8987940  10.4746500  17.4591240  45.1583300   8.3601010
  17.5854300  44.9195180   7.4418190  17.5012620  44.3267840   8.8323090
  11.3207980  48.8611300   6.9295820  11.8352650  48.7719310   7.7318250
  10.4777060  49.2071000   7.2223730  17.3115250  37.2115760   9.3250750
  16.6959520  37.7195430   8.7966210  16.9911670  36.3114090   9.2676690
   9.3729570  36.0507650   6.7912940   8.9108940  36.2590670   7.6032880
   8.9707680  35.2367000   6.4883610  14.3734080  37.2716600   7.9209600
  13.5227670  36.9722350   8.2418670  14.2135870  37.5158610   7.0093420
  11.4683790  38.7718350  10.0208390  11.7937200  37.9382100   9.6810620
  12.2564120  39.2946870  10.1686720   7.1235660  33.7286460   3.0467220
   7.4207990  34.6349290   2.9659240   7.6721220  33.2405240   2.4326790
   7.3173190  39.2058280   9.5819140   7.2216790  38.2653010   9.4319540
   8.1605170  39.4273350   9.1867210   2.4483730  35.6171950   7.7352920
   2.0547120  36.4647160   7.9425700   1.7602130  34.9798320   7.9261560
   9.0228780  35.7006920  10.8049660   8.3327100  35.5079120  11.4395750
   9.7661080  35.9841560  11.3373960  11.2991750  39.5405360   3.6403580
  10.5672870  40.0492170   3.9893680  10.9016090  38.7235340   3.3392360
  11.7617660  34.9939040   3.0526520  11.7790400  35.4447690   3.8968370
  11.5133240  34.0944680   3.2659960  15.1888410  32.4071220   8.8912900
  15.5134180  31.6760880   9.4170880  15.2244920  32.0884860   7.9893890
   8.0377110  40.2761340   3.7921480   8.4047240  39.8019910   4.5382820
   7.8482170  41.1502910   4.1329820   5.8276480  39.3169980   6.1105690
   5.5233550  40.1961960   6.3356050   6.7822940  39.3769770   6.1463130
  15.1146250  42.5196330   2.4998930  15.8345370  43.0151620   2.1095040
  14.9128070  41.8414220   1.8552800  10.4965050  42.5905390   8.3867930
  10.4302360  41.6701060   8.1325520   9.8670190  42.6880830   9.1012570
   1.8840210  40.1572720   7.2577050   1.5255150  40.8226570   7.8450390
   1.5894770  39.3256270   7.6289670   5.0853330  40.6156960  10.1416600
   4.7853470  40.7614140   9.2444420   5.8564570  40.0562250  10.0489990
  10.4281780  45.4125960   8.1371730  10.4426320  44.4806920   7.9190640
   9.7206880  45.4985720   8.7761500  16.6392990  42.0533300   7.4840310
  15.9141180  42.6462080   7.2869700  17.1668450  42.0456840   6.6853680
   9.8615680  47.0543530   5.2312230  10.5057900  47.2602910   5.9085650
  10.2245120  46.2931930   4.7783080  11.1347760  45.0575880   3.9489680
  11.7769990  44.3569040   4.0621850  11.6597110  45.8374320   3.7686570
  12.9085380  45.8570780   7.1525740  13.2441620  46.4437470   7.8303660
  11.9885720  45.7263490   7.3823530   8.7373960  45.9062110  10.3213800
   8.4170830  45.1871350  10.8659490   8.0632320  46.5817180  10.3949860
  11.9527560  36.1388270   5.6850600  12.3208380  35.3183480   6.0130170
  11.0925760  36.1990160   6.1006250   8.9129550  38.7927860   5.9088570
   9.4114800  39.2673680   6.5740420   9.0552500  37.8691380   6.1158600
  16.1196410  35.0095820   6.7516960  15.6170010  35.7501220   7.0910770
  16.9353070  35.3979820   6.4353750  16.4144000  47.4237850   1.8732580
  16.5391420  48.2469020   2.3456390  17.2809560  47.2128580   1.5256730
   2.8919810  48.7015130  10.7335290   3.6932540  49.0227180  11.1470690
   2.3771630  48.3410710  11.4555200  11.7284440  44.8095000  10.6810700
  11.1222600  44.8326600   9.9406450  11.4238550  44.0778040  11.2177950
  13.1584810  48.5375290   9.2920110  14.1106560  48.4533310   9.2420350
  13.0113030  49.2017000   9.9653900   7.6655560  42.5959580   9.2106860
   6.9001230  43.1644580   9.1261530   7.8471520  42.3035790   8.3175090
  14.8078910  44.3264910   9.7681880  15.5488380  44.6640670   9.2649340
  14.0451590  44.4956970   9.2151650   2.6440700  39.3318180  10.5721410
   2.6846040  39.0332050  11.4806640   3.4986200  39.7325790  10.4128930
   4.5846510  37.9110280   8.5395900   4.0542970  37.4201230   7.9119240
   5.2534580  38.3394480   8.0053830  13.4824570  42.3779740   8.3037090
  13.8965590  42.5324820   9.1527510  12.5475570  42.5034960   8.4662870
  13.9546740  39.7175900  10.3076240  14.5367510  38.9628220  10.2196720
  14.1308510  40.2483340   9.5307720   5.0718810  34.8772650   8.6193190
   4.9775680  34.2593400   7.8944060   4.4916200  35.6038940   8.3923100
   7.8380250  33.4345890   5.6520580   7.3897550  33.4570150   4.8066130
   7.2045450  33.0364910   6.2490880   8.2439800  42.3300220   6.2733020
   8.6627910  43.1732950   6.1009260   7.3248430  42.4672260   6.0439800
  10.5803700  40.0616400   7.6570860  10.6999910  39.4657540   8.3965700
  11.4397700  40.0986090   7.2372160  12.9191600  40.6153590   6.2333370
  12.3926820  41.1396210   5.6298510  13.2622940  41.2480980   6.8643100
   6.0947220  48.6353230   7.3890750   5.5568310  49.3599290   7.0699450
   6.3481180  48.1583570   6.5988090   7.3472470  36.6037750   8.9146680
   7.9372160  36.2953600   9.6024500   6.5292710  36.1317500   9.0706580
  12.1665900  36.2203560   9.1479700  11.4781420  35.5585100   9.0829690
  12.8871920  35.7741830   9.5928160   8.9509430  49.8704440   7.6477400
   8.8768130  50.7739580   7.9549770   8.0488270  49.5516340   7.6199470
  16.4789110  47.5666620   7.9769960  15.8791100  47.6259180   7.2333880
  16.6083010  46.6271600   8.1066810  15.1640750  44.2918600   6.0746120
  14.3500590  44.7215760   6.3371910  15.5714950  44.9037010   5.4615170
  16.5131150  39.4306800   7.6015340  16.2817240  39.2019550   6.7013290
  16.7735700  40.3506350   7.5560230  14.9519220  34.6563230  10.3795040
  15.8289400  34.6646630  10.7629040  14.9640060  33.9194070   9.7687390
  16.5772210  38.5932640   4.7902610  15.6274920  38.5596180   4.9047600
  16.7585220  39.5032750   4.5552380   1.7683000  32.1479840   2.8426510
   2.4159190  31.5977220   2.4021670   2.1884840  32.4022990   3.6642320
  15.6635340  32.3421200   6.1996150  16.3007560  32.9555340   6.5655340
  15.8110230  32.3781860   5.2545380   3.1279370  45.4755110   9.7505020
   3.0849000  45.1048020  10.6319480   3.2590380  46.4132680   9.8906840
   6.8285400  47.0314700   5.3514740   6.5876760  47.2989260   4.4645260
   7.7688040  47.2020430   5.4065600   9.0339820  33.4947390   9.1071250
   8.9728710  34.0869220   9.8566660   9.9740200  33.3873350   8.9621510
  11.6714380  33.1517450   8.7463540  12.2854790  33.4696740   8.0844620
  12.2163940  32.6666040   9.3659400  18.0889560  49.0509080   6.1525380
  17.5947840  49.4477950   5.4352510  17.4802850  48.4258290   6.5462660
   2.1935640  31.8311710   8.8602600   2.7418630  31.6499760   8.0968710
   2.2590950  31.0405820   9.3958910   2.9667400  48.4217360   6.8702800
   2.3727720  48.2902060   7.6092840   2.9591240  47.5855500   6.4044900
  12.4122420  31.7149590   5.0732830  11.5382260  32.0484700   4.8705760
  12.3033170  31.2422770   5.8984700  13.3194400  33.9220460   6.4574550
  12.9907760  33.1072220   6.0776280  14.2676700  33.8790270   6.3340240
  15.7729010  49.6932500   3.4312120  15.3131980  50.4448310   3.0570140
  15.1441470  48.9738970   3.3726920   2.5979630  45.7875740   5.8210840
   1.8713690  45.1681030   5.7536790   2.6588780  46.1816350   4.9508920
   6.2024730  48.0020740   2.6060250   6.7189750  47.3908100   2.0808510
   6.8522110  48.5049520   3.0971260   8.9420230  48.8929230   3.4329230
   9.2298040  48.6383530   2.5562240   9.4543450  48.3406590   4.0234800
  10.1597240  32.6319430   4.0125740   9.3769030  33.1064930   4.2922500
   9.8660170  31.7274260   3.9038920   9.0092590  49.8145330  10.7997430
   9.9359900  49.5789600  10.8433390   8.9943020  50.6417330  10.3183460
   6.1956200  32.4790080  10.5639310   5.9140470  32.9823680   9.8000130
   6.5775900  31.6811830  10.1981440  12.7971660  31.8943660  11.1419780
  12.6837110  32.2138270  12.0371300  13.6141400  32.2956170  10.8457060
  15.5770150  49.0415190  10.6238470  16.3695470  48.5464420  10.4164430
  15.8703300  49.7205330  11.2314080  11.7029810  21.1392640  75.3771970
  11.6223860  20.2247250  75.1063680  11.2894230  21.6359710  74.6711680
  13.8555280  27.3231850  76.0380370  13.3936810  26.5519090  76.3667540
  14.6680830  27.3497920  76.5432820  10.0818590  29.6089860  75.6584360
   9.4630030  30.0647360  75.0878800  10.9370370  29.7641320  75.2574060
   4.4367020  16.7724860  72.9537770   4.5433770  17.6728590  73.2606530
   3.5259380  16.7242830  72.6632420  14.0886130  15.8949670  74.4248670
  14.9095750  15.4046240  74.4674150  14.1220210  16.4847330  75.1780510
  10.9481940  24.4929100  73.0516270  10.3299210  24.9578550  72.4878990
  11.4605190  25.1856580  73.4685780   7.9254070  13.5802020  75.8841410
   8.2329050  13.0248910  75.1676910   6.9954770  13.7146480  75.7014400
  14.7714550  26.0185530  73.2639040  14.6610880  25.0759860  73.3888460
  14.7682800  26.3801170  74.1501800  10.3134830  21.6450850  72.6201530
   9.3864110  21.5788230  72.8490000  10.4659650  22.5830980  72.5056770
  10.3003910  17.9167850  69.6168690   9.3607580  18.0781810  69.7021150
  10.6187170  18.6353530  69.0704680  14.3432120  23.2071150  73.1236780
  13.7244540  22.8690700  72.4763080  14.3256570  22.5630910  73.8315970
   5.9191470  22.1715590  75.4021260   5.5148470  21.4592840  74.9067160
   6.0054590  21.8268830  76.2909300  12.5196820  22.4457960  70.1309530
  12.9590100  21.6080390  69.9847350  13.2325240  23.0787360  70.2173670
  10.6292200  27.3854030  74.0990770  11.0688110  28.1278360  73.6846160
  10.5679090  27.6280600  75.0229730  16.1013960  13.7000770  68.4450570
  15.7886620  13.7927600  69.3449640  16.8626430  14.2781800  68.3948000
   2.6196100  21.0660570  72.9027910   2.4993700  21.7922660  72.2909180
   2.3096990  20.2963480  72.4255820  13.2962380  30.3723150  71.4553780
  13.1363520  30.0826090  72.3535610  13.1309090  29.5963280  70.9199010
   5.7750760  30.1521680  73.2325400   5.5993240  29.2357220  73.0193200
   4.9206500  30.5108970  73.4723200  12.9988510  27.8810710  70.0151780
  12.3053670  27.8788000  69.3554060  13.7411370  27.4570030  69.5845950
  12.5638440  29.5073420  74.0900270  13.0195390  28.7262800  74.4038890
  12.9030960  30.2180240  74.6341450   5.0859760  14.4095640  76.2851580
   4.6427910  15.1905180  75.9536100   5.6444750  14.7325530  76.9922520
   8.2018580  14.0306340  71.1657410   7.5772760  14.0266210  71.8910720
   8.1148700  13.1637300  70.7693380   4.8773980  19.5329210  74.0132830
   4.6514900  19.3166380  74.9179450   4.0966510  19.9657670  73.6678800
  12.1071740  19.5392580  72.6123480  11.5080630  20.2628380  72.4287100
  12.6551350  19.4769360  71.8299930  10.7136610  18.1756120  74.6426760
  11.1066180  18.4928320  73.8295450  11.0753460  17.2968000  74.7571280
   7.7369140  17.4416070  77.1430030   7.7405200  17.0006020  76.2934570
   8.6320260  17.7633400  77.2501850   3.5871520  17.3242560  76.1024240
   3.2471570  17.8017790  76.8591290   2.8248840  16.8707680  75.7425340
   7.7989290  18.4428150  70.1336790   7.9202110  18.4014630  71.0822610
   7.4137800  19.3052300  69.9783520   6.8110790  20.7529290  69.5320090
   6.2427690  20.3047540  68.9056000   7.5199790  21.1122070  68.9985240
   4.3558270  24.7487480  71.8046500   3.5820530  24.2085100  71.6445220
   5.0852900  24.2294090  71.4664260  10.5756190  15.1390800  71.7402280
   9.7620800  14.6403970  71.6647590  10.3818140  15.9789050  71.3238630
  13.2904580  19.5110450  70.0364440  14.1784200  19.8227680  69.8615780
  13.2609670  18.6382700  69.6445020   4.3995670  24.4167860  75.4425310
   4.9174340  23.6136120  75.3882200   3.9479690  24.3547000  76.2842140
   9.2865170  25.6834140  70.7152610   9.6280870  26.4276370  70.2195930
   8.4577880  25.9965260  71.0777440  15.5618850  20.8222290  69.5044300
  15.4782570  21.2536510  68.6540740  16.2813040  21.2820640  69.9371120
  16.5906100  27.6764550  72.2326430  15.9482260  27.0220170  72.5070150
  16.2036760  28.0819640  71.4567100  12.1692580  25.0049980  76.0798120
  12.5216400  24.4078110  75.4199490  11.2854910  24.6794210  76.2506370
   8.2555860  25.7647670  73.4868530   8.9426990  26.3116880  73.8676120
   7.4688280  26.3088400  73.5218140   7.5583070  22.7693700  73.0993890
   8.0145850  23.5798950  73.3254080   7.2071280  22.4516840  73.9312380
   3.4594850  13.1131350  73.5716410   3.3309480  13.1049250  74.5201330
   2.6356870  13.4514440  73.2207420  14.9803480  26.5681010  68.7702780
  14.7541060  25.8511450  69.3627420  14.5899680  26.3193450  67.9324530
  14.5619730  24.4852950  70.4316940  14.2741430  24.9465640  71.2194820
  15.3571900  24.0250720  70.7001160   6.7788130  27.9779070  70.3620910
   6.7698230  28.7108760  69.7465420   5.8586490  27.7310650  70.4547870
   2.3794770  23.1993960  71.1067670   1.7722720  23.9392860  71.1162970
   2.8544120  23.2893320  70.2805870  15.3189590  16.3201720  71.5912120
  14.6902750  16.4247390  70.8770350  14.8241510  16.5398500  72.3806000
   9.7647730  28.0407310  69.0246100   9.8659710  27.8371300  68.0948080
   8.8649470  27.7865590  69.2293880   7.2873620  18.5987670  73.0070000
   6.5789770  19.0674010  73.4483610   7.5718100  17.9409680  73.6415190
  11.3189050  15.3238330  74.4465790  11.1956830  15.3424460  73.4975300
  12.2673610  15.3717270  74.5664190   8.4065840  30.5593630  73.7193770
   8.6607340  30.5215020  72.7973140   7.4578320  30.4326960  73.7122020
   5.4908640  16.9072750  70.3820710   6.3399170  17.3442900  70.3160900
   5.1239910  17.2193010  71.2092770  14.4118420  21.4785510  75.2952280
  13.4708560  21.4935740  75.4699970  14.7262490  20.6921470  75.7412580
   4.3900060  23.1605110  68.8556240   5.1563330  23.0486470  69.4181670
   4.4674750  22.4643080  68.2033010   3.0846820  20.5930180  69.5389130
   3.1650410  19.6457690  69.6506530   3.9766570  20.9237060  69.6449790
   3.8861530  30.7425570  76.6423670   4.6224010  30.1941030  76.9132240
   4.2702450  31.6081580  76.5029660   6.9963840  29.9155880  68.4649240
   7.7892450  30.2044710  68.0131030   6.4768190  29.4848050  67.7861720
  16.0494010  29.1426010  69.8885980  15.7635520  28.7291150  69.0740160
  15.8513560  30.0713720  69.7686500   7.5141240  25.1359290  68.3291590
   7.4091880  24.5211640  69.0552970   7.3465460  24.6125180  67.5454600
  10.7543970  24.1979320  68.9333580  10.2054070  24.6448620  69.5776320
  11.3763230  23.6928570  69.4571250   6.4219090  23.1570240  70.8298880
   6.8435510  22.9910110  71.6730270   6.5469930  22.3470470  70.3354020
   8.9346730  22.1807850  68.0775980   9.4552390  21.4656870  67.7117130
   9.5815130  22.8193720  68.3776490   5.3177990  19.2303470  67.7757040
   5.1167050  18.3670830  68.1370380   5.1470040  19.1436830  66.8378640
  12.7966300  14.0411700  70.3043920  13.0768590  13.1979600  70.6603340
  12.0232030  14.2734810  70.8182670   4.1160790  16.3304090  67.7634920
   4.4186690  16.3371520  66.8554070   4.8555380  15.9801950  68.2602580
   7.3345720  15.2738710  68.7491120   6.9867720  14.5962700  68.1693570
   7.5358490  14.8128220  69.5634510   9.4994760  30.2619460  70.3677720
  10.3945550  30.6004430  70.3896480   9.5312390  29.5398870  69.7402000
   3.1390920  25.6346510  68.5964720   3.5765790  26.1776180  69.2522300
   3.6238650  24.8093460  68.6061060   4.9498640  26.7544550  73.7086950
   4.6494180  26.6309520  74.6090860   4.8436130  25.8953140  73.3002680
  17.7190560  26.5340950  68.4113630  16.8883520  26.6017600  68.8820860
  17.8962390  27.4245070  68.1080490  17.1747020  23.2788430  70.9147830
  17.9365930  23.8485080  71.0207520  17.1901390  22.7115630  71.6856140
  18.1806990  24.1338530  75.7589760  18.5515820  23.3505850  75.3525730
  18.8208920  24.8227630  75.5807060  17.2266190  23.5722800  68.0720350
  17.5015030  24.4801680  67.9439570  17.0376930  23.5085330  69.0082340
  13.6241800  16.5967650  69.3673980  14.0426680  16.4098630  68.5270640
  13.3177860  15.7446700  69.6776910  17.1231530  21.5091790  73.0649780
  16.7475130  20.7419720  72.6331070  16.3934650  21.8914490  73.5524710
  16.3982490  19.7349280  76.3657020  16.9219970  19.2411930  75.7347190
  16.9841910  19.8699640  77.1104590   2.4316650  18.0690830  68.9975200
   3.1408350  17.6474050  68.5122480   1.7156590  18.1366060  68.3658550
   2.0790810  14.1230160  68.0377850   2.8018940  14.6639100  68.3559070
   2.3515330  13.8493580  67.1619390  15.8882460  18.9922630  72.3049430
  16.3841580  18.7593500  73.0898310  15.6898530  18.1534470  71.8887070
  17.3169620  17.6283580  74.8387110  17.2068900  17.4739620  75.7769380
  18.0777210  17.1004520  74.5962520  18.2059890  15.4591500  68.0793250
  19.1309200  15.3272680  67.8711540  18.1835680  15.5384320  69.0329700
  18.2798380  16.2302160  70.7049960  17.4849880  16.1647280  71.2342870
  18.4841660  17.1652800  70.6935310  15.2216800  30.2693710  74.6988350
  15.8175870  29.9478280  74.0222770  15.4794950  29.7965530  75.4901620
  14.7118310  14.5599040  77.1548790  15.1526400  14.5044140  76.3070390
  14.4425900  15.4757050  77.2258970  16.5756880  14.1914280  75.1657610
  16.5145280  13.2475500  75.0188630  17.3548910  14.2994370  75.7111070
   8.0451460  16.2762690  74.6215730   7.2325970  15.9019580  74.2811610
   8.5493100  15.5207770  74.9236920  12.5476440  12.9405140  75.8598800
  13.1505810  13.5125350  76.3347320  11.8069430  13.5044580  75.6372700
  15.6911040  13.3426700  71.1339080  15.8861670  14.2410150  71.4006510
  14.9040910  13.1113780  71.6272030   2.4872330  29.0239870  71.5731700
   1.9619950  29.4047900  70.8693660   2.4116910  29.6490640  72.2941410
   3.8762800  14.6887470  70.1715390   4.4055560  13.9017270  70.0423340
   4.5091120  15.3678660  70.4050920   6.0700640  14.4262610  73.2260780
   5.4403380  13.7249920  73.3930910   5.5305780  15.1866740  73.0093940
  17.2437650  30.5827410  72.8945640  17.4189840  29.8965150  72.2506560
  16.5459220  31.1074460  72.5022310   5.0865300  30.9722250  70.4480950
   5.8184120  30.6881530  69.9004840   5.3458970  30.7335530  71.3380330
   4.2480090  27.0886980  70.4527280   3.6188970  27.5572080  71.0013110
   4.3627920  26.2436200  70.8873470  11.7029810  21.1392640  56.6028480
  11.6223860  20.2247250  56.3320190  11.2894230  21.6359710  55.8968190
   9.8347850  22.9171660  58.4837750   9.0589950  22.4372100  58.7736320
  10.4860780  22.2377310  58.3093910   3.8513680  23.2291470  59.3613510
   3.0198560  22.9740180  59.7610020   4.4594660  23.3002240  60.0971430
  13.8555280  27.3231850  57.2636880  13.3936810  26.5519090  57.5924050
  14.6680830  27.3497920  57.7689330   3.8314940  27.2631560  59.5571530
   4.1342980  26.3729300  59.3781750   4.5758530  27.8201780  59.3293780
  10.0818590  29.6089860  56.8840870   9.4630030  30.0647360  56.3135310
  10.9370370  29.7641320  56.4830570   9.2756840  25.5928850  58.4907910
   9.2065120  24.6518790  58.3297040  10.0376700  25.6830260  59.0630480
  10.3062010  18.3999230  58.7176840  10.6826830  17.5271110  58.6050510
  10.2081520  18.7357930  57.8267280   4.4367020  16.7724860  54.1794280
   4.5433770  17.6728590  54.4863040   3.5259380  16.7242830  53.8888930
  14.0886130  15.8949670  55.6505180  14.9095750  15.4046240  55.6930660
  14.1220210  16.4847330  56.4037020   2.0850180  18.6943870  59.4246870
   2.7660290  18.9582240  60.0434270   1.7698230  17.8544740  59.7584880
   6.2774750  19.7411230  58.5119460   6.7852970  20.2392200  59.1524480
   6.8087990  18.9646430  58.3358820  18.3785680  17.9116420  62.2148810
  17.6737850  18.2998130  61.6963920  18.6443600  18.6066710  62.8169740
   4.5610850  14.3809790  62.7782880   4.5629290  14.8982180  61.9728780
   3.7315160  13.9039970  62.7552810  10.9481940  24.4929100  54.2772780
  10.3299210  24.9578550  53.7135500  11.4605190  25.1856580  54.6942290
   5.8113700  24.0204970  60.9556380   5.4783080  24.6473890  61.5977450
   5.9880380  24.5466850  60.1758050  14.3247610  17.8350050  58.4232720
  13.6203180  18.1234940  59.0035830  14.6859770  18.6450160  58.0632280
   4.2426180  16.0919750  60.7853330   4.5842990  16.9361800  60.4907200
   3.3041990  16.2403490  60.9018670   5.0232800  25.9885770  62.7705560
   5.6406800  26.6636850  62.4890010   4.1625920  26.3973750  62.6793060
  15.9410390  27.4525180  60.6860200  15.2573910  28.1224290  60.6776870
  16.4804680  27.6505830  59.9205060  17.3934530  17.2804840  58.8141930
  16.4459440  17.3143820  58.9457360  17.7184520  18.0943790  59.1991290
   7.9254070  13.5802020  57.1097920   8.2329050  13.0248910  56.3933420
   6.9954770  13.7146480  56.9270910  13.4769130  29.2969310  59.4005380
  13.4896290  28.8931600  58.5327640  12.9244350  30.0716600  59.2966810
  14.7714550  26.0185530  54.4895550  14.6610880  25.0759860  54.6144970
  14.7682800  26.3801170  55.3758310  12.8754570  24.1999150  60.7287990
  13.2923360  23.9859260  59.8941450  13.5994390  24.4571940  61.2996610
  10.3134830  21.6450850  53.8458040   9.3864110  21.5788230  54.0746510
  10.4659650  22.5830980  53.7313280  10.3003910  17.9167850  50.8425200
   9.3607580  18.0781810  50.9277660  10.6187170  18.6353530  50.2961190
  16.8216670  22.5986370  60.8204230  15.9935300  22.6679460  60.3454360
  17.4167150  23.1840680  60.3520060  14.3432120  23.2071150  54.3493290
  13.7244540  22.8690700  53.7019590  14.3256570  22.5630910  55.0572480
  13.7858680  19.3855690  61.7659100  13.3729860  20.2109400  62.0199090
  13.0534630  18.8000730  61.5735460   5.9191470  22.1715590  56.6277770
   5.5148470  21.4592840  56.1323670   6.0054590  21.8268830  57.5165810
   6.3873170  25.8583150  58.7916980   6.0901460  25.2528620  58.1124760
   7.3372990  25.8960460  58.6806340   4.6320090  18.9458800  60.4076810
   5.1834680  19.0554140  59.6330060   5.1463600  19.3196400  61.1232040
  14.4758780  29.4315020  62.4540080  13.9989340  30.2387210  62.2612690
  13.7920570  28.7793350  62.6066290   5.4791600  25.5964840  65.4424780
   4.5820130  25.8204810  65.6898180   5.5044470  25.7199780  64.4936180
  12.5196820  22.4457960  51.3566040  12.9590100  21.6080390  51.2103860
  13.2325240  23.0787360  51.4430180   4.3062820  22.4678160  64.0182150
   4.1670590  23.3400960  64.3869550   3.4244180  22.1250970  63.8730090
  10.6292200  27.3854030  55.3247280  11.0688110  28.1278360  54.9102670
  10.5679090  27.6280600  56.2486240   6.1043170  28.4099860  66.2267300
   6.0758600  28.8142810  65.3595730   5.9408140  27.4810220  66.0638900
  16.1013960  13.7000770  49.6707080  15.7886620  13.7927600  50.5706150
  16.8626430  14.2781800  49.6204510   2.6196100  21.0660570  54.1284420
   2.4993700  21.7922660  53.5165690   2.3096990  20.2963480  53.6512330
  18.0557990  29.1926960  67.5231470  18.5317710  29.6709850  68.2020550
  18.6765150  29.1244450  66.7976970  17.4591240  26.3839810  64.6831480
  17.5854300  26.1451690  63.7648660  17.5012620  25.5524350  65.1553560
  11.3207980  30.0867810  63.2526290  11.8352650  29.9975820  64.0548720
  10.4777060  30.4327510  63.5454200  13.2962380  30.3723150  52.6810290
  13.1363520  30.0826090  53.5792120  13.1309090  29.5963280  52.1455520
   5.7750760  30.1521680  54.4581910   5.5993240  29.2357220  54.2449710
   4.9206500  30.5108970  54.6979710  12.9988510  27.8810710  51.2408290
  12.3053670  27.8788000  50.5810570  13.7411370  27.4570030  50.8102460
  12.5638440  29.5073420  55.3156780  13.0195390  28.7262800  55.6295400
  12.9030960  30.2180240  55.8597960  17.3115250  18.4372270  65.6481220
  16.6959520  18.9451940  65.1196680  16.9911670  17.5370600  65.5907160
   5.0859760  14.4095640  57.5108090   4.6427910  15.1905180  57.1792610
   5.6444750  14.7325530  58.2179030   9.3729570  17.2764160  63.1143410
   8.9108940  17.4847180  63.9263350   8.9707680  16.4623510  62.8114080
  14.3734080  18.4973110  64.2440070  13.5227670  18.1978860  64.5649140
  14.2135870  18.7415120  63.3323890  11.4683790  19.9974860  66.3438860
  11.7937200  19.1638610  66.0041090  12.2564120  20.5203380  66.4917190
   8.2018580  14.0306340  52.3913920   7.5772760  14.0266210  53.1167230
   8.1148700  13.1637300  51.9949890   7.1235660  14.9542970  59.3697690
   7.4207990  15.8605800  59.2889710   7.6721220  14.4661750  58.7557260
   4.8773980  19.5329210  55.2389340   4.6514900  19.3166380  56.1435960
   4.0966510  19.9657670  54.8935310  12.1071740  19.5392580  53.8379990
  11.5080630  20.2628380  53.6543610  12.6551350  19.4769360  53.0556440
   7.3173190  20.4314790  65.9049610   7.2216790  19.4909520  65.7550010
   8.1605170  20.6529860  65.5097680  10.7136610  18.1756120  55.8683270
  11.1066180  18.4928320  55.0551960  11.0753460  17.2968000  55.9827790
   2.4483730  16.8428460  64.0583390   2.0547120  17.6903670  64.2656170
   1.7602130  16.2054830  64.2492030   9.0228780  16.9263430  67.1280130
   8.3327100  16.7335630  67.7626220   9.7661080  17.2098070  67.6604430
  11.2991750  20.7661870  59.9634050  10.5672870  21.2748680  60.3124150
  10.9016090  19.9491850  59.6622830   7.7369140  17.4416070  58.3686540
   7.7405200  17.0006020  57.5191080   8.6320260  17.7633400  58.4758360
   3.5871520  17.3242560  57.3280750   3.2471570  17.8017790  58.0847800
   2.8248840  16.8707680  56.9681850   7.7989290  18.4428150  51.3593300
   7.9202110  18.4014630  52.3079120   7.4137800  19.3052300  51.2040030
  11.7617660  16.2195550  59.3756990  11.7790400  16.6704200  60.2198840
  11.5133240  15.3201190  59.5890430   6.8110790  20.7529290  50.7576600
   6.2427690  20.3047540  50.1312510   7.5199790  21.1122070  50.2241750
  15.1888410  13.6327730  65.2143370  15.5134180  12.9017390  65.7401350
  15.2244920  13.3141370  64.3124360   8.0377110  21.5017850  60.1151950
   8.4047240  21.0276420  60.8613290   7.8482170  22.3759420  60.4560290
   5.8276480  20.5426490  62.4336160   5.5233550  21.4218470  62.6586520
   6.7822940  20.6026280  62.4693600   4.3558270  24.7487480  53.0303010
   3.5820530  24.2085100  52.8701730   5.0852900  24.2294090  52.6920770
  15.1146250  23.7452840  58.8229400  15.8345370  24.2408130  58.4325510
  14.9128070  23.0670730  58.1783270  10.5756190  15.1390800  52.9658790
   9.7620800  14.6403970  52.8904100  10.3818140  15.9789050  52.5495140
  10.4965050  23.8161900  64.7098400  10.4302360  22.8957570  64.4555990
   9.8670190  23.9137340  65.4243040  13.2904580  19.5110450  51.2620950
  14.1784200  19.8227680  51.0872290  13.2609670  18.6382700  50.8701530
   4.3995670  24.4167860  56.6681820   4.9174340  23.6136120  56.6138710
   3.9479690  24.3547000  57.5098650   9.2865170  25.6834140  51.9409120
   9.6280870  26.4276370  51.4452440   8.4577880  25.9965260  52.3033950
   1.8840210  21.3829230  63.5807520   1.5255150  22.0483080  64.1680860
   1.5894770  20.5512780  63.9520140   5.0853330  21.8413470  66.4647070
   4.7853470  21.9870650  65.5674890   5.8564570  21.2818760  66.3720460
  10.4281780  26.6382470  64.4602200  10.4426320  25.7063430  64.2421110
   9.7206880  26.7242230  65.0991970  15.5618850  20.8222290  50.7300810
  15.4782570  21.2536510  49.8797250  16.2813040  21.2820640  51.1627630
  16.6392990  23.2789810  63.8070780  15.9141180  23.8718590  63.6100170
  17.1668450  23.2713350  63.0084150  16.5906100  27.6764550  53.4582940
  15.9482260  27.0220170  53.7326660  16.2036760  28.0819640  52.6823610
  12.1692580  25.0049980  57.3054630  12.5216400  24.4078110  56.6456000
  11.2854910  24.6794210  57.4762880   8.2555860  25.7647670  54.7125040
   8.9426990  26.3116880  55.0932630   7.4688280  26.3088400  54.7474650
   7.5583070  22.7693700  54.3250400   8.0145850  23.5798950  54.5510590
   7.2071280  22.4516840  55.1568890   9.8615680  28.2800040  61.5542700
  10.5057900  28.4859420  62.2316120  10.2245120  27.5188440  61.1013550
   3.4594850  13.1131350  54.7972920   3.3309480  13.1049250  55.7457840
   2.6356870  13.4514440  54.4463930  11.1347760  26.2832390  60.2720150
  11.7769990  25.5825550  60.3852320  11.6597110  27.0630830  60.0917040
  14.9803480  26.5681010  49.9959290  14.7541060  25.8511450  50.5883930
  14.5899680  26.3193450  49.1581040  12.9085380  27.0827290  63.4756210
  13.2441620  27.6693980  64.1534130  11.9885720  26.9520000  63.7054000
  14.5619730  24.4852950  51.6573450  14.2741430  24.9465640  52.4451330
  15.3571900  24.0250720  51.9257670   8.7373960  27.1318620  66.6444270
   8.4170830  26.4127860  67.1889960   8.0632320  27.8073690  66.7180330
   6.7788130  27.9779070  51.5877420   6.7698230  28.7108760  50.9721930
   5.8586490  27.7310650  51.6804380   2.3794770  23.1993960  52.3324180
   1.7722720  23.9392860  52.3419480   2.8544120  23.2893320  51.5062380
  11.9527560  17.3644780  62.0081070  12.3208380  16.5439990  62.3360640
  11.0925760  17.4246670  62.4236720  15.3189590  16.3201720  52.8168630
  14.6902750  16.4247390  52.1026860  14.8241510  16.5398500  53.6062510
   9.7647730  28.0407310  50.2502610   9.8659710  27.8371300  49.3204590
   8.8649470  27.7865590  50.4550390   7.2873620  18.5987670  54.2326510
   6.5789770  19.0674010  54.6740120   7.5718100  17.9409680  54.8671700
   8.9129550  20.0184370  62.2319040   9.4114800  20.4930190  62.8970890
   9.0552500  19.0947890  62.4389070  11.3189050  15.3238330  55.6722300
  11.1956830  15.3424460  54.7231810  12.2673610  15.3717270  55.7920700
   8.4065840  30.5593630  54.9450280   8.6607340  30.5215020  54.0229650
   7.4578320  30.4326960  54.9378530   5.4908640  16.9072750  51.6077220
   6.3399170  17.3442900  51.5417410   5.1239910  17.2193010  52.4349280
  16.1196410  16.2352330  63.0747430  15.6170010  16.9757730  63.4141240
  16.9353070  16.6236330  62.7584220  14.4118420  21.4785510  56.5208790
  13.4708560  21.4935740  56.6956480  14.7262490  20.6921470  56.9669090
   4.3900060  23.1605110  50.0812750   5.1563330  23.0486470  50.6438180
   4.4674750  22.4643080  49.4289520   3.0846820  20.5930180  50.7645640
   3.1650410  19.6457690  50.8763040   3.9766570  20.9237060  50.8706300
  16.4144000  28.6494360  58.1963050  16.5391420  29.4725530  58.6686860
  17.2809560  28.4385090  57.8487200   3.8861530  30.7425570  57.8680180
   4.6224010  30.1941030  58.1388750   4.2702450  31.6081580  57.7286170
   2.8919810  29.9271640  67.0565760   3.6932540  30.2483690  67.4701160
   2.3771630  29.5667220  67.7785670   6.9963840  29.9155880  49.6905750
   7.7892450  30.2044710  49.2387540   6.4768190  29.4848050  49.0118230
  11.7284440  26.0351510  67.0041170  11.1222600  26.0583110  66.2636920
  11.4238550  25.3034550  67.5408420  13.1584810  29.7631800  65.6150580
  14.1106560  29.6789820  65.5650820  13.0113030  30.4273510  66.2884370
  16.0494010  29.1426010  51.1142490  15.7635520  28.7291150  50.2996670
  15.8513560  30.0713720  50.9943010   7.5141240  25.1359290  49.5548100
   7.4091880  24.5211640  50.2809480   7.3465460  24.6125180  48.7711110
   7.6655560  23.8216090  65.5337330   6.9001230  24.3901090  65.4492000
   7.8471520  23.5292300  64.6405560  10.7543970  24.1979320  50.1590090
  10.2054070  24.6448620  50.8032830  11.3763230  23.6928570  50.6827760
  14.8078910  25.5521420  66.0912350  15.5488380  25.8897180  65.5879810
  14.0451590  25.7213480  65.5382120   2.6440700  20.5574690  66.8951880
   2.6846040  20.2588560  67.8037110   3.4986200  20.9582300  66.7359400
   6.4219090  23.1570240  52.0555390   6.8435510  22.9910110  52.8986780
   6.5469930  22.3470470  51.5610530   4.5846510  19.1366790  64.8626370
   4.0542970  18.6457740  64.2349710   5.2534580  19.5650990  64.3284300
   8.9346730  22.1807850  49.3032490   9.4552390  21.4656870  48.9373640
   9.5815130  22.8193720  49.6033000  13.4824570  23.6036250  64.6267560
  13.8965590  23.7581330  65.4757980  12.5475570  23.7291470  64.7893340
  13.9546740  20.9432410  66.6306710  14.5367510  20.1884730  66.5427190
  14.1308510  21.4739850  65.8538190   5.0718810  16.1029160  64.9423660
   4.9775680  15.4849910  64.2174530   4.4916200  16.8295450  64.7153570
   7.8380250  14.6602400  61.9751050   7.3897550  14.6826660  61.1296600
   7.2045450  14.2621420  62.5721350   8.2439800  23.5556730  62.5963490
   8.6627910  24.3989460  62.4239730   7.3248430  23.6928770  62.3670270
  10.5803700  21.2872910  63.9801330  10.6999910  20.6914050  64.7196170
  11.4397700  21.3242600  63.5602630  12.9191600  21.8410100  62.5563840
  12.3926820  22.3652720  61.9528980  13.2622940  22.4737490  63.1873570
   5.3177990  19.2303470  49.0013550   5.1167050  18.3670830  49.3626890
   5.1470040  19.1436830  48.0635150   6.0947220  29.8609740  63.7121220
   5.5568310  30.5855800  63.3929920   6.3481180  29.3840080  62.9218560
   7.3472470  17.8294260  65.2377150   7.9372160  17.5210110  65.9254970
   6.5292710  17.3574010  65.3937050  12.1665900  17.4460070  65.4710170
  11.4781420  16.7841610  65.4060160  12.8871920  16.9998340  65.9158630
  12.7966300  14.0411700  51.5300430  13.0768590  13.1979600  51.8859850
  12.0232030  14.2734810  52.0439180   4.1160790  16.3304090  48.9891430
   4.4186690  16.3371520  48.0810580   4.8555380  15.9801950  49.4859090
   8.9509430  31.0960950  63.9707870   8.8768130  31.9996090  64.2780240
   8.0488270  30.7772850  63.9429940   7.3345720  15.2738710  49.9747630
   6.9867720  14.5962700  49.3950080   7.5358490  14.8128220  50.7891020
   9.4994760  30.2619460  51.5934230  10.3945550  30.6004430  51.6152990
   9.5312390  29.5398870  50.9658510   3.1390920  25.6346510  49.8221230
   3.5765790  26.1776180  50.4778810   3.6238650  24.8093460  49.8317570
   4.9498640  26.7544550  54.9343460   4.6494180  26.6309520  55.8347370
   4.8436130  25.8953140  54.5259190  16.4789110  28.7923130  64.3000430
  15.8791100  28.8515690  63.5564350  16.6083010  27.8528110  64.4297280
  17.7190560  26.5340950  49.6370140  16.8883520  26.6017600  50.1077370
  17.8962390  27.4245070  49.3337000  17.1747020  23.2788430  52.1404340
  17.9365930  23.8485080  52.2464030  17.1901390  22.7115630  52.9112650
  18.1806990  24.1338530  56.9846270  18.5515820  23.3505850  56.5782240
  18.8208920  24.8227630  56.8063570  15.1640750  25.5175110  62.3976590
  14.3500590  25.9472270  62.6602380  15.5714950  26.1293520  61.7845640
  17.2266190  23.5722800  49.2976860  17.5015030  24.4801680  49.1696080
  17.0376930  23.5085330  50.2338850  13.6241800  16.5967650  50.5930490
  14.0426680  16.4098630  49.7527150  13.3177860  15.7446700  50.9033420
  17.1231530  21.5091790  54.2906290  16.7475130  20.7419720  53.8587580
  16.3934650  21.8914490  54.7781220  16.5131150  20.6563310  63.9245810
  16.2817240  20.4276060  63.0243760  16.7735700  21.5762860  63.8790700
  14.9519220  15.8819740  66.7025510  15.8289400  15.8903140  67.0859510
  14.9640060  15.1450580  66.0917860  16.3982490  19.7349280  57.5913530
  16.9219970  19.2411930  56.9603700  16.9841910  19.8699640  58.3361100
  16.5772210  19.8189150  61.1133080  15.6274920  19.7852690  61.2278070
  16.7585220  20.7289260  60.8782850   2.4316650  18.0690830  50.2231710
   3.1408350  17.6474050  49.7378990   1.7156590  18.1366060  49.5915060
   2.0790810  14.1230160  49.2634360   2.8018940  14.6639100  49.5815580
   2.3515330  13.8493580  48.3875900  15.8882460  18.9922630  53.5305940
  16.3841580  18.7593500  54.3154820  15.6898530  18.1534470  53.1143580
   1.7683000  13.3736350  59.1656980   2.4159190  12.8233730  58.7252140
   2.1884840  13.6279500  59.9872790  17.3169620  17.6283580  56.0643620
  17.2068900  17.4739620  57.0025890  18.0777210  17.1004520  55.8219030
  15.6635340  13.5677710  62.5226620  16.3007560  14.1811850  62.8885810
  15.8110230  13.6038370  61.5775850  18.2059890  15.4591500  49.3049760
  19.1309200  15.3272680  49.0968050  18.1835680  15.5384320  50.2586210
  18.2798380  16.2302160  51.9306470  17.4849880  16.1647280  52.4599380
  18.4841660  17.1652800  51.9191820  15.2216800  30.2693710  55.9244860
  15.8175870  29.9478280  55.2479280  15.4794950  29.7965530  56.7158130
   3.1279370  26.7011620  66.0735490   3.0849000  26.3304530  66.9549950
   3.2590380  27.6389190  66.2137310   6.8285400  28.2571210  61.6745210
   6.5876760  28.5245770  60.7875730   7.7688040  28.4276940  61.7296070
   9.0339820  14.7203900  65.4301720   8.9728710  15.3125730  66.1797130
   9.9740200  14.6129860  65.2851980  11.6714380  14.3773960  65.0694010
  12.2854790  14.6953250  64.4075090  12.2163940  13.8922550  65.6889870
  18.0889560  30.2765590  62.4755850  17.5947840  30.6734460  61.7582980
  17.4802850  29.6514800  62.8693130   2.1935640  13.0568220  65.1833070
   2.7418630  12.8756270  64.4199180   2.2590950  12.2662330  65.7189380
   2.9667400  29.6473870  63.1933270   2.3727720  29.5158570  63.9323310
   2.9591240  28.8112010  62.7275370  12.4122420  12.9406100  61.3963300
  11.5382260  13.2741210  61.1936230  12.3033170  12.4679280  62.2215170
  13.3194400  15.1476970  62.7805020  12.9907760  14.3328730  62.4006750
  14.2676700  15.1046780  62.6570710  15.7729010  30.9189010  59.7542590
  15.3131980  31.6704820  59.3800610  15.1441470  30.1995480  59.6957390
   2.5979630  27.0132250  62.1441310   1.8713690  26.3937540  62.0767260
   2.6588780  27.4072860  61.2739390   6.2024730  29.2277250  58.9290720
   6.7189750  28.6164610  58.4038980   6.8522110  29.7306030  59.4201730
   8.9420230  30.1185740  59.7559700   9.2298040  29.8640040  58.8792710
   9.4543450  29.5663100  60.3465270  10.1597240  13.8575940  60.3356210
   9.3769030  14.3321440  60.6152970   9.8660170  12.9530770  60.2269390
  14.7118310  14.5599040  58.3805300  15.1526400  14.5044140  57.5326900
  14.4425900  15.4757050  58.4515480  16.5756880  14.1914280  56.3914120
  16.5145280  13.2475500  56.2445140  17.3548910  14.2994370  56.9367580
   8.0451460  16.2762690  55.8472240   7.2325970  15.9019580  55.5068120
   8.5493100  15.5207770  56.1493430  12.5476440  12.9405140  57.0855310
  13.1505810  13.5125350  57.5603830  11.8069430  13.5044580  56.8629210
  15.6911040  13.3426700  52.3595590  15.8861670  14.2410150  52.6263020
  14.9040910  13.1113780  52.8528540   2.4872330  29.0239870  52.7988210
   1.9619950  29.4047900  52.0950170   2.4116910  29.6490640  53.5197920
   3.8762800  14.6887470  51.3971900   4.4055560  13.9017270  51.2679850
   4.5091120  15.3678660  51.6307430   6.0700640  14.4262610  54.4517290
   5.4403380  13.7249920  54.6187420   5.5305780  15.1866740  54.2350450
   9.0092590  31.0401840  67.1227900   9.9359900  30.8046110  67.1663860
   8.9943020  31.8673840  66.6413930  17.2437650  30.5827410  54.1202150
  17.4189840  29.8965150  53.4763070  16.5459220  31.1074460  53.7278820
   6.1956200  13.7046590  66.8869780   5.9140470  14.2080190  66.1230600
   6.5775900  12.9068340  66.5211910   5.0865300  30.9722250  51.6737460
   5.8184120  30.6881530  51.1261350   5.3458970  30.7335530  52.5636840
   4.2480090  27.0886980  51.6783790   3.6188970  27.5572080  52.2269620
   4.3627920  26.2436200  52.1129980  12.7971660  13.1200170  67.4650250
  12.6837110  13.4394780  68.3601770  13.6141400  13.5212680  67.1687530
  15.5770150  30.2671700  66.9468940  16.3695470  29.7720930  66.7394900
  15.8703300  30.9461840  67.5544550  11.7029810  21.1392640  37.8284990
  11.6223860  20.2247250  37.5576700  11.2894230  21.6359710  37.1224700
   9.8347850  22.9171660  39.7094260   9.0589950  22.4372100  39.9992830
  10.4860780  22.2377310  39.5350420   3.8513680  23.2291470  40.5870020
   3.0198560  22.9740180  40.9866530   4.4594660  23.3002240  41.3227940
  13.8555280  27.3231850  38.4893390  13.3936810  26.5519090  38.8180560
  14.6680830  27.3497920  38.9945840   3.8314940  27.2631560  40.7828040
   4.1342980  26.3729300  40.6038260   4.5758530  27.8201780  40.5550290
  10.0818590  29.6089860  38.1097380   9.4630030  30.0647360  37.5391820
  10.9370370  29.7641320  37.7087080   9.2756840  25.5928850  39.7164420
   9.2065120  24.6518790  39.5553550  10.0376700  25.6830260  40.2886990
  10.3062010  18.3999230  39.9433350  10.6826830  17.5271110  39.8307020
  10.2081520  18.7357930  39.0523790   4.4367020  16.7724860  35.4050790
   4.5433770  17.6728590  35.7119550   3.5259380  16.7242830  35.1145440
  14.0886130  15.8949670  36.8761690  14.9095750  15.4046240  36.9187170
  14.1220210  16.4847330  37.6293530   2.0850180  18.6943870  40.6503380
   2.7660290  18.9582240  41.2690780   1.7698230  17.8544740  40.9841390
   6.2774750  19.7411230  39.7375970   6.7852970  20.2392200  40.3780990
   6.8087990  18.9646430  39.5615330  18.3785680  17.9116420  43.4405320
  17.6737850  18.2998130  42.9220430  18.6443600  18.6066710  44.0426250
   4.5610850  14.3809790  44.0039390   4.5629290  14.8982180  43.1985290
   3.7315160  13.9039970  43.9809320  10.9481940  24.4929100  35.5029290
  10.3299210  24.9578550  34.9392010  11.4605190  25.1856580  35.9198800
   5.8113700  24.0204970  42.1812890   5.4783080  24.6473890  42.8233960
   5.9880380  24.5466850  41.4014560  14.3247610  17.8350050  39.6489230
  13.6203180  18.1234940  40.2292340  14.6859770  18.6450160  39.2888790
   4.2426180  16.0919750  42.0109840   4.5842990  16.9361800  41.7163710
   3.3041990  16.2403490  42.1275180   5.0232800  25.9885770  43.9962070
   5.6406800  26.6636850  43.7146520   4.1625920  26.3973750  43.9049570
  15.9410390  27.4525180  41.9116710  15.2573910  28.1224290  41.9033380
  16.4804680  27.6505830  41.1461570  17.3934530  17.2804840  40.0398440
  16.4459440  17.3143820  40.1713870  17.7184520  18.0943790  40.4247800
   7.9254070  13.5802020  38.3354430   8.2329050  13.0248910  37.6189930
   6.9954770  13.7146480  38.1527420  13.4769130  29.2969310  40.6261890
  13.4896290  28.8931600  39.7584150  12.9244350  30.0716600  40.5223320
  14.7714550  26.0185530  35.7152060  14.6610880  25.0759860  35.8401480
  14.7682800  26.3801170  36.6014820  12.8754570  24.1999150  41.9544500
  13.2923360  23.9859260  41.1197960  13.5994390  24.4571940  42.5253120
  10.3134830  21.6450850  35.0714550   9.3864110  21.5788230  35.3003020
  10.4659650  22.5830980  34.9569790  10.3003910  17.9167850  32.0681710
   9.3607580  18.0781810  32.1534170  10.6187170  18.6353530  31.5217700
  16.8216670  22.5986370  42.0460740  15.9935300  22.6679460  41.5710870
  17.4167150  23.1840680  41.5776570  14.3432120  23.2071150  35.5749800
  13.7244540  22.8690700  34.9276100  14.3256570  22.5630910  36.2828990
  13.7858680  19.3855690  42.9915610  13.3729860  20.2109400  43.2455600
  13.0534630  18.8000730  42.7991970   5.9191470  22.1715590  37.8534280
   5.5148470  21.4592840  37.3580180   6.0054590  21.8268830  38.7422320
   6.3873170  25.8583150  40.0173490   6.0901460  25.2528620  39.3381270
   7.3372990  25.8960460  39.9062850   4.6320090  18.9458800  41.6333320
   5.1834680  19.0554140  40.8586570   5.1463600  19.3196400  42.3488550
  14.4758780  29.4315020  43.6796590  13.9989340  30.2387210  43.4869200
  13.7920570  28.7793350  43.8322800   5.4791600  25.5964840  46.6681290
   4.5820130  25.8204810  46.9154690   5.5044470  25.7199780  45.7192690
  12.5196820  22.4457960  32.5822550  12.9590100  21.6080390  32.4360370
  13.2325240  23.0787360  32.6686690   4.3062820  22.4678160  45.2438660
   4.1670590  23.3400960  45.6126060   3.4244180  22.1250970  45.0986600
  10.6292200  27.3854030  36.5503790  11.0688110  28.1278360  36.1359180
  10.5679090  27.6280600  37.4742750   6.1043170  28.4099860  47.4523810
   6.0758600  28.8142810  46.5852240   5.9408140  27.4810220  47.2895410
  16.1013960  13.7000770  30.8963590  15.7886620  13.7927600  31.7962660
  16.8626430  14.2781800  30.8461020   2.6196100  21.0660570  35.3540930
   2.4993700  21.7922660  34.7422200   2.3096990  20.2963480  34.8768840
  18.0557990  29.1926960  48.7487980  18.5317710  29.6709850  49.4277060
  18.6765150  29.1244450  48.0233480  17.4591240  26.3839810  45.9087990
  17.5854300  26.1451690  44.9905170  17.5012620  25.5524350  46.3810070
  11.3207980  30.0867810  44.4782800  11.8352650  29.9975820  45.2805230
  10.4777060  30.4327510  44.7710710  13.2962380  30.3723150  33.9066800
  13.1363520  30.0826090  34.8048630  13.1309090  29.5963280  33.3712030
   5.7750760  30.1521680  35.6838420   5.5993240  29.2357220  35.4706220
   4.9206500  30.5108970  35.9236220  12.9988510  27.8810710  32.4664800
  12.3053670  27.8788000  31.8067080  13.7411370  27.4570030  32.0358970
  12.5638440  29.5073420  36.5413290  13.0195390  28.7262800  36.8551910
  12.9030960  30.2180240  37.0854470  17.3115250  18.4372270  46.8737730
  16.6959520  18.9451940  46.3453190  16.9911670  17.5370600  46.8163670
   5.0859760  14.4095640  38.7364600   4.6427910  15.1905180  38.4049120
   5.6444750  14.7325530  39.4435540   9.3729570  17.2764160  44.3399920
   8.9108940  17.4847180  45.1519860   8.9707680  16.4623510  44.0370590
  14.3734080  18.4973110  45.4696580  13.5227670  18.1978860  45.7905650
  14.2135870  18.7415120  44.5580400  11.4683790  19.9974860  47.5695370
  11.7937200  19.1638610  47.2297600  12.2564120  20.5203380  47.7173700
   8.2018580  14.0306340  33.6170430   7.5772760  14.0266210  34.3423740
   8.1148700  13.1637300  33.2206400   7.1235660  14.9542970  40.5954200
   7.4207990  15.8605800  40.5146220   7.6721220  14.4661750  39.9813770
   4.8773980  19.5329210  36.4645850   4.6514900  19.3166380  37.3692470
   4.0966510  19.9657670  36.1191820  12.1071740  19.5392580  35.0636500
  11.5080630  20.2628380  34.8800120  12.6551350  19.4769360  34.2812950
   7.3173190  20.4314790  47.1306120   7.2216790  19.4909520  46.9806520
   8.1605170  20.6529860  46.7354190  10.7136610  18.1756120  37.0939780
  11.1066180  18.4928320  36.2808470  11.0753460  17.2968000  37.2084300
   2.4483730  16.8428460  45.2839900   2.0547120  17.6903670  45.4912680
   1.7602130  16.2054830  45.4748540   9.0228780  16.9263430  48.3536640
   8.3327100  16.7335630  48.9882730   9.7661080  17.2098070  48.8860940
  11.2991750  20.7661870  41.1890560  10.5672870  21.2748680  41.5380660
  10.9016090  19.9491850  40.8879340   7.7369140  17.4416070  39.5943050
   7.7405200  17.0006020  38.7447590   8.6320260  17.7633400  39.7014870
   3.5871520  17.3242560  38.5537260   3.2471570  17.8017790  39.3104310
   2.8248840  16.8707680  38.1938360   7.7989290  18.4428150  32.5849810
   7.9202110  18.4014630  33.5335630   7.4137800  19.3052300  32.4296540
  11.7617660  16.2195550  40.6013500  11.7790400  16.6704200  41.4455350
  11.5133240  15.3201190  40.8146940   6.8110790  20.7529290  31.9833110
   6.2427690  20.3047540  31.3569020   7.5199790  21.1122070  31.4498260
  15.1888410  13.6327730  46.4399880  15.5134180  12.9017390  46.9657860
  15.2244920  13.3141370  45.5380870   8.0377110  21.5017850  41.3408460
   8.4047240  21.0276420  42.0869800   7.8482170  22.3759420  41.6816800
   5.8276480  20.5426490  43.6592670   5.5233550  21.4218470  43.8843030
   6.7822940  20.6026280  43.6950110   4.3558270  24.7487480  34.2559520
   3.5820530  24.2085100  34.0958240   5.0852900  24.2294090  33.9177280
  15.1146250  23.7452840  40.0485910  15.8345370  24.2408130  39.6582020
  14.9128070  23.0670730  39.4039780  10.5756190  15.1390800  34.1915300
   9.7620800  14.6403970  34.1160610  10.3818140  15.9789050  33.7751650
  10.4965050  23.8161900  45.9354910  10.4302360  22.8957570  45.6812500
   9.8670190  23.9137340  46.6499550  13.2904580  19.5110450  32.4877460
  14.1784200  19.8227680  32.3128800  13.2609670  18.6382700  32.0958040
   4.3995670  24.4167860  37.8938330   4.9174340  23.6136120  37.8395220
   3.9479690  24.3547000  38.7355160   9.2865170  25.6834140  33.1665630
   9.6280870  26.4276370  32.6708950   8.4577880  25.9965260  33.5290460
   1.8840210  21.3829230  44.8064030   1.5255150  22.0483080  45.3937370
   1.5894770  20.5512780  45.1776650   5.0853330  21.8413470  47.6903580
   4.7853470  21.9870650  46.7931400   5.8564570  21.2818760  47.5976970
  10.4281780  26.6382470  45.6858710  10.4426320  25.7063430  45.4677620
   9.7206880  26.7242230  46.3248480  15.5618850  20.8222290  31.9557320
  15.4782570  21.2536510  31.1053760  16.2813040  21.2820640  32.3884140
  16.6392990  23.2789810  45.0327290  15.9141180  23.8718590  44.8356680
  17.1668450  23.2713350  44.2340660  16.5906100  27.6764550  34.6839450
  15.9482260  27.0220170  34.9583170  16.2036760  28.0819640  33.9080120
  12.1692580  25.0049980  38.5311140  12.5216400  24.4078110  37.8712510
  11.2854910  24.6794210  38.7019390   8.2555860  25.7647670  35.9381550
   8.9426990  26.3116880  36.3189140   7.4688280  26.3088400  35.9731160
   7.5583070  22.7693700  35.5506910   8.0145850  23.5798950  35.7767100
   7.2071280  22.4516840  36.3825400   9.8615680  28.2800040  42.7799210
  10.5057900  28.4859420  43.4572630  10.2245120  27.5188440  42.3270060
   3.4594850  13.1131350  36.0229430   3.3309480  13.1049250  36.9714350
   2.6356870  13.4514440  35.6720440  11.1347760  26.2832390  41.4976660
  11.7769990  25.5825550  41.6108830  11.6597110  27.0630830  41.3173550
  14.9803480  26.5681010  31.2215800  14.7541060  25.8511450  31.8140440
  14.5899680  26.3193450  30.3837550  12.9085380  27.0827290  44.7012720
  13.2441620  27.6693980  45.3790640  11.9885720  26.9520000  44.9310510
  14.5619730  24.4852950  32.8829960  14.2741430  24.9465640  33.6707840
  15.3571900  24.0250720  33.1514180   8.7373960  27.1318620  47.8700780
   8.4170830  26.4127860  48.4146470   8.0632320  27.8073690  47.9436840
   6.7788130  27.9779070  32.8133930   6.7698230  28.7108760  32.1978440
   5.8586490  27.7310650  32.9060890   2.3794770  23.1993960  33.5580690
   1.7722720  23.9392860  33.5675990   2.8544120  23.2893320  32.7318890
  11.9527560  17.3644780  43.2337580  12.3208380  16.5439990  43.5617150
  11.0925760  17.4246670  43.6493230  15.3189590  16.3201720  34.0425140
  14.6902750  16.4247390  33.3283370  14.8241510  16.5398500  34.8319020
   9.7647730  28.0407310  31.4759120   9.8659710  27.8371300  30.5461100
   8.8649470  27.7865590  31.6806900   7.2873620  18.5987670  35.4583020
   6.5789770  19.0674010  35.8996630   7.5718100  17.9409680  36.0928210
   8.9129550  20.0184370  43.4575550   9.4114800  20.4930190  44.1227400
   9.0552500  19.0947890  43.6645580  11.3189050  15.3238330  36.8978810
  11.1956830  15.3424460  35.9488320  12.2673610  15.3717270  37.0177210
   8.4065840  30.5593630  36.1706790   8.6607340  30.5215020  35.2486160
   7.4578320  30.4326960  36.1635040   5.4908640  16.9072750  32.8333730
   6.3399170  17.3442900  32.7673920   5.1239910  17.2193010  33.6605790
  16.1196410  16.2352330  44.3003940  15.6170010  16.9757730  44.6397750
  16.9353070  16.6236330  43.9840730  14.4118420  21.4785510  37.7465300
  13.4708560  21.4935740  37.9212990  14.7262490  20.6921470  38.1925600
   4.3900060  23.1605110  31.3069260   5.1563330  23.0486470  31.8694690
   4.4674750  22.4643080  30.6546030   3.0846820  20.5930180  31.9902150
   3.1650410  19.6457690  32.1019550   3.9766570  20.9237060  32.0962810
  16.4144000  28.6494360  39.4219560  16.5391420  29.4725530  39.8943370
  17.2809560  28.4385090  39.0743710   3.8861530  30.7425570  39.0936690
   4.6224010  30.1941030  39.3645260   4.2702450  31.6081580  38.9542680
   2.8919810  29.9271640  48.2822270   3.6932540  30.2483690  48.6957670
   2.3771630  29.5667220  49.0042180   6.9963840  29.9155880  30.9162260
   7.7892450  30.2044710  30.4644050   6.4768190  29.4848050  30.2374740
  11.7284440  26.0351510  48.2297680  11.1222600  26.0583110  47.4893430
  11.4238550  25.3034550  48.7664930  13.1584810  29.7631800  46.8407090
  14.1106560  29.6789820  46.7907330  13.0113030  30.4273510  47.5140880
  16.0494010  29.1426010  32.3399000  15.7635520  28.7291150  31.5253180
  15.8513560  30.0713720  32.2199520   7.5141240  25.1359290  30.7804610
   7.4091880  24.5211640  31.5065990   7.3465460  24.6125180  29.9967620
   7.6655560  23.8216090  46.7593840   6.9001230  24.3901090  46.6748510
   7.8471520  23.5292300  45.8662070  10.7543970  24.1979320  31.3846600
  10.2054070  24.6448620  32.0289340  11.3763230  23.6928570  31.9084270
  14.8078910  25.5521420  47.3168860  15.5488380  25.8897180  46.8136320
  14.0451590  25.7213480  46.7638630   2.6440700  20.5574690  48.1208390
   2.6846040  20.2588560  49.0293620   3.4986200  20.9582300  47.9615910
   6.4219090  23.1570240  33.2811900   6.8435510  22.9910110  34.1243290
   6.5469930  22.3470470  32.7867040   4.5846510  19.1366790  46.0882880
   4.0542970  18.6457740  45.4606220   5.2534580  19.5650990  45.5540810
   8.9346730  22.1807850  30.5289000   9.4552390  21.4656870  30.1630150
   9.5815130  22.8193720  30.8289510  13.4824570  23.6036250  45.8524070
  13.8965590  23.7581330  46.7014490  12.5475570  23.7291470  46.0149850
  13.9546740  20.9432410  47.8563220  14.5367510  20.1884730  47.7683700
  14.1308510  21.4739850  47.0794700   5.0718810  16.1029160  46.1680170
   4.9775680  15.4849910  45.4431040   4.4916200  16.8295450  45.9410080
   7.8380250  14.6602400  43.2007560   7.3897550  14.6826660  42.3553110
   7.2045450  14.2621420  43.7977860   8.2439800  23.5556730  43.8220000
   8.6627910  24.3989460  43.6496240   7.3248430  23.6928770  43.5926780
  10.5803700  21.2872910  45.2057840  10.6999910  20.6914050  45.9452680
  11.4397700  21.3242600  44.7859140  12.9191600  21.8410100  43.7820350
  12.3926820  22.3652720  43.1785490  13.2622940  22.4737490  44.4130080
   5.3177990  19.2303470  30.2270060   5.1167050  18.3670830  30.5883400
   5.1470040  19.1436830  29.2891660   6.0947220  29.8609740  44.9377730
   5.5568310  30.5855800  44.6186430   6.3481180  29.3840080  44.1475070
   7.3472470  17.8294260  46.4633660   7.9372160  17.5210110  47.1511480
   6.5292710  17.3574010  46.6193560  12.1665900  17.4460070  46.6966680
  11.4781420  16.7841610  46.6316670  12.8871920  16.9998340  47.1415140
  12.7966300  14.0411700  32.7556940  13.0768590  13.1979600  33.1116360
  12.0232030  14.2734810  33.2695690   4.1160790  16.3304090  30.2147940
   4.4186690  16.3371520  29.3067090   4.8555380  15.9801950  30.7115600
   8.9509430  31.0960950  45.1964380   8.8768130  31.9996090  45.5036750
   8.0488270  30.7772850  45.1686450   7.3345720  15.2738710  31.2004140
   6.9867720  14.5962700  30.6206590   7.5358490  14.8128220  32.0147530
   9.4994760  30.2619460  32.8190740  10.3945550  30.6004430  32.8409500
   9.5312390  29.5398870  32.1915020   3.1390920  25.6346510  31.0477740
   3.5765790  26.1776180  31.7035320   3.6238650  24.8093460  31.0574080
   4.9498640  26.7544550  36.1599970   4.6494180  26.6309520  37.0603880
   4.8436130  25.8953140  35.7515700  16.4789110  28.7923130  45.5256940
  15.8791100  28.8515690  44.7820860  16.6083010  27.8528110  45.6553790
  17.7190560  26.5340950  30.8626650  16.8883520  26.6017600  31.3333880
  17.8962390  27.4245070  30.5593510  17.1747020  23.2788430  33.3660850
  17.9365930  23.8485080  33.4720540  17.1901390  22.7115630  34.1369160
  18.1806990  24.1338530  38.2102780  18.5515820  23.3505850  37.8038750
  18.8208920  24.8227630  38.0320080  15.1640750  25.5175110  43.6233100
  14.3500590  25.9472270  43.8858890  15.5714950  26.1293520  43.0102150
  17.2266190  23.5722800  30.5233370  17.5015030  24.4801680  30.3952590
  17.0376930  23.5085330  31.4595360  13.6241800  16.5967650  31.8187000
  14.0426680  16.4098630  30.9783660  13.3177860  15.7446700  32.1289930
  17.1231530  21.5091790  35.5162800  16.7475130  20.7419720  35.0844090
  16.3934650  21.8914490  36.0037730  16.5131150  20.6563310  45.1502320
  16.2817240  20.4276060  44.2500270  16.7735700  21.5762860  45.1047210
  14.9519220  15.8819740  47.9282020  15.8289400  15.8903140  48.3116020
  14.9640060  15.1450580  47.3174370  16.3982490  19.7349280  38.8170040
  16.9219970  19.2411930  38.1860210  16.9841910  19.8699640  39.5617610
  16.5772210  19.8189150  42.3389590  15.6274920  19.7852690  42.4534580
  16.7585220  20.7289260  42.1039360   2.4316650  18.0690830  31.4488220
   3.1408350  17.6474050  30.9635500   1.7156590  18.1366060  30.8171570
   2.0790810  14.1230160  30.4890870   2.8018940  14.6639100  30.8072090
   2.3515330  13.8493580  29.6132410  15.8882460  18.9922630  34.7562450
  16.3841580  18.7593500  35.5411330  15.6898530  18.1534470  34.3400090
   1.7683000  13.3736350  40.3913490   2.4159190  12.8233730  39.9508650
   2.1884840  13.6279500  41.2129300  17.3169620  17.6283580  37.2900130
  17.2068900  17.4739620  38.2282400  18.0777210  17.1004520  37.0475540
  15.6635340  13.5677710  43.7483130  16.3007560  14.1811850  44.1142320
  15.8110230  13.6038370  42.8032360  18.2059890  15.4591500  30.5306270
  19.1309200  15.3272680  30.3224560  18.1835680  15.5384320  31.4842720
  18.2798380  16.2302160  33.1562980  17.4849880  16.1647280  33.6855890
  18.4841660  17.1652800  33.1448330  15.2216800  30.2693710  37.1501370
  15.8175870  29.9478280  36.4735790  15.4794950  29.7965530  37.9414640
   3.1279370  26.7011620  47.2992000   3.0849000  26.3304530  48.1806460
   3.2590380  27.6389190  47.4393820   6.8285400  28.2571210  42.9001720
   6.5876760  28.5245770  42.0132240   7.7688040  28.4276940  42.9552580
   9.0339820  14.7203900  46.6558230   8.9728710  15.3125730  47.4053640
   9.9740200  14.6129860  46.5108490  11.6714380  14.3773960  46.2950520
  12.2854790  14.6953250  45.6331600  12.2163940  13.8922550  46.9146380
  18.0889560  30.2765590  43.7012360  17.5947840  30.6734460  42.9839490
  17.4802850  29.6514800  44.0949640   2.1935640  13.0568220  46.4089580
   2.7418630  12.8756270  45.6455690   2.2590950  12.2662330  46.9445890
   2.9667400  29.6473870  44.4189780   2.3727720  29.5158570  45.1579820
   2.9591240  28.8112010  43.9531880  12.4122420  12.9406100  42.6219810
  11.5382260  13.2741210  42.4192740  12.3033170  12.4679280  43.4471680
  13.3194400  15.1476970  44.0061530  12.9907760  14.3328730  43.6263260
  14.2676700  15.1046780  43.8827220  15.7729010  30.9189010  40.9799100
  15.3131980  31.6704820  40.6057120  15.1441470  30.1995480  40.9213900
   2.5979630  27.0132250  43.3697820   1.8713690  26.3937540  43.3023770
   2.6588780  27.4072860  42.4995900   6.2024730  29.2277250  40.1547230
   6.7189750  28.6164610  39.6295490   6.8522110  29.7306030  40.6458240
   8.9420230  30.1185740  40.9816210   9.2298040  29.8640040  40.1049220
   9.4543450  29.5663100  41.5721780  10.1597240  13.8575940  41.5612720
   9.3769030  14.3321440  41.8409480   9.8660170  12.9530770  41.4525900
  14.7118310  14.5599040  39.6061810  15.1526400  14.5044140  38.7583410
  14.4425900  15.4757050  39.6771990  16.5756880  14.1914280  37.6170630
  16.5145280  13.2475500  37.4701650  17.3548910  14.2994370  38.1624090
   8.0451460  16.2762690  37.0728750   7.2325970  15.9019580  36.7324630
   8.5493100  15.5207770  37.3749940  12.5476440  12.9405140  38.3111820
  13.1505810  13.5125350  38.7860340  11.8069430  13.5044580  38.0885720
  15.6911040  13.3426700  33.5852100  15.8861670  14.2410150  33.8519530
  14.9040910  13.1113780  34.0785050   2.4872330  29.0239870  34.0244720
   1.9619950  29.4047900  33.3206680   2.4116910  29.6490640  34.7454430
   3.8762800  14.6887470  32.6228410   4.4055560  13.9017270  32.4936360
   4.5091120  15.3678660  32.8563940   6.0700640  14.4262610  35.6773800
   5.4403380  13.7249920  35.8443930   5.5305780  15.1866740  35.4606960
   9.0092590  31.0401840  48.3484410   9.9359900  30.8046110  48.3920370
   8.9943020  31.8673840  47.8670440  17.2437650  30.5827410  35.3458660
  17.4189840  29.8965150  34.7019580  16.5459220  31.1074460  34.9535330
   6.1956200  13.7046590  48.1126290   5.9140470  14.2080190  47.3487110
   6.5775900  12.9068340  47.7468420   5.0865300  30.9722250  32.8993970
   5.8184120  30.6881530  32.3517860   5.3458970  30.7335530  33.7893350
   4.2480090  27.0886980  32.9040300   3.6188970  27.5572080  33.4526130
   4.3627920  26.2436200  33.3386490  12.7971660  13.1200170  48.6906760
  12.6837110  13.4394780  49.5858280  13.6141400  13.5212680  48.3944040
  15.5770150  30.2671700  48.1725450  16.3695470  29.7720930  47.9651410
  15.8703300  30.9461840  48.7801060  11.7029810  21.1392640  19.0541500
  11.6223860  20.2247250  18.7833210  11.2894230  21.6359710  18.3481210
   9.8347850  22.9171660  20.9350770   9.0589950  22.4372100  21.2249340
  10.4860780  22.2377310  20.7606930   3.8513680  23.2291470  21.8126530
   3.0198560  22.9740180  22.2123040   4.4594660  23.3002240  22.5484450
  13.8555280  27.3231850  19.7149900  13.3936810  26.5519090  20.0437070
  14.6680830  27.3497920  20.2202350   3.8314940  27.2631560  22.0084550
   4.1342980  26.3729300  21.8294770   4.5758530  27.8201780  21.7806800
  10.0818590  29.6089860  19.3353890   9.4630030  30.0647360  18.7648330
  10.9370370  29.7641320  18.9343590   9.2756840  25.5928850  20.9420930
   9.2065120  24.6518790  20.7810060  10.0376700  25.6830260  21.5143500
  10.3062010  18.3999230  21.1689860  10.6826830  17.5271110  21.0563530
  10.2081520  18.7357930  20.2780300   4.4367020  16.7724860  16.6307300
   4.5433770  17.6728590  16.9376060   3.5259380  16.7242830  16.3401950
  14.0886130  15.8949670  18.1018200  14.9095750  15.4046240  18.1443680
  14.1220210  16.4847330  18.8550040   2.0850180  18.6943870  21.8759890
   2.7660290  18.9582240  22.4947290   1.7698230  17.8544740  22.2097900
   6.2774750  19.7411230  20.9632480   6.7852970  20.2392200  21.6037500
   6.8087990  18.9646430  20.7871840  18.3785680  17.9116420  24.6661830
  17.6737850  18.2998130  24.1476940  18.6443600  18.6066710  25.2682760
   4.5610850  14.3809790  25.2295900   4.5629290  14.8982180  24.4241800
   3.7315160  13.9039970  25.2065830  10.9481940  24.4929100  16.7285800
  10.3299210  24.9578550  16.1648520  11.4605190  25.1856580  17.1455310
   5.8113700  24.0204970  23.4069400   5.4783080  24.6473890  24.0490470
   5.9880380  24.5466850  22.6271070  14.3247610  17.8350050  20.8745740
  13.6203180  18.1234940  21.4548850  14.6859770  18.6450160  20.5145300
   4.2426180  16.0919750  23.2366350   4.5842990  16.9361800  22.9420220
   3.3041990  16.2403490  23.3531690   5.0232800  25.9885770  25.2218580
   5.6406800  26.6636850  24.9403030   4.1625920  26.3973750  25.1306080
  15.9410390  27.4525180  23.1373220  15.2573910  28.1224290  23.1289890
  16.4804680  27.6505830  22.3718080  17.3934530  17.2804840  21.2654950
  16.4459440  17.3143820  21.3970380  17.7184520  18.0943790  21.6504310
   7.9254070  13.5802020  19.5610940   8.2329050  13.0248910  18.8446440
   6.9954770  13.7146480  19.3783930  13.4769130  29.2969310  21.8518400
  13.4896290  28.8931600  20.9840660  12.9244350  30.0716600  21.7479830
  14.7714550  26.0185530  16.9408570  14.6610880  25.0759860  17.0657990
  14.7682800  26.3801170  17.8271330  12.8754570  24.1999150  23.1801010
  13.2923360  23.9859260  22.3454470  13.5994390  24.4571940  23.7509630
  10.3134830  21.6450850  16.2971060   9.3864110  21.5788230  16.5259530
  10.4659650  22.5830980  16.1826300  10.3003910  17.9167850  13.2938220
   9.3607580  18.0781810  13.3790680  10.6187170  18.6353530  12.7474210
  16.8216670  22.5986370  23.2717250  15.9935300  22.6679460  22.7967380
  17.4167150  23.1840680  22.8033080  14.3432120  23.2071150  16.8006310
  13.7244540  22.8690700  16.1532610  14.3256570  22.5630910  17.5085500
  13.7858680  19.3855690  24.2172120  13.3729860  20.2109400  24.4712110
  13.0534630  18.8000730  24.0248480   5.9191470  22.1715590  19.0790790
   5.5148470  21.4592840  18.5836690   6.0054590  21.8268830  19.9678830
   6.3873170  25.8583150  21.2430000   6.0901460  25.2528620  20.5637780
   7.3372990  25.8960460  21.1319360   4.6320090  18.9458800  22.8589830
   5.1834680  19.0554140  22.0843080   5.1463600  19.3196400  23.5745060
  14.4758780  29.4315020  24.9053100  13.9989340  30.2387210  24.7125710
  13.7920570  28.7793350  25.0579310   5.4791600  25.5964840  27.8937800
   4.5820130  25.8204810  28.1411200   5.5044470  25.7199780  26.9449200
  12.5196820  22.4457960  13.8079060  12.9590100  21.6080390  13.6616880
  13.2325240  23.0787360  13.8943200   4.3062820  22.4678160  26.4695170
   4.1670590  23.3400960  26.8382570   3.4244180  22.1250970  26.3243110
  10.6292200  27.3854030  17.7760300  11.0688110  28.1278360  17.3615690
  10.5679090  27.6280600  18.6999260   6.1043170  28.4099860  28.6780320
   6.0758600  28.8142810  27.8108750   5.9408140  27.4810220  28.5151920
  16.1013960  13.7000770  12.1220100  15.7886620  13.7927600  13.0219170
  16.8626430  14.2781800  12.0717530   2.6196100  21.0660570  16.5797440
   2.4993700  21.7922660  15.9678710   2.3096990  20.2963480  16.1025350
  18.0557990  29.1926960  29.9744490  18.5317710  29.6709850  30.6533570
  18.6765150  29.1244450  29.2489990  17.4591240  26.3839810  27.1344500
  17.5854300  26.1451690  26.2161680  17.5012620  25.5524350  27.6066580
  11.3207980  30.0867810  25.7039310  11.8352650  29.9975820  26.5061740
  10.4777060  30.4327510  25.9967220  13.2962380  30.3723150  15.1323310
  13.1363520  30.0826090  16.0305140  13.1309090  29.5963280  14.5968540
   5.7750760  30.1521680  16.9094930   5.5993240  29.2357220  16.6962730
   4.9206500  30.5108970  17.1492730  12.9988510  27.8810710  13.6921310
  12.3053670  27.8788000  13.0323590  13.7411370  27.4570030  13.2615480
  12.5638440  29.5073420  17.7669800  13.0195390  28.7262800  18.0808420
  12.9030960  30.2180240  18.3110980  17.3115250  18.4372270  28.0994240
  16.6959520  18.9451940  27.5709700  16.9911670  17.5370600  28.0420180
   5.0859760  14.4095640  19.9621110   4.6427910  15.1905180  19.6305630
   5.6444750  14.7325530  20.6692050   9.3729570  17.2764160  25.5656430
   8.9108940  17.4847180  26.3776370   8.9707680  16.4623510  25.2627100
  14.3734080  18.4973110  26.6953090  13.5227670  18.1978860  27.0162160
  14.2135870  18.7415120  25.7836910  11.4683790  19.9974860  28.7951880
  11.7937200  19.1638610  28.4554110  12.2564120  20.5203380  28.9430210
   8.2018580  14.0306340  14.8426940   7.5772760  14.0266210  15.5680250
   8.1148700  13.1637300  14.4462910   7.1235660  14.9542970  21.8210710
   7.4207990  15.8605800  21.7402730   7.6721220  14.4661750  21.2070280
   4.8773980  19.5329210  17.6902360   4.6514900  19.3166380  18.5948980
   4.0966510  19.9657670  17.3448330  12.1071740  19.5392580  16.2893010
  11.5080630  20.2628380  16.1056630  12.6551350  19.4769360  15.5069460
   7.3173190  20.4314790  28.3562630   7.2216790  19.4909520  28.2063030
   8.1605170  20.6529860  27.9610700  10.7136610  18.1756120  18.3196290
  11.1066180  18.4928320  17.5064980  11.0753460  17.2968000  18.4340810
   2.4483730  16.8428460  26.5096410   2.0547120  17.6903670  26.7169190
   1.7602130  16.2054830  26.7005050   9.0228780  16.9263430  29.5793150
   8.3327100  16.7335630  30.2139240   9.7661080  17.2098070  30.1117450
  11.2991750  20.7661870  22.4147070  10.5672870  21.2748680  22.7637170
  10.9016090  19.9491850  22.1135850   7.7369140  17.4416070  20.8199560
   7.7405200  17.0006020  19.9704100   8.6320260  17.7633400  20.9271380
   3.5871520  17.3242560  19.7793770   3.2471570  17.8017790  20.5360820
   2.8248840  16.8707680  19.4194870   7.7989290  18.4428150  13.8106320
   7.9202110  18.4014630  14.7592140   7.4137800  19.3052300  13.6553050
  11.7617660  16.2195550  21.8270010  11.7790400  16.6704200  22.6711860
  11.5133240  15.3201190  22.0403450   6.8110790  20.7529290  13.2089620
   6.2427690  20.3047540  12.5825530   7.5199790  21.1122070  12.6754770
  15.1888410  13.6327730  27.6656390  15.5134180  12.9017390  28.1914370
  15.2244920  13.3141370  26.7637380   8.0377110  21.5017850  22.5664970
   8.4047240  21.0276420  23.3126310   7.8482170  22.3759420  22.9073310
   5.8276480  20.5426490  24.8849180   5.5233550  21.4218470  25.1099540
   6.7822940  20.6026280  24.9206620   4.3558270  24.7487480  15.4816030
   3.5820530  24.2085100  15.3214750   5.0852900  24.2294090  15.1433790
  15.1146250  23.7452840  21.2742420  15.8345370  24.2408130  20.8838530
  14.9128070  23.0670730  20.6296290  10.5756190  15.1390800  15.4171810
   9.7620800  14.6403970  15.3417120  10.3818140  15.9789050  15.0008160
  10.4965050  23.8161900  27.1611420  10.4302360  22.8957570  26.9069010
   9.8670190  23.9137340  27.8756060  13.2904580  19.5110450  13.7133970
  14.1784200  19.8227680  13.5385310  13.2609670  18.6382700  13.3214550
   4.3995670  24.4167860  19.1194840   4.9174340  23.6136120  19.0651730
   3.9479690  24.3547000  19.9611670   9.2865170  25.6834140  14.3922140
   9.6280870  26.4276370  13.8965460   8.4577880  25.9965260  14.7546970
   1.8840210  21.3829230  26.0320540   1.5255150  22.0483080  26.6193880
   1.5894770  20.5512780  26.4033160   5.0853330  21.8413470  28.9160090
   4.7853470  21.9870650  28.0187910   5.8564570  21.2818760  28.8233480
  10.4281780  26.6382470  26.9115220  10.4426320  25.7063430  26.6934130
   9.7206880  26.7242230  27.5504990  15.5618850  20.8222290  13.1813830
  15.4782570  21.2536510  12.3310270  16.2813040  21.2820640  13.6140650
  16.6392990  23.2789810  26.2583800  15.9141180  23.8718590  26.0613190
  17.1668450  23.2713350  25.4597170  16.5906100  27.6764550  15.9095960
  15.9482260  27.0220170  16.1839680  16.2036760  28.0819640  15.1336630
  12.1692580  25.0049980  19.7567650  12.5216400  24.4078110  19.0969020
  11.2854910  24.6794210  19.9275900   8.2555860  25.7647670  17.1638060
   8.9426990  26.3116880  17.5445650   7.4688280  26.3088400  17.1987670
   7.5583070  22.7693700  16.7763420   8.0145850  23.5798950  17.0023610
   7.2071280  22.4516840  17.6081910   9.8615680  28.2800040  24.0055720
  10.5057900  28.4859420  24.6829140  10.2245120  27.5188440  23.5526570
   3.4594850  13.1131350  17.2485940   3.3309480  13.1049250  18.1970860
   2.6356870  13.4514440  16.8976950  11.1347760  26.2832390  22.7233170
  11.7769990  25.5825550  22.8365340  11.6597110  27.0630830  22.5430060
  14.9803480  26.5681010  12.4472310  14.7541060  25.8511450  13.0396950
  14.5899680  26.3193450  11.6094060  12.9085380  27.0827290  25.9269230
  13.2441620  27.6693980  26.6047150  11.9885720  26.9520000  26.1567020
  14.5619730  24.4852950  14.1086470  14.2741430  24.9465640  14.8964350
  15.3571900  24.0250720  14.3770690   8.7373960  27.1318620  29.0957290
   8.4170830  26.4127860  29.6402980   8.0632320  27.8073690  29.1693350
   6.7788130  27.9779070  14.0390440   6.7698230  28.7108760  13.4234950
   5.8586490  27.7310650  14.1317400   2.3794770  23.1993960  14.7837200
   1.7722720  23.9392860  14.7932500   2.8544120  23.2893320  13.9575400
  11.9527560  17.3644780  24.4594090  12.3208380  16.5439990  24.7873660
  11.0925760  17.4246670  24.8749740  15.3189590  16.3201720  15.2681650
  14.6902750  16.4247390  14.5539880  14.8241510  16.5398500  16.0575530
   9.7647730  28.0407310  12.7015630   9.8659710  27.8371300  11.7717610
   8.8649470  27.7865590  12.9063410   7.2873620  18.5987670  16.6839530
   6.5789770  19.0674010  17.1253140   7.5718100  17.9409680  17.3184720
   8.9129550  20.0184370  24.6832060   9.4114800  20.4930190  25.3483910
   9.0552500  19.0947890  24.8902090  11.3189050  15.3238330  18.1235320
  11.1956830  15.3424460  17.1744830  12.2673610  15.3717270  18.2433720
   8.4065840  30.5593630  17.3963300   8.6607340  30.5215020  16.4742670
   7.4578320  30.4326960  17.3891550   5.4908640  16.9072750  14.0590240
   6.3399170  17.3442900  13.9930430   5.1239910  17.2193010  14.8862300
  16.1196410  16.2352330  25.5260450  15.6170010  16.9757730  25.8654260
  16.9353070  16.6236330  25.2097240  14.4118420  21.4785510  18.9721810
  13.4708560  21.4935740  19.1469500  14.7262490  20.6921470  19.4182110
   4.3900060  23.1605110  12.5325770   5.1563330  23.0486470  13.0951200
   4.4674750  22.4643080  11.8802540   3.0846820  20.5930180  13.2158660
   3.1650410  19.6457690  13.3276060   3.9766570  20.9237060  13.3219320
  16.4144000  28.6494360  20.6476070  16.5391420  29.4725530  21.1199880
  17.2809560  28.4385090  20.3000220   3.8861530  30.7425570  20.3193200
   4.6224010  30.1941030  20.5901770   4.2702450  31.6081580  20.1799190
   2.8919810  29.9271640  29.5078780   3.6932540  30.2483690  29.9214180
   2.3771630  29.5667220  30.2298690   6.9963840  29.9155880  12.1418770
   7.7892450  30.2044710  11.6900560   6.4768190  29.4848050  11.4631250
  11.7284440  26.0351510  29.4554190  11.1222600  26.0583110  28.7149940
  11.4238550  25.3034550  29.9921440  13.1584810  29.7631800  28.0663600
  14.1106560  29.6789820  28.0163840  13.0113030  30.4273510  28.7397390
  16.0494010  29.1426010  13.5655510  15.7635520  28.7291150  12.7509690
  15.8513560  30.0713720  13.4456030   7.5141240  25.1359290  12.0061120
   7.4091880  24.5211640  12.7322500   7.3465460  24.6125180  11.2224130
   7.6655560  23.8216090  27.9850350   6.9001230  24.3901090  27.9005020
   7.8471520  23.5292300  27.0918580  10.7543970  24.1979320  12.6103110
  10.2054070  24.6448620  13.2545850  11.3763230  23.6928570  13.1340780
  14.8078910  25.5521420  28.5425370  15.5488380  25.8897180  28.0392830
  14.0451590  25.7213480  27.9895140   2.6440700  20.5574690  29.3464900
   2.6846040  20.2588560  30.2550130   3.4986200  20.9582300  29.1872420
   6.4219090  23.1570240  14.5068410   6.8435510  22.9910110  15.3499800
   6.5469930  22.3470470  14.0123550   4.5846510  19.1366790  27.3139390
   4.0542970  18.6457740  26.6862730   5.2534580  19.5650990  26.7797320
   8.9346730  22.1807850  11.7545510   9.4552390  21.4656870  11.3886660
   9.5815130  22.8193720  12.0546020  13.4824570  23.6036250  27.0780580
  13.8965590  23.7581330  27.9271000  12.5475570  23.7291470  27.2406360
  13.9546740  20.9432410  29.0819730  14.5367510  20.1884730  28.9940210
  14.1308510  21.4739850  28.3051210   5.0718810  16.1029160  27.3936680
   4.9775680  15.4849910  26.6687550   4.4916200  16.8295450  27.1666590
   7.8380250  14.6602400  24.4264070   7.3897550  14.6826660  23.5809620
   7.2045450  14.2621420  25.0234370   8.2439800  23.5556730  25.0476510
   8.6627910  24.3989460  24.8752750   7.3248430  23.6928770  24.8183290
  10.5803700  21.2872910  26.4314350  10.6999910  20.6914050  27.1709190
  11.4397700  21.3242600  26.0115650  12.9191600  21.8410100  25.0076860
  12.3926820  22.3652720  24.4042000  13.2622940  22.4737490  25.6386590
   5.3177990  19.2303470  11.4526570   5.1167050  18.3670830  11.8139910
   5.1470040  19.1436830  10.5148170   6.0947220  29.8609740  26.1634240
   5.5568310  30.5855800  25.8442940   6.3481180  29.3840080  25.3731580
   7.3472470  17.8294260  27.6890170   7.9372160  17.5210110  28.3767990
   6.5292710  17.3574010  27.8450070  12.1665900  17.4460070  27.9223190
  11.4781420  16.7841610  27.8573180  12.8871920  16.9998340  28.3671650
  12.7966300  14.0411700  13.9813450  13.0768590  13.1979600  14.3372870
  12.0232030  14.2734810  14.4952200   4.1160790  16.3304090  11.4404450
   4.4186690  16.3371520  10.5323600   4.8555380  15.9801950  11.9372110
   8.9509430  31.0960950  26.4220890   8.8768130  31.9996090  26.7293260
   8.0488270  30.7772850  26.3942960   7.3345720  15.2738710  12.4260650
   6.9867720  14.5962700  11.8463100   7.5358490  14.8128220  13.2404040
   9.4994760  30.2619460  14.0447250  10.3945550  30.6004430  14.0666010
   9.5312390  29.5398870  13.4171530   3.1390920  25.6346510  12.2734250
   3.5765790  26.1776180  12.9291830   3.6238650  24.8093460  12.2830590
   4.9498640  26.7544550  17.3856480   4.6494180  26.6309520  18.2860390
   4.8436130  25.8953140  16.9772210  16.4789110  28.7923130  26.7513450
  15.8791100  28.8515690  26.0077370  16.6083010  27.8528110  26.8810300
  17.7190560  26.5340950  12.0883160  16.8883520  26.6017600  12.5590390
  17.8962390  27.4245070  11.7850020  17.1747020  23.2788430  14.5917360
  17.9365930  23.8485080  14.6977050  17.1901390  22.7115630  15.3625670
  18.1806990  24.1338530  19.4359290  18.5515820  23.3505850  19.0295260
  18.8208920  24.8227630  19.2576590  15.1640750  25.5175110  24.8489610
  14.3500590  25.9472270  25.1115400  15.5714950  26.1293520  24.2358660
  17.2266190  23.5722800  11.7489880  17.5015030  24.4801680  11.6209100
  17.0376930  23.5085330  12.6851870  13.6241800  16.5967650  13.0443510
  14.0426680  16.4098630  12.2040170  13.3177860  15.7446700  13.3546440
  17.1231530  21.5091790  16.7419310  16.7475130  20.7419720  16.3100600
  16.3934650  21.8914490  17.2294240  16.5131150  20.6563310  26.3758830
  16.2817240  20.4276060  25.4756780  16.7735700  21.5762860  26.3303720
  14.9519220  15.8819740  29.1538530  15.8289400  15.8903140  29.5372530
  14.9640060  15.1450580  28.5430880  16.3982490  19.7349280  20.0426550
  16.9219970  19.2411930  19.4116720  16.9841910  19.8699640  20.7874120
  16.5772210  19.8189150  23.5646100  15.6274920  19.7852690  23.6791090
  16.7585220  20.7289260  23.3295870   2.4316650  18.0690830  12.6744730
   3.1408350  17.6474050  12.1892010   1.7156590  18.1366060  12.0428080
   2.0790810  14.1230160  11.7147380   2.8018940  14.6639100  12.0328600
   2.3515330  13.8493580  10.8388920  15.8882460  18.9922630  15.9818960
  16.3841580  18.7593500  16.7667840  15.6898530  18.1534470  15.5656600
   1.7683000  13.3736350  21.6170000   2.4159190  12.8233730  21.1765160
   2.1884840  13.6279500  22.4385810  17.3169620  17.6283580  18.5156640
  17.2068900  17.4739620  19.4538910  18.0777210  17.1004520  18.2732050
  15.6635340  13.5677710  24.9739640  16.3007560  14.1811850  25.3398830
  15.8110230  13.6038370  24.0288870  18.2059890  15.4591500  11.7562780
  19.1309200  15.3272680  11.5481070  18.1835680  15.5384320  12.7099230
  18.2798380  16.2302160  14.3819490  17.4849880  16.1647280  14.9112400
  18.4841660  17.1652800  14.3704840  15.2216800  30.2693710  18.3757880
  15.8175870  29.9478280  17.6992300  15.4794950  29.7965530  19.1671150
   3.1279370  26.7011620  28.5248510   3.0849000  26.3304530  29.4062970
   3.2590380  27.6389190  28.6650330   6.8285400  28.2571210  24.1258230
   6.5876760  28.5245770  23.2388750   7.7688040  28.4276940  24.1809090
   9.0339820  14.7203900  27.8814740   8.9728710  15.3125730  28.6310150
   9.9740200  14.6129860  27.7365000  11.6714380  14.3773960  27.5207030
  12.2854790  14.6953250  26.8588110  12.2163940  13.8922550  28.1402890
  18.0889560  30.2765590  24.9268870  17.5947840  30.6734460  24.2096000
  17.4802850  29.6514800  25.3206150   2.1935640  13.0568220  27.6346090
   2.7418630  12.8756270  26.8712200   2.2590950  12.2662330  28.1702400
   2.9667400  29.6473870  25.6446290   2.3727720  29.5158570  26.3836330
   2.9591240  28.8112010  25.1788390  12.4122420  12.9406100  23.8476320
  11.5382260  13.2741210  23.6449250  12.3033170  12.4679280  24.6728190
  13.3194400  15.1476970  25.2318040  12.9907760  14.3328730  24.8519770
  14.2676700  15.1046780  25.1083730  15.7729010  30.9189010  22.2055610
  15.3131980  31.6704820  21.8313630  15.1441470  30.1995480  22.1470410
   2.5979630  27.0132250  24.5954330   1.8713690  26.3937540  24.5280280
   2.6588780  27.4072860  23.7252410   6.2024730  29.2277250  21.3803740
   6.7189750  28.6164610  20.8552000   6.8522110  29.7306030  21.8714750
   8.9420230  30.1185740  22.2072720   9.2298040  29.8640040  21.3305730
   9.4543450  29.5663100  22.7978290  10.1597240  13.8575940  22.7869230
   9.3769030  14.3321440  23.0665990   9.8660170  12.9530770  22.6782410
  14.7118310  14.5599040  20.8318320  15.1526400  14.5044140  19.9839920
  14.4425900  15.4757050  20.9028500  16.5756880  14.1914280  18.8427140
  16.5145280  13.2475500  18.6958160  17.3548910  14.2994370  19.3880600
   8.0451460  16.2762690  18.2985260   7.2325970  15.9019580  17.9581140
   8.5493100  15.5207770  18.6006450  12.5476440  12.9405140  19.5368330
  13.1505810  13.5125350  20.0116850  11.8069430  13.5044580  19.3142230
  15.6911040  13.3426700  14.8108610  15.8861670  14.2410150  15.0776040
  14.9040910  13.1113780  15.3041560   2.4872330  29.0239870  15.2501230
   1.9619950  29.4047900  14.5463190   2.4116910  29.6490640  15.9710940
   3.8762800  14.6887470  13.8484920   4.4055560  13.9017270  13.7192870
   4.5091120  15.3678660  14.0820450   6.0700640  14.4262610  16.9030310
   5.4403380  13.7249920  17.0700440   5.5305780  15.1866740  16.6863470
   9.0092590  31.0401840  29.5740920   9.9359900  30.8046110  29.6176880
   8.9943020  31.8673840  29.0926950  17.2437650  30.5827410  16.5715170
  17.4189840  29.8965150  15.9276090  16.5459220  31.1074460  16.1791840
   6.1956200  13.7046590  29.3382800   5.9140470  14.2080190  28.5743620
   6.5775900  12.9068340  28.9724930   5.0865300  30.9722250  14.1250480
   5.8184120  30.6881530  13.5774370   5.3458970  30.7335530  15.0149860
   4.2480090  27.0886980  14.1296810   3.6188970  27.5572080  14.6782640
   4.3627920  26.2436200  14.5643000  12.7971660  13.1200170  29.9163270
  12.6837110  13.4394780  30.8114790  13.6141400  13.5212680  29.6200550
  15.5770150  30.2671700  29.3981960  16.3695470  29.7720930  29.1907920
  15.8703300  30.9461840  30.0057570   9.8347850  22.9171660   2.1607280
   9.0589950  22.4372100   2.4505850  10.4860780  22.2377310   1.9863440
   3.8513680  23.2291470   3.0383040   3.0198560  22.9740180   3.4379550
   4.4594660  23.3002240   3.7740960   3.8314940  27.2631560   3.2341060
   4.1342980  26.3729300   3.0551280   4.5758530  27.8201780   3.0063310
   9.2756840  25.5928850   2.1677440   9.2065120  24.6518790   2.0066570
  10.0376700  25.6830260   2.7400010  10.3062010  18.3999230   2.3946370
  10.6826830  17.5271110   2.2820040  10.2081520  18.7357930   1.5036810
   2.0850180  18.6943870   3.1016400   2.7660290  18.9582240   3.7203800
   1.7698230  17.8544740   3.4354410   6.2774750  19.7411230   2.1888990
   6.7852970  20.2392200   2.8294010   6.8087990  18.9646430   2.0128350
  18.3785680  17.9116420   5.8918340  17.6737850  18.2998130   5.3733450
  18.6443600  18.6066710   6.4939270   4.5610850  14.3809790   6.4552410
   4.5629290  14.8982180   5.6498310   3.7315160  13.9039970   6.4322340
   5.8113700  24.0204970   4.6325910   5.4783080  24.6473890   5.2746980
   5.9880380  24.5466850   3.8527580  14.3247610  17.8350050   2.1002250
  13.6203180  18.1234940   2.6805360  14.6859770  18.6450160   1.7401810
   4.2426180  16.0919750   4.4622860   4.5842990  16.9361800   4.1676730
   3.3041990  16.2403490   4.5788200   5.0232800  25.9885770   6.4475090
   5.6406800  26.6636850   6.1659540   4.1625920  26.3973750   6.3562590
  15.9410390  27.4525180   4.3629730  15.2573910  28.1224290   4.3546400
  16.4804680  27.6505830   3.5974590  17.3934530  17.2804840   2.4911460
  16.4459440  17.3143820   2.6226890  17.7184520  18.0943790   2.8760820
  13.4769130  29.2969310   3.0774910  13.4896290  28.8931600   2.2097170
  12.9244350  30.0716600   2.9736340  12.8754570  24.1999150   4.4057520
  13.2923360  23.9859260   3.5710980  13.5994390  24.4571940   4.9766140
  16.8216670  22.5986370   4.4973760  15.9935300  22.6679460   4.0223890
  17.4167150  23.1840680   4.0289590  13.7858680  19.3855690   5.4428630
  13.3729860  20.2109400   5.6968620  13.0534630  18.8000730   5.2504990
   6.3873170  25.8583150   2.4686510   6.0901460  25.2528620   1.7894290
   7.3372990  25.8960460   2.3575870   4.6320090  18.9458800   4.0846340
   5.1834680  19.0554140   3.3099590   5.1463600  19.3196400   4.8001570
  14.4758780  29.4315020   6.1309610  13.9989340  30.2387210   5.9382220
  13.7920570  28.7793350   6.2835820   5.4791600  25.5964840   9.1194310
   4.5820130  25.8204810   9.3667710   5.5044470  25.7199780   8.1705710
   4.3062820  22.4678160   7.6951680   4.1670590  23.3400960   8.0639080
   3.4244180  22.1250970   7.5499620   6.1043170  28.4099860   9.9036830
   6.0758600  28.8142810   9.0365260   5.9408140  27.4810220   9.7408430
  18.0557990  29.1926960  11.2001000  18.5317710  29.6709850  11.8790080
  18.6765150  29.1244450  10.4746500  17.4591240  26.3839810   8.3601010
  17.5854300  26.1451690   7.4418190  17.5012620  25.5524350   8.8323090
  11.3207980  30.0867810   6.9295820  11.8352650  29.9975820   7.7318250
  10.4777060  30.4327510   7.2223730  17.3115250  18.4372270   9.3250750
  16.6959520  18.9451940   8.7966210  16.9911670  17.5370600   9.2676690
   9.3729570  17.2764160   6.7912940   8.9108940  17.4847180   7.6032880
   8.9707680  16.4623510   6.4883610  14.3734080  18.4973110   7.9209600
  13.5227670  18.1978860   8.2418670  14.2135870  18.7415120   7.0093420
  11.4683790  19.9974860  10.0208390  11.7937200  19.1638610   9.6810620
  12.2564120  20.5203380  10.1686720   7.1235660  14.9542970   3.0467220
   7.4207990  15.8605800   2.9659240   7.6721220  14.4661750   2.4326790
   7.3173190  20.4314790   9.5819140   7.2216790  19.4909520   9.4319540
   8.1605170  20.6529860   9.1867210   2.4483730  16.8428460   7.7352920
   2.0547120  17.6903670   7.9425700   1.7602130  16.2054830   7.9261560
   9.0228780  16.9263430  10.8049660   8.3327100  16.7335630  11.4395750
   9.7661080  17.2098070  11.3373960  11.2991750  20.7661870   3.6403580
  10.5672870  21.2748680   3.9893680  10.9016090  19.9491850   3.3392360
  11.7617660  16.2195550   3.0526520  11.7790400  16.6704200   3.8968370
  11.5133240  15.3201190   3.2659960  15.1888410  13.6327730   8.8912900
  15.5134180  12.9017390   9.4170880  15.2244920  13.3141370   7.9893890
   8.0377110  21.5017850   3.7921480   8.4047240  21.0276420   4.5382820
   7.8482170  22.3759420   4.1329820   5.8276480  20.5426490   6.1105690
   5.5233550  21.4218470   6.3356050   6.7822940  20.6026280   6.1463130
  15.1146250  23.7452840   2.4998930  15.8345370  24.2408130   2.1095040
  14.9128070  23.0670730   1.8552800  10.4965050  23.8161900   8.3867930
  10.4302360  22.8957570   8.1325520   9.8670190  23.9137340   9.1012570
   1.8840210  21.3829230   7.2577050   1.5255150  22.0483080   7.8450390
   1.5894770  20.5512780   7.6289670   5.0853330  21.8413470  10.1416600
   4.7853470  21.9870650   9.2444420   5.8564570  21.2818760  10.0489990
  10.4281780  26.6382470   8.1371730  10.4426320  25.7063430   7.9190640
   9.7206880  26.7242230   8.7761500  16.6392990  23.2789810   7.4840310
  15.9141180  23.8718590   7.2869700  17.1668450  23.2713350   6.6853680
   9.8615680  28.2800040   5.2312230  10.5057900  28.4859420   5.9085650
  10.2245120  27.5188440   4.7783080  11.1347760  26.2832390   3.9489680
  11.7769990  25.5825550   4.0621850  11.6597110  27.0630830   3.7686570
  12.9085380  27.0827290   7.1525740  13.2441620  27.6693980   7.8303660
  11.9885720  26.9520000   7.3823530   8.7373960  27.1318620  10.3213800
   8.4170830  26.4127860  10.8659490   8.0632320  27.8073690  10.3949860
  11.9527560  17.3644780   5.6850600  12.3208380  16.5439990   6.0130170
  11.0925760  17.4246670   6.1006250   8.9129550  20.0184370   5.9088570
   9.4114800  20.4930190   6.5740420   9.0552500  19.0947890   6.1158600
  16.1196410  16.2352330   6.7516960  15.6170010  16.9757730   7.0910770
  16.9353070  16.6236330   6.4353750  16.4144000  28.6494360   1.8732580
  16.5391420  29.4725530   2.3456390  17.2809560  28.4385090   1.5256730
   2.8919810  29.9271640  10.7335290   3.6932540  30.2483690  11.1470690
   2.3771630  29.5667220  11.4555200  11.7284440  26.0351510  10.6810700
  11.1222600  26.0583110   9.9406450  11.4238550  25.3034550  11.2177950
  13.1584810  29.7631800   9.2920110  14.1106560  29.6789820   9.2420350
  13.0113030  30.4273510   9.9653900   7.6655560  23.8216090   9.2106860
   6.9001230  24.3901090   9.1261530   7.8471520  23.5292300   8.3175090
  14.8078910  25.5521420   9.7681880  15.5488380  25.8897180   9.2649340
  14.0451590  25.7213480   9.2151650   2.6440700  20.5574690  10.5721410
   2.6846040  20.2588560  11.4806640   3.4986200  20.9582300  10.4128930
   4.5846510  19.1366790   8.5395900   4.0542970  18.6457740   7.9119240
   5.2534580  19.5650990   8.0053830  13.4824570  23.6036250   8.3037090
  13.8965590  23.7581330   9.1527510  12.5475570  23.7291470   8.4662870
  13.9546740  20.9432410  10.3076240  14.5367510  20.1884730  10.2196720
  14.1308510  21.4739850   9.5307720   5.0718810  16.1029160   8.6193190
   4.9775680  15.4849910   7.8944060   4.4916200  16.8295450   8.3923100
   7.8380250  14.6602400   5.6520580   7.3897550  14.6826660   4.8066130
   7.2045450  14.2621420   6.2490880   8.2439800  23.5556730   6.2733020
   8.6627910  24.3989460   6.1009260   7.3248430  23.6928770   6.0439800
  10.5803700  21.2872910   7.6570860  10.6999910  20.6914050   8.3965700
  11.4397700  21.3242600   7.2372160  12.9191600  21.8410100   6.2333370
  12.3926820  22.3652720   5.6298510  13.2622940  22.4737490   6.8643100
   6.0947220  29.8609740   7.3890750   5.5568310  30.5855800   7.0699450
   6.3481180  29.3840080   6.5988090   7.3472470  17.8294260   8.9146680
   7.9372160  17.5210110   9.6024500   6.5292710  17.3574010   9.0706580
  12.1665900  17.4460070   9.1479700  11.4781420  16.7841610   9.0829690
  12.8871920  16.9998340   9.5928160   8.9509430  31.0960950   7.6477400
   8.8768130  31.9996090   7.9549770   8.0488270  30.7772850   7.6199470
  16.4789110  28.7923130   7.9769960  15.8791100  28.8515690   7.2333880
  16.6083010  27.8528110   8.1066810  15.1640750  25.5175110   6.0746120
  14.3500590  25.9472270   6.3371910  15.5714950  26.1293520   5.4615170
  16.5131150  20.6563310   7.6015340  16.2817240  20.4276060   6.7013290
  16.7735700  21.5762860   7.5560230  14.9519220  15.8819740  10.3795040
  15.8289400  15.8903140  10.7629040  14.9640060  15.1450580   9.7687390
  16.5772210  19.8189150   4.7902610  15.6274920  19.7852690   4.9047600
  16.7585220  20.7289260   4.5552380   1.7683000  13.3736350   2.8426510
   2.4159190  12.8233730   2.4021670   2.1884840  13.6279500   3.6642320
  15.6635340  13.5677710   6.1996150  16.3007560  14.1811850   6.5655340
  15.8110230  13.6038370   5.2545380   3.1279370  26.7011620   9.7505020
   3.0849000  26.3304530  10.6319480   3.2590380  27.6389190   9.8906840
   6.8285400  28.2571210   5.3514740   6.5876760  28.5245770   4.4645260
   7.7688040  28.4276940   5.4065600   9.0339820  14.7203900   9.1071250
   8.9728710  15.3125730   9.8566660   9.9740200  14.6129860   8.9621510
  11.6714380  14.3773960   8.7463540  12.2854790  14.6953250   8.0844620
  12.2163940  13.8922550   9.3659400  18.0889560  30.2765590   6.1525380
  17.5947840  30.6734460   5.4352510  17.4802850  29.6514800   6.5462660
   2.1935640  13.0568220   8.8602600   2.7418630  12.8756270   8.0968710
   2.2590950  12.2662330   9.3958910   2.9667400  29.6473870   6.8702800
   2.3727720  29.5158570   7.6092840   2.9591240  28.8112010   6.4044900
  12.4122420  12.9406100   5.0732830  11.5382260  13.2741210   4.8705760
  12.3033170  12.4679280   5.8984700  13.3194400  15.1476970   6.4574550
  12.9907760  14.3328730   6.0776280  14.2676700  15.1046780   6.3340240
  15.7729010  30.9189010   3.4312120  15.3131980  31.6704820   3.0570140
  15.1441470  30.1995480   3.3726920   2.5979630  27.0132250   5.8210840
   1.8713690  26.3937540   5.7536790   2.6588780  27.4072860   4.9508920
   6.2024730  29.2277250   2.6060250   6.7189750  28.6164610   2.0808510
   6.8522110  29.7306030   3.0971260   8.9420230  30.1185740   3.4329230
   9.2298040  29.8640040   2.5562240   9.4543450  29.5663100   4.0234800
  10.1597240  13.8575940   4.0125740   9.3769030  14.3321440   4.2922500
   9.8660170  12.9530770   3.9038920   9.0092590  31.0401840  10.7997430
   9.9359900  30.8046110  10.8433390   8.9943020  31.8673840  10.3183460
   6.1956200  13.7046590  10.5639310   5.9140470  14.2080190   9.8000130
   6.5775900  12.9068340  10.1981440  12.7971660  13.1200170  11.1419780
  12.6837110  13.4394780  12.0371300  13.6141400  13.5212680  10.8457060
  15.5770150  30.2671700  10.6238470  16.3695470  29.7720930  10.4164430
  15.8703300  30.9461840  11.2314080  13.8555280   8.5488360  76.0380370
  13.3936810   7.7775600  76.3667540  14.6680830   8.5754430  76.5432820
  10.0818590  10.8346370  75.6584360   9.4630030  11.2903870  75.0878800
  10.9370370  10.9897830  75.2574060  10.9481940   5.7185610  73.0516270
  10.3299210   6.1835060  72.4878990  11.4605190   6.4113090  73.4685780
  14.7714550   7.2442040  73.2639040  14.6610880   6.3016370  73.3888460
  14.7682800   7.6057680  74.1501800  10.3134830   2.8707360  72.6201530
   9.3864110   2.8044740  72.8490000  10.4659650   3.8087490  72.5056770
  14.3432120   4.4327660  73.1236780  13.7244540   4.0947210  72.4763080
  14.3256570   3.7887420  73.8315970   5.9191470   3.3972100  75.4021260
   5.5148470   2.6849350  74.9067160   6.0054590   3.0525340  76.2909300
  12.5196820   3.6714470  70.1309530  12.9590100   2.8336900  69.9847350
  13.2325240   4.3043870  70.2173670  10.6292200   8.6110540  74.0990770
  11.0688110   9.3534870  73.6846160  10.5679090   8.8537110  75.0229730
   2.6196100   2.2917080  72.9027910   2.4993700   3.0179170  72.2909180
   2.3096990   1.5219990  72.4255820  13.2962380  11.5979660  71.4553780
  13.1363520  11.3082600  72.3535610  13.1309090  10.8219790  70.9199010
   5.7750760  11.3778190  73.2325400   5.5993240  10.4613730  73.0193200
   4.9206500  11.7365480  73.4723200  12.9988510   9.1067220  70.0151780
  12.3053670   9.1044510  69.3554060  13.7411370   8.6826540  69.5845950
  12.5638440  10.7329930  74.0900270  13.0195390   9.9519310  74.4038890
  12.9030960  11.4436750  74.6341450   6.8110790   1.9785800  69.5320090
   6.2427690   1.5304050  68.9056000   7.5199790   2.3378580  68.9985240
   4.3558270   5.9743990  71.8046500   3.5820530   5.4341610  71.6445220
   5.0852900   5.4550600  71.4664260   4.3995670   5.6424370  75.4425310
   4.9174340   4.8392630  75.3882200   3.9479690   5.5803510  76.2842140
   9.2865170   6.9090650  70.7152610   9.6280870   7.6532880  70.2195930
   8.4577880   7.2221770  71.0777440  15.5618850   2.0478800  69.5044300
  15.4782570   2.4793020  68.6540740  16.2813040   2.5077150  69.9371120
  16.5906100   8.9021060  72.2326430  15.9482260   8.2476680  72.5070150
  16.2036760   9.3076150  71.4567100  12.1692580   6.2306490  76.0798120
  12.5216400   5.6334620  75.4199490  11.2854910   5.9050720  76.2506370
   8.2555860   6.9904180  73.4868530   8.9426990   7.5373390  73.8676120
   7.4688280   7.5344910  73.5218140   7.5583070   3.9950210  73.0993890
   8.0145850   4.8055460  73.3254080   7.2071280   3.6773350  73.9312380
  14.9803480   7.7937520  68.7702780  14.7541060   7.0767960  69.3627420
  14.5899680   7.5449960  67.9324530  14.5619730   5.7109460  70.4316940
  14.2741430   6.1722150  71.2194820  15.3571900   5.2507230  70.7001160
   6.7788130   9.2035580  70.3620910   6.7698230   9.9365270  69.7465420
   5.8586490   8.9567160  70.4547870   2.3794770   4.4250470  71.1067670
   1.7722720   5.1649370  71.1162970   2.8544120   4.5149830  70.2805870
   9.7647730   9.2663820  69.0246100   9.8659710   9.0627810  68.0948080
   8.8649470   9.0122100  69.2293880   8.4065840  11.7850140  73.7193770
   8.6607340  11.7471530  72.7973140   7.4578320  11.6583470  73.7122020
  14.4118420   2.7042020  75.2952280  13.4708560   2.7192250  75.4699970
  14.7262490   1.9177980  75.7412580   4.3900060   4.3861620  68.8556240
   5.1563330   4.2742980  69.4181670   4.4674750   3.6899590  68.2033010
   3.8861530  11.9682080  76.6423670   4.6224010  11.4197540  76.9132240
   4.2702450  12.8338090  76.5029660   6.9963840  11.1412390  68.4649240
   7.7892450  11.4301220  68.0131030   6.4768190  10.7104560  67.7861720
  16.0494010  10.3682520  69.8885980  15.7635520   9.9547660  69.0740160
  15.8513560  11.2970230  69.7686500   7.5141240   6.3615800  68.3291590
   7.4091880   5.7468150  69.0552970   7.3465460   5.8381690  67.5454600
  10.7543970   5.4235830  68.9333580  10.2054070   5.8705130  69.5776320
  11.3763230   4.9185080  69.4571250   6.4219090   4.3826750  70.8298880
   6.8435510   4.2166620  71.6730270   6.5469930   3.5726980  70.3354020
   8.9346730   3.4064360  68.0775980   9.4552390   2.6913380  67.7117130
   9.5815130   4.0450230  68.3776490   9.4994760  11.4875970  70.3677720
  10.3945550  11.8260940  70.3896480   9.5312390  10.7655380  69.7402000
   3.1390920   6.8603020  68.5964720   3.5765790   7.4032690  69.2522300
   3.6238650   6.0349970  68.6061060   4.9498640   7.9801060  73.7086950
   4.6494180   7.8566030  74.6090860   4.8436130   7.1209650  73.3002680
  17.7190560   7.7597460  68.4113630  16.8883520   7.8274110  68.8820860
  17.8962390   8.6501580  68.1080490  17.1747020   4.5044940  70.9147830
  17.9365930   5.0741590  71.0207520  17.1901390   3.9372140  71.6856140
  18.1806990   5.3595040  75.7589760  18.5515820   4.5762360  75.3525730
  18.8208920   6.0484140  75.5807060  17.2266190   4.7979310  68.0720350
  17.5015030   5.7058190  67.9439570  17.0376930   4.7341840  69.0082340
  17.1231530   2.7348300  73.0649780  16.7475130   1.9676230  72.6331070
  16.3934650   3.1171000  73.5524710  15.2216800  11.4950220  74.6988350
  15.8175870  11.1734790  74.0222770  15.4794950  11.0222040  75.4901620
   2.4872330  10.2496380  71.5731700   1.9619950  10.6304410  70.8693660
   2.4116910  10.8747150  72.2941410  17.2437650  11.8083920  72.8945640
  17.4189840  11.1221660  72.2506560  16.5459220  12.3330970  72.5022310
   5.0865300  12.1978760  70.4480950   5.8184120  11.9138040  69.9004840
   5.3458970  11.9592040  71.3380330   4.2480090   8.3143490  70.4527280
   3.6188970   8.7828590  71.0013110   4.3627920   7.4692710  70.8873470
   9.8347850   4.1428170  58.4837750   9.0589950   3.6628610  58.7736320
  10.4860780   3.4633820  58.3093910   3.8513680   4.4547980  59.3613510
   3.0198560   4.1996690  59.7610020   4.4594660   4.5258750  60.0971430
  13.8555280   8.5488360  57.2636880  13.3936810   7.7775600  57.5924050
  14.6680830   8.5754430  57.7689330   3.8314940   8.4888070  59.5571530
   4.1342980   7.5985810  59.3781750   4.5758530   9.0458290  59.3293780
  10.0818590  10.8346370  56.8840870   9.4630030  11.2903870  56.3135310
  10.9370370  10.9897830  56.4830570   9.2756840   6.8185360  58.4907910
   9.2065120   5.8775300  58.3297040  10.0376700   6.9086770  59.0630480
  10.9481940   5.7185610  54.2772780  10.3299210   6.1835060  53.7135500
  11.4605190   6.4113090  54.6942290   5.8113700   5.2461480  60.9556380
   5.4783080   5.8730400  61.5977450   5.9880380   5.7723360  60.1758050
   5.0232800   7.2142280  62.7705560   5.6406800   7.8893360  62.4890010
   4.1625920   7.6230260  62.6793060  15.9410390   8.6781690  60.6860200
  15.2573910   9.3480800  60.6776870  16.4804680   8.8762340  59.9205060
  13.4769130  10.5225820  59.4005380  13.4896290  10.1188110  58.5327640
  12.9244350  11.2973110  59.2966810  14.7714550   7.2442040  54.4895550
  14.6610880   6.3016370  54.6144970  14.7682800   7.6057680  55.3758310
  12.8754570   5.4255660  60.7287990  13.2923360   5.2115770  59.8941450
  13.5994390   5.6828450  61.2996610  10.3134830   2.8707360  53.8458040
   9.3864110   2.8044740  54.0746510  10.4659650   3.8087490  53.7313280
  16.8216670   3.8242880  60.8204230  15.9935300   3.8935970  60.3454360
  17.4167150   4.4097190  60.3520060  14.3432120   4.4327660  54.3493290
  13.7244540   4.0947210  53.7019590  14.3256570   3.7887420  55.0572480
   5.9191470   3.3972100  56.6277770   5.5148470   2.6849350  56.1323670
   6.0054590   3.0525340  57.5165810   6.3873170   7.0839660  58.7916980
   6.0901460   6.4785130  58.1124760   7.3372990   7.1216970  58.6806340
  14.4758780  10.6571530  62.4540080  13.9989340  11.4643720  62.2612690
  13.7920570  10.0049860  62.6066290   5.4791600   6.8221350  65.4424780
   4.5820130   7.0461320  65.6898180   5.5044470   6.9456290  64.4936180
  12.5196820   3.6714470  51.3566040  12.9590100   2.8336900  51.2103860
  13.2325240   4.3043870  51.4430180   4.3062820   3.6934670  64.0182150
   4.1670590   4.5657470  64.3869550   3.4244180   3.3507480  63.8730090
  10.6292200   8.6110540  55.3247280  11.0688110   9.3534870  54.9102670
  10.5679090   8.8537110  56.2486240   6.1043170   9.6356370  66.2267300
   6.0758600  10.0399320  65.3595730   5.9408140   8.7066730  66.0638900
   2.6196100   2.2917080  54.1284420   2.4993700   3.0179170  53.5165690
   2.3096990   1.5219990  53.6512330  18.0557990  10.4183470  67.5231470
  18.5317710  10.8966360  68.2020550  18.6765150  10.3500960  66.7976970
  17.4591240   7.6096320  64.6831480  17.5854300   7.3708200  63.7648660
  17.5012620   6.7780860  65.1553560  11.3207980  11.3124320  63.2526290
  11.8352650  11.2232330  64.0548720  10.4777060  11.6584020  63.5454200
  13.2962380  11.5979660  52.6810290  13.1363520  11.3082600  53.5792120
  13.1309090  10.8219790  52.1455520   5.7750760  11.3778190  54.4581910
   5.5993240  10.4613730  54.2449710   4.9206500  11.7365480  54.6979710
  12.9988510   9.1067220  51.2408290  12.3053670   9.1044510  50.5810570
  13.7411370   8.6826540  50.8102460  12.5638440  10.7329930  55.3156780
  13.0195390   9.9519310  55.6295400  12.9030960  11.4436750  55.8597960
   6.8110790   1.9785800  50.7576600   6.2427690   1.5304050  50.1312510
   7.5199790   2.3378580  50.2241750   8.0377110   2.7274360  60.1151950
   8.4047240   2.2532930  60.8613290   7.8482170   3.6015930  60.4560290
   5.8276480   1.7683000  62.4336160   5.5233550   2.6474980  62.6586520
   6.7822940   1.8282790  62.4693600   4.3558270   5.9743990  53.0303010
   3.5820530   5.4341610  52.8701730   5.0852900   5.4550600  52.6920770
  15.1146250   4.9709350  58.8229400  15.8345370   5.4664640  58.4325510
  14.9128070   4.2927240  58.1783270  10.4965050   5.0418410  64.7098400
  10.4302360   4.1214080  64.4555990   9.8670190   5.1393850  65.4243040
   4.3995670   5.6424370  56.6681820   4.9174340   4.8392630  56.6138710
   3.9479690   5.5803510  57.5098650   9.2865170   6.9090650  51.9409120
   9.6280870   7.6532880  51.4452440   8.4577880   7.2221770  52.3033950
   1.8840210   2.6085740  63.5807520   1.5255150   3.2739590  64.1680860
   1.5894770   1.7769290  63.9520140   5.0853330   3.0669980  66.4647070
   4.7853470   3.2127160  65.5674890   5.8564570   2.5075270  66.3720460
  10.4281780   7.8638980  64.4602200  10.4426320   6.9319940  64.2421110
   9.7206880   7.9498740  65.0991970  15.5618850   2.0478800  50.7300810
  15.4782570   2.4793020  49.8797250  16.2813040   2.5077150  51.1627630
  16.6392990   4.5046320  63.8070780  15.9141180   5.0975100  63.6100170
  17.1668450   4.4969860  63.0084150  16.5906100   8.9021060  53.4582940
  15.9482260   8.2476680  53.7326660  16.2036760   9.3076150  52.6823610
  12.1692580   6.2306490  57.3054630  12.5216400   5.6334620  56.6456000
  11.2854910   5.9050720  57.4762880   8.2555860   6.9904180  54.7125040
   8.9426990   7.5373390  55.0932630   7.4688280   7.5344910  54.7474650
   7.5583070   3.9950210  54.3250400   8.0145850   4.8055460  54.5510590
   7.2071280   3.6773350  55.1568890   9.8615680   9.5056550  61.5542700
  10.5057900   9.7115930  62.2316120  10.2245120   8.7444950  61.1013550
  11.1347760   7.5088900  60.2720150  11.7769990   6.8082060  60.3852320
  11.6597110   8.2887340  60.0917040  14.9803480   7.7937520  49.9959290
  14.7541060   7.0767960  50.5883930  14.5899680   7.5449960  49.1581040
  12.9085380   8.3083800  63.4756210  13.2441620   8.8950490  64.1534130
  11.9885720   8.1776510  63.7054000  14.5619730   5.7109460  51.6573450
  14.2741430   6.1722150  52.4451330  15.3571900   5.2507230  51.9257670
   8.7373960   8.3575130  66.6444270   8.4170830   7.6384370  67.1889960
   8.0632320   9.0330200  66.7180330   6.7788130   9.2035580  51.5877420
   6.7698230   9.9365270  50.9721930   5.8586490   8.9567160  51.6804380
   2.3794770   4.4250470  52.3324180   1.7722720   5.1649370  52.3419480
   2.8544120   4.5149830  51.5062380   9.7647730   9.2663820  50.2502610
   9.8659710   9.0627810  49.3204590   8.8649470   9.0122100  50.4550390
   8.4065840  11.7850140  54.9450280   8.6607340  11.7471530  54.0229650
   7.4578320  11.6583470  54.9378530  14.4118420   2.7042020  56.5208790
  13.4708560   2.7192250  56.6956480  14.7262490   1.9177980  56.9669090
   4.3900060   4.3861620  50.0812750   5.1563330   4.2742980  50.6438180
   4.4674750   3.6899590  49.4289520  16.4144000   9.8750870  58.1963050
  16.5391420  10.6982040  58.6686860  17.2809560   9.6641600  57.8487200
   3.8861530  11.9682080  57.8680180   4.6224010  11.4197540  58.1388750
   4.2702450  12.8338090  57.7286170   2.8919810  11.1528150  67.0565760
   3.6932540  11.4740200  67.4701160   2.3771630  10.7923730  67.7785670
   6.9963840  11.1412390  49.6905750   7.7892450  11.4301220  49.2387540
   6.4768190  10.7104560  49.0118230  11.7284440   7.2608020  67.0041170
  11.1222600   7.2839620  66.2636920  11.4238550   6.5291060  67.5408420
  13.1584810  10.9888310  65.6150580  14.1106560  10.9046330  65.5650820
  13.0113030  11.6530020  66.2884370  16.0494010  10.3682520  51.1142490
  15.7635520   9.9547660  50.2996670  15.8513560  11.2970230  50.9943010
   7.5141240   6.3615800  49.5548100   7.4091880   5.7468150  50.2809480
   7.3465460   5.8381690  48.7711110   7.6655560   5.0472600  65.5337330
   6.9001230   5.6157600  65.4492000   7.8471520   4.7548810  64.6405560
  10.7543970   5.4235830  50.1590090  10.2054070   5.8705130  50.8032830
  11.3763230   4.9185080  50.6827760  14.8078910   6.7777930  66.0912350
  15.5488380   7.1153690  65.5879810  14.0451590   6.9469990  65.5382120
   2.6440700   1.7831200  66.8951880   2.6846040   1.4845070  67.8037110
   3.4986200   2.1838810  66.7359400   6.4219090   4.3826750  52.0555390
   6.8435510   4.2166620  52.8986780   6.5469930   3.5726980  51.5610530
   8.9346730   3.4064360  49.3032490   9.4552390   2.6913380  48.9373640
   9.5815130   4.0450230  49.6033000  13.4824570   4.8292760  64.6267560
  13.8965590   4.9837840  65.4757980  12.5475570   4.9547980  64.7893340
   8.2439800   4.7813240  62.5963490   8.6627910   5.6245970  62.4239730
   7.3248430   4.9185280  62.3670270  10.5803700   2.5129420  63.9801330
  10.6999910   1.9170560  64.7196170  11.4397700   2.5499110  63.5602630
  12.9191600   3.0666610  62.5563840  12.3926820   3.5909230  61.9528980
  13.2622940   3.6994000  63.1873570   6.0947220  11.0866250  63.7121220
   5.5568310  11.8112310  63.3929920   6.3481180  10.6096590  62.9218560
   8.9509430  12.3217460  63.9707870   8.8768130  13.2252600  64.2780240
   8.0488270  12.0029360  63.9429940   9.4994760  11.4875970  51.5934230
  10.3945550  11.8260940  51.6152990   9.5312390  10.7655380  50.9658510
   3.1390920   6.8603020  49.8221230   3.5765790   7.4032690  50.4778810
   3.6238650   6.0349970  49.8317570   4.9498640   7.9801060  54.9343460
   4.6494180   7.8566030  55.8347370   4.8436130   7.1209650  54.5259190
  16.4789110  10.0179640  64.3000430  15.8791100  10.0772200  63.5564350
  16.6083010   9.0784620  64.4297280  17.7190560   7.7597460  49.6370140
  16.8883520   7.8274110  50.1077370  17.8962390   8.6501580  49.3337000
  17.1747020   4.5044940  52.1404340  17.9365930   5.0741590  52.2464030
  17.1901390   3.9372140  52.9112650  18.1806990   5.3595040  56.9846270
  18.5515820   4.5762360  56.5782240  18.8208920   6.0484140  56.8063570
  15.1640750   6.7431620  62.3976590  14.3500590   7.1728780  62.6602380
  15.5714950   7.3550030  61.7845640  17.2266190   4.7979310  49.2976860
  17.5015030   5.7058190  49.1696080  17.0376930   4.7341840  50.2338850
  17.1231530   2.7348300  54.2906290  16.7475130   1.9676230  53.8587580
  16.3934650   3.1171000  54.7781220  16.5131150   1.8819820  63.9245810
  16.2817240   1.6532570  63.0243760  16.7735700   2.8019370  63.8790700
  15.2216800  11.4950220  55.9244860  15.8175870  11.1734790  55.2479280
  15.4794950  11.0222040  56.7158130   3.1279370   7.9268130  66.0735490
   3.0849000   7.5561040  66.9549950   3.2590380   8.8645700  66.2137310
   6.8285400   9.4827720  61.6745210   6.5876760   9.7502280  60.7875730
   7.7688040   9.6533450  61.7296070  18.0889560  11.5022100  62.4755850
  17.5947840  11.8990970  61.7582980  17.4802850  10.8771310  62.8693130
   2.9667400  10.8730380  63.1933270   2.3727720  10.7415080  63.9323310
   2.9591240  10.0368520  62.7275370  15.7729010  12.1445520  59.7542590
  15.3131980  12.8961330  59.3800610  15.1441470  11.4251990  59.6957390
   2.5979630   8.2388760  62.1441310   1.8713690   7.6194050  62.0767260
   2.6588780   8.6329370  61.2739390   6.2024730  10.4533760  58.9290720
   6.7189750   9.8421120  58.4038980   6.8522110  10.9562540  59.4201730
   8.9420230  11.3442250  59.7559700   9.2298040  11.0896550  58.8792710
   9.4543450  10.7919610  60.3465270   2.4872330  10.2496380  52.7988210
   1.9619950  10.6304410  52.0950170   2.4116910  10.8747150  53.5197920
   9.0092590  12.2658350  67.1227900   9.9359900  12.0302620  67.1663860
   8.9943020  13.0930350  66.6413930  17.2437650  11.8083920  54.1202150
  17.4189840  11.1221660  53.4763070  16.5459220  12.3330970  53.7278820
   5.0865300  12.1978760  51.6737460   5.8184120  11.9138040  51.1261350
   5.3458970  11.9592040  52.5636840   4.2480090   8.3143490  51.6783790
   3.6188970   8.7828590  52.2269620   4.3627920   7.4692710  52.1129980
  15.5770150  11.4928210  66.9468940  16.3695470  10.9977440  66.7394900
  15.8703300  12.1718350  67.5544550   9.8347850   4.1428170  39.7094260
   9.0589950   3.6628610  39.9992830  10.4860780   3.4633820  39.5350420
   3.8513680   4.4547980  40.5870020   3.0198560   4.1996690  40.9866530
   4.4594660   4.5258750  41.3227940  13.8555280   8.5488360  38.4893390
  13.3936810   7.7775600  38.8180560  14.6680830   8.5754430  38.9945840
   3.8314940   8.4888070  40.7828040   4.1342980   7.5985810  40.6038260
   4.5758530   9.0458290  40.5550290  10.0818590  10.8346370  38.1097380
   9.4630030  11.2903870  37.5391820  10.9370370  10.9897830  37.7087080
   9.2756840   6.8185360  39.7164420   9.2065120   5.8775300  39.5553550
  10.0376700   6.9086770  40.2886990  10.9481940   5.7185610  35.5029290
  10.3299210   6.1835060  34.9392010  11.4605190   6.4113090  35.9198800
   5.8113700   5.2461480  42.1812890   5.4783080   5.8730400  42.8233960
   5.9880380   5.7723360  41.4014560   5.0232800   7.2142280  43.9962070
   5.6406800   7.8893360  43.7146520   4.1625920   7.6230260  43.9049570
  15.9410390   8.6781690  41.9116710  15.2573910   9.3480800  41.9033380
  16.4804680   8.8762340  41.1461570  13.4769130  10.5225820  40.6261890
  13.4896290  10.1188110  39.7584150  12.9244350  11.2973110  40.5223320
  14.7714550   7.2442040  35.7152060  14.6610880   6.3016370  35.8401480
  14.7682800   7.6057680  36.6014820  12.8754570   5.4255660  41.9544500
  13.2923360   5.2115770  41.1197960  13.5994390   5.6828450  42.5253120
  10.3134830   2.8707360  35.0714550   9.3864110   2.8044740  35.3003020
  10.4659650   3.8087490  34.9569790  16.8216670   3.8242880  42.0460740
  15.9935300   3.8935970  41.5710870  17.4167150   4.4097190  41.5776570
  14.3432120   4.4327660  35.5749800  13.7244540   4.0947210  34.9276100
  14.3256570   3.7887420  36.2828990   5.9191470   3.3972100  37.8534280
   5.5148470   2.6849350  37.3580180   6.0054590   3.0525340  38.7422320
   6.3873170   7.0839660  40.0173490   6.0901460   6.4785130  39.3381270
   7.3372990   7.1216970  39.9062850  14.4758780  10.6571530  43.6796590
  13.9989340  11.4643720  43.4869200  13.7920570  10.0049860  43.8322800
   5.4791600   6.8221350  46.6681290   4.5820130   7.0461320  46.9154690
   5.5044470   6.9456290  45.7192690  12.5196820   3.6714470  32.5822550
  12.9590100   2.8336900  32.4360370  13.2325240   4.3043870  32.6686690
   4.3062820   3.6934670  45.2438660   4.1670590   4.5657470  45.6126060
   3.4244180   3.3507480  45.0986600  10.6292200   8.6110540  36.5503790
  11.0688110   9.3534870  36.1359180  10.5679090   8.8537110  37.4742750
   6.1043170   9.6356370  47.4523810   6.0758600  10.0399320  46.5852240
   5.9408140   8.7066730  47.2895410   2.6196100   2.2917080  35.3540930
   2.4993700   3.0179170  34.7422200   2.3096990   1.5219990  34.8768840
  18.0557990  10.4183470  48.7487980  18.5317710  10.8966360  49.4277060
  18.6765150  10.3500960  48.0233480  17.4591240   7.6096320  45.9087990
  17.5854300   7.3708200  44.9905170  17.5012620   6.7780860  46.3810070
  11.3207980  11.3124320  44.4782800  11.8352650  11.2232330  45.2805230
  10.4777060  11.6584020  44.7710710  13.2962380  11.5979660  33.9066800
  13.1363520  11.3082600  34.8048630  13.1309090  10.8219790  33.3712030
   5.7750760  11.3778190  35.6838420   5.5993240  10.4613730  35.4706220
   4.9206500  11.7365480  35.9236220  12.9988510   9.1067220  32.4664800
  12.3053670   9.1044510  31.8067080  13.7411370   8.6826540  32.0358970
  12.5638440  10.7329930  36.5413290  13.0195390   9.9519310  36.8551910
  12.9030960  11.4436750  37.0854470   6.8110790   1.9785800  31.9833110
   6.2427690   1.5304050  31.3569020   7.5199790   2.3378580  31.4498260
   8.0377110   2.7274360  41.3408460   8.4047240   2.2532930  42.0869800
   7.8482170   3.6015930  41.6816800   5.8276480   1.7683000  43.6592670
   5.5233550   2.6474980  43.8843030   6.7822940   1.8282790  43.6950110
   4.3558270   5.9743990  34.2559520   3.5820530   5.4341610  34.0958240
   5.0852900   5.4550600  33.9177280  15.1146250   4.9709350  40.0485910
  15.8345370   5.4664640  39.6582020  14.9128070   4.2927240  39.4039780
  10.4965050   5.0418410  45.9354910  10.4302360   4.1214080  45.6812500
   9.8670190   5.1393850  46.6499550   4.3995670   5.6424370  37.8938330
   4.9174340   4.8392630  37.8395220   3.9479690   5.5803510  38.7355160
   9.2865170   6.9090650  33.1665630   9.6280870   7.6532880  32.6708950
   8.4577880   7.2221770  33.5290460   1.8840210   2.6085740  44.8064030
   1.5255150   3.2739590  45.3937370   1.5894770   1.7769290  45.1776650
   5.0853330   3.0669980  47.6903580   4.7853470   3.2127160  46.7931400
   5.8564570   2.5075270  47.5976970  10.4281780   7.8638980  45.6858710
  10.4426320   6.9319940  45.4677620   9.7206880   7.9498740  46.3248480
  15.5618850   2.0478800  31.9557320  15.4782570   2.4793020  31.1053760
  16.2813040   2.5077150  32.3884140  16.6392990   4.5046320  45.0327290
  15.9141180   5.0975100  44.8356680  17.1668450   4.4969860  44.2340660
  16.5906100   8.9021060  34.6839450  15.9482260   8.2476680  34.9583170
  16.2036760   9.3076150  33.9080120  12.1692580   6.2306490  38.5311140
  12.5216400   5.6334620  37.8712510  11.2854910   5.9050720  38.7019390
   8.2555860   6.9904180  35.9381550   8.9426990   7.5373390  36.3189140
   7.4688280   7.5344910  35.9731160   7.5583070   3.9950210  35.5506910
   8.0145850   4.8055460  35.7767100   7.2071280   3.6773350  36.3825400
   9.8615680   9.5056550  42.7799210  10.5057900   9.7115930  43.4572630
  10.2245120   8.7444950  42.3270060  11.1347760   7.5088900  41.4976660
  11.7769990   6.8082060  41.6108830  11.6597110   8.2887340  41.3173550
  14.9803480   7.7937520  31.2215800  14.7541060   7.0767960  31.8140440
  14.5899680   7.5449960  30.3837550  12.9085380   8.3083800  44.7012720
  13.2441620   8.8950490  45.3790640  11.9885720   8.1776510  44.9310510
  14.5619730   5.7109460  32.8829960  14.2741430   6.1722150  33.6707840
  15.3571900   5.2507230  33.1514180   8.7373960   8.3575130  47.8700780
   8.4170830   7.6384370  48.4146470   8.0632320   9.0330200  47.9436840
   6.7788130   9.2035580  32.8133930   6.7698230   9.9365270  32.1978440
   5.8586490   8.9567160  32.9060890   2.3794770   4.4250470  33.5580690
   1.7722720   5.1649370  33.5675990   2.8544120   4.5149830  32.7318890
   9.7647730   9.2663820  31.4759120   9.8659710   9.0627810  30.5461100
   8.8649470   9.0122100  31.6806900   8.4065840  11.7850140  36.1706790
   8.6607340  11.7471530  35.2486160   7.4578320  11.6583470  36.1635040
  14.4118420   2.7042020  37.7465300  13.4708560   2.7192250  37.9212990
  14.7262490   1.9177980  38.1925600   4.3900060   4.3861620  31.3069260
   5.1563330   4.2742980  31.8694690   4.4674750   3.6899590  30.6546030
  16.4144000   9.8750870  39.4219560  16.5391420  10.6982040  39.8943370
  17.2809560   9.6641600  39.0743710   3.8861530  11.9682080  39.0936690
   4.6224010  11.4197540  39.3645260   4.2702450  12.8338090  38.9542680
   2.8919810  11.1528150  48.2822270   3.6932540  11.4740200  48.6957670
   2.3771630  10.7923730  49.0042180   6.9963840  11.1412390  30.9162260
   7.7892450  11.4301220  30.4644050   6.4768190  10.7104560  30.2374740
  11.7284440   7.2608020  48.2297680  11.1222600   7.2839620  47.4893430
  11.4238550   6.5291060  48.7664930  13.1584810  10.9888310  46.8407090
  14.1106560  10.9046330  46.7907330  13.0113030  11.6530020  47.5140880
  16.0494010  10.3682520  32.3399000  15.7635520   9.9547660  31.5253180
  15.8513560  11.2970230  32.2199520   7.5141240   6.3615800  30.7804610
   7.4091880   5.7468150  31.5065990   7.3465460   5.8381690  29.9967620
   7.6655560   5.0472600  46.7593840   6.9001230   5.6157600  46.6748510
   7.8471520   4.7548810  45.8662070  10.7543970   5.4235830  31.3846600
  10.2054070   5.8705130  32.0289340  11.3763230   4.9185080  31.9084270
  14.8078910   6.7777930  47.3168860  15.5488380   7.1153690  46.8136320
  14.0451590   6.9469990  46.7638630   2.6440700   1.7831200  48.1208390
   2.6846040   1.4845070  49.0293620   3.4986200   2.1838810  47.9615910
   6.4219090   4.3826750  33.2811900   6.8435510   4.2166620  34.1243290
   6.5469930   3.5726980  32.7867040   8.9346730   3.4064360  30.5289000
   9.4552390   2.6913380  30.1630150   9.5815130   4.0450230  30.8289510
  13.4824570   4.8292760  45.8524070  13.8965590   4.9837840  46.7014490
  12.5475570   4.9547980  46.0149850   8.2439800   4.7813240  43.8220000
   8.6627910   5.6245970  43.6496240   7.3248430   4.9185280  43.5926780
  10.5803700   2.5129420  45.2057840  10.6999910   1.9170560  45.9452680
  11.4397700   2.5499110  44.7859140  12.9191600   3.0666610  43.7820350
  12.3926820   3.5909230  43.1785490  13.2622940   3.6994000  44.4130080
   6.0947220  11.0866250  44.9377730   5.5568310  11.8112310  44.6186430
   6.3481180  10.6096590  44.1475070   8.9509430  12.3217460  45.1964380
   8.8768130  13.2252600  45.5036750   8.0488270  12.0029360  45.1686450
   9.4994760  11.4875970  32.8190740  10.3945550  11.8260940  32.8409500
   9.5312390  10.7655380  32.1915020   3.1390920   6.8603020  31.0477740
   3.5765790   7.4032690  31.7035320   3.6238650   6.0349970  31.0574080
   4.9498640   7.9801060  36.1599970   4.6494180   7.8566030  37.0603880
   4.8436130   7.1209650  35.7515700  16.4789110  10.0179640  45.5256940
  15.8791100  10.0772200  44.7820860  16.6083010   9.0784620  45.6553790
  17.7190560   7.7597460  30.8626650  16.8883520   7.8274110  31.3333880
  17.8962390   8.6501580  30.5593510  17.1747020   4.5044940  33.3660850
  17.9365930   5.0741590  33.4720540  17.1901390   3.9372140  34.1369160
  18.1806990   5.3595040  38.2102780  18.5515820   4.5762360  37.8038750
  18.8208920   6.0484140  38.0320080  15.1640750   6.7431620  43.6233100
  14.3500590   7.1728780  43.8858890  15.5714950   7.3550030  43.0102150
  17.2266190   4.7979310  30.5233370  17.5015030   5.7058190  30.3952590
  17.0376930   4.7341840  31.4595360  17.1231530   2.7348300  35.5162800
  16.7475130   1.9676230  35.0844090  16.3934650   3.1171000  36.0037730
  16.5131150   1.8819820  45.1502320  16.2817240   1.6532570  44.2500270
  16.7735700   2.8019370  45.1047210  15.2216800  11.4950220  37.1501370
  15.8175870  11.1734790  36.4735790  15.4794950  11.0222040  37.9414640
   3.1279370   7.9268130  47.2992000   3.0849000   7.5561040  48.1806460
   3.2590380   8.8645700  47.4393820   6.8285400   9.4827720  42.9001720
   6.5876760   9.7502280  42.0132240   7.7688040   9.6533450  42.9552580
  18.0889560  11.5022100  43.7012360  17.5947840  11.8990970  42.9839490
  17.4802850  10.8771310  44.0949640   2.9667400  10.8730380  44.4189780
   2.3727720  10.7415080  45.1579820   2.9591240  10.0368520  43.9531880
  15.7729010  12.1445520  40.9799100  15.3131980  12.8961330  40.6057120
  15.1441470  11.4251990  40.9213900   2.5979630   8.2388760  43.3697820
   1.8713690   7.6194050  43.3023770   2.6588780   8.6329370  42.4995900
   6.2024730  10.4533760  40.1547230   6.7189750   9.8421120  39.6295490
   6.8522110  10.9562540  40.6458240   8.9420230  11.3442250  40.9816210
   9.2298040  11.0896550  40.1049220   9.4543450  10.7919610  41.5721780
   2.4872330  10.2496380  34.0244720   1.9619950  10.6304410  33.3206680
   2.4116910  10.8747150  34.7454430   9.0092590  12.2658350  48.3484410
   9.9359900  12.0302620  48.3920370   8.9943020  13.0930350  47.8670440
  17.2437650  11.8083920  35.3458660  17.4189840  11.1221660  34.7019580
  16.5459220  12.3330970  34.9535330   5.0865300  12.1978760  32.8993970
   5.8184120  11.9138040  32.3517860   5.3458970  11.9592040  33.7893350
   4.2480090   8.3143490  32.9040300   3.6188970   8.7828590  33.4526130
   4.3627920   7.4692710  33.3386490  15.5770150  11.4928210  48.1725450
  16.3695470  10.9977440  47.9651410  15.8703300  12.1718350  48.7801060
   9.8347850   4.1428170  20.9350770   9.0589950   3.6628610  21.2249340
  10.4860780   3.4633820  20.7606930   3.8513680   4.4547980  21.8126530
   3.0198560   4.1996690  22.2123040   4.4594660   4.5258750  22.5484450
  13.8555280   8.5488360  19.7149900  13.3936810   7.7775600  20.0437070
  14.6680830   8.5754430  20.2202350   3.8314940   8.4888070  22.0084550
   4.1342980   7.5985810  21.8294770   4.5758530   9.0458290  21.7806800
  10.0818590  10.8346370  19.3353890   9.4630030  11.2903870  18.7648330
  10.9370370  10.9897830  18.9343590   9.2756840   6.8185360  20.9420930
   9.2065120   5.8775300  20.7810060  10.0376700   6.9086770  21.5143500
  10.9481940   5.7185610  16.7285800  10.3299210   6.1835060  16.1648520
  11.4605190   6.4113090  17.1455310   5.8113700   5.2461480  23.4069400
   5.4783080   5.8730400  24.0490470   5.9880380   5.7723360  22.6271070
   5.0232800   7.2142280  25.2218580   5.6406800   7.8893360  24.9403030
   4.1625920   7.6230260  25.1306080  15.9410390   8.6781690  23.1373220
  15.2573910   9.3480800  23.1289890  16.4804680   8.8762340  22.3718080
  13.4769130  10.5225820  21.8518400  13.4896290  10.1188110  20.9840660
  12.9244350  11.2973110  21.7479830  14.7714550   7.2442040  16.9408570
  14.6610880   6.3016370  17.0657990  14.7682800   7.6057680  17.8271330
  12.8754570   5.4255660  23.1801010  13.2923360   5.2115770  22.3454470
  13.5994390   5.6828450  23.7509630  10.3134830   2.8707360  16.2971060
   9.3864110   2.8044740  16.5259530  10.4659650   3.8087490  16.1826300
  16.8216670   3.8242880  23.2717250  15.9935300   3.8935970  22.7967380
  17.4167150   4.4097190  22.8033080  14.3432120   4.4327660  16.8006310
  13.7244540   4.0947210  16.1532610  14.3256570   3.7887420  17.5085500
   5.9191470   3.3972100  19.0790790   5.5148470   2.6849350  18.5836690
   6.0054590   3.0525340  19.9678830   6.3873170   7.0839660  21.2430000
   6.0901460   6.4785130  20.5637780   7.3372990   7.1216970  21.1319360
  14.4758780  10.6571530  24.9053100  13.9989340  11.4643720  24.7125710
  13.7920570  10.0049860  25.0579310   5.4791600   6.8221350  27.8937800
   4.5820130   7.0461320  28.1411200   5.5044470   6.9456290  26.9449200
  12.5196820   3.6714470  13.8079060  12.9590100   2.8336900  13.6616880
  13.2325240   4.3043870  13.8943200   4.3062820   3.6934670  26.4695170
   4.1670590   4.5657470  26.8382570   3.4244180   3.3507480  26.3243110
  10.6292200   8.6110540  17.7760300  11.0688110   9.3534870  17.3615690
  10.5679090   8.8537110  18.6999260   6.1043170   9.6356370  28.6780320
   6.0758600  10.0399320  27.8108750   5.9408140   8.7066730  28.5151920
   2.6196100   2.2917080  16.5797440   2.4993700   3.0179170  15.9678710
   2.3096990   1.5219990  16.1025350  18.0557990  10.4183470  29.9744490
  18.5317710  10.8966360  30.6533570  18.6765150  10.3500960  29.2489990
  17.4591240   7.6096320  27.1344500  17.5854300   7.3708200  26.2161680
  17.5012620   6.7780860  27.6066580  11.3207980  11.3124320  25.7039310
  11.8352650  11.2232330  26.5061740  10.4777060  11.6584020  25.9967220
  13.2962380  11.5979660  15.1323310  13.1363520  11.3082600  16.0305140
  13.1309090  10.8219790  14.5968540   5.7750760  11.3778190  16.9094930
   5.5993240  10.4613730  16.6962730   4.9206500  11.7365480  17.1492730
  12.9988510   9.1067220  13.6921310  12.3053670   9.1044510  13.0323590
  13.7411370   8.6826540  13.2615480  12.5638440  10.7329930  17.7669800
  13.0195390   9.9519310  18.0808420  12.9030960  11.4436750  18.3110980
   6.8110790   1.9785800  13.2089620   6.2427690   1.5304050  12.5825530
   7.5199790   2.3378580  12.6754770   8.0377110   2.7274360  22.5664970
   8.4047240   2.2532930  23.3126310   7.8482170   3.6015930  22.9073310
   5.8276480   1.7683000  24.8849180   5.5233550   2.6474980  25.1099540
   6.7822940   1.8282790  24.9206620   4.3558270   5.9743990  15.4816030
   3.5820530   5.4341610  15.3214750   5.0852900   5.4550600  15.1433790
  15.1146250   4.9709350  21.2742420  15.8345370   5.4664640  20.8838530
  14.9128070   4.2927240  20.6296290  10.4965050   5.0418410  27.1611420
  10.4302360   4.1214080  26.9069010   9.8670190   5.1393850  27.8756060
   4.3995670   5.6424370  19.1194840   4.9174340   4.8392630  19.0651730
   3.9479690   5.5803510  19.9611670   9.2865170   6.9090650  14.3922140
   9.6280870   7.6532880  13.8965460   8.4577880   7.2221770  14.7546970
   1.8840210   2.6085740  26.0320540   1.5255150   3.2739590  26.6193880
   1.5894770   1.7769290  26.4033160   5.0853330   3.0669980  28.9160090
   4.7853470   3.2127160  28.0187910   5.8564570   2.5075270  28.8233480
  10.4281780   7.8638980  26.9115220  10.4426320   6.9319940  26.6934130
   9.7206880   7.9498740  27.5504990  15.5618850   2.0478800  13.1813830
  15.4782570   2.4793020  12.3310270  16.2813040   2.5077150  13.6140650
  16.6392990   4.5046320  26.2583800  15.9141180   5.0975100  26.0613190
  17.1668450   4.4969860  25.4597170  16.5906100   8.9021060  15.9095960
  15.9482260   8.2476680  16.1839680  16.2036760   9.3076150  15.1336630
  12.1692580   6.2306490  19.7567650  12.5216400   5.6334620  19.0969020
  11.2854910   5.9050720  19.9275900   8.2555860   6.9904180  17.1638060
   8.9426990   7.5373390  17.5445650   7.4688280   7.5344910  17.1987670
   7.5583070   3.9950210  16.7763420   8.0145850   4.8055460  17.0023610
   7.2071280   3.6773350  17.6081910   9.8615680   9.5056550  24.0055720
  10.5057900   9.7115930  24.6829140  10.2245120   8.7444950  23.5526570
  11.1347760   7.5088900  22.7233170  11.7769990   6.8082060  22.8365340
  11.6597110   8.2887340  22.5430060  14.9803480   7.7937520  12.4472310
  14.7541060   7.0767960  13.0396950  14.5899680   7.5449960  11.6094060
  12.9085380   8.3083800  25.9269230  13.2441620   8.8950490  26.6047150
  11.9885720   8.1776510  26.1567020  14.5619730   5.7109460  14.1086470
  14.2741430   6.1722150  14.8964350  15.3571900   5.2507230  14.3770690
   8.7373960   8.3575130  29.0957290   8.4170830   7.6384370  29.6402980
   8.0632320   9.0330200  29.1693350   6.7788130   9.2035580  14.0390440
   6.7698230   9.9365270  13.4234950   5.8586490   8.9567160  14.1317400
   2.3794770   4.4250470  14.7837200   1.7722720   5.1649370  14.7932500
   2.8544120   4.5149830  13.9575400   9.7647730   9.2663820  12.7015630
   9.8659710   9.0627810  11.7717610   8.8649470   9.0122100  12.9063410
   8.4065840  11.7850140  17.3963300   8.6607340  11.7471530  16.4742670
   7.4578320  11.6583470  17.3891550  14.4118420   2.7042020  18.9721810
  13.4708560   2.7192250  19.1469500  14.7262490   1.9177980  19.4182110
   4.3900060   4.3861620  12.5325770   5.1563330   4.2742980  13.0951200
   4.4674750   3.6899590  11.8802540  16.4144000   9.8750870  20.6476070
  16.5391420  10.6982040  21.1199880  17.2809560   9.6641600  20.3000220
   3.8861530  11.9682080  20.3193200   4.6224010  11.4197540  20.5901770
   4.2702450  12.8338090  20.1799190   2.8919810  11.1528150  29.5078780
   3.6932540  11.4740200  29.9214180   2.3771630  10.7923730  30.2298690
   6.9963840  11.1412390  12.1418770   7.7892450  11.4301220  11.6900560
   6.4768190  10.7104560  11.4631250  11.7284440   7.2608020  29.4554190
  11.1222600   7.2839620  28.7149940  11.4238550   6.5291060  29.9921440
  13.1584810  10.9888310  28.0663600  14.1106560  10.9046330  28.0163840
  13.0113030  11.6530020  28.7397390  16.0494010  10.3682520  13.5655510
  15.7635520   9.9547660  12.7509690  15.8513560  11.2970230  13.4456030
   7.5141240   6.3615800  12.0061120   7.4091880   5.7468150  12.7322500
   7.3465460   5.8381690  11.2224130   7.6655560   5.0472600  27.9850350
   6.9001230   5.6157600  27.9005020   7.8471520   4.7548810  27.0918580
  10.7543970   5.4235830  12.6103110  10.2054070   5.8705130  13.2545850
  11.3763230   4.9185080  13.1340780  14.8078910   6.7777930  28.5425370
  15.5488380   7.1153690  28.0392830  14.0451590   6.9469990  27.9895140
   2.6440700   1.7831200  29.3464900   2.6846040   1.4845070  30.2550130
   3.4986200   2.1838810  29.1872420   6.4219090   4.3826750  14.5068410
   6.8435510   4.2166620  15.3499800   6.5469930   3.5726980  14.0123550
   8.9346730   3.4064360  11.7545510   9.4552390   2.6913380  11.3886660
   9.5815130   4.0450230  12.0546020  13.4824570   4.8292760  27.0780580
  13.8965590   4.9837840  27.9271000  12.5475570   4.9547980  27.2406360
   8.2439800   4.7813240  25.0476510   8.6627910   5.6245970  24.8752750
   7.3248430   4.9185280  24.8183290  10.5803700   2.5129420  26.4314350
  10.6999910   1.9170560  27.1709190  11.4397700   2.5499110  26.0115650
  12.9191600   3.0666610  25.0076860  12.3926820   3.5909230  24.4042000
  13.2622940   3.6994000  25.6386590   6.0947220  11.0866250  26.1634240
   5.5568310  11.8112310  25.8442940   6.3481180  10.6096590  25.3731580
   8.9509430  12.3217460  26.4220890   8.8768130  13.2252600  26.7293260
   8.0488270  12.0029360  26.3942960   9.4994760  11.4875970  14.0447250
  10.3945550  11.8260940  14.0666010   9.5312390  10.7655380  13.4171530
   3.1390920   6.8603020  12.2734250   3.5765790   7.4032690  12.9291830
   3.6238650   6.0349970  12.2830590   4.9498640   7.9801060  17.3856480
   4.6494180   7.8566030  18.2860390   4.8436130   7.1209650  16.9772210
  16.4789110  10.0179640  26.7513450  15.8791100  10.0772200  26.0077370
  16.6083010   9.0784620  26.8810300  17.7190560   7.7597460  12.0883160
  16.8883520   7.8274110  12.5590390  17.8962390   8.6501580  11.7850020
  17.1747020   4.5044940  14.5917360  17.9365930   5.0741590  14.6977050
  17.1901390   3.9372140  15.3625670  18.1806990   5.3595040  19.4359290
  18.5515820   4.5762360  19.0295260  18.8208920   6.0484140  19.2576590
  15.1640750   6.7431620  24.8489610  14.3500590   7.1728780  25.1115400
  15.5714950   7.3550030  24.2358660  17.2266190   4.7979310  11.7489880
  17.5015030   5.7058190  11.6209100  17.0376930   4.7341840  12.6851870
  17.1231530   2.7348300  16.7419310  16.7475130   1.9676230  16.3100600
  16.3934650   3.1171000  17.2294240  16.5131150   1.8819820  26.3758830
  16.2817240   1.6532570  25.4756780  16.7735700   2.8019370  26.3303720
  15.2216800  11.4950220  18.3757880  15.8175870  11.1734790  17.6992300
  15.4794950  11.0222040  19.1671150   3.1279370   7.9268130  28.5248510
   3.0849000   7.5561040  29.4062970   3.2590380   8.8645700  28.6650330
   6.8285400   9.4827720  24.1258230   6.5876760   9.7502280  23.2388750
   7.7688040   9.6533450  24.1809090  18.0889560  11.5022100  24.9268870
  17.5947840  11.8990970  24.2096000  17.4802850  10.8771310  25.3206150
   2.9667400  10.8730380  25.6446290   2.3727720  10.7415080  26.3836330
   2.9591240  10.0368520  25.1788390  15.7729010  12.1445520  22.2055610
  15.3131980  12.8961330  21.8313630  15.1441470  11.4251990  22.1470410
   2.5979630   8.2388760  24.5954330   1.8713690   7.6194050  24.5280280
   2.6588780   8.6329370  23.7252410   6.2024730  10.4533760  21.3803740
   6.7189750   9.8421120  20.8552000   6.8522110  10.9562540  21.8714750
   8.9420230  11.3442250  22.2072720   9.2298040  11.0896550  21.3305730
   9.4543450  10.7919610  22.7978290   2.4872330  10.2496380  15.2501230
   1.9619950  10.6304410  14.5463190   2.4116910  10.8747150  15.9710940
   9.0092590  12.2658350  29.5740920   9.9359900  12.0302620  29.6176880
   8.9943020  13.0930350  29.0926950  17.2437650  11.8083920  16.5715170
  17.4189840  11.1221660  15.9276090  16.5459220  12.3330970  16.1791840
   5.0865300  12.1978760  14.1250480   5.8184120  11.9138040  13.5774370
   5.3458970  11.9592040  15.0149860   4.2480090   8.3143490  14.1296810
   3.6188970   8.7828590  14.6782640   4.3627920   7.4692710  14.5643000
  15.5770150  11.4928210  29.3981960  16.3695470  10.9977440  29.1907920
  15.8703300  12.1718350  30.0057570   9.8347850   4.1428170   2.1607280
   9.0589950   3.6628610   2.4505850  10.4860780   3.4633820   1.9863440
   3.8513680   4.4547980   3.0383040   3.0198560   4.1996690   3.4379550
   4.4594660   4.5258750   3.7740960   3.8314940   8.4888070   3.2341060
   4.1342980   7.5985810   3.0551280   4.5758530   9.0458290   3.0063310
   9.2756840   6.8185360   2.1677440   9.2065120   5.8775300   2.0066570
  10.0376700   6.9086770   2.7400010   5.8113700   5.2461480   4.6325910
   5.4783080   5.8730400   5.2746980   5.9880380   5.7723360   3.8527580
   5.0232800   7.2142280   6.4475090   5.6406800   7.8893360   6.1659540
   4.1625920   7.6230260   6.3562590  15.9410390   8.6781690   4.3629730
  15.2573910   9.3480800   4.3546400  16.4804680   8.8762340   3.5974590
  13.4769130  10.5225820   3.0774910  13.4896290  10.1188110   2.2097170
  12.9244350  11.2973110   2.9736340  12.8754570   5.4255660   4.4057520
  13.2923360   5.2115770   3.5710980  13.5994390   5.6828450   4.9766140
  16.8216670   3.8242880   4.4973760  15.9935300   3.8935970   4.0223890
  17.4167150   4.4097190   4.0289590   6.3873170   7.0839660   2.4686510
   6.0901460   6.4785130   1.7894290   7.3372990   7.1216970   2.3575870
  14.4758780  10.6571530   6.1309610  13.9989340  11.4643720   5.9382220
  13.7920570  10.0049860   6.2835820   5.4791600   6.8221350   9.1194310
   4.5820130   7.0461320   9.3667710   5.5044470   6.9456290   8.1705710
   4.3062820   3.6934670   7.6951680   4.1670590   4.5657470   8.0639080
   3.4244180   3.3507480   7.5499620   6.1043170   9.6356370   9.9036830
   6.0758600  10.0399320   9.0365260   5.9408140   8.7066730   9.7408430
  18.0557990  10.4183470  11.2001000  18.5317710  10.8966360  11.8790080
  18.6765150  10.3500960  10.4746500  17.4591240   7.6096320   8.3601010
  17.5854300   7.3708200   7.4418190  17.5012620   6.7780860   8.8323090
  11.3207980  11.3124320   6.9295820  11.8352650  11.2232330   7.7318250
  10.4777060  11.6584020   7.2223730   8.0377110   2.7274360   3.7921480
   8.4047240   2.2532930   4.5382820   7.8482170   3.6015930   4.1329820
   5.8276480   1.7683000   6.1105690   5.5233550   2.6474980   6.3356050
   6.7822940   1.8282790   6.1463130  15.1146250   4.9709350   2.4998930
  15.8345370   5.4664640   2.1095040  14.9128070   4.2927240   1.8552800
  10.4965050   5.0418410   8.3867930  10.4302360   4.1214080   8.1325520
   9.8670190   5.1393850   9.1012570   1.8840210   2.6085740   7.2577050
   1.5255150   3.2739590   7.8450390   1.5894770   1.7769290   7.6289670
   5.0853330   3.0669980  10.1416600   4.7853470   3.2127160   9.2444420
   5.8564570   2.5075270  10.0489990  10.4281780   7.8638980   8.1371730
  10.4426320   6.9319940   7.9190640   9.7206880   7.9498740   8.7761500
  16.6392990   4.5046320   7.4840310  15.9141180   5.0975100   7.2869700
  17.1668450   4.4969860   6.6853680   9.8615680   9.5056550   5.2312230
  10.5057900   9.7115930   5.9085650  10.2245120   8.7444950   4.7783080
  11.1347760   7.5088900   3.9489680  11.7769990   6.8082060   4.0621850
  11.6597110   8.2887340   3.7686570  12.9085380   8.3083800   7.1525740
  13.2441620   8.8950490   7.8303660  11.9885720   8.1776510   7.3823530
   8.7373960   8.3575130  10.3213800   8.4170830   7.6384370  10.8659490
   8.0632320   9.0330200  10.3949860  16.4144000   9.8750870   1.8732580
  16.5391420  10.6982040   2.3456390  17.2809560   9.6641600   1.5256730
   2.8919810  11.1528150  10.7335290   3.6932540  11.4740200  11.1470690
   2.3771630  10.7923730  11.4555200  11.7284440   7.2608020  10.6810700
  11.1222600   7.2839620   9.9406450  11.4238550   6.5291060  11.2177950
  13.1584810  10.9888310   9.2920110  14.1106560  10.9046330   9.2420350
  13.0113030  11.6530020   9.9653900   7.6655560   5.0472600   9.2106860
   6.9001230   5.6157600   9.1261530   7.8471520   4.7548810   8.3175090
  14.8078910   6.7777930   9.7681880  15.5488380   7.1153690   9.2649340
  14.0451590   6.9469990   9.2151650   2.6440700   1.7831200  10.5721410
   2.6846040   1.4845070  11.4806640   3.4986200   2.1838810  10.4128930
  13.4824570   4.8292760   8.3037090  13.8965590   4.9837840   9.1527510
  12.5475570   4.9547980   8.4662870   8.2439800   4.7813240   6.2733020
   8.6627910   5.6245970   6.1009260   7.3248430   4.9185280   6.0439800
  10.5803700   2.5129420   7.6570860  10.6999910   1.9170560   8.3965700
  11.4397700   2.5499110   7.2372160  12.9191600   3.0666610   6.2333370
  12.3926820   3.5909230   5.6298510  13.2622940   3.6994000   6.8643100
   6.0947220  11.0866250   7.3890750   5.5568310  11.8112310   7.0699450
   6.3481180  10.6096590   6.5988090   8.9509430  12.3217460   7.6477400
   8.8768130  13.2252600   7.9549770   8.0488270  12.0029360   7.6199470
  16.4789110  10.0179640   7.9769960  15.8791100  10.0772200   7.2333880
  16.6083010   9.0784620   8.1066810  15.1640750   6.7431620   6.0746120
  14.3500590   7.1728780   6.3371910  15.5714950   7.3550030   5.4615170
  16.5131150   1.8819820   7.6015340  16.2817240   1.6532570   6.7013290
  16.7735700   2.8019370   7.5560230   3.1279370   7.9268130   9.7505020
   3.0849000   7.5561040  10.6319480   3.2590380   8.8645700   9.8906840
   6.8285400   9.4827720   5.3514740   6.5876760   9.7502280   4.4645260
   7.7688040   9.6533450   5.4065600  18.0889560  11.5022100   6.1525380
  17.5947840  11.8990970   5.4352510  17.4802850  10.8771310   6.5462660
   2.9667400  10.8730380   6.8702800   2.3727720  10.7415080   7.6092840
   2.9591240  10.0368520   6.4044900  15.7729010  12.1445520   3.4312120
  15.3131980  12.8961330   3.0570140  15.1441470  11.4251990   3.3726920
   2.5979630   8.2388760   5.8210840   1.8713690   7.6194050   5.7536790
   2.6588780   8.6329370   4.9508920   6.2024730  10.4533760   2.6060250
   6.7189750   9.8421120   2.0808510   6.8522110  10.9562540   3.0971260
   8.9420230  11.3442250   3.4329230   9.2298040  11.0896550   2.5562240
   9.4543450  10.7919610   4.0234800   9.0092590  12.2658350  10.7997430
   9.9359900  12.0302620  10.8433390   8.9943020  13.0930350  10.3183460
  15.5770150  11.4928210  10.6238470  16.3695470  10.9977440  10.4164430
  15.8703300  12.1718350  11.2314080
  92.9150970 100.0948430  78.9231790  90.0000000  90.0000000  90.0000000
