default_name
 57615
  25.9999268  41.3728956  44.2207437  26.2018300  40.9873767  43.2213888
  26.8615974  41.6751841  42.6924973  25.2649177  40.8894569  42.6730221
  26.8688300  39.6303767  43.2853888  27.1198300  39.0933767  44.3723888
  27.1808300  39.0233767  42.1903888  26.9612831  39.4153922  41.2858323
  27.8238300  37.7163767  42.2393888  28.2926929  37.5718219  43.2127185
  26.7958300  36.6053767  42.0223888  26.0078509  36.7491401  42.7616589
  26.3840981  36.7407390  41.0222618  27.3608300  35.2003767  42.1513888
  28.1617400  35.0748412  41.4227703  27.7626177  35.0768791  43.1570811
  26.3168300  34.1293767  41.9123888  25.1338300  34.4253767  41.7473888
  26.7508300  32.8753767  41.8903888  26.0977061  32.1208352  41.7348327
  27.7322398  32.6813681  42.0293016  28.9268300  37.6183767  41.1923888
  28.7588300  36.9613767  40.1663888  30.0568300  38.2683767  41.4583888
  30.1541442  38.7817343  42.3227344  31.1558300  38.3083767  40.5043888
  30.9231023  37.6602284  39.6594978  31.3938300  39.7273767  39.9813888
  32.2946838  39.7427314  39.3679347  30.5403675  40.0416431  39.3806073
  31.6288300  40.9813767  41.2603888  32.4098300  37.7643767  41.1703888
  32.4848300  37.6403767  42.3933888  33.3968300  37.4363767  40.3413888
  33.2431004  37.5105335  39.3459153  34.6828300  36.9403767  40.8053888
  34.6934781  36.9358444  41.8953270  34.9528300  35.5203767  40.3083888
  34.2706149  34.8269083  40.8001034  34.7994585  35.4769615  39.2301067
  36.6388300  34.9623767  40.6443888  35.7968300  37.8613767  40.3313888
  35.7788300  38.3393767  39.1933888  36.7428300  38.1253767  41.2333888
  36.5589666  37.8671653  42.1923572  37.9768300  38.8573767  40.9353888
  38.3749159  39.2972281  41.8498053  39.0438300  37.9333767  40.3303888
  39.0457870  37.0013834  40.8956187  38.7788300  37.6353767  38.8633888
  38.7771849  38.5669122  38.2974042  39.5590794  36.9785576  38.4788129
  37.8099500  37.1466935  38.7606228  40.3298300  38.5533767  40.4453888
  40.9979671  37.9768165  40.0675376  37.7308300  40.0663767  40.0363888
  38.5788300  40.4333767  39.2193888  36.5758300  40.7093767  40.1903888
  35.8086139  40.2883786  40.6946104  36.3698300  42.0163767  39.5873888
  37.2282764  42.6526592  39.8025944  36.2078300  41.9123767  38.0773888
  36.0824306  42.9155320  37.6698919  37.1079978  41.4611423  37.6600335
  35.0828300  41.1213767  37.7383888  35.0029163  41.0714991  36.7830219
  35.1498300  42.6853767  40.2013888  34.4298300  42.0963767  41.0103888
  34.9368300  43.9373767  39.7933888  35.5487547  44.3604346  39.1102567
  33.8638300  44.7453767  40.3523888  33.7403377  44.5627526  41.4198612
  34.1528300  46.2353767  40.1183888  34.1850738  46.4260352  39.0456772
  33.0698300  47.0943767  40.7533888  33.0372927  46.9045980  41.8262476
  33.2908114  48.1471848  40.5777098  32.1042596  46.8477377  40.3118662
  35.5318300  46.6063767  40.6723888  35.4617839  46.5781223  41.7597691
  36.2323668  45.8429411  40.3339901  36.0198300  47.9653767  40.2353888
  35.3199954  48.7294285  40.5738503  37.0020004  48.1557353  40.6680596
  36.0905761  47.9942480  39.1480704  32.5388300  44.3383767  39.7283888
  32.4858300  43.8923767  38.5753888  31.4578300  44.4863767  40.4903888
  31.5604810  44.6896452  41.4743827  30.1158300  44.3093767  39.9593888
  30.0657157  44.7525328  38.9648032  29.7288300  42.8293767  39.8563888
  28.7015627  42.7457445  39.5016680  30.3963715  42.3265887  39.1566085
  29.8158300  41.8833767  41.3813888  29.1178300  45.0503767  40.8343888
  29.3968300  45.3743767  41.9913888  27.9508300  45.3243767  40.2583888
  27.8422903  45.0543873  39.2912155  26.8588300  46.0483767  40.9013888
  26.0681545  46.2328363  40.1741294  26.2728300  45.2463767  42.0693888
  25.9403774  44.2776713  41.6963146  27.0514610  45.0991563  42.8178271
  25.1778300  45.9273767  42.6553888  24.8290703  45.4064757  43.3824573
  27.2738300  47.4313767  41.3863888  26.5588300  48.0413767  42.1893888
  28.4098300  47.9433767  40.9213888  29.0140316  47.3991458  40.3223458
  28.8408300  49.2763767  41.3063888  28.6476141  49.4382991  42.3668358
  30.3398300  49.4393767  41.0523888  30.7856196  48.6369218  41.6401277
  30.4973293  49.2429409  39.9918667  30.9958300  50.7713767  41.4273888
  30.5709748  51.5528965  40.7974477  30.7678300  51.1173767  42.8823888
  31.1928506  50.3364905  43.5130020  31.2483752  52.0689523  43.1097235
  29.6977571  51.1963317  43.0742497  32.4828300  50.7083767  41.1413888
  32.6414215  50.5143848  40.0805800  32.9455086  51.6581409  41.4096753
  32.9325376  49.9072296  41.7279256  28.0438300  50.3293767  40.5413888
  27.3428300  50.0323767  39.5703888  28.1288300  51.5713767  41.0133888
  28.6101362  51.7326443  41.8865648  27.4958300  52.7063767  40.3533888
  26.9889092  52.3763245  39.4466385  26.4598300  53.3473767  41.2893888
  25.6262359  52.6487859  41.3614374  26.9281999  53.4554821  42.2676745
  25.9508300  54.6923767  40.8233888  26.5718300  55.8663767  41.2253888
  27.4372467  55.8031343  41.8850506  26.1128300  57.0983767  40.8053888
  26.6121220  58.0123703  41.1269865  25.0158300  57.1683767  39.9763888
  24.5568300  58.3963767  39.5573888  25.0741363  59.1278285  39.9023121
  24.3788300  56.0183767  39.5643888  23.5108699  56.0735198  38.9073461
  24.8468300  54.7893767  39.9893888  24.3467142  53.8753367  39.6692088
  28.4978300  53.7543767  39.8933888  28.4898300  54.1403767  38.7203888
  29.3728300  54.2253767  40.7793888  29.3798881  53.8635261  41.7223170
  30.2998300  55.3043767  40.4443888  30.3714197  55.3988719  39.3608553
  29.8248300  56.6373767  41.0203888  28.8678632  56.8691359  40.5528404
  29.6801694  56.4938671  42.0911728  30.7898300  57.7833767  40.7903888
  31.6500099  57.6510580  41.4466533  31.1197236  57.7649491  39.7516719
  30.1658300  59.1343767  41.0763888  28.9918300  59.2253767  41.4353888
  30.9488300  60.1923767  40.9143888  30.5849814  61.1178620  41.0910029
  31.9054028  60.0677882  40.6151440  31.6888300  54.9583767  40.9613888
  31.8318300  54.4193767  42.0623888  32.7008300  55.2693767  40.1603888
  32.4926068  55.6087280  39.2321737  34.0948300  55.1163767  40.5413888
  34.1989816  55.2524253  41.6178378  34.6048300  53.7223767  40.1733888
  33.7665501  53.0803346  40.4438846  34.7419162  53.7038339  39.0922026
  35.8768300  53.2153767  40.8573888  35.7668301  53.3120452  41.9375073
  36.1118300  51.7583767  40.5013888  36.2223960  51.6609703  39.4213953
  37.0188703  51.4056153  40.9922431  35.2631864  51.1609673  40.8345650
  37.0868300  54.0513767  40.4873888  36.9226524  55.0845372  40.7935333
  37.9688260  53.6588075  40.9934261  37.2399247  54.0125080  39.4088944
  34.9258300  56.1823767  39.8403888  34.8298300  56.3643767  38.6263888
  35.7418300  56.8993767  40.6073888  35.8324486  56.7566667  41.6031405
  36.5058300  57.9733767  39.9923888  36.9794427  57.6093486  39.0806466
  35.5978300  59.1553767  39.6343888  36.2458470  59.9603538  39.2877117
  34.9570641  58.8274173  38.8158769  34.7398300  59.6553767  40.7773888
  33.9868137  58.9050935  41.0185163  35.3893973  59.8075578  41.6393646
  34.0708300  60.9783767  40.4643888  34.5818300  61.7153767  39.5943888
  33.0308300  61.2803767  41.0853888  32.6761527  62.1357797  40.8330619
  37.6218300  58.4503767  40.9053888  37.3888300  58.7533767  42.0753888
  32.7605660  60.6071692  41.7140604  34.0982446  62.5353904  39.4675196
  35.3684592  61.3361191  39.1965255  38.8268300  58.5333767  40.3513888
  39.0325661  58.0325309  39.4987896  39.8888300  59.3123767  40.9663888
  39.9048751  59.1280362  42.0405677  41.2458300  58.9273767  40.3853888
  41.2492299  57.8554237  40.1878935  41.3944049  59.4688920  39.4511582
  42.3908300  59.2503767  41.3183888  42.2848300  60.1403767  42.1593888
  43.4948300  58.5293767  41.1743888  44.2899656  58.7040785  41.7721667
  43.5352453  57.8089920  40.4676263  39.5948300  60.7873767  40.7243888
  38.5858300  61.1283767  40.0993888  40.4648300  61.6653767  41.2183888
  41.2786743  61.3633956  41.7346872  40.2388300  63.0953767  41.0603888
  40.0504429  63.3232880  40.0112625  39.0298300  63.5483767  41.8843888
  38.3207279  62.7209990  41.8575640  39.3674686  63.7037601  42.9090625
  38.3578300  64.8033767  41.3803888  38.9928300  66.0343767  41.4533888
  39.9954057  66.0844720  41.8781614  38.3768300  67.1843767  40.9993888
  38.8898446  68.1444476  41.0557952  37.1048300  67.1123767  40.4723888
  36.4858300  68.2533767  40.0213888  37.0284244  69.0390017  40.1213100
  36.4508300  65.9023767  40.3953888  35.4454918  65.8449496  39.9781385
  37.0758300  64.7583767  40.8503888  36.5620195  63.7985720  40.7967817
  41.4838300  63.8553767  41.4873888  42.1198300  63.4993767  42.4833888
  41.8198300  64.8983767  40.7353888  41.3099332  65.0742613  39.8814747
  42.9368300  65.7763767  41.0673888  42.7326497  66.2837042  42.0102718
  44.2388300  64.9833767  41.2103888  45.0876197  65.6653902  41.1602605
  44.2458455  64.4652771  42.1693589  44.5198300  63.7093767  39.9693888
  43.0988300  66.8583767  40.0073888  43.0468300  66.5763767  38.8093888
  43.2918300  68.0813767  40.3683888  43.3396638  68.3464079  41.3418207
  43.4468300  69.1193767  39.3633888  43.3713595  68.6778729  38.3696689
  42.6635896  69.8669977  39.4886802  44.4219750  69.5929940  39.4768738
  30.1376851  24.5628637  46.7894000  29.9498300  24.7823767  45.7383888
  29.1848102  25.5547468  45.6590951  29.6071409  23.8791112  45.2336368
  31.2058300  25.2733767  45.0513888  32.2718300  25.3843767  45.6723888
  31.1658300  25.5813767  43.7993888  30.3235671  25.4708142  43.2530660
  32.3688300  26.0553767  43.1263888  33.0768978  26.4384246  43.8612449
  33.0338300  24.9153767  42.3553888  32.9481618  23.9882502  42.9221309
  32.5612738  24.7900689  41.3811769  34.4928300  25.1273767  42.0993888
  35.0548300  26.3803767  41.9753888  34.5419692  27.2478435  42.0430274
  36.3518300  26.2603767  41.7573888  36.9778755  27.1434143  41.6292852
  36.6528300  24.9743767  41.7373888  37.5713995  24.5810898  41.5902318
  35.5088300  24.2453767  41.9503888  35.5525086  23.1564580  41.9715875
  32.0208300  27.2033767  42.1883888  31.2068300  27.0453767  41.2793888
  32.6348300  28.3633767  42.4213888  33.2676901  28.4516869  43.2035580
  32.3738300  29.5443767  41.6063888  31.6320800  29.3114392  40.8424213
  31.8378300  30.6823767  42.4773888  30.9269867  30.2693919  42.9108715
  32.5649070  30.8665493  43.2682993  31.5128300  31.9993767  41.7663888
  31.2323111  31.7868933  40.7347586  30.3668300  32.7093767  42.4663888
  30.6467988  32.9226204  43.4980105  30.1475771  33.6436056  41.9494311
  29.4826098  32.0721018  42.4547382  32.7288300  32.9083767  41.7003888
  33.5277815  32.4081279  41.1530982  32.4637496  33.8341824  41.1897838
  33.0684088  33.1357516  42.7108767  33.6338300  29.9813767  40.8703888
  33.6008300  30.2103767  39.6573888  34.7458300  30.1003767  41.5923888
  34.7237298  29.8948869  42.5810166  35.9948300  30.5693767  41.0133888
  35.9493529  30.4688668  39.9289863  36.2568300  32.0393767  41.3583888
  35.3576339  32.4772535  41.7917588  37.0743675  32.1044824  42.0763677
  36.7078300  33.0603767  39.9393888  37.1388300  29.6963767  41.5083888
  37.0428300  29.0383767  42.5473888  38.2308300  29.7093767  40.7523888
  38.2801891  30.3484801  39.9718698  39.3608300  28.8413767  41.0003888
  38.9853740  27.9072673  41.4182064  39.8503600  28.6416281  40.0472046
  40.3708300  29.4383767  41.9573888  40.0538300  30.2833767  42.7973888
  41.6118300  28.9843767  41.8183888  41.8187894  28.3357650  41.0723526
  42.6818300  29.3473767  42.7323888  42.2728073  29.8803312  43.5907355
  43.3978300  28.0923767  43.2323888  43.8850385  27.6085516  42.3858426
  44.1502312  28.3883596  43.9634062  42.4868300  27.1883767  43.8323888
  42.9609919  26.4111624  44.1368688  43.6798300  30.2893767  42.0633888
  43.6748300  30.4903767  40.8463888  44.5468300  30.8723767  42.8883888
  44.4193625  30.7402328  43.8815601  45.6218300  31.7533767  42.4393888
  46.1543289  32.1498908  43.3038659  46.6178300  30.9953767  41.5563888
  46.7019324  29.9601154  41.8869338  46.2873037  31.0189730  40.5179786
  48.0008300  31.5653767  41.5783888  49.1278300  30.7893767  41.4183888
  49.1200600  29.7897215  41.2744136  50.2018300  31.5563767  41.4833888
  51.1982073  31.1270177  41.3785933  49.8118300  32.8023767  41.6803888
  50.4155047  33.6070656  41.7706794  48.4398300  32.8353767  41.7443888
  47.9243255  33.7823259  41.9045253  45.0938300  32.9783767  41.7033888
  45.7778300  33.5283767  40.8343888  43.8828300  33.4153767  42.0313888
  43.3089174  32.9029884  42.6857448  43.3338300  34.6183767  41.4283888
  43.4802720  34.5911295  40.3486150  41.8378300  34.7223767  41.7153888
  41.7901922  35.0166379  42.7638354  41.4135557  35.5133233  41.0969271
  41.0408300  33.4333767  41.5113888  41.3455522  32.7046737  42.2625459
  39.5558300  33.7033767  41.6433888  39.2502531  34.4316931  40.8922052
  39.0028060  32.7758050  41.4954836  39.3445706  34.0971532  42.6375769
  41.3588300  32.8143767  40.1683888  42.4225599  32.5820084  40.1175660
  40.7810426  31.8985351  40.0439010  41.1023703  33.5158902  39.3745335
  44.0528300  35.8533767  41.9563888  44.4418300  35.9233767  43.1243888
  44.2278300  36.8363767  41.0773888  43.8915587  36.7182967  40.1323607
  44.9358300  38.0663767  41.4103888  44.9716568  38.2258997  42.4880566
  46.3778300  38.0583767  40.8653888  46.3486027  37.9093712  39.7860175
  47.0708300  39.3763767  41.1763888  47.1008543  39.5258693  42.2556716
  48.0878056  39.3540121  40.7847757  46.5210920  40.1949852  40.7118783
  47.1588300  36.8913767  41.4463888  46.6716874  35.9554165  41.1729427
  48.1746376  36.9006525  41.0512324  47.1911387  36.9798270  42.5323140
  44.1598300  39.2493767  40.8513888  43.6538300  39.2003767  39.7263888
  44.0648300  40.3093767  41.6463888  44.3786134  40.2239511  42.6026010
  43.5018300  41.5793767  41.2163888  43.5598692  41.6496279  40.1302049
  42.0378300  41.7153767  41.6373888  41.5057889  40.8510896  41.2398471
  42.0111425  41.6883135  42.7267259  41.3718300  42.9893767  41.1463888
  41.9465769  43.8473841  41.4950864  41.3739951  42.9699212  40.0565649
  39.9338300  43.1103767  41.6023888  39.5578300  42.4123767  42.5653888
  39.1798300  43.9013767  40.9983888  38.2856207  43.9100778  41.3469475
  44.3218300  42.7093767  41.8183888  44.9038300  42.5593767  42.8963888
  39.6200464  44.3673920  40.2838832  38.6317184  42.5432960  42.7834492
  40.2581562  41.8659652  42.9285621  44.3678300  43.8393767  41.1193888
  43.8962770  43.8879116  40.2275472  45.1138300  45.0043767  41.5693888
  45.0076870  45.1173149  42.6483132  46.5998300  44.8663767  41.2363888
  46.7229425  44.7615804  40.1584458  47.1331529  45.7535171  41.5779275
  47.0041819  43.9855206  41.7350784  44.5398300  46.2543767  40.9223888
  44.7518300  46.4933767  39.7303888  43.8278300  47.0503767  41.7113888
  43.6808455  46.7766326  42.6724086  43.2098300  48.2823767  41.2423888
  43.2906203  48.3444210  40.1571595  41.7298300  48.3233767  41.6253888
  41.2659706  47.6172845  40.9366454  41.6375530  47.9494443  42.6450748
  41.0298300  49.6773767  41.5143888  41.4004060  50.3321394  42.3030966
  41.2988300  50.3063767  40.1723888  40.9280904  49.6523621  39.3831385
  40.7916367  51.2693985  40.1136959  42.3716953  50.4531754  40.0478476
  39.5378300  49.5153767  41.7423888  39.3642414  49.1044195  42.7369141
  39.0497323  50.4865695  41.6608625  39.1266544  48.8386502  40.9933395
  43.9508300  49.4713767  41.8343888  44.0618300  49.5933767  43.0583888
  44.4538300  50.3433767  40.9643888  44.3100798  50.1801527  39.9780860
  45.2278300  51.5093767  41.3653888  45.3824216  51.4904523  42.4442041
  46.5928300  51.5263767  40.6763888  46.4201746  51.5033946  39.6003957
  47.0520980  52.4762933  40.9499421  47.5128300  50.3933767  41.0623888
  47.2328300  49.0903767  40.6863888  46.3296688  48.8910409  40.1096179
  48.0738300  48.0543767  41.0293888  47.8368465  47.0328934  40.7318782
  49.2168300  48.3133767  41.7483888  50.0588300  47.2813767  42.0903888
  49.7520378  46.4274009  41.7770143  49.5218300  49.6013767  42.1293888
  50.4262723  49.8086651  42.7013294  48.6738300  50.6323767  41.7823888
  48.9115582  51.6552888  42.0743411  44.4658300  52.7793767  41.0173888
  44.0768300  52.9803767  39.8623888  44.2598300  53.6293767  42.0173888
  44.4706079  53.3195975  42.9553167  43.7268300  54.9723767  41.8373888
  43.5081955  55.1371227  40.7823263  42.4408300  55.1703767  42.6393888
  42.6840401  54.6830587  43.5835653  42.3346807  56.2430143  42.8015030
  41.1268300  54.6043767  42.0973888  40.4476752  54.4217842  42.9301610
  40.4908300  55.5813767  41.1333888  41.1692503  55.7641214  40.3000526
  39.5569018  55.1646630  40.7562568  40.2874127  56.5203320  41.6482526
  41.3338300  53.2643767  41.4313888  41.7411290  52.5577284  42.1544760
  40.3796824  52.8922533  41.0582563  42.0302529  53.3748921  40.6001966
  44.7968300  55.9523767  42.2953888  44.8498300  56.3063767  43.4773888
  45.6438300  56.3903767  41.3653888  45.4814723  56.1905984  40.3887476
  46.8588300  57.1093767  41.7313888  46.8997769  57.3221386  42.7996373
  48.1128300  56.3053767  41.3413888  48.1390938  56.1918578  40.2576347
  49.3708300  57.0243767  41.8063888  49.3455034  57.1378620  42.8901695
  50.2481022  56.4428995  41.5228782  49.4212422  58.0081074  41.3396616
  48.0558300  54.9003767  41.9183888  47.1754678  54.3848580  41.5345854
  48.9522755  54.3517370  41.6294605  47.9988082  54.9555253  43.0054987
  46.8958300  58.4873767  41.0873888  47.3358300  58.6403767  39.9423888
  46.4398300  59.4983767  41.8203888  45.8542012  59.3311680  42.6261055
  46.7408300  60.8753767  41.4603888  46.7637720  60.9760614  40.3752918
  45.6778300  61.8193767  42.0153888  45.3330006  61.4512230  42.9816469
  46.1036504  62.8152977  42.1375297  44.2028300  61.9843767  40.9893888
  48.1138300  61.2473767  42.0003888  48.2468300  61.7473767  43.1203888
  49.1398300  61.0013767  41.1923888  48.9667109  60.7673708  40.2252433
  50.5098300  61.0563767  41.6493888  50.6026385  60.4081620  42.5207690
  51.1491098  60.6827310  40.8495079  50.9568300  62.4553767  42.0253888
  50.1648300  63.3473767  42.3303888  52.2768300  62.6363767  41.9943888
  52.8661563  61.8846411  41.6662311  52.9148300  63.8583767  42.4673888
  52.7564758  63.9727148  43.5397460  54.4188300  63.7973767  42.1993888
  54.5504397  63.6982813  41.1219111  54.8440068  64.7445832  42.5312390
  55.1248300  62.6523767  42.9023888  54.8870992  62.6876690  43.9655630
  54.7532878  61.7195258  42.4783076  56.6278300  62.6823767  42.7063888
  57.1498300  63.7233767  42.2583888  57.2868300  61.6633767  43.0003888
  58.2277076  61.7636170  42.8395150  52.3228300  65.1023767  41.8203888
  52.1218300  65.1453767  40.6023888  56.7416744  60.9481656  43.3361826
  58.1022505  63.6512059  42.1580924  56.5124893  64.4217114  42.0939419
  52.0368300  66.1173767  42.6323888  52.1462404  65.9829214  43.6274016
  51.5398300  67.4033767  42.1593888  51.7294930  67.4925272  41.0897256
  50.0378300  67.5443767  42.4023888  49.8747320  67.4214075  43.4730787
  49.7602411  68.5561880  42.1069529  49.1848300  66.5433767  41.6423888
  49.4660331  66.5780167  40.5898558  49.3842631  65.5477262  42.0386317
  47.7038300  66.8563767  41.7813888  47.1337577  66.1485239  41.1796737
  47.4169264  66.7562912  42.8281785  47.3868300  68.2083767  41.3373888
  48.1425849  68.7481532  40.9404314  46.1868300  68.7653767  41.4193888
  45.1538300  68.1143767  41.9283888  45.2724264  67.1696447  42.2653105
  44.2513162  68.5650803  41.9777324  46.0178300  70.0093767  40.9803888
  46.8006916  70.5149490  40.5909989  45.1074049  70.4428027  41.0384136
  52.2988300  68.5063767  42.8803888  52.8108300  68.2913767  43.9843888
  52.3768300  69.6683767  42.2623888  51.9950523  69.7731577  41.3332138
  53.0018300  70.8183767  42.8813888  52.3860485  71.7005862  42.7064063
  53.0917646  70.6455988  43.9538434  54.3858300  71.0583767  42.3013888
  54.6418300  70.7603767  41.1363888  55.2598300  71.5963767  43.1483888
  54.9749419  71.7311117  44.1079640  56.5938300  72.0313767  42.7563888
  56.6967872  71.9602685  41.6735949  56.8448300  73.4813767  43.1773888
  56.7913526  73.5865146  44.2609871  57.8334448  73.7836556  42.8318916
  55.8668300  74.4683767  42.6003888  54.5238300  74.4133767  42.9293888
  54.1766031  73.6379811  43.6122467  53.6278300  75.3233767  42.4053888
  52.5712380  75.2620174  42.6660593  54.0698300  76.3083767  41.5533888
  53.3656179  77.0305269  41.1402491  55.4048300  76.3813767  41.2223888
  55.7575269  77.1598040  40.5458121  56.2968300  75.4673767  41.7483888
  57.3545959  75.5288649  41.4925560  57.6158300  71.1083767  43.4013888
  57.5838300  70.8953767  44.6173888  58.5168300  70.5613767  42.5883888
  58.4718393  70.7709540  41.6013971  59.5448300  69.6403767  43.0523888
  59.5871656  69.6609136  44.1413723  59.2458300  68.2083767  42.6013888
  59.2504094  68.1444716  41.5132737  59.9931400  67.5269819  43.0079952
  57.9098300  67.7003767  43.0553888  56.7458300  68.1793767  42.4843888
  56.8123253  68.9304542  41.6972669  55.5178300  67.7223767  42.8953888
  54.6087061  68.1125652  42.4378437  55.4358300  66.7713767  43.8853888
  54.4621413  66.4084084  44.2144545  56.5858300  66.2773767  44.4613888
  56.5244760  65.5206510  45.2435026  57.8168300  66.7423767  44.0463888
  58.7279003  66.3536658  44.5013113  60.8928300  70.0923767  42.5173888
  61.0448300  70.3003767  41.3093888  61.8708300  70.2273767  43.4133888
  61.6831444  70.0095521  44.3815963  63.1898300  70.7383767  43.0633888
  63.2615431  70.8580686  41.9823567  63.4388300  72.0943767  43.7223888
  63.5536497  71.9245040  44.7929302  64.3759376  72.4707702  43.3121971
  62.3438300  73.1083767  43.4883888  61.1578300  73.0523767  44.2003888
  61.0244256  72.2575157  44.9342135  60.1578300  73.9753767  43.9963888
  59.2284568  73.9144785  44.5626562  60.3358300  74.9783767  43.0733888
  59.3398300  75.9033767  42.8673888  58.5687675  75.7535471  43.4193068
  61.5038300  75.0603767  42.3553888  61.6454998  75.8545643  41.6223839
  62.5018300  74.1293767  42.5663888  63.4327121  74.1910399  42.0026900
  64.2818300  69.7513767  43.4573888  65.3448300  70.1533767  43.9383888
  64.0338300  68.4613767  43.2613888  63.1352331  68.1719274  42.9024428
  65.0128300  67.4313767  43.5853888  65.2074692  67.4258674  44.6578553
  64.5168300  66.0353767  43.1683888  64.3936844  66.0131228  42.0855960
  65.5138300  64.9643767  43.5873888  65.6371553  64.9857119  44.6701793
  65.1447479  63.9848228  43.2834945  66.4745988  65.1545165  43.1089844
  63.2488300  65.7713767  43.7803888  62.9422713  64.9001795  43.5184010
  66.3468300  67.7113767  42.9013888  66.3898300  68.0483767  41.7183888
  67.4438300  67.5933767  43.5703888  67.4456705  67.3183780  44.5422281
  68.7188300  67.8583767  42.9273888  68.5504414  68.1415557  41.8883721
  69.2265488  68.6708742  43.4471676  69.3377637  66.9618685  42.9633623
  26.0492199  39.2187429  44.1499468  26.1658300  38.6943767  45.0983888
  26.1627584  37.6187127  44.9222189  25.3417856  38.9556444  45.7623083
  27.4678300  39.0703767  45.7723888  28.2468300  39.8773767  45.2493888
  27.7698300  38.5423767  46.9103888  27.5819244  39.0169978  47.7818965
  28.4418300  37.2493767  46.9583888  28.9149276  37.1148017  47.9311002
  27.4378300  36.1163767  46.7423888  26.6478419  36.2431905  47.4826160
  27.0221421  36.2431965  45.7427787  28.0328300  34.7233767  46.8703888
  28.8355358  34.6142674  46.1411019  28.4381155  34.6093657  47.8757977
  27.0118300  33.6303767  46.6333888  25.8218300  33.9013767  46.4703888
  27.4728300  32.3863767  46.6093888  26.8358564  31.6179166  46.4550022
  28.4585844  32.2136577  46.7456156  29.5438300  37.1763767  45.9093888
  29.3888300  36.5153767  44.8833888  30.6598300  37.8493767  46.1733888
  30.7475767  38.3639375  47.0380430  31.7568300  37.9133767  45.2173888
  31.5370287  37.2610036  44.3722877  31.9628300  39.3373767  44.6953888
  32.8619373  39.3728861  44.0802105  31.1015602  39.6335392  44.0965547
  32.1738300  40.5963767  45.9743888  33.0228300  37.3963767  45.8813888
  33.1038300  37.2743767  47.1043888  34.0158300  37.0903767  45.0513888
  33.8586101  37.1619387  44.0562706  35.3128300  36.6223767  45.5123888
  35.3257029  36.6171592  46.6022999  35.6128300  35.2083767  45.0133888
  34.9463465  34.4998965  45.5052777  35.4590242  35.1627261  43.9352608
  37.3108300  34.6873767  45.3463888  36.4058300  37.5673767  45.0373888
  36.3758300  38.0453767  43.8993888  37.3478300  37.8503767  45.9373888
  37.1719663  37.5866905  46.8963679  38.5658300  38.6093767  45.6373888
  38.9567465  39.0577627  46.5507526  39.6508300  37.7093767  45.0293888
  39.6741278  36.7774273  45.5942142  39.3898300  37.4063767  43.5633888
  39.3668526  38.3378755  42.9978079  40.1835066  36.7668685  43.1771172
  38.4316447  36.8967335  43.4621698  40.9238300  38.3563767  45.1433888
  41.6034065  37.7946830  44.7635517  38.2918300  39.8133767  44.7393888
  39.1298300  40.1993767  43.9203888  37.1228300  40.4313767  44.8953888
  36.3658169  39.9929357  45.4001660  36.8868300  41.7343767  44.2933888
  37.7312273  42.3896713  44.5071205  36.7248300  41.6263767  42.7833888
  36.5772519  42.6264587  42.3757664  37.6338809  41.1944846  42.3648251
  35.6168300  40.8113767  42.4463888  35.5365826  40.7594602  41.4911585
  35.6548300  42.3763767  44.9093888  34.9488300  41.7713767  45.7193888
  35.4138300  43.6233767  44.5023888  36.0143044  44.0592546  43.8171587
  34.3248300  44.4083767  45.0643888  34.2093841  44.2232901  46.1323375
  34.5818300  45.9033767  44.8293888  34.6072059  46.0949548  43.7566566
  33.4818300  46.7383767  45.4673888  33.4561417  46.5476717  46.5402692
  33.6792884  47.7958093  45.2914703  32.5207815  46.4707824  45.0282096
  35.9528300  46.3043767  45.3813888  35.8850636  46.2741882  46.4688616
  36.6695491  45.5567248  45.0416391  36.4098300  47.6733767  44.9443888
  35.6937994  48.4216602  45.2842004  37.3882066  47.8852283  45.3756627
  36.4782827  47.7041973  43.8569771  33.0078300  43.9723767  44.4413888
  32.9628300  43.5253767  43.2883888  31.9248300  44.0973767  45.2063888
  32.0243274  44.3032134  46.1901727  30.5868300  43.8913767  44.6773888
  30.5261027  44.3336848  43.6830171  30.2308300  42.4033767  44.5743888
  29.2046482  42.2982983  44.2222399  30.9070325  41.9152110  43.8725737
  30.3418300  41.4593767  46.0983888  29.5738300  44.6103767  45.5543888
  29.8478300  44.9403767  46.7103888  28.3998300  44.8593767  44.9793888
  28.2952903  44.5884120  44.0120476  27.2938300  45.5583767  45.6253888
  26.4978765  45.7255543  44.8997105  26.7278300  44.7443767  46.7943888
  26.4161740  43.7684501  46.4221831  27.5108981  44.6146207  47.5414281
  25.6188300  45.4013767  47.3823888  25.2830006  44.8731188  48.1102363
  27.6798300  46.9503767  46.1103888  26.9528300  47.5453767  46.9143888
  28.8038300  47.4873767  45.6433888  29.4181123  46.9568775  45.0422838
  29.2068300  48.8293767  46.0283888  29.0124802  48.9865894  47.0893372
  30.7008300  49.0243767  45.7713888  31.1650813  48.2313567  46.3576389
  30.8599635  48.8318666  44.7103910  31.3288300  50.3693767  46.1453888
  30.8861913  51.1414751  45.5160749  31.0968300  50.7113767  47.6013888
  31.5396222  49.9399156  48.2313742  31.5577729  51.6729614  47.8271923
  30.0257748  50.7679037  47.7956717  32.8168300  50.3393767  45.8573888
  32.9783027  50.1492695  44.7963114  33.2587268  51.2990631  46.1254006
  33.2849126  49.5481952  46.4430760  28.3858300  49.8643767  45.2643888
  27.6898300  49.5533767  44.2953888  28.4448300  51.1083767  45.7373888
  28.9236699  51.2799052  46.6099652  27.7868300  52.2293767  45.0783888
  27.2856912  51.8889663  44.1722542  26.7378300  52.8473767  46.0173888
  25.9195886  52.1307923  46.0887127  27.2035747  52.9648280  46.9958503
  26.1998300  54.1813767  45.5523888  26.7958300  55.3683767  45.9543888
  27.6630869  55.3235976  46.6131449  26.3098300  56.5903767  45.5353888
  26.7906280  57.5146226  45.8558645  25.2098300  56.6373767  44.7073888
  24.7238300  57.8543767  44.2903888  25.2254155  58.5967160  44.6352714
  24.5968300  55.4733767  44.2963888  23.7266988  55.5096928  43.6409093
  25.0918300  54.2553767  44.7203888  24.6108099  53.3307262  44.4014196
  28.7638300  53.2993767  44.6173888  28.7458300  53.6853767  43.4453888
  29.6308300  53.7883767  45.5023888  29.6474039  53.4261814  46.4450654
  30.5338300  54.8873767  45.1663888  30.6018589  54.9837257  44.0827892
  30.0308300  56.2093767  45.7433888  29.0684618  56.4205336  45.2771704
  29.8907207  56.0624866  46.8143195  30.9708300  57.3763767  45.5123888
  31.8347509  57.2629640  46.1672773  31.2993881  57.3651514  44.4731460
  30.3178300  58.7133767  45.7993888  29.1428300  58.7783767  46.1603888
  31.0778300  59.7883767  45.6363888  30.6943158  60.7057837  45.8135403
  32.0364783  59.6844816  45.3358882  31.9298300  54.5713767  45.6803888
  32.0878300  54.0343767  46.7813888  32.9348300  54.9043767  44.8773888
  32.7181258  55.2392939  43.9495046  34.3318300  54.7813767  45.2563888
  34.4345068  54.9192859  46.3327427  34.8708300  53.3993767  44.8873888
  34.0467615  52.7400488  45.1599639  35.0053912  53.3838701  43.8058376
  36.1558300  52.9183767  45.5683888  36.0459412  53.0120288  46.6487843
  36.4218300  51.4683767  45.2113888  36.5323012  51.3739994  44.1311167
  37.3374063  51.1353755  45.7001943  35.5872046  50.8522815  45.5459445
  37.3468300  53.7813767  45.1963888  37.1609363  54.8103068  45.5043593
  38.2384460  53.4074670  45.6996915  37.4980216  53.7472780  44.1174646
  35.1388300  55.8653767  44.5543888  35.0358300  56.0463767  43.3403888
  35.9408300  56.5993767  45.3203888  36.0371397  56.4579569  46.3157903
  36.6798300  57.6893767  44.7043888  37.1592570  57.3357211  43.7916037
  35.7458300  58.8523767  44.3483888  36.3761361  59.6711421  44.0013490
  35.1112656  58.5111875  43.5304536  34.8788300  59.3333767  45.4923888
  34.1422799  58.5672666  45.7346079  35.5266681  59.4988998  46.3532064
  34.1818300  60.6413767  45.1813888  34.6748300  61.3893767  44.3113888
  33.1358300  60.9203767  45.8043888  32.7624398  61.7681812  45.5534179
  37.7868300  58.1903767  45.6163888  37.5498300  58.4883767  46.7863888
  32.8809928  60.2408553  46.4327100  34.1734857  62.1989028  44.1861117
  35.4686091  61.0273823  43.9116490  38.9888300  58.2993767  45.0593888
  39.2039200  57.8042262  44.2057720  40.0348300  59.1013767  45.6733888
  40.0569600  58.9170953  46.7474697  41.3988300  58.7453767  45.0893888
  41.4254324  57.6737571  44.8918464  41.5339513  59.2900253  44.1549370
  42.5378300  59.0933767  46.0203888  42.4138300  59.9803767  46.8613888
  43.6568300  58.3963767  45.8743888  44.4491002  58.5882242  46.4707127
  43.7114891  57.6769944  45.1675633  39.7088300  60.5693767  45.4313888
  38.6918300  60.8883767  44.8083888  40.5598300  61.4653767  45.9243888
  41.3803571  61.1800738  46.4395944  40.3038300  62.8913767  45.7673888
  40.1084904  63.1163263  44.7188949  39.0868300  63.3173767  46.5943888
  38.3959341  62.4746862  46.5691926  39.4232706  63.4802166  47.6182984
  38.3858300  64.5583767  46.0913888  38.9948300  65.8023767  46.1633888
  39.9972033  65.8743048  46.5854947  38.3528300  66.9383767  45.7113888
  38.8451718  67.9092216  45.7676170  37.0818300  66.8393767  45.1863888
  36.4368300  67.9673767  44.7363888  36.9622670  68.7646701  44.8355797
  36.4538300  65.6153767  45.1103888  35.4492331  65.5357289  44.6950073
  37.1048300  64.4853767  45.5643888  36.6121117  63.5145045  45.5120823
  41.5328300  63.6773767  46.1923888  42.1768300  63.3353767  47.1873888
  41.8438300  64.7283767  45.4403888  41.3283683  64.8948253  44.5879256
  42.9428300  65.6293767  45.7713888  42.7291266  66.1312114  46.7151006
  44.2618300  64.8653767  45.9113888  45.0953594  65.5657705  45.8586959
  44.2826578  64.3481190  46.8706128  44.5678300  63.5973767  44.6693888
  43.0788300  66.7153767  44.7113888  43.0308300  66.4333767  43.5133888
  43.2468300  67.9423767  45.0723888  43.2917826  68.2082137  46.0457383
  43.3768300  68.9833767  44.0673888  43.3079433  68.5405223  43.0737916
  42.5782232  69.7141479  44.1950650  44.3419985  69.4776125  44.1782074
  31.0464631  24.1475360  51.4987211  30.8518300  24.3643767  50.4483888
  30.0706665  25.1206831  50.3716907  30.5270253  23.4547711  49.9431971
  32.0958300  24.8823767  49.7593888  33.1598300  25.0143767  50.3793888
  32.0478300  25.1893767  48.5073888  31.2073539  25.0612218  47.9621590
  33.2388300  25.6883767  47.8333888  33.9396343  26.0857113  48.5676216
  33.9268300  24.5633767  47.0603888  33.8626515  23.6347735  47.6275541
  33.4552440  24.4274076  46.0871369  35.3808300  24.8073767  46.8013888
  35.9148300  26.0723767  46.6773888  35.3836443  26.9285926  46.7469289
  37.2138300  25.9803767  46.4563888  37.8200962  26.8768286  46.3263346
  37.5428300  24.7013767  46.4363888  38.4696653  24.3282167  46.2886466
  36.4148300  23.9473767  46.6503888  36.4821015  22.8596420  46.6706099
  32.8638300  26.8293767  46.8963888  32.0528300  26.6543767  45.9883888
  33.4528300  28.0023767  47.1283888  34.0847789  28.1038675  47.9096951
  33.1658300  29.1773767  46.3143888  32.4279665  28.9291062  45.5514875
  32.6068300  30.3043767  47.1873888  31.7062915  29.8721253  47.6236094
  33.3321047  30.5042565  47.9761376  32.2518300  31.6133767  46.4773888
  31.9737336  31.3946216  45.4464138  31.0928300  32.2983767  47.1793888
  31.3703600  32.5178800  48.2103564  30.8523716  33.2275245  46.6627023
  30.2225321  31.6421833  47.1697886  33.4478300  32.5493767  46.4093888
  34.2566986  32.0669219  45.8606919  33.1615090  33.4691374  45.8993281
  33.7840237  32.7841286  47.4193216  34.4138300  29.6423767  45.5763888
  34.3748300  29.8703767  44.3633888  35.5248300  29.7843767  46.2963888
  35.5090153  29.5772949  47.2848049  36.7628300  30.2803767  45.7153888
  36.7180862  30.1791771  44.6310199  36.9928300  31.7553767  46.0603888
  36.0849077  32.1731553  46.4954030  37.8099264  31.8382972  46.7770321
  37.4188300  32.7863767  44.6403888  37.9258300  29.4333767  46.2083888
  37.8458300  28.7723767  47.2463888  39.0158300  29.4693767  45.4503888
  39.0496867  30.1091631  44.6696030  40.1658300  28.6253767  45.6963888
  39.8119021  27.6831133  46.1146876  40.6584236  28.4366108  44.7425448
  41.1628300  29.2443767  46.6513888  40.8298300  30.0823767  47.4923888
  42.4138300  28.8173767  46.5093888  42.6340489  28.1750387  45.7617225
  43.4768300  29.2023767  47.4223888  43.0572144  29.7255044  48.2816672
  44.2208300  27.9633767  47.9203888  44.7170945  27.4907550  47.0727748
  44.9677929  28.2753706  48.6503246  43.3308300  27.0393767  48.5213888
  43.8223813  26.2725629  48.8246603  44.4538300  30.1663767  46.7513888
  44.4428300  30.3673767  45.5353888  45.3098300  30.7683767  47.5753888
  45.1868915  30.6327560  48.5686624  46.3648300  31.6723767  47.1253888
  46.8905168  32.0796685  47.9890241  47.3748300  30.9353767  46.2403888
  47.4821899  29.9026502  46.5721252  47.0429036  30.9503357  45.2022649
  48.7458300  31.5363767  46.2603888  49.8888300  30.7843767  46.0973888
  49.9025640  29.7849526  45.9522591  50.9458300  31.5743767  46.1613888
  51.9513000  31.1669318  46.0559487  50.5288300  32.8113767  46.3583888
  51.1155344  33.6287260  46.4468076  49.1568300  32.8153767  46.4253888
  48.6217776  33.7512383  46.5865822  45.8088300  32.8853767  46.3903888
  46.4798300  33.4513767  45.5203888  44.5898300  33.2963767  46.7213888
  44.0295809  32.7732577  47.3790869  44.0128300  34.4873767  46.1183888
  44.1570102  34.4622274  45.0382597  42.5148300  34.5593767  46.4093888
  42.4610263  34.8530598  47.4576992  42.0725785  35.3402282  45.7906929
  41.7468300  33.2523767  46.2063888  42.0681855  32.5305245  46.9572289
  40.2568300  33.4903767  46.3403888  39.9346283  34.2118240  45.5895234
  39.7236656  32.5511070  46.1933894  40.0385350  33.8796979  47.3348116
  42.0748300  32.6413767  44.8613888  43.1434120  32.4333196  44.8071291
  41.5176596  31.7126984  44.7380237  41.8000144  33.3373812  44.0688276
  44.7058300  35.7373767  46.6463888  45.0958300  35.8153767  47.8143888
  44.8588300  36.7243767  45.7673888  44.5247076  36.5985671  44.8225959
  45.5398300  37.9693767  46.0993888  45.5732537  38.1313013  47.1767756
  46.9818300  37.9933767  45.5523888  46.9543540  37.8440006  44.4730227
  47.6458300  39.3243767  45.8623888  47.6740921  39.4742570  46.9416654
  48.6625158  39.3240645  45.4693871  47.0779060  40.1310179  45.3988221
  47.7878300  36.8423767  46.1303888  47.3203682  35.8967914  45.8557071
  48.8028137  36.8739051  45.7342655  47.8193504  36.9295326  47.2164418
  44.7378300  39.1353767  45.5423888  44.2308300  39.0763767  44.4183888
  44.6218300  40.1933767  46.3373888  44.9402330  40.1147809  47.2926592
  44.0298300  41.4503767  45.9093888  44.0841729  41.5221725  44.8231147
  42.5638300  41.5543767  46.3333888  42.0492687  40.6792590  45.9365324
  42.5392387  41.5267202  47.4227603  41.8708300  42.8143767  45.8433888
  42.4268445  43.6853241  46.1903747  41.8712500  42.7942247  44.7535755
  40.4308300  42.9033767  46.3023888  40.0718300  42.1983767  47.2663888
  39.6588300  43.6783767  45.6993888  38.7651044  43.6676758  46.0491305
  44.8268300  42.5973767  46.5103888  45.4138300  42.4593767  47.5883888
  40.0879348  44.1539809  44.9844422  39.1433791  42.3090513  47.4857126
  40.7845759  41.6679068  47.6290347  44.8478300  43.7283767  45.8123888
  44.3738798  43.7664943  44.9213121  45.5678300  44.9093767  46.2613888
  45.4612909  45.0200365  47.3405102  47.0568300  44.8033767  45.9253888
  47.1801609  44.7012229  44.8472171  47.5715319  45.7018253  46.2659360
  47.4810168  43.9314638  46.4233171  44.9668300  46.1463767  45.6153888
  45.1718300  46.3913767  44.4233888  44.2388300  46.9273767  46.4053888
  44.0987310  46.6487718  47.3660401  43.5938300  48.1453767  45.9393888
  43.6718185  48.2104416  44.8541314  42.1138300  48.1543767  46.3243888
  41.6642619  47.4388116  45.6359454  42.0313024  47.7779373  47.3439880
  41.3848300  49.4923767  46.2153888  41.7425576  50.1545193  47.0038676
  41.6378300  50.1283767  44.8723888  41.2799216  49.4669788  44.0833683
  41.1097512  51.0802023  44.8152783  42.7070266  50.2985040  44.7459937
  39.8968300  49.2993767  46.4453888  39.7331957  48.8844231  47.4399423
  39.3885946  50.2602843  46.3650482  39.4987142  48.6146404  45.6965637
  44.3098300  49.3503767  46.5293888  44.4198300  49.4743767  47.7533888
  44.7928300  50.2323767  45.6593888  44.6517014  50.0657559  44.6732754
  45.5418300  51.4153767  46.0593888  45.6991080  51.3996282  47.1378668
  46.9048300  51.4623767  45.3673888  46.7312258  51.4354500  44.2916398
  47.3438361  52.4220535  45.6401415  47.8498300  50.3493767  45.7523888
  47.5978300  49.0403767  45.3763888  46.6977944  48.8226406  44.8013874
  48.4608300  48.0223767  45.7163888  48.2457675  46.9960081  45.4190381
  49.5998300  48.3063767  46.4343888  50.4638300  47.2923767  46.7743888
  50.1746724  46.4322949  46.4609453  49.8778300  49.5993767  46.8143888
  50.7795091  49.8261951  47.3832724  49.0058300  50.6123767  46.4703888
  49.2211170  51.6398537  46.7637189  44.7518300  52.6683767  45.7133888
  44.3568300  52.8613767  44.5593888  44.5298300  53.5133767  46.7143888
  44.7490586  53.2082153  47.6518933  43.9668300  54.8453767  46.5353888
  43.7426800  55.0056018  45.4807875  42.6788300  55.0143767  47.3393888
  42.9346476  54.5306583  48.2820833  42.5501860  56.0842073  47.5037458
  41.3758300  54.4213767  46.7993888  40.7026870  54.2239368  47.6336530
  40.7168300  55.3843767  45.8373888  41.3892341  55.5819531  45.0025624
  39.7912703  54.9476605  45.4622635  40.4943364  56.3185871  46.3529932
  41.6108300  53.0853767  46.1323888  42.0341631  52.3875015  46.8547866
  40.6644008  52.6929211  45.7604323  42.3036210  53.2109765  45.3003045
  45.0168300  55.8473767  46.9913888  45.0638300  56.2023767  48.1743888
  45.8518300  56.3033767  46.0603888  45.6921688  56.1001193  45.0840210
  47.0518300  57.0483767  46.4243888  47.0902903  57.2630717  47.4923429
  48.3228300  56.2723767  46.0323888  48.3491852  56.1591180  44.9486097
  49.5658300  57.0183767  46.4943888  49.5404126  57.1316220  47.5781925
  50.4548275  56.4558768  46.2091210  49.5939908  58.0028227  46.0272969
  48.2968300  54.8663767  46.6083888  47.4274787  54.3321566  46.2250620
  49.2046759  54.3374725  46.3182584  48.2396561  54.9195729  47.6955880
  47.0578300  58.4283767  45.7803888  47.4928300  58.5913767  44.6353888
  46.5818300  59.4283767  46.5153888  46.0022914  59.2481272  47.3226957
  46.8518300  60.8113767  46.1553888  46.8706191  60.9125376  45.0702562
  45.7698300  61.7323767  46.7123888  45.4342004  61.3564799  47.6789050
  46.1746405  62.7370221  46.8345199  44.2908300  61.8663767  45.6883888
  48.2178300  61.2133767  46.6933888  48.3418300  61.7153767  47.8133888
  49.2468300  60.9893767  45.8833888  49.0772681  60.7513118  44.9166038
  50.6168300  61.0743767  46.3383888  50.7248032  60.4284034  47.2096864
  51.2624545  60.7141663  45.5374413  51.0348300  62.4823767  46.7133888
  50.2238300  63.3573767  47.0203888  52.3498300  62.6913767  46.6803888
  52.9547560  61.9533295  46.3495561  52.9618300  63.9263767  47.1533888
  52.8037641  64.0359651  48.2262843  54.4668300  63.8983767  46.8813888
  54.5981542  63.8014881  45.8036756  54.8722345  64.8547242  47.2117623
  55.1988300  62.7693767  47.5833888  54.9626248  62.7986904  48.6470845
  54.8462594  61.8292313  47.1592191  56.6998300  62.8313767  47.3843888
  57.1988300  63.8843767  46.9363888  57.3808300  61.8263767  47.6773888
  58.3190750  61.9463634  47.5146665  52.3418300  65.1583767  46.5073888
  52.1388300  65.1973767  45.2893888  56.8515063  61.0999341  48.0143999
  58.1523530  63.8326395  46.8339681  56.5464038  64.5691789  46.7742061
  52.0358300  66.1663767  47.3193888  52.1505664  66.0338566  48.3140612
  51.5108300  67.4413767  46.8483888  51.6965685  67.5352214  45.7784385
  50.0058300  67.5503767  47.0943888  49.8473351  67.4236126  48.1653274
  49.7061565  68.5561208  46.7998134  49.1728300  66.5313767  46.3353888
  49.4511822  66.5729113  45.2823476  49.3950072  65.5401284  46.7305673
  47.6858300  66.8113767  46.4773888  47.1298090  66.0920893  45.8760857
  47.4025892  66.7047518  47.5245302  47.3398300  68.1573767  46.0343888
  48.0832548  68.7137369  45.6370447  46.1278300  68.6883767  46.1183888
  45.1098300  68.0143767  46.6283888  45.2495476  67.0721973  46.9643605
  44.1977390  68.4451801  46.6793608  45.9318300  69.9283767  45.6803888
  46.7032378  70.4507365  45.2902987  45.0124384  70.3422495  45.7397790
  52.2468300  68.5603767  47.5693888  52.7648300  68.3563767  48.6713888
  52.2978300  69.7233767  46.9503888  51.9116747  69.8199156  46.0221304
  52.8998300  70.8873767  47.5683888  52.2647117  71.7559860  47.3944871
  52.9952399  70.7165320  48.6406800  54.2768300  71.1573767  46.9863888
  54.5378300  70.8653767  45.8213888  55.1398300  71.7143767  47.8323888
  54.8535754  71.8431639  48.7923739  56.4638300  72.1773767  47.4383888
  56.5664967  72.1093958  46.3553665  56.6848300  73.6323767  47.8603888
  56.6305461  73.7355700  48.9441340  57.6661886  73.9562715  47.5137948
  55.6848300  74.5983767  47.2853888  54.3438300  74.5143767  47.6163888
  54.0144007  73.7319547  48.3000495  53.4278300  75.4043767  47.0933888
  52.3732962  75.3187163  47.3555368  53.8458300  76.3993767  46.2413888
  53.1255907  77.1063833  45.8296885  55.1788300  76.5013767  45.9083888
  55.5128633  77.2876326  45.2313928  56.0918300  75.6073767  46.4323888
  57.1474869  75.6924406  46.1746049  57.5068300  71.2763767  48.0813888
  57.4818300  71.0623767  49.2973888  58.4178300  70.7493767  47.2663888
  58.3667082  70.9584919  46.2795976  59.4668300  69.8503767  47.7283888
  59.5107860  69.8714455  48.8172979  59.1978300  68.4123767  47.2773888
  59.2014159  68.3503655  46.1891604  59.9603028  67.7463265  47.6812603
  57.8738300  67.8753767  47.7333888  56.6988300  68.3303767  47.1653888
  56.7473705  69.0839099  46.3793026  55.4818300  67.8463767  47.5783888
  54.5638255  68.2173324  47.1225814  55.4218300  66.8933767  48.5673888
  54.4566994  66.5093755  48.8977914  56.5838300  66.4233767  49.1413888
  56.5404051  65.6648470  49.9229558  57.8038300  66.9153767  48.7243888
  58.7239518  66.5466408  49.1777205  60.8038300  70.3313767  47.1903888
  60.9498300  70.5433767  45.9833888  61.7798300  70.4873767  48.0853888
  61.5982002  70.2656047  49.0538552  63.0878300  71.0273767  47.7333888
  63.1550831  71.1491372  46.6523011  63.3088300  72.3873767  48.3923888
  63.4287148  72.2181845  49.4624826  64.2369684  72.7848488  47.9816881
  62.1908300  73.3783767  48.1613888  61.0078300  73.2963767  48.8743888
  60.8927584  72.4981900  49.6077073  59.9868300  74.1983767  48.6723888
  59.0600186  74.1177225  49.2403830  60.1418300  75.2043767  47.7503888
  59.1258300  76.1073767  47.5453888  58.3586454  75.9406383  48.0978613
  61.3068300  75.3123767  47.0303888  61.4306765  76.1099610  46.2978441
  62.3248300  74.4023767  47.2393888  63.2530420  74.4835536  46.6737627
  64.2008300  70.0643767  48.1243888  65.2558300  70.4883767  48.6043888
  63.9798300  68.7683767  47.9293888  63.0871695  68.4591623  47.5721171
  64.9818300  67.7603767  48.2513888  65.1777177  67.7586419  49.3236407
  64.5158300  66.3543767  47.8343888  64.3918483  66.3303042  46.7517303
  65.5358300  65.3043767  48.2513888  65.6600107  65.3275346  49.3340441
  65.1871892  64.3174500  47.9472104  66.4917687  65.5151559  47.7719579
  63.2548300  66.0623767  48.4483888  62.9669175  65.1848520  48.1863636
  66.3078300  68.0693767  47.5643888  66.3398300  68.4073767  46.3803888
  67.4088300  67.9753767  48.2303888  67.4191537  67.7002602  49.2021417
  68.6758300  68.2683767  47.5843888  68.4986500  68.5480329  46.5458801
  69.1669095  69.0916981  48.1031212  69.3143727  67.3856557  47.6185487
  25.0138627  42.3880091  34.8204645  25.1988300  41.9933767  33.8213888
  25.8868934  42.6521539  33.2915967  24.2583740  41.9347076  33.2734842
  25.8078300  40.6093767  33.8863888  26.0358300  40.0643767  34.9743888
  26.0938300  39.9893767  32.7923888  25.8921950  40.3901485  31.8874995
  26.6808300  38.6563767  32.8423888  27.1419779  38.4921422  33.8162824
  25.6068300  37.5903767  32.6243888  24.8251937  37.7673291  33.3631931
  25.2019010  37.7434560  31.6240392  26.1118300  36.1613767  32.7533888
  26.9069928  36.0009756  32.0253171  26.5073414  36.0212453  33.7593888
  25.0228300  35.1363767  32.5143888  23.8538300  35.4823767  32.3483888
  25.4028300  33.8653767  32.4923888  24.7181115  33.1393834  32.3368386
  26.3750719  33.6296792  32.6312908  27.7788300  38.5113767  31.7953888
  27.5838300  37.8613767  30.7693888  28.9358300  39.1123767  32.0623888
  29.0553382  39.6200824  32.9272888  30.0358300  39.1053767  31.1083888
  29.7754867  38.4684779  30.2630010  30.3348300  40.5133767  30.5863888
  31.2365473  40.4906825  29.9744329  29.4964994  40.8638711  29.9843459
  30.6228300  41.7563767  31.8663888  31.2648300  38.5083767  31.7753888
  31.3348300  38.3823767  32.9983888  32.2378300  38.1393767  30.9473888
  32.0875579  38.2204738  29.9519286  33.5018300  37.5893767  31.4113888
  33.5121884  37.5843627  32.5013277  33.7118300  36.1593767  30.9143888
  32.9999524  35.4954801  31.4048690  33.5583744  36.1227968  29.8358651
  35.3718300  35.5303767  31.2513888  34.6538300  38.4613767  30.9383888
  34.6568300  38.9403767  29.8003888  35.6098300  38.6843767  31.8413888
  35.4148661  38.4330058  32.7999821  36.8748300  39.3633767  31.5443888
  37.2911765  39.7852024  32.4591663  37.9008300  38.3953767  30.9393888
  37.8628240  37.4640016  31.5043633  37.6238300  38.1093767  29.4723888
  37.6621282  39.0402813  28.9066596  38.3754458  37.4199474  29.0878630
  36.6350025  37.6625285  29.3692025  39.2128300  38.9603767  31.0553888
  39.8559885  38.3561575  30.6774118  36.6808300  40.5823767  30.6443888
  37.5428300  40.9133767  29.8283888  35.5538300  41.2743767  30.7983888
  34.7695764  40.8858310  31.3024502  35.4028300  42.5893767  30.1953888
  36.2868092  43.1895533  30.4109529  35.2378300  42.4913767  28.6853888
  35.1559988  43.4988031  28.2773508  36.1183747  42.0018384  28.2693440
  34.0808300  41.7493767  28.3453888  34.0000453  41.7025498  27.3899408
  34.2128300  43.3083767  30.8083888  33.4678300  42.7503767  31.6173888
  34.0538300  44.5693767  30.4003888  34.6840198  44.9666642  29.7183897
  33.0148300  45.4223767  30.9593888  32.8832278  45.2453787  32.0268398
  33.3688300  46.8983767  30.7253888  33.4097829  47.0881315  29.6528141
  32.3228300  47.8023767  31.3603888  32.2816212  47.6135133  32.4331110
  32.5884768  48.8449419  31.1854879  31.3479068  47.5972771  30.9181693
  34.7608300  47.2093767  31.2803888  34.6891731  47.1833670  32.3677202
  35.4288396  46.4174202  30.9417629  35.3058300  48.5473767  30.8443888
  34.6385478  49.3399194  31.1830782  36.2949345  48.6960337  31.2776006
  35.3782121  48.5739732  29.7571200  31.6748300  45.0713767  30.3343888
  31.6038300  44.6283767  29.1813888  30.5998300  45.2653767  31.0963888
  30.7100429  45.4634049  32.0806333  29.2528300  45.1453767  30.5643888
  29.2227471  45.5906518  29.5699420  28.8028300  43.6833767  30.4603888
  27.7733635  43.6439946  30.1043733  29.4490606  43.1526266  29.7612533
  28.8488300  42.7343767  31.9863888  28.2858300  45.9293767  31.4383888
  28.5788300  46.2403767  32.5953888  27.1328300  46.2523767  30.8613888
  27.0137703  45.9895522  29.8934800  26.0718300  47.0213767  31.5053888
  25.2901026  47.2396225  30.7778104  25.4518300  46.2453767  32.6723888
  25.0790488  45.2915099  32.2991976  26.2228595  46.0655352  33.4215686
  24.3858300  46.9723767  33.2573888  24.0146950  46.4668587  33.9842383
  26.5458300  48.3853767  31.9893888  25.8558300  49.0253767  32.7933888
  27.7028300  48.8493767  31.5253888  28.2833095  48.2806368  30.9256574
  28.1898300  50.1623767  31.9113888  28.0038232  50.3316099  32.9719833
  29.6938300  50.2613767  31.6573888  30.1057108  49.4402129  32.2440261
  29.8422584  50.0595712  30.5965667  30.4058300  51.5643767  32.0333888
  30.0144595  52.3634858  31.4038218  30.1928300  51.9193767  33.4893888
  30.5843927  51.1208933  34.1196282  30.7133948  52.8495920  33.7170123
  29.1271054  52.0436372  33.6814588  31.8888300  51.4383767  31.7483888
  32.0397605  51.2382098  30.6876095  32.3912588  52.3675280  32.0173579
  32.3036939  50.6186325  32.3349093  27.4378300  51.2483767  31.1453888
  26.7258300  50.9823767  30.1753888  27.5758300  52.4863767  31.6173888
  28.0637294  52.6268714  32.4904951  26.9918300  53.6463767  30.9583888
  26.4719059  53.3381026  30.0513358  25.9838300  54.3303767  31.8933888
  25.1212533  53.6677491  31.9639957  26.4551165  54.4180071  32.8723218
  25.5328300  55.6963767  31.4273888  26.2028300  56.8433767  31.8303888
  27.0635038  56.7433880  32.4917074  25.7978300  58.0933767  31.4093888
  26.3370189  58.9849637  31.7294665  24.7048300  58.2103767  30.5793888
  24.2988300  59.4563767  30.1613888  24.8464600  60.1649461  30.5072651
  24.0198300  57.0883767  30.1683888  23.1548294  57.1806563  29.5116095
  24.4348300  55.8403767  30.5933888  23.8962972  54.9485560  30.2728604
  28.0378300  54.6513767  30.4983888  28.0468300  55.0373767  29.3263888
  28.9328300  55.0843767  31.3853888  28.9249648  54.7214786  32.3279080
  29.9038300  56.1223767  31.0513888  29.9797292  56.2138345  29.9678880
  29.4858300  57.4743767  31.6273888  28.5394757  57.7462945  31.1598702
  29.3352504  57.3369615  32.6981562  30.4988300  58.5793767  31.3973888
  31.3519861  58.4103396  32.0543910  30.8286595  58.5475664  30.3589752
  29.9328300  59.9543767  31.6833888  28.7638300  60.0953767  32.0413888
  30.7598300  60.9793767  31.5213888  30.4349982  61.9192222  31.6982395
  31.7103200  60.8149842  31.2219807  31.2768300  55.7183767  31.5693888
  31.3968300  55.1733767  32.6703888  32.3018300  55.9863767  30.7683888
  32.1090913  56.3346798  29.8401452  33.6878300  55.7733767  31.1503888
  33.7968271  55.9044725  32.2269726  34.1378300  54.3593767  30.7823888
  33.2730015  53.7526914  31.0509104  34.2754267  54.3366092  29.7013482
  35.3868300  53.7983767  31.4673888  35.2797098  53.8986414  32.5474689
  35.5608300  52.3333767  31.1103888  35.6684847  52.2323509  30.0304336
  36.4516767  51.9424121  31.6019571  34.6874559  51.7718415  31.4420457
  36.6318300  54.5823767  31.0973888  36.5116146  55.6216731  31.4031841
  37.4961953  54.1528334  31.6038139  36.7834569  54.5367120  30.0189533
  34.5638300  56.8033767  30.4503888  34.4758300  56.9893767  29.2353888
  35.4088300  57.4853767  31.2173888  35.4928651  57.3390698  32.2131958
  36.2188300  58.5253767  30.6023888  36.6764261  58.1415079  29.6906049
  35.3618300  59.7453767  30.2443888  36.0437796  60.5223777  29.8989709
  34.7086477  59.4454065  29.4249555  34.5248300  60.2803767  31.3863888
  33.7398681  59.5632052  31.6263902  35.1795070  60.4039415  32.2490758
  33.9138300  61.6313767  31.0733888  34.4558300  62.3453767  30.2043888
  32.8868300  61.9773767  31.6943888  32.5692589  62.8473692  31.4425142
  37.3538300  58.9543767  31.5173888  37.1328300  59.2673767  32.6873888
  32.5876253  61.3159072  32.3224123  34.0080839  63.1855302  30.0777455
  35.2254188  61.9326740  29.8064859  38.5608300  58.9853767  30.9633888
  38.7460525  58.4756343  30.1113591  39.6548300  59.7193767  31.5793888
  39.6622852  59.5351172  32.6536755  40.9948300  59.2763767  30.9993888
  40.9526686  58.2052248  30.8020178  41.1666134  59.8109581  30.0651440
  42.1518300  59.5503767  31.9323888  42.0828300  60.4443767  32.7733888
  43.2238300  58.7823767  31.7883888  44.0257793  58.9226884  32.3861260
  43.2331318  58.0608685  31.0816779  39.4238300  61.2053767  31.3373888
  38.4308300  61.5883767  30.7113888  40.3298300  62.0453767  31.8313888
  41.1298804  61.7085551  32.3476927  40.1658300  63.4833767  31.6733888
  39.9876338  63.7194953  30.6242971  38.9768300  63.9873767  32.4973888
  38.2328219  63.1912190  32.4712341  39.3215284  64.1283239  33.5217993
  38.3588300  65.2703767  31.9933888  39.0458300  66.4733767  32.0663888
  40.0497182  66.4811197  32.4909451  38.4788300  67.6483767  31.6123888
  39.0322664  68.5857310  31.6687522  37.2058300  67.6303767  31.0843888
  36.6358300  68.7973767  30.6333888  37.2110889  69.5592728  30.7343401
  36.5008300  66.4493767  31.0073888  35.4939234  66.4344103  30.5902369
  37.0768300  65.2803767  31.4623888  36.5232751  64.3429694  31.4081253
  41.4418300  64.1903767  32.1013888  42.0608300  63.8073767  33.0973888
  41.8218300  65.2183767  31.3493888  41.3208393  65.4160437  30.4949676
  42.9758300  66.0473767  31.6823888  42.7924723  66.5628875  32.6251124
  44.2428300  65.2003767  31.8263888  45.1196612  65.8459986  31.7770062
  44.2271976  64.6824178  32.7853331  44.4688300  63.9153767  30.5853888
  43.1838300  67.1223767  30.6233888  43.1198300  66.8453767  29.4253888
  43.4288300  68.3363767  30.9853888  43.4871813  68.5989040  31.9589256
  43.6288300  69.3663767  29.9813888  43.5353267  68.9287267  28.9874973
  42.8782226  70.1468257  30.1062428  44.6232702  69.7977755  30.0957731
  28.4310608  25.4177446  37.3923490  28.2528300  25.6453767  36.3413888
  27.5221066  26.4502892  36.2622846  27.8711471  24.7579409  35.8365375
  29.5288300  26.0813767  35.6543888  30.5978300  26.1453767  36.2763888
  29.5028300  26.3903767  34.4023888  28.6569372  26.3159777  33.8555528
  30.7248300  26.8113767  33.7303888  31.4478018  27.1638806  34.4660190
  31.3418300  25.6443767  32.9593888  31.2176954  24.7224794  33.5275394
  30.8646911  25.5372446  31.9852424  32.8088300  25.7953767  32.7033888
  33.4228300  27.0223767  32.5803888  32.9474559  27.9108942  32.6486224
  34.7128300  26.8473767  32.3623888  35.3751382  27.7034253  32.2334409
  34.9598300  25.5503767  32.3433888  35.8611773  25.1186197  32.1975846
  33.7858300  24.8703767  32.5553888  33.7834170  23.7805848  32.5765779
  30.4268300  27.9743767  32.7913888  29.6078300  27.8513767  31.8823888
  31.0888300  29.1073767  33.0253888  31.7233661  29.1689128  33.8087639
  30.8798300  30.2973767  32.2103888  30.1296581  30.0965365  31.4455329
  30.3918300  31.4573767  33.0813888  29.4643503  31.0833697  33.5149778
  31.1261893  31.6104535  33.8722010  30.1228300  32.7873767  32.3703888
  29.8337453  32.5867663  31.3387462  29.0088300  33.5453767  33.0693888
  29.2973975  33.7467702  34.1010226  28.8298312  34.4879670  32.5521038
  28.0981866  32.9464675  33.0576895  31.3768300  33.6443767  32.3053888
  32.1541875  33.1108726  31.7584080  31.1515503  34.5807453  31.7949338
  31.7251277  33.8568400  33.3161544  32.1568300  30.6813767  31.4753888
  32.1348300  30.9103767  30.2623888  33.2728300  30.7523767  32.1973888
  33.2415414  30.5469496  33.1857814  34.5408300  31.1673767  31.6193888
  34.4919790  31.0693387  30.5349067  34.8648300  32.6253767  31.9653888
  33.9845588  33.1009545  32.3978788  35.6835504  32.6554203  32.6843424
  35.3598300  33.6263767  30.5463888  35.6458300  30.2473767  32.1153888
  35.5218300  29.5933767  33.1533888  36.7378300  30.2133767  31.3593888
  36.8140301  30.8490641  30.5782394  37.8308300  29.2983767  31.6083888
  37.4159365  28.3808720  32.0256989  38.3120125  29.0783690  30.6554148
  38.8638300  29.8513767  32.5653888  38.5828300  30.7093767  33.4063888
  40.0848300  29.3453767  32.4273888  40.2646620  28.6890320  31.6810836
  41.1688300  29.6623767  33.3423888  40.7824967  30.2120866  34.2006805
  41.8298300  28.3773767  33.8423888  42.2962474  27.8733922  32.9958939
  42.5938709  28.6404984  34.5738999  40.8808300  27.5133767  34.4413888
  41.3210183  26.7164012  34.7457966  42.2058300  30.5603767  32.6733888
  42.2108300  30.7613767  31.4573888  43.0968300  31.1063767  33.4993888
  42.9636294  30.9787468  34.4923981  44.2088300  31.9413767  33.0513888
  44.7577133  32.3145429  33.9160120  45.1718300  31.1403767  32.1683888
  45.2123230  30.1028320  32.4999916  44.8436789  31.1767244  31.1295934
  46.5778300  31.6523767  32.1913888  47.6708300  30.8283767  32.0313888
  47.6200929  29.8300710  31.8867814  48.7768300  31.5483767  32.0973888
  49.7541440  31.0770595  31.9933872  48.4398300  32.8103767  32.2943888
  49.0775198  33.5883213  32.3852391  47.0708300  32.9023767  32.3573888
  46.5964379  33.8706757  32.5169206  43.7338300  33.1873767  32.3143888
  44.4418300  33.7083767  31.4463888  42.5428300  33.6753767  32.6423888
  41.9480052  33.1883676  33.2974498  42.0448300  34.9013767  32.0383888
  42.1899176  34.8676375  30.9586154  40.5548300  35.0683767  32.3253888
  40.5186748  35.3651492  33.3735863  40.1653053  35.8762467  31.7059401
  39.7038300  33.8143767  32.1213888  39.9763816  33.0739467  32.8734392
  38.2318300  34.1473767  32.2513888  37.9584080  34.8874568  31.4993112
  37.6399943  33.2440721  32.1034964  38.0363676  34.5505615  33.2450371
  39.9958300  33.1823767  30.7773888  41.0487867  32.9052238  30.7267157
  39.3798376  32.2918309  30.6525577  39.7694436  33.8943054  29.9836598
  42.8158300  36.1043767  32.5673888  43.2068300  36.1563767  33.7363888
  43.0338300  37.0783767  31.6893888  42.6948060  36.9734383  30.7437937
  43.7918300  38.2773767  32.0223888  43.8332984  38.4369443  33.0998477
  45.2338300  38.2083767  31.4783888  45.1994329  38.0602803  30.3990447
  45.9808300  39.4953767  31.7893888  46.0160438  39.6439263  32.8686450
  46.9963536  39.4301181  31.3988077  45.4664496  40.3361763  31.3240174
  45.9638300  37.0093767  32.0593888  45.4376896  36.0950520  31.7850010
  46.9795068  36.9757313  31.6652211  45.9987882  37.0958763  33.1453890
  43.0678300  39.4923767  31.4633888  42.5608300  39.4653767  30.3373888
  43.0178300  40.5553767  32.2583888  43.3273646  40.4565909  33.2146989
  42.5088300  41.8483767  31.8283888  42.5705260  41.9162306  30.7422541
  41.0518300  42.0463767  32.2483888  40.4833977  41.2060621  31.8498221
  41.0228920  42.0199111  33.3376831  40.4418300  43.3483767  31.7573888
  41.0516743  44.1816605  32.1064286  40.4439283  43.3287479  30.6675679
  39.0098300  43.5293767  32.2123888  38.6038300  42.8483767  33.1753888
  38.2908300  44.3523767  31.6073888  37.3972882  44.3990522  31.9546403
  43.3758300  42.9423767  32.4303888  43.9508300  42.7673767  33.5093888
  38.7515706  44.7994807  30.8937397  37.6838086  43.0182203  33.3923835
  39.2802028  42.2732501  33.5396226  43.4708300  44.0693767  31.7323888
  43.0015718  44.1387591  30.8407150  44.2658300  45.2013767  32.1833888
  44.1646150  45.3193174  33.2622515  45.7448300  45.0003767  31.8503888
  45.8633440  44.8898528  30.7725025  46.3152481  45.8643367  32.1914117
  46.1115524  44.1034743  32.3495681  43.7458300  46.4743767  31.5353888
  43.9688300  46.7053767  30.3433888  43.0678300  47.3003767  32.3243888
  42.9083482  47.0329097  33.2851834  42.5038300  48.5573767  31.8553888
  42.5881002  48.6162857  30.7702494  41.0258300  48.6613767  32.2373888
  40.5327089  47.9759898  31.5480589  40.9168649  48.2914196  33.2568781
  40.3848300  50.0433767  32.1263888  40.7827678  50.6812699  32.9155900
  40.6808300  50.6613767  30.7843888  40.2827608  50.0242383  29.9946455
  40.2151469  51.6451714  30.7261813  41.7590078  50.7624034  30.6601846
  38.8868300  49.9463767  32.3533888  38.6948555  49.5432321  33.3477326
  38.4414882  50.9378889  32.2716848  38.4471217  49.2882680  31.6039566
  43.2938300  49.7143767  32.4473888  43.4088300  49.8313767  33.6713888
  43.8338300  50.5633767  31.5783888  43.6840628  50.4058401  30.5920565
  44.6568300  51.6953767  31.9793888  44.8096934  51.6700945  33.0583201
  46.0218300  51.6543767  31.2913888  45.8510007  51.6394333  30.2149626
  46.5199021  52.5839771  31.5668289  46.8918300  50.4843767  31.6783888
  46.5578300  49.1943767  31.3013888  45.6477422  49.0344798  30.7232256
  47.3528300  48.1233767  31.6443888  47.0721946  47.1128616  31.3473958
  48.5058300  48.3333767  32.3653888  49.3028300  47.2653767  32.7073888
  48.9600455  46.4256412  32.3928371  48.8648300  49.6063767  32.7453888
  49.7774220  49.7749153  33.3171151  48.0618300  50.6723767  32.3983888
  48.3429432  51.6842056  32.6904123  43.9498300  52.9973767  31.6313888
  43.5698300  53.2143767  30.4763888  43.7798300  53.8543767  32.6313888
  43.9758690  53.5352861  33.5693916  43.3048300  55.2203767  32.4513888
  43.0942691  55.3954022  31.3963393  42.0278300  55.4713767  33.2523888
  42.2497987  54.9724666  34.1957434  41.9682072  56.5473395  33.4162459
  40.6898300  54.9633767  32.7093888  40.0033757  54.8104781  33.5421573
  40.0968300  55.9663767  31.7453888  40.7825570  56.1194589  30.9120563
  39.1458084  55.5902685  31.3682928  39.9340995  56.9133663  32.2600051
  40.8408300  53.6153767  32.0433888  41.2170054  52.8921522  32.7669478
  39.8722510  53.2839287  31.6690917  41.5423086  53.6963228  31.2130428
  44.4148300  56.1533767  32.9103888  44.4818300  56.5043767  34.0923888
  45.2798300  56.5543767  31.9803888  45.1101302  56.3613022  31.0036475
  46.5238300  57.2213767  32.3473888  46.5736235  57.4337456  33.4153397
  47.7438300  56.3643767  31.9583888  47.7656648  56.2491778  30.8747137
  49.0308300  57.0293767  32.4233888  49.0099301  57.1445022  33.5070909
  49.8826892  56.4109422  32.1405902  49.1232158  58.0097864  31.9560952
  47.6258300  54.9633767  32.5343888  46.7247805  54.4862218  32.1489863
  48.4983882  54.3769525  32.2465548  47.5695441  55.0204479  33.6214378
  46.6198300  58.5963767  31.7033888  47.0668300  58.7313767  30.5593888
  46.2078300  59.6253767  32.4363888  45.6155206  59.4825868  33.2419197
  46.5668300  60.9883767  32.0773888  46.5950898  61.0878732  30.9923077
  45.5448300  61.9773767  32.6313888  45.1844388  61.6250818  33.5978802
  46.0126799  62.9543518  32.7527812  44.0788300  62.2053767  31.6043888
  47.9548300  61.3023767  32.6183888  48.1078300  61.7953767  33.7383888
  48.9688300  61.0123767  31.8103888  48.7865757  60.7853466  30.8432590
  50.3398300  61.0093767  32.2683888  50.4043822  60.3580406  33.1399927
  50.9631389  60.6086232  31.4690253  50.8458300  62.3883767  32.6443888
  50.0928300  63.3133767  32.9493888  52.1718300  62.5123767  32.6143888
  52.7282511  61.7363172  32.2854109  52.8618300  63.7053767  33.0883888
  52.7083486  63.8250797  34.1608690  54.3618300  63.5813767  32.8203888
  54.4896508  63.4769487  31.7429586  54.8268745  64.5095131  33.1526485
  55.0178300  62.4073767  33.5233888  54.7810883  62.4513315  34.5864608
  54.6070486  61.4918455  33.0977594  56.5208300  62.3733767  33.3283888
  57.0868300  63.3913767  32.8813888  57.1358300  61.3273767  33.6233888
  58.0802184  61.3874814  33.4630861  52.3228300  64.9743767  32.4403888
  52.1258300  65.0263767  31.2223888  56.5605785  60.6361479  33.9591973
  58.0353840  63.2788360  32.7816251  56.4798596  64.1162721  32.7169786
  52.0808300  66.0003767  33.2523888  52.1835014  65.8604436  34.2473645
  51.6398300  67.3063767  32.7803888  51.8348384  67.3884780  31.7111225
  50.1438300  67.5113767  33.0213888  49.9748673  67.3960174  34.0920162
  49.9106795  68.5341887  32.7254216  49.2488300  66.5483767  32.2613888
  49.5319444  66.5712181  31.2090460  49.4058459  65.5451704  32.6576529
  47.7828300  66.9233767  32.3993888  47.1834404  66.2407630  31.7970022
  47.4908213  66.8356341  33.4458741  47.5248300  68.2873767  31.9553888
  48.3031312  68.7943003  31.5586835  46.3488300  68.8953767  32.0363888
  45.2888300  68.2883767  32.5453888  45.3674848  67.3396374  32.8827421
  44.4060344  68.7766305  32.5941730  46.2338300  70.1453767  31.5973888
  47.0380748  70.6169268  31.2088906  45.3427730  70.6174529  31.6544870
  52.4438300  68.3763767  33.5013888  52.9448300  68.1393767  34.6053888
  52.5718300  69.5333767  32.8833888  52.1955842  69.6537453  31.9538459
  53.2448300  70.6563767  33.5023888  52.6670178  71.5637625  33.3266523
  53.3266507  70.4803782  34.5749694  54.6378300  70.8373767  32.9233888
  54.8818300  70.5283767  31.7593888  55.5328300  71.3373767  33.7713888
  55.2529897  71.4845209  34.7306267  56.8848300  71.7153767  33.3803888
  56.9856043  71.6397771  32.2976938  57.1968300  73.1533767  33.8013888
  57.1477079  73.2610100  34.8849483  58.1975436  73.4129512  33.4560000
  56.2628300  74.1803767  33.2243888  54.9178300  74.1833767  33.5523888
  54.5368730  73.4240280  34.2352952  54.0628300  75.1303767  33.0273888
  53.0044054  75.1127628  33.2872499  54.5458300  76.0963767  32.1763888
  53.8734605  76.8482439  31.7632120  55.8828300  76.1123767  31.8463888
  56.2679814  76.8755170  31.1700933  56.7358300  75.1613767  32.3723888
  57.7953375  75.1786823  32.1169593  57.8668300  70.7493767  34.0253888
  57.8248300  70.5383767  35.2413888  58.7438300  70.1643767  33.2123888
  58.7090556  70.3758430  32.2253872  59.7308300  69.2003767  33.6773888
  59.7727963  69.2193713  34.7664146  59.3718300  67.7823767  33.2263888
  59.3746794  67.7192140  32.1382245  60.0887155  67.0690988  33.6330947
  58.0158300  67.3323767  33.6783888  56.8728300  67.8603767  33.1083888
  56.9712953  68.6089891  32.3222693  55.6268300  67.4553767  33.5183888
  54.7354628  67.8836665  33.0599860  55.5038300  66.5093767  34.5073888
  54.5151072  66.1885605  34.8354195  56.6308300  65.9663767  35.0843888
  56.5366105  65.2128635  35.8663355  57.8808300  66.3783767  34.6703888
  58.7741151  65.9512138  35.1261009  61.0978300  69.5943767  33.1423888
  61.2598300  69.7963767  31.9353888  62.0798300  69.6873767  34.0393888
  61.8825589  69.4769182  35.0073199  63.4198300  70.1423767  33.6903888
  63.4968259  70.2595009  32.6094388  63.7268300  71.4863767  34.3503888
  63.8328472  71.3112409  35.4209900  64.6796336  71.8228811  33.9416957
  62.6758300  72.5463767  34.1153888  61.4868300  72.5403767  34.8263888
  61.3180533  71.7509606  35.5588068  60.5278300  73.5063767  34.6223888
  59.5975349  73.4866092  35.1900702  60.7488300  74.5003767  33.7003888
  59.7928300  75.4663767  33.4923888  59.0151208  75.3491274  34.0428619
  61.9198300  74.5323767  32.9823888  62.0959030  75.3193820  32.2490938
  62.8768300  73.5593767  33.1943888  63.8099950  73.5809487  32.6315053
  64.4688300  69.1103767  34.0843888  65.5478300  69.4663767  34.5663888
  64.1658300  67.8313767  33.8893888  63.2554016  67.5801937  33.5314410
  65.0998300  66.7613767  34.2133888  65.2949847  66.7474037  35.2856847
  64.5458300  65.3873767  33.7963888  64.4216178  65.3711645  32.7136105
  65.4958300  64.2743767  34.2143888  65.6201822  64.2896633  35.2971641
  65.0849189  63.3117981  33.9099326  66.4637852  64.4233624  33.7358843
  63.2668300  65.1773767  34.4073888  62.9240112  64.3197872  34.1454423
  66.4448300  66.9843767  33.5303888  67.4008300  67.4423767  34.1553888
  66.5818300  66.6893767  32.2823888  65.8731521  66.9207658  31.6009681
  67.7798300  66.0063767  31.8253888  68.4424623  65.8280661  32.6722798
  67.5051892  65.0536164  31.3727070  68.2919646  66.6242702  31.0878077
  25.5299218  41.8557256  39.5450357  25.7228300  41.4663767  38.5453888
  26.3959618  42.1406619  38.0159255  24.7835256  41.3877600  37.9980080
  26.3618300  40.0963767  38.6083888  26.6028300  39.5543767  39.6953888
  26.6598300  39.4833767  37.5133888  26.4473664  39.8800611  36.6091764
  27.2758300  38.1623767  37.5613888  27.7427422  38.0075866  38.5340821
  26.2238300  37.0733767  37.3453888  25.4400155  37.2333435  38.0857567
  25.8136517  37.2175070  36.3458487  26.7598300  35.6563767  37.4733888
  27.5568765  35.5147136  36.7434921  27.1602404  35.5228985  38.4783550
  25.6928300  34.6083767  37.2343888  24.5158300  34.9293767  37.0713888
  26.1008300  33.3453767  37.2113888  25.4321113  32.6046220  37.0558277
  27.0780970  33.1309921  37.3495542  28.3748300  38.0423767  36.5133888
  28.1918300  37.3883767  35.4873888  29.5178300  38.6683767  36.7773888
  29.6264077  39.1798712  37.6414974  30.6168300  38.6853767  35.8223888
  30.3699035  38.0429174  34.9771831  30.8838300  40.0993767  35.3003888
  31.7841397  40.0964361  34.6859516  30.0364678  40.4319306  34.7008179
  31.1468300  41.3473767  36.5803888  31.8598300  38.1143767  36.4873888
  31.9338300  37.9893767  37.7103888  32.8388300  37.7673767  35.6573888
  32.6860176  37.8471368  34.6622074  34.1148300  37.2433767  36.1193888
  34.1263469  37.2373317  37.2093108  34.3548300  35.8183767  35.6203888
  33.6592380  35.1385677  36.1124363  34.1989480  35.7792885  34.5423011
  36.0288300  35.2253767  35.9543888  35.2468300  38.1413767  35.6443888
  35.2378300  38.6203767  34.5063888  36.1998300  38.3843767  36.5453888
  36.0121548  38.1285131  37.5042481  37.4488300  39.0903767  36.2463888
  37.8574528  39.5212512  37.1604313  38.4948300  38.1453767  35.6393888
  38.4783017  37.2133390  36.2043072  38.2218300  37.8533767  34.1723888
  38.2386597  38.7849505  33.6067152  38.9878877  37.1807563  33.7865955
  37.2429552  37.3847993  34.0707034  39.7938300  38.7383767  35.7533888
  40.4493128  38.1483958  35.3740933  37.2268300  40.3053767  35.3473888
  38.0808300  40.6553767  34.5303888  36.0858300  40.9723767  35.5043888
  35.3110022  40.5674628  36.0101417  35.9058300  42.2843767  34.9013888
  36.7774403  42.9027868  35.1157799  35.7398300  42.1843767  33.3913888
  35.6341219  43.1900647  32.9845514  36.6302414  41.7153646  32.9727060
  34.5988300  41.4163767  33.0533888  34.5167722  41.3686202  32.0980953
  34.7018300  42.9773767  35.5173888  33.9698300  42.4033767  36.3263888
  34.5148300  44.2343767  35.1093888  35.1337786  44.6452203  34.4251304
  33.4588300  45.0643767  35.6713888  33.3332763  44.8840122  36.7390049
  33.7798300  46.5483767  35.4373888  33.8147206  46.7391338  34.3647776
  32.7158300  47.4293767  36.0743888  32.6806645  47.2395052  37.1471482
  32.9585781  48.4774627  35.8992037  31.7447599  47.2033348  35.6339037
  35.1658300  46.8893767  35.9893888  35.0966442  46.8612362  37.0768271
  35.8496562  46.1117603  35.6491037  35.6818300  48.2383767  35.5533888
  34.9987189  49.0165943  35.8937364  36.6683701  48.4074290  35.9849662
  35.7517287  48.2671191  34.4660122  32.1248300  44.6853767  35.0483888
  32.0618300  44.2413767  33.8943888  31.0478300  44.8563767  35.8123888
  31.1555029  45.0567336  36.7964432  29.7018300  44.7073767  35.2823888
  29.6601021  45.1523792  34.2882405  29.2838300  43.2353767  35.1783888
  28.2546317  43.1735085  34.8248037  29.9399397  42.7194849  34.4773355
  29.3538300  42.2873767  36.7033888  28.7208300  45.4693767  36.1583888
  29.0078300  45.7863767  37.3153888  27.5588300  45.7673767  35.5833888
  27.4431015  45.5018372  34.6158171  26.4838300  46.5133767  36.2293888
  25.6960773  46.7154908  35.5036513  25.8828300  45.7233767  37.3973888
  25.5301776  44.7617227  37.0246193  26.6587238  45.5601476  38.1453493
  24.8018300  46.4273767  37.9843888  24.4428326  45.9138616  38.7117284
  26.9278300  47.8873767  36.7133888  26.2268300  48.5123767  37.5183888
  28.0738300  48.3763767  36.2483888  28.6654900  47.8194989  35.6484513
  28.5338300  49.6993767  36.6333888  28.3456787  49.8647711  37.6942106
  30.0348300  49.8303767  36.3773888  30.4640299  49.0182981  36.9642576
  30.1869005  49.6311255  35.3165997  30.7198300  51.1483767  36.7523888
  30.3110166  51.9391691  36.1234056  30.5008300  51.4983767  38.2083888
  30.9098230  50.7082138  38.8380443  31.0018092  52.4393500  38.4357429
  29.4329020  51.6000047  38.4015259  32.2038300  51.0543767  36.4643888
  32.3567952  50.8578491  35.4032206  32.6867660  51.9940071  36.7326587
  32.6374207  50.2435293  37.0497302  27.7578300  50.7683767  35.8693888
  27.0498300  50.4873767  34.8993888  27.8688300  52.0093767  36.3413888
  28.3534692  52.1594826  37.2147114  27.2598300  53.1573767  35.6833888
  26.7454919  52.8393030  34.7765345  26.2378300  53.8183767  36.6213888
  25.3897884  53.1372823  36.6923474  26.7080027  53.9155431  37.5999573
  25.7568300  55.1753767  36.1563888  26.4028300  56.3353767  36.5583888
  27.2672275  56.2536210  37.2173519  25.9698300  57.5763767  36.1393888
  26.4899712  58.4791540  36.4596202  24.8738300  57.6703767  35.3113888
  24.4398300  58.9073767  34.8943888  24.9722355  59.6277245  35.2397047
  24.2118300  56.5343767  34.9003888  23.3442448  56.6084478  34.2447136
  24.6538300  55.2953767  35.3243888  24.1334902  54.3924568  35.0048856
  28.2818300  54.1843767  35.2223888  28.2808300  54.5713767  34.0503888
  29.1688300  54.6353767  36.1083888  29.1711332  54.2716131  37.0506043
  30.1178300  55.6953767  35.7723888  30.1896709  55.7894051  34.6888313
  29.6708300  57.0373767  36.3503888  28.7180947  57.2892080  35.8845823
  29.5249853  56.8961026  37.4213094  30.6598300  58.1643767  36.1193888
  31.5180760  58.0146844  36.7744512  30.9878907  58.1396875  35.0802215
  30.0638300  59.5263767  36.4063888  28.8928300  59.6423767  36.7663888
  30.8688300  60.5693767  36.2443888  30.5239463  61.5019493  36.4217727
  31.8224999  60.4255793  35.9444934  31.4988300  55.3203767  36.2883888
  31.6328300  54.7773767  37.3883888  32.5168300  55.6113767  35.4853888
  32.3152677  55.9562680  34.5577455  33.9078300  55.4283767  35.8653888
  34.0155356  55.5615984  36.9418416  34.3878300  54.0243767  35.4963888
  33.5363116  53.4001988  35.7673455  34.5230987  54.0039917  34.4150068
  35.6498300  53.4893767  36.1783888  35.5429825  53.5869775  37.2587399
  35.8538300  52.0283767  35.8203888  35.9612281  51.9300262  34.7401612
  36.7537706  51.6560526  36.3098603  34.9931813  51.4484822  36.1537155
  36.8768300  54.3003767  35.8073888  36.7348386  55.3364130  36.1149058
  37.7511413  53.8888092  36.3116636  37.0274682  54.2595102  34.7286223
  34.7598300  56.4773767  35.1633888  34.6658300  56.6613767  33.9493888
  35.5918300  57.1763767  35.9303888  35.6816668  57.0309615  36.9258199
  36.3778300  58.2333767  35.3143888  36.8417357  57.8596990  34.4015604
  35.4938300  59.4353767  34.9583888  36.1583441  60.2267771  34.6116821
  34.8455005  59.1216361  34.1402594  34.6478300  59.9523767  36.1023888
  33.8792139  59.2180264  36.3433447  35.3007555  60.0902993  36.9642268
  34.0068300  61.2893767  35.7903888  34.5318300  62.0153767  34.9213888
  32.9738300  61.6123767  36.4133888  32.6364855  62.4751040  36.1622326
  37.5048300  58.6873767  36.2273888  37.2788300  58.9943767  37.3973888
  32.6906785  60.9443927  37.0419598  34.0653665  62.8453958  34.7954798
  35.3100421  61.6200551  34.5226107  38.7108300  58.7453767  35.6713888
  38.9051277  58.2412123  34.8180624  39.7888300  59.5013767  36.2853888
  39.8023696  59.3160787  37.3594374  41.1368300  59.0883767  35.7023888
  41.1180881  58.0166676  35.5044305  41.2956714  59.6271505  34.7682623
  42.2888300  59.3873767  36.6343888  42.2028300  60.2783767  37.4753888
  43.3778300  58.6423767  36.4883888  44.1773635  58.7997427  37.0851148
  43.4018236  57.9216227  35.7812546  39.5258300  60.9823767  36.0443888
  38.5238300  61.3443767  35.4203888  40.4138300  61.8413767  36.5373888
  41.2217490  61.5214254  37.0521676  40.2188300  63.2763767  36.3803888
  40.0333733  63.5092381  35.3318276  39.0208300  63.7543767  37.2073888
  38.2942654  62.9422026  37.1833805  39.3648781  63.9032634  38.2308944
  38.3738300  65.0233767  36.7043888  39.0348300  66.2403767  36.7763888
  40.0393213  66.2692591  37.1986000  38.4418300  67.4033767  36.3243888
  38.9745117  68.3527158  36.3801319  37.1688300  67.3573767  35.7983888
  36.5728300  68.5123767  35.3483888  37.1316316  69.2865035  35.4487287
  36.4888300  66.1623767  35.7223888  35.4814089  66.1262323  35.3077844
  37.0908300  65.0053767  36.1753888  36.5576000  64.0562686  36.1209864
  41.4798300  64.0103767  36.8063888  42.1088300  63.6393767  37.8013888
  41.8368300  65.0463767  36.0543888  41.3303702  65.2339571  35.2009185
  42.9718300  65.8993767  36.3863888  42.7785397  66.4095101  37.3300529
  44.2578300  65.0803767  36.5273888  45.1200957  65.7451276  36.4753952
  44.2561597  64.5626561  37.4865877  44.5098300  63.8013767  35.2853888
  43.1548300  66.9793767  35.3263888  42.8958300  68.1563767  35.5773888
  43.5858300  66.6563767  34.1543888  42.9659771  66.5960327  33.3592533
  44.9948300  66.3683767  33.9523888  45.5272615  66.4756551  34.8974330
  45.1087528  65.3483088  33.5855324  45.4075183  67.0646973  33.2223709
  29.3180416  24.9618174  42.1021920  29.1338300  25.1853767  41.0513888
  28.3853676  25.9738861  40.9729320  28.7714461  24.2896655  40.5469303
  30.3988300  25.6493767  40.3633888  31.4668300  25.7373767  40.9833888
  30.3638300  25.9593767  39.1113888  29.5187457  25.8673262  38.5659911
  31.5758300  26.4083767  38.4373888  32.2927632  26.7757242  39.1716651
  32.2158300  25.2543767  37.6643888  32.1119759  24.3297964  38.2322487
  31.7396527  25.1376743  36.6908716  33.6788300  25.4363767  37.4063888
  34.2658300  26.6773767  37.2833888  33.7714367  27.5553566  37.3528608
  35.5598300  26.5303767  37.0633888  36.2033730  27.4006596  36.9347072
  35.8348300  25.2383767  37.0423888  36.7447772  24.8259421  36.8940865
  34.6758300  24.5333767  37.2563888  34.6967014  23.4437791  37.2774298
  31.2508300  27.5643767  37.5003888  30.4328300  27.4233767  36.5913888
  31.8888300  28.7113767  37.7333888  32.5246470  28.7863799  38.5145485
  31.6518300  29.8963767  36.9193888  30.9042708  29.6789516  36.1565121
  31.1408300  31.0463767  37.7913888  30.2222250  30.6529774  38.2267062
  31.8732712  31.2149154  38.5808345  30.8428300  32.3693767  37.0813888
  30.5564763  32.1628121  36.0501597  29.7138300  33.1033767  37.7823888
  29.9996499  33.3107131  38.8136101  29.5139146  34.0420156  37.2655797
  28.8161766  32.4851447  37.7719946  32.0778300  33.2533767  37.0143888
  32.8657241  32.7368243  36.4662138  31.8314864  34.1845974  36.5042476
  32.4230167  33.4734248  38.0245986  32.9198300  30.3083767  36.1823888
  32.8908300  30.5383767  34.9683888  34.0348300  30.4033767  36.9023888
  34.0102734  30.1969466  37.8907627  35.2928300  30.8463767  36.3213888
  35.2435753  30.7478969  35.2369650  35.5858300  32.3103767  36.6673888
  34.6959998  32.7669270  37.1008208  36.4043847  32.3577127  37.3856000
  36.0568300  33.3223767  35.2483888  36.4188300  29.9493767  36.8153888
  36.3108300  29.2923767  37.8533888  37.5098300  29.9393767  36.0573888
  37.5708461  30.5766267  35.2761790  38.6228300  29.0483767  36.3043888
  38.2286602  28.1217992  36.7217417  39.1074377  28.8394436  35.3506584
  39.6448300  29.6233767  37.2603888  39.3468300  30.4743767  38.1013888
  40.8768300  29.1433767  37.1193888  41.0695973  28.4912904  36.3725798
  41.9548300  29.4833767  38.0323888  41.5578360  30.0245073  38.8912675
  42.6448300  28.2133767  38.5313888  43.1213514  27.7199719  37.6842888
  43.4036765  28.4932930  39.2620726  41.7158300  27.3283767  39.1313888
  42.1739385  26.5413255  39.4351761  42.9718300  30.4043767  37.3623888
  42.9698300  30.6063767  36.1463888  43.8518300  30.9693767  38.1863888
  43.7224060  30.8390352  39.1795453  44.9448300  31.8273767  37.7373888
  45.4870189  32.2112405  38.6015525  45.9228300  31.0483767  36.8523888
  45.9860991  30.0115923  37.1828042  45.5920682  31.0787756  35.8142305
  47.3178300  31.5903767  36.8733888  48.4288300  30.7903767  36.7113888
  48.4002249  29.7912718  36.5662307  49.5178300  31.5343767  36.7763888
  50.5047118  31.0836390  36.6715143  49.1548300  32.7883767  36.9733888
  49.7760730  33.5797217  37.0624398  47.7838300  32.8513767  37.0393888
  47.2894039  33.8093187  37.2006069  44.4418300  33.0633767  37.0023888
  45.1358300  33.6003767  36.1333888  43.2408300  33.5263767  37.3323888
  42.6577872  33.0262403  37.9881510  42.7158300  34.7403767  36.7303888
  42.8603285  34.7098978  35.6504395  41.2218300  34.8763767  37.0193888
  41.1792736  35.1729857  38.0673923  40.8142688  35.6749380  36.3994744
  40.3988300  33.6033767  36.8163888  40.6888543  32.8688120  37.5676553
  38.9198300  33.9043767  36.9493888  38.6289431  34.6385727  36.1980966
  38.3474582  32.9884804  36.8023333  38.7175932  34.3029234  37.9435523
  40.7018300  32.9793767  35.4713888  41.7606790  32.7262249  35.4179815
  40.1059018  32.0751878  35.3472381  40.4574586  33.6866366  34.6788201
  43.4608300  35.9593767  37.2573888  43.8528300  36.0203767  38.4263888
  43.6558300  36.9393767  36.3803888  43.3160556  36.8282405  35.4357717
  44.3898300  38.1543767  36.7123888  44.4304021  38.3131970  37.7899922
  45.8308300  38.1163767  36.1653888  45.7973747  37.9687193  35.0859550
  46.5508300  39.4193767  36.4763888  46.5850919  39.5675049  37.5557335
  47.5667046  39.3764557  36.0836332  46.0174593  40.2493780  36.0130150
  46.5878300  36.9333767  36.7443888  46.0808542  36.0079660  36.4710890
  47.6030510  36.9216720  36.3477922  46.6235119  37.0204652  37.8303184
  43.6378300  39.3533767  36.1553888  43.1298300  39.3163767  35.0303888
  43.5668300  40.4153767  36.9503888  43.8805611  40.3229870  37.9059704
  43.0288300  41.6963767  36.5223888  43.0875352  41.7661516  35.4362100
  41.5688300  41.8623767  36.9443888  41.0182366  41.0100133  36.5463652
  41.5419447  41.8350332  38.0337140  40.9298300  43.1513767  36.4543888
  41.5221932  43.9976773  36.8022135  40.9301537  43.1317715  35.3645655
  39.4948300  43.3013767  36.9123888  39.1058300  42.6113767  37.8763888
  38.7568300  44.1083767  36.3093888  37.8632762  44.1354446  36.6586854
  43.8738300  42.8083767  37.1233888  44.4528300  42.6453767  38.2013888
  39.2060602  44.5655845  35.5948035  38.1828081  42.7610812  38.0954597
  39.7953949  42.0510867  38.2390076  43.9428300  43.9373767  36.4253888
  43.4711341  43.9963485  35.5342520  44.7128300  45.0863767  36.8753888
  44.6102947  45.2007388  37.9545120  46.1958300  44.9183767  36.5403888
  46.3154979  44.8118094  35.4622315  46.7474751  45.7942743  36.8818434
  46.5827988  44.0291600  37.0380313  44.1648300  46.3483767  36.2293888
  44.3808300  46.5843767  35.0363888  43.4708300  47.1593767  37.0193888
  43.3191547  46.8880280  37.9803590  42.8788300  48.4033767  36.5523888
  42.9603370  48.4642871  35.4671488  41.3998300  48.4763767  36.9363888
  40.9197910  47.7806401  36.2481937  41.3015485  48.1039728  37.9560731
  40.7288300  49.8443767  36.8273888  41.1147095  50.4907948  37.6156409
  41.0088300  50.4683767  35.4843888  40.6228019  49.8227102  34.6955948
  40.5221372  51.4419962  35.4269771  42.0843447  50.5923615  35.3579125
  39.2338300  49.7133767  37.0563888  39.0524285  49.3050481  38.0506024
  38.7661040  50.6946609  36.9762952  38.8080164  49.0462285  36.3069256
  43.6448300  49.5773767  37.1433888  43.7598300  49.6963767  38.3673888
  44.1648300  50.4383767  36.2733888  44.0166052  50.2781798  35.2872520
  44.9638300  51.5873767  36.6733888  45.1189608  51.5648410  37.7520573
  46.3278300  51.5763767  35.9833888  46.1538349  51.5580604  34.9075219
  46.8071633  52.5161802  36.2574490  47.2238300  50.4243767  36.3673888
  46.9168300  49.1283767  35.9913888  46.0089069  48.9489452  35.4155593
  47.7358300  48.0743767  36.3323888  47.4769497  47.0580251  36.0355515
  48.8848300  48.3093767  37.0513888  49.7048300  47.2583767  37.3913888
  49.3793857  46.4117379  37.0769235  49.2178300  49.5893767  37.4313888
  50.1278549  49.7774206  38.0011208  48.3908300  50.6383767  37.0863888
  48.6501342  51.6558297  37.3790503  44.2288300  52.8733767  36.3273888
  43.8418300  53.0833767  35.1733888  44.0408300  53.7273767  37.3283888
  44.2456980  53.4127904  38.2660262  43.5358300  55.0813767  37.1493888
  43.3189008  55.2510806  36.0947602  42.2558300  55.3053767  37.9533888
  42.4900457  54.8113433  38.8963486  42.1728827  56.3797561  38.1174883
  40.9288300  54.7683767  37.4123888  40.2472797  54.5998028  38.2461591
  40.3118300  55.7593767  36.4493888  40.9926482  55.9281185  35.6150558
  39.3687279  55.3626183  36.0735670  40.1290754  56.7021978  36.9649366
  41.1078300  53.4243767  36.7453888  41.5008868  52.7090980  37.4678721
  40.1460008  53.0722009  36.3726180  41.8059089  53.5209527  35.9138493
  44.6268300  56.0383767  37.6063888  44.6888300  56.3913767  38.7893888
  45.4818300  56.4583767  36.6753888  45.3147512  56.2616295  35.6989286
  46.7118300  57.1523767  37.0403888  46.7583015  57.3634776  38.1087408
  47.9488300  56.3223767  36.6483888  47.9715322  56.2090988  35.5645290
  49.2218300  57.0143767  37.1123888  49.2000641  57.1276013  38.1962741
  50.0864189  56.4148492  36.8275146  49.2923335  57.9971651  36.6462795
  47.8628300  54.9183767  37.2253888  46.9713608  54.4216133  36.8424908
  48.7471797  54.3510056  36.9353627  47.8082024  54.9745114  38.3125712
  46.7768300  58.5293767  36.3973888  47.2188300  58.6743767  35.2523888
  46.3438300  59.5493767  37.1313888  45.7563909  59.3932964  37.9380198
  46.6718300  60.9193767  36.7723888  46.6955668  61.0192976  35.6872383
  45.6308300  61.8863767  37.3283888  45.2805751  61.5270466  38.2960161
  46.0780897  62.8731617  37.4480307  44.1578300  62.0823767  36.3043888
  48.0538300  61.2633767  37.3103888  48.1988300  61.7593767  38.4313888
  49.0728300  60.9953767  36.5013888  48.8939021  60.7648136  35.5344737
  50.4448300  61.0213767  36.9573888  50.5246691  60.3718077  37.8290453
  51.0753717  60.6338726  36.1571657  50.9218300  62.4113767  37.3323888
  50.1488300  63.3193767  37.6393888  52.2448300  62.5643767  37.3003888
  52.8178911  61.8006000  36.9712302  52.9088300  63.7723767  37.7733888
  52.7542685  63.8891449  38.8460374  54.4108300  63.6803767  37.5033888
  54.5389363  63.5795703  36.4256476  54.8559972  64.6182544  37.8355208
  55.0938300  62.5203767  38.2043888  54.8576305  62.5597202  39.2677621
  54.7021099  61.5961072  37.7796765  56.5968300  62.5183767  38.0073888
  57.1398300  63.5493767  37.5593888  57.2338300  61.4853767  38.3003888
  58.1765498  61.5654150  38.1389815  52.3418300  65.0293767  37.1273888
  52.1418300  65.0773767  35.9103888  56.6735998  60.7818885  38.6361349
  58.0904736  63.4578301  37.4580533  56.5167300  64.2607188  37.3961220
  52.0788300  66.0493767  37.9403888  52.1864146  65.9116685  38.9351557
  51.6088300  67.3453767  37.4693888  51.7998286  67.4315085  36.3997159
  50.1098300  67.5183767  37.7133888  49.9451076  67.3989579  38.7842319
  49.8539759  68.5359754  37.4182082  49.2348300  66.5363767  36.9543888
  49.5160246  66.5656010  35.9016892  49.4141917  65.5367514  37.3502178
  47.7608300  66.8793767  37.0943888  47.1757590  66.1847437  36.4916650
  47.4718471  66.7839327  38.1410400  47.4728300  68.2383767  36.6523888
  48.2394181  68.7627428  36.2555485  46.2838300  68.8203767  36.7353888
  45.2388300  68.1903767  37.2453888  45.3388409  67.2434608  37.5822094
  44.3455808  68.6590713  37.2956971  46.1408300  70.0673767  36.2973888
  46.9339729  70.5566797  35.9080214  45.2397027  70.5197400  36.3560042
  52.3908300  68.4323767  38.1893888  52.8998300  68.2063767  39.2923888
  52.4928300  69.5923767  37.5713888  52.1126508  69.7053582  36.6425194
  53.1428300  70.7293767  38.1903888  52.5460603  71.6246327  38.0157981
  53.2298968  70.5548157  39.2627913  54.5308300  70.9393767  37.6093888
  54.7798300  70.6373767  36.4443888  55.4158300  71.4593767  38.4553888
  55.1340350  71.6012016  39.4148556  56.7588300  71.8663767  38.0623888
  56.8594044  71.7933218  36.9795005  57.0408300  73.3103767  38.4833888
  56.9914070  73.4160776  39.5671249  58.0350526  73.5918003  38.1363698
  56.0828300  74.3183767  37.9083888  54.7398300  74.2913767  38.2393888
  54.3772990  73.5237407  38.9230599  53.8628300  75.2193767  37.7163888
  52.8054220  75.1788104  37.9778146  54.3238300  76.1963767  36.8643888
  53.6347396  76.9336040  36.4523810  55.6598300  76.2413767  36.5323888
  56.0275607  77.0131490  35.8561922  56.5338300  75.3083767  37.0563888
  57.5922146  75.3481017  36.7988160  57.7628300  70.9213767  38.7053888
  57.7268300  70.7093767  39.9213888  58.6508300  70.3563767  37.8903888
  58.6095937  70.5673396  36.9035283  59.6598300  69.4133767  38.3533888
  59.7037027  69.4327099  39.4423335  59.3298300  67.9883767  37.9023888
  59.3321621  67.9246793  36.8142544  60.0630250  67.2913524  38.3081992
  57.9838300  67.5083767  38.3573888  56.8298300  68.0123767  37.7883888
  56.9109831  68.7629834  37.0021931  55.5928300  67.5803767  38.2003888
  54.6916962  67.9895692  37.7436393  55.4918300  66.6313767  39.1893888
  54.5110482  66.2889044  39.5193581  56.6328300  66.1123767  39.7643888
  56.5567774  65.3570593  40.5465727  57.8728300  66.5513767  39.3473888
  58.7762518  66.1425940  39.7999654  61.0158300  69.8373767  37.8163888
  61.1718300  70.0433767  36.6093888  61.9978300  69.9513767  38.7113888
  61.8068324  69.7362304  39.6795475  63.3268300  70.4353767  38.3603888
  63.3994034  70.5545519  37.2793571  63.6058300  71.7853767  39.0203888
  63.7172591  71.6112160  40.0905994  64.5504622  72.1430659  38.6107201
  62.5318300  72.8223767  38.7883888  61.3448300  72.7903767  39.5013888
  61.1947847  71.9978684  40.2345439  60.3638300  73.7353767  39.2983888
  59.4340910  73.6938726  39.8658080  60.5618300  74.7343767  38.3763888
  59.5858300  75.6793767  38.1713888  58.8120661  75.5453713  38.7235949
  61.7308300  74.7923767  37.6573888  61.8886351  75.5843469  36.9252813
  62.7098300  73.8393767  37.8663888  63.6406116  73.8810698  37.3006968
  64.3988300  69.4253767  38.7523888  65.4698300  69.8043767  39.2323888
  64.1228300  68.1403767  38.5563888  63.2182393  67.8695009  38.1980016
  65.0808300  67.0903767  38.8793888  65.2769575  67.0801958  39.9515499
  64.5558300  65.7053767  38.4623888  64.4305156  65.6869881  37.3797723
  65.5298300  64.6133767  38.8783888  65.6553043  64.6308429  39.9610017
  65.1393797  63.6422921  38.5740166  66.4936876  64.7834471  38.3986440
  63.2828300  65.4673767  39.0753888  62.9581267  64.6028000  38.8133292
  66.4188300  67.3433767  38.1933888  66.4658300  67.6793767  37.0103888
  67.5138300  67.2033767  38.8603888  67.5116255  66.9285688  39.8322813
  68.7928300  67.4423767  38.2153888  68.6285811  67.7287234  37.1765777
  69.3177088  68.2445199  38.7342039  69.3935416  66.5335274  38.2505815
  24.5315164  43.0240621  30.2183431  24.7048300  42.6263767  29.2183888
  25.4079060  43.2687466  28.6881594  23.7621847  42.5916354  28.6722094
  25.2798300  41.2273767  29.2803888  25.4968300  40.6743767  30.3663888
  25.5468300  40.6013767  28.1843888  25.3522676  41.0078571  27.2804980
  26.1008300  39.2533767  28.2313888  26.5604457  39.0764161  29.2037763
  24.9998300  38.2153767  28.0153888  24.2246976  38.4120058  28.7560682
  24.5967297  38.3794780  27.0160485  25.4678300  36.7743767  28.1423888
  26.2574074  36.5952162  27.4126149  25.8616420  36.6232870  29.1474689
  24.3538300  35.7773767  27.9043888  23.1928300  36.1523767  27.7413888
  24.7018300  34.4963767  27.8803888  23.9987431  33.7880579  27.7252929
  25.6680547  34.2360754  28.0173352  27.1918300  39.0823767  27.1813888
  26.9778300  38.4383767  26.1553888  28.3638300  39.6533767  27.4463888
  28.4967709  40.1581760  28.3110296  29.4618300  39.6203767  26.4903888
  29.1847265  38.9901931  25.6452962  29.7938300  41.0203767  25.9683888
  30.6916442  40.9754099  25.3519419  28.9617166  41.3926963  25.3708391
  30.1158300  42.2543767  27.2483888  30.6768300  38.9913767  27.1523888
  30.7458300  38.8623767  28.3753888  31.6378300  38.5993767  26.3213888
  31.4879851  38.6861420  25.3263422  32.8888300  38.0163767  26.7823888
  32.9012012  38.0090697  27.8722937  33.0608300  36.5823767  26.2823888
  32.3340634  35.9358937  26.7742925  32.9027784  36.5515069  25.2043504
  34.7058300  35.9113767  26.6153888  34.0608300  38.8603767  26.3073888
  34.0738300  39.3403767  25.1693888  35.0248300  39.0583767  27.2073888
  34.8259779  38.8120952  28.1665043  36.3048300  39.7053767  26.9073888
  36.7337091  40.1168582  27.8210872  37.3058300  38.7123767  26.2993888
  37.2463704  37.7817674  26.8637744  37.0178300  38.4343767  24.8323888
  37.0775681  39.3645090  24.2672473  37.7511780  37.7269270  24.4453298
  36.0180075  38.0121395  24.7315360  38.6308300  39.2433767  26.4123888
  39.2575385  38.6232662  26.0325207  36.1398300  40.9293767  26.0103888
  37.0088300  41.2393767  25.1923888  35.0308300  41.6493767  26.1673888
  34.2377577  41.2797289  26.6718649  34.9118300  42.9683767  25.5663888
  35.8112820  43.5454944  25.7809126  34.7408300  42.8773767  24.0563888
  34.6826748  43.8870306  23.6497977  35.6074691  42.3665968  23.6366976
  33.5638300  42.1643767  23.7193888  33.4785844  42.1207548  22.7641767
  33.7428300  43.7173767  26.1833888  32.9848300  43.1773767  26.9933888
  33.6138300  44.9813767  25.7763888  34.2503382  45.3628476  25.0912343
  32.5988300  45.8593767  26.3393888  32.4673830  45.6844888  27.4072067
  32.9878300  47.3263767  26.1053888  33.0298862  47.5154605  25.0327383
  31.9668300  48.2563767  26.7443888  31.9245408  48.0681904  27.8171880
  32.2580221  49.2919979  26.5688988  30.9855536  48.0760393  26.3054419
  34.3898300  47.6023767  26.6573888  34.3204155  47.5777713  27.7448983
  35.0369760  46.7941220  26.3167632  34.9668300  48.9263767  26.2203888
  34.3204260  49.7351992  26.5610761  35.9604752  49.0501533  26.6510251
  35.0369843  48.9515506  25.1329402  31.2478300  45.5433767  25.7173888
  31.1628300  45.1033767  24.5633888  30.1808300  45.7643767  26.4823888
  30.2984989  45.9595814  27.4663341  28.8288300  45.6783767  25.9533888
  28.8071266  46.1251450  24.9593937  28.3428300  44.2283767  25.8493888
  27.3115812  44.2146937  25.4966312  28.9735958  43.6826617  25.1476554
  28.3688300  43.2773767  27.3733888  27.8848300  46.4853767  26.8313888
  28.1878300  46.7883767  27.9873888  26.7378300  46.8383767  26.2573888
  26.6093059  46.5787960  25.2898151  25.6988300  47.6333767  26.9043888
  24.9207345  47.8720811  26.1793462  25.0628300  46.8713767  28.0723888
  24.6651528  45.9276500  27.6991167  25.8311795  46.6712725  28.8191801
  24.0168300  47.6243767  28.6613888  23.6351322  47.1274318  29.3886799
  26.2078300  48.9843767  27.3893888  25.5368300  49.6403767  28.1943888
  27.3748300  49.4193767  26.9223888  27.9387677  48.8364264  26.3205229
  27.8968300  50.7193767  27.3083888  27.7173935  50.8922837  28.3695226
  29.4018300  50.7803767  27.0513888  29.7936810  49.9489996  27.6373615
  29.5426957  50.5745725  25.9903037  30.1478300  52.0643767  27.4253888
  29.7757897  52.8734405  26.7968169  29.9468300  52.4243767  28.8823888
  30.3190798  51.6159333  29.5116328  30.4914927  53.3408888  29.1092120
  28.8850217  52.5758200  29.0766272  31.6258300  51.9013767  27.1373888
  31.7694429  51.6974951  26.0763011  32.1519330  52.8176590  27.4052389
  32.0212910  51.0715034  27.7230677  27.1708300  51.8243767  26.5453888
  26.4488300  51.5773767  25.5763888  27.3398300  53.0573767  27.0183888
  27.8312801  53.1839563  27.8916320  26.7848300  54.2333767  26.3613888
  26.2554076  53.9402690  25.4548023  25.7958300  54.9413767  27.3003888
  24.9167362  54.3009364  27.3720108  26.2714302  55.0154112  28.2783578
  25.3788300  56.3193767  26.8373888  26.0778300  57.4473767  27.2393888
  26.9375137  57.3252331  27.8982699  25.7028300  58.7083767  26.8203888
  26.2650607  59.5854822  27.1408329  24.6118300  58.8543767  25.9933888
  24.2358300  60.1093767  25.5773888  24.8014951  60.8040582  25.9224108
  23.8978300  57.7493767  25.5823888  23.0343492  57.8640401  24.9271379
  24.2818300  56.4913767  26.0053888  23.7200400  55.6137739  25.6855366
  27.8538300  55.2113767  25.9003888  27.8698300  55.5993767  24.7283888
  28.7608300  55.6213767  26.7853888  28.7454755  55.2587967  27.7279381
  29.7578300  56.6353767  26.4493888  29.8335789  56.7259728  25.3658051
  29.3748300  57.9963767  27.0273888  28.4352707  58.2930569  26.5612252
  29.2219409  57.8617099  28.0981781  30.4158300  59.0753767  26.7973888
  31.2656025  58.8845166  27.4527970  30.7429754  59.0360477  25.7583839
  29.8848300  60.4643767  27.0853888  28.7208300  60.6343767  27.4463888
  30.7378300  61.4683767  26.9223888  30.4374594  62.4161230  27.1003101
  31.6832732  61.2798952  26.6212023  31.1208300  56.1963767  26.9633888
  31.2298300  55.6463767  28.0633888  32.1508300  56.4383767  26.1603888
  31.9641184  56.7913691  25.2326849  33.5318300  56.1913767  26.5383888
  33.6470684  56.3192039  27.6147156  33.9458300  54.7663767  26.1683888
  33.0660986  54.1833185  26.4408133  34.0782851  54.7394360  25.0868020
  35.1818300  54.1723767  26.8483888  35.0809564  54.2748175  27.9288661
  35.3168300  52.7043767  26.4903888  35.4182187  52.6011613  25.4100343
  36.1989785  52.2903904  26.9787841  34.4304275  52.1653137  26.8247571
  36.4448300  54.9253767  26.4773888  36.3517094  55.9665373  26.7862781
  37.2993394  54.4727326  26.9804079  36.5925171  54.8788516  25.3984435
  34.4318300  57.1993767  25.8363888  34.3458300  57.3883767  24.6233888
  35.2958300  57.8583767  26.6033888  35.3787221  57.7089999  27.5988358
  36.1298300  58.8783767  25.9873888  36.5753091  58.4836533  25.0742398
  35.3038300  60.1203767  25.6323888  36.0047561  60.8801031  25.2865311
  34.6414597  59.8383590  24.8139563  34.4828300  60.6753767  26.7773888
  33.6809272  59.9777276  27.0189222  35.1427774  60.7817410  27.6383505
  33.9048300  62.0413767  26.4673888  34.4628300  62.7423767  25.5973888
  32.8888300  62.4123767  27.0903888  32.5927744  63.2903139  26.8398762
  37.2778300  59.2773767  26.8993888  37.0678300  59.5953767  28.0693888
  32.5743378  61.7581208  27.7184993  34.0361275  63.5936558  25.4724014
  35.2208438  62.3107086  25.1973952  38.4838300  59.2793767  26.3423888
  38.6536899  58.7679384  25.4881770  39.5968300  59.9843767  26.9563888
  39.6026156  59.7981552  28.0303475  40.9248300  59.5083767  26.3713888
  40.8568369  58.4388319  26.1725170  41.1073912  60.0401555  25.4375886
  42.0898300  59.7533767  27.3023888  42.0458300  60.6463767  28.1443888
  43.1428300  58.9583767  27.1553888  43.9493250  59.0781868  27.7514685
  43.1325971  58.2373984  26.4481503  39.4038300  61.4763767  26.7153888
  38.4188300  61.8853767  26.0923888  40.3318300  62.2923767  27.2083888
  41.1245982  61.9352907  27.7223027  40.2028300  63.7353767  27.0523888
  40.0271816  63.9770849  26.0041407  39.0298300  64.2673767  27.8803888
  38.2663404  63.4898779  27.8543382  39.3792202  64.3986093  28.9045003
  38.4428300  65.5663767  27.3783888  39.1598300  66.7513767  27.4513888
  40.1645221  66.7332689  27.8737218  38.6218300  67.9403767  27.0003888
  39.1986669  68.8634788  27.0573403  37.3468300  67.9553767  26.4753888
  36.8058300  69.1373767  26.0263888  37.4008133  69.8841063  26.1263362
  36.6118300  66.7923767  26.3983888  35.6040593  66.8024085  25.9831802
  37.1598300  65.6093767  26.8513888  36.5828338  64.6861140  26.7988386
  41.4978300  64.4083767  27.4773888  42.1098300  64.0093767  28.4723888
  41.9018300  65.4273767  26.7263888  41.4033720  65.6392323  25.8738888
  43.0768300  66.2263767  27.0573888  42.9088333  66.7446254  28.0014728
  44.3228300  65.3483767  27.1963888  45.2151606  65.9721868  27.1443663
  44.2977437  64.8302529  28.1550433  44.5138300  64.0593767  25.9533888
  43.3088300  67.2973767  25.9983888  43.2348300  67.0243767  24.8003888
  43.5858300  68.5043767  26.3613888  43.6546042  68.7633162  27.3352059
  43.8078300  69.5313767  25.3583888  43.6994225  69.0982984  24.3640087
  43.0776229  70.3302229  25.4877835  44.8132665  69.9373493  25.4696702
  26.3822587  28.6221709  31.5429819  26.6478300  27.9863767  30.6983888
  26.4064400  28.4988363  29.7671453  26.0871974  27.0533203  30.7549209
  28.1258300  27.6633767  30.7033888  28.8718300  28.1033767  31.5883888
  28.6168300  26.9183767  29.7713888  28.1871470  26.0418978  29.5120499
  29.8478300  27.3103767  29.0973888  30.5817867  27.6428120  29.8314824
  30.4318300  26.1283767  28.3233888  30.2853940  25.2087152  28.8898501
  29.9499759  26.0356163  27.3500891  31.9018300  26.2423767  28.0643888
  32.5458300  27.4543767  27.9413888  32.0935991  28.3547089  28.0120215
  33.8318300  27.2463767  27.7193888  34.5152999  28.0855919  27.5902156
  34.0458300  25.9433767  27.6973888  34.9353346  25.4889763  27.5477170
  32.8558300  25.2933767  27.9123888  32.8257840  24.2039793  27.9326802
  29.5758300  28.4803767  28.1603888  28.7518300  28.3793767  27.2533888
  30.2668300  29.5963767  28.3943888  30.9040331  29.6411252  29.1767372
  30.0858300  30.7923767  27.5813888  29.3288113  30.6113192  26.8183422
  29.6298300  31.9633767  28.4543888  28.6941173  31.6121882  28.8893689
  30.3692922  32.0971628  29.2439436  29.3928300  33.3003767  27.7453888
  29.0966442  33.1081555  26.7141634  28.2998300  34.0853767  28.4473888
  28.5955185  34.2783937  29.4786072  28.1435359  35.0326994  27.9313920
  27.3743795  33.5095864  28.4370268  30.6678300  34.1253767  27.6773888
  31.4298279  33.5728686  27.1276676  30.4648164  35.0676050  27.1683774
  31.0243617  34.3280485  28.6872938  31.3698300  31.1443767  26.8423888
  31.3508300  31.3763767  25.6293888  32.4898300  31.1863767  27.5623888
  32.4566835  30.9799878  28.5505205  33.7668300  31.5703767  26.9803888
  33.7122527  31.4751568  25.8959287  34.1278300  33.0193767  27.3273888
  33.2604278  33.5164276  27.7617310  34.9481374  33.0280950  28.0451072
  34.6438300  34.0093767  25.9073888  34.8498300  30.6223767  27.4733888
  34.7108300  29.9703767  28.5103888  35.9378300  30.5613767  26.7143888
  36.0280275  31.1956722  25.9335988  37.0078300  29.6183767  26.9593888
  36.5713790  28.7112233  27.3773391  37.4811142  29.3869729  26.0051594
  38.0568300  30.1453767  27.9143888  37.7998300  31.0083767  28.7563888
  39.2648300  29.6083767  27.7723888  39.4260230  28.9484390  27.0249943
  40.3588300  29.8963767  28.6853888  39.9882155  30.4545754  29.5451319
  40.9888300  28.5953767  29.1823888  41.4403718  28.0807096  28.3342573
  41.7610749  28.8387699  29.9121130  40.0198300  27.7543767  29.7833888
  40.4408579  26.9464331  30.0859817  41.4168300  30.7703767  28.0143888
  41.4228300  30.9723767  26.7983888  42.3228300  31.2923767  28.8383888
  42.1883253  31.1680789  29.8316450  43.4548300  32.0983767  28.3883888
  44.0148865  32.4561860  29.2523381  44.3948300  31.2753767  27.5023888
  44.4096192  30.2367931  27.8328802  44.0651545  31.3211719  26.4644500
  45.8138300  31.7513767  27.5223888  46.8848300  30.9003767  27.3583888
  46.8090773  29.9038287  27.2126034  48.0078300  31.5923767  27.4223888
  48.9724635  31.0962399  27.3154807  47.7038300  32.8623767  27.6213888
  48.3609543  33.6241172  27.7110491  46.3378300  32.9883767  27.6883888
  45.8881688  33.9680044  27.8503628  43.0088300  33.3573767  27.6543888
  43.7268300  33.8613767  26.7853888  41.8308300  33.8753767  27.9853888
  41.2253235  33.4025848  28.6410786  41.3628300  35.1133767  27.3843888
  41.5043118  35.0769828  26.3042232  39.8778300  35.3183767  27.6753888
  39.8504890  35.6157465  28.7236840  39.5073350  36.1356750  27.0566344
  38.9958300  34.0853767  27.4723888  39.2514968  33.3377033  28.2232015
  37.5328300  34.4553767  27.6063888  37.2762842  35.2027223  26.8555508
  36.9180086  33.5674177  27.4593369  37.3501123  34.8625746  28.6008256
  39.2678300  33.4483767  26.1273888  40.3135523  33.1457221  26.0729418
  38.6299239  32.5732479  26.0035884  39.0562649  34.1665589  25.3352060
  42.1658300  36.2963767  27.9123888  42.5608300  36.3373767  29.0803888
  42.4048300  37.2663767  27.0353888  42.0591545  37.1719661  26.0910930
  43.1948300  38.4453767  27.3673888  43.2433169  38.6022019  28.4449574
  44.6328300  38.3403767  26.8193888  44.5918869  38.1949669  25.7399079
  45.4128300  39.6073767  27.1303888  45.4546009  39.7532190  28.2097803
  46.4253574  39.5171015  26.7370200  44.9186668  40.4616755  26.6677031
  45.3328300  37.1223767  27.3973888  44.7824955  36.2222830  27.1234082
  46.3463358  37.0628133  27.0007052  45.3726481  37.2068259  28.4833831
  42.4998300  39.6783767  26.8113888  41.9888300  39.6653767  25.6863888
  42.4788300  40.7413767  27.6073888  42.7880104  40.6334194  28.5628217
  42.0018300  42.0473767  27.1803888  42.0625827  42.1152954  26.0942049
  40.5508300  42.2813767  27.6043888  39.9604188  41.4558535  27.2068647
  40.5238081  42.2551858  28.6937390  39.9728300  43.5983767  27.1153888
  40.6043902  44.4160735  27.4626703  39.9714372  43.5786708  26.0255682
  38.5468300  43.8153767  27.5743888  38.1268300  43.1443767  28.5383888
  37.8468300  44.6563767  26.9723888  36.9558184  44.7250279  27.3224809
  42.8978300  43.1183767  27.7813888  43.4698300  42.9273767  28.8583888
  38.3163449  45.0924446  26.2576305  37.2119918  43.3370687  28.7581928
  38.7897104  42.5523968  28.9004198  43.0188300  44.2433767  27.0833888
  42.5491092  44.3254792  26.1930400  43.8428300  45.3543767  27.5333888
  43.7473204  45.4729108  28.6127065  45.3148300  45.1173767  27.1963888
  45.4278200  45.0058255  26.1180152  45.9074119  45.9662964  27.5373907
  45.6604128  44.2107665  27.6931077  43.3538300  46.6413767  26.8883888
  43.5788300  46.8673767  25.6963888  42.6988300  47.4833767  27.6793888
  42.5354239  47.2188011  28.6403245  42.1648300  48.7543767  27.2133888
  42.2475561  48.8121045  26.1280671  40.6918300  48.8953767  27.5993888
  40.1799379  48.2230977  26.9108347  40.5765575  48.5272571  28.6188495
  40.0848300  50.2933767  27.4913888  40.5005077  50.9206677  28.2799437
  40.3928300  50.9043767  26.1493888  39.9770385  50.2778438  25.3602925
  39.9517453  51.8995380  26.0928283  41.4728911  50.9784925  26.0226004
  38.5858300  50.2333767  27.7223888  38.3866322  49.8341488  28.7168921
  38.1650145  51.2357160  27.6428173  38.1278706  49.5871171  26.9735759
  42.9858300  49.8903767  27.8043888  43.1068300  50.0033767  29.0283888
  43.5448300  50.7263767  26.9353888  43.3888901  50.5734341  25.9492901
  44.3968300  51.8373767  27.3353888  44.5519786  51.8074510  28.4138750
  45.7588300  51.7623767  26.6433888  45.5833839  51.7526143  25.5676460
  46.2820921  52.6784760  26.9173577  46.5998300  50.5693767  27.0263888
  46.2328300  49.2893767  26.6503888  45.3168610  49.1535806  26.0753586
  47.0008300  48.1983767  26.9893888  46.6945430  47.1957257  26.6910920
  48.1608300  48.3783767  27.7073888  48.9308300  47.2903767  28.0463888
  48.5657427  46.4599450  27.7322326  48.5528300  49.6413767  28.0883888
  49.4706203  49.7860305  28.6583332  47.7758300  50.7283767  27.7443888
  48.0829936  51.7323738  28.0372033  43.7218300  53.1563767  26.9903888
  43.3448300  53.3843767  25.8363888  43.5758300  54.0173767  27.9913888
  43.7660824  53.6922272  28.9285020  43.1348300  55.3943767  27.8143888
  42.9263028  55.5759028  26.7600340  41.8668300  55.6763767  28.6183888
  42.0790421  55.1705749  29.5603176  41.8340058  56.7531956  28.7841708
  40.5158300  55.2023767  28.0783888  39.8277241  55.0653341  28.9125533
  39.9458300  56.2213767  27.1173888  40.6332122  56.3586220  26.2826623
  38.9848307  55.8697390  26.7419795  39.8080079  57.1713091  27.6338516
  40.6308300  53.8513767  27.4113888  40.9902642  53.1184205  28.1336640
  39.6532093  53.5448864  27.0393367  41.3320897  53.9148986  26.5793438
  44.2698300  56.2983767  28.2713888  44.3478300  56.6473767  29.4533888
  45.1418300  56.6783767  27.3393888  44.9645220  56.4903560  26.3630131
  46.4038300  57.3133767  27.7033888  46.4613310  57.5223430  28.7716237
  47.5998300  56.4263767  27.3103888  47.6162482  56.3120569  26.2265250
  48.9048300  57.0583767  27.7733888  48.8893446  57.1725995  28.8572773
  49.7401616  56.4190160  27.4878376  49.0208389  58.0367441  27.3070833
  47.4488300  55.0283767  27.8863888  46.5348200  54.5740424  27.5039386
  48.3054691  54.4204564  27.5953530  47.3977270  55.0863832  28.9736443
  46.5328300  58.6873767  27.0603888  46.9798300  58.8113767  25.9153888
  46.1478300  59.7253767  27.7963888  45.5536714  59.5968442  28.6029583
  46.5398300  61.0793767  27.4373888  46.5677767  61.1790129  26.3523124
  45.5448300  62.0923767  27.9943888  45.1777874  61.7480698  28.9612557
  46.0373171  63.0571533  28.1158898  44.0828300  62.3583767  26.9723888
  47.9368300  61.3563767  27.9743888  48.1058300  61.8453767  29.0953888
  48.9418300  61.0423767  27.1643888  48.7519704  60.8214158  26.1973164
  50.3128300  61.0043767  27.6193888  50.3624210  60.3514235  28.4907624
  50.9239070  60.5878472  26.8186470  50.8548300  62.3693767  27.9943888
  50.1258300  63.3133767  28.3023888  52.1838300  62.4603767  27.9613888
  52.7202447  61.6709889  27.6308959  52.9038300  63.6353767  28.4343888
  52.7562072  63.7583946  29.5073162  54.3998300  63.4733767  28.1623888
  54.5218270  63.3663021  27.0845432  54.8888254  64.3894881  28.4936342
  55.0288300  62.2823767  28.8633888  54.7961162  62.3327092  29.9270672
  54.5945388  61.3769794  28.4394240  56.5298300  62.2113767  28.6643888
  57.1198300  63.2153767  28.2163888  57.1178300  61.1493767  28.9563888
  58.0631205  61.1850497  28.7941163  52.3958300  64.9183767  27.7893888
  52.1968300  64.9763767  26.5723888  56.5254393  60.4728745  29.2923903
  58.0650335  63.0793758  28.1140806  56.5306209  63.9552162  28.0539471
  52.1818300  65.9493767  28.6033888  52.2840766  65.8063628  29.5979701
  51.7728300  67.2663767  28.1333888  51.9663949  67.3443758  27.0635533
  50.2828300  67.5083767  28.3793888  50.1136286  67.3946553  29.4501537
  50.0740410  68.5372737  28.0863390  49.3628300  66.5693767  27.6193888
  49.6435495  66.5877610  26.5663174  49.4959546  65.5616107  28.0128194
  47.9068300  66.9803767  27.7623888  47.2886949  66.3138861  27.1608921
  47.6156908  66.8986569  28.8096038  47.6818300  68.3523767  27.3203888
  48.4719584  68.8408447  26.9239099  46.5218300  68.9893767  27.4053888
  45.4478300  68.4083767  27.9153888  45.5030790  67.4572157  28.2505608
  44.5778210  68.9187773  27.9671121  46.4368300  70.2413767  26.9673888
  47.2513947  70.6927857  26.5764741  45.5580660  70.7356047  27.0274831
  52.6048300  68.3143767  28.8533888  53.1038300  68.0643767  29.9563888
  52.7608300  69.4693767  28.2363888  52.3859731  69.6002511  27.3077050
  53.4628300  70.5743767  28.8553888  52.9079038  71.4964181  28.6821957
  53.5431635  70.3952137  29.9275578  54.8588300  70.7203767  28.2723888
  55.0928300  70.4073767  27.1073888  55.7688300  71.1973767  29.1183888
  55.4950844  71.3509412  30.0783787  57.1288300  71.5413767  28.7243888
  57.2246078  71.4648762  27.6413036  57.4788300  72.9693767  29.1463888
  57.4356911  73.0771492  30.2301892  58.4846706  73.2041929  28.7981848
  56.5678300  74.0213767  28.5723888  55.2248300  74.0573767  28.9043888
  54.8264108  73.3073299  29.5876104  54.3928300  75.0263767  28.3823888
  53.3350888  75.0356308  28.6454454  54.8978300  75.9803767  27.5303888
  54.2433267  76.7487499  27.1188939  56.2338300  75.9633767  27.1973888
  56.6366342  76.7174695  26.5212283  57.0638300  74.9903767  27.7203888
  58.1227860  74.9810229  27.4622716  58.0878300  70.5493767  29.3653888
  58.0438300  70.3383767  30.5823888  58.9478300  69.9443767  28.5503888
  58.9159245  70.1583416  27.5638289  59.9118300  68.9553767  29.0113888
  59.9573910  68.9716981  30.1003135  59.5158300  67.5473767  28.5593888
  59.5137421  67.4860136  27.4711198  60.2158028  66.8156122  28.9626985
  58.1488300  67.1303767  29.0153888  57.0188300  67.6883767  28.4483888
  57.1340557  68.4352058  27.6628512  55.7638300  67.3143767  28.8613888
  54.8822478  67.7656820  28.4061558  55.6198300  66.3703767  29.8493888
  54.6241630  66.0738327  30.1792507  56.7348300  65.7983767  30.4233888
  56.6238172  65.0467456  31.2049430  57.9938300  66.1793767  30.0063888
  58.8773256  65.7294513  30.4592713  61.2868300  69.3153767  28.4733888
  61.4498300  69.5143767  27.2663888  62.2728300  69.3823767  29.3683888
  62.0728173  69.1760321  30.3366430  63.6228300  69.8043767  29.0163888
  63.6999209  69.9204209  27.9353291  63.9648300  71.1393767  29.6763888
  64.0700475  70.9611093  30.7465520  64.9243520  71.4522110  29.2646216
  62.9398300  72.2253767  29.4453888  61.7538300  72.2483767  30.1593888
  61.5671829  71.4630501  30.8918671  60.8188300  73.2383767  29.9583888
  59.8887738  73.2397696  30.5268036  61.0618300  74.2273767  29.0363888
  60.1308300  75.2173767  28.8333888  59.3525926  75.1196436  29.3869179
  62.2318300  74.2313767  28.3163888  62.4259426  75.0153401  27.5843900
  63.1648300  73.2343767  28.5243888  64.0966722  73.2333971  27.9589074
  64.6468300  68.7453767  29.4063888  65.7348300  69.0733767  29.8863888
  64.3108300  67.4743767  29.2103888  63.3939923  67.2465373  28.8531812
  65.2188300  66.3803767  29.5313888  65.4137152  66.3605065  30.6036407
  64.6288300  65.0213767  29.1133888  64.5030294  65.0089726  28.0307436
  65.5508300  63.8853767  29.5293888  65.6767475  63.8968520  30.6120303
  65.1157395  62.9335256  29.2247990  66.5216529  64.0105342  29.0498692
  63.3468300  64.8433767  29.7283888  62.9811265  63.9953694  29.4661963
  66.5668300  66.5703767  28.8443888  66.6288300  66.9053767  27.6603888
  67.6548300  66.3783767  29.5103888  67.6412236  66.1033717  30.4821328
  68.9428300  66.5573767  28.8633888  68.7906055  66.8517791  27.8249979
  69.5056725  67.3336191  29.3818061  69.5001789  65.6212549  28.8971256
  86.4895960  96.2366600  63.9296310  86.4090010  95.3221210  63.6588020
  86.0760380  96.7333670  63.2236020  84.6214000  98.0145620  65.8105580
  83.8456100  97.5346060  66.1004150  85.2726930  97.3351270  65.6361740
  78.6379830  98.3265430  66.6881340  77.8064710  98.0714140  67.0877850
  79.2460810  98.3976200  67.4239260  77.0471780  93.2867320  60.4723730
  76.1588480  93.6283290  60.3703610  77.3312970  93.0867640  59.5804560
  75.0104790  95.8872970  66.3563430  75.5820900  95.1195170  66.3567070
  75.0106330  96.1861730  65.4470040  76.2529660  91.2957330  68.1432360
  76.0732500  90.3983080  68.4235120  75.8509740  91.8429200  68.8179310
  85.0928160  93.4973190  66.0444670  85.4692980  92.6245070  65.9318340
  84.9947670  93.8331890  65.1535110  79.2233170  91.8698820  61.5062110
  79.3299920  92.7702550  61.8130870  78.3125530  91.8216790  61.2156760
  88.8752280  90.9923630  62.9773010  89.6961900  90.5020200  63.0198490
  88.9086360  91.5821290  63.7304850  76.8716330  93.7917830  66.7514700
  77.5526440  94.0556200  67.3702100  76.5564380  92.9518700  67.0852710
  81.0640900  94.8385190  65.8387290  81.5719120  95.3366160  66.4792310
  81.5954140  94.0620390  65.6626650  79.3477000  89.4783750  70.1050710
  79.3495440  89.9956140  69.2996610  78.5181310  89.0013930  70.0820640
  89.1113760  92.9324010  65.7500550  88.4069330  93.2208900  66.3303660
  89.4725920  93.7424120  65.3900110  79.0292330  91.1893710  68.1121160
  79.3709140  92.0335760  67.8175030  78.0908140  91.3377450  68.2286500
  82.7120220  88.6775980  64.4365750  83.0195200  88.1222870  63.7201250
  81.7820920  88.8120440  64.2538740  85.1000980  96.7424810  61.1725870
  84.1730260  96.6762190  61.4014340  85.2525800  97.6804940  61.0581110
  85.0870060  93.0141810  58.1693030  84.1473730  93.1755770  58.2545490
  85.4053320  93.7327490  57.6229020  89.1298270  98.3045110  61.6761120
  88.5110690  97.9664660  61.0287420  89.1122720  97.6604870  62.3840310
  88.5724830  94.4829650  69.0926930  88.1596010  95.3083360  69.3466920
  87.8400780  93.8974690  68.9003290  80.7057620  97.2689550  63.9545600
  80.3014620  96.5566800  63.4591500  80.7920740  96.9242790  64.8433640
  79.4186240  94.0432760  67.7344640  79.9700830  94.1528100  66.9597890
  79.9329750  94.4170360  68.4499870  87.3062970  97.5431920  58.6833870
  87.7456250  96.7054350  58.5371690  88.0191390  98.1761320  58.7698010
  79.0928970  97.5652120  71.3449980  78.9536740  98.4374920  71.7137380
  78.2110330  97.2224930  71.1997920  77.4062250  96.1634530  61.4552250
  77.2859850  96.8896620  60.8433520  77.0963140  95.3937440  60.9780160
  79.8725910  89.5069600  64.8375920  79.4294060  90.2879140  64.5060440
  80.4310900  89.8299490  65.5446860  84.1595720  92.3738120  70.4411240
  83.6975090  92.5821140  71.2531180  83.7573830  91.5597470  70.1381910
  89.1600230  93.5947070  71.5707900  88.3093820  93.2952820  71.8916970
  89.0002020  93.8389080  70.6591720  82.9884730  89.1280300  59.7181750
  82.3638910  89.1240170  60.4435060  82.9014850  88.2611260  59.3217720
  81.9101810  90.0516930  66.6965520  82.2074140  90.9579760  66.6157540
  82.4587370  89.5635710  66.0825090  79.6640130  94.6303170  62.5657170
  79.4381050  94.4140340  63.4703790  78.8832660  95.0631630  62.2203140
  86.8937890  94.6366540  61.1647820  86.2946780  95.3602340  60.9811440
  87.4417500  94.5743320  60.3824270  85.5002760  93.2730080  63.1951100
  85.8932330  93.5902280  62.3819790  85.8619610  92.3941960  63.3095620
  77.2349880  91.9402420  71.3851220  76.8413270  92.7877630  71.5924000
  76.5468280  91.3028790  71.5759860  74.5366930  89.8630880  65.4181300
  74.2479980  90.4333740  66.1306280  75.2812690  89.3835330  65.7812530
  74.7237160  93.8051000  56.6284020  74.6411830  94.7481760  56.7699010
  74.3720220  93.6625910  55.7496370  86.0857900  95.8635830  67.2901880
  85.3539020  96.3722640  67.6391980  85.6882240  95.0465810  66.9890660
  82.5235290  92.5390030  65.6954370  82.5271350  92.0979980  64.8458910
  83.4186410  92.8607360  65.8026190  78.3737670  92.4216520  64.6548580
  78.0337720  92.8991750  65.4115630  77.6114990  91.9681640  64.2949680
  82.5855440  93.5402110  58.6861130  82.7068260  93.4988590  59.6346950
  82.2003950  94.4026260  58.5307860  86.5483810  91.3169510  66.7024820
  86.5656550  91.7678160  67.5466670  86.2999390  90.4175150  66.9158260
  81.5976940  95.8503250  58.0844430  81.0293840  95.4021500  57.4580340
  82.3065940  96.2096030  57.5509580  82.8243260  96.5991810  67.4419780
  83.1913390  96.1250380  68.1881120  82.6348320  97.4733380  67.7828120
  75.6883750  91.3435500  63.5713250  75.4030670  90.9791170  64.4091870
  75.6262610  90.6115960  62.9576390  80.6142630  95.6400450  69.7603990
  80.3099700  96.5192430  69.9854350  81.5689090  95.7000240  69.7961430
  85.3622340  90.2364760  60.2926620  84.5486950  89.7377930  60.2171930
  85.1684290  91.0763010  59.8762970  88.0770730  94.6084410  58.5888780
  88.9650350  94.9201640  58.4140120  88.0475820  93.7356660  58.1969360
  76.6706360  96.4803190  70.9075350  76.3121300  97.1457040  71.4948690
  76.3760920  95.6486740  71.2787970  75.1814410  96.4794450  57.5309950
  76.0509260  96.7619250  57.8145870  74.6904730  97.2930320  57.4158760
  82.3449220  97.8667660  61.6518230  82.8012000  98.6772910  61.8778420
  81.9937430  97.5490800  62.4836720  78.2461000  88.2105310  62.1240750
  78.1175630  88.2023210  63.0725670  77.4223020  88.5488400  61.7731760
  75.2454930  89.9696430  71.5847450  74.5313450  90.1693350  72.1900060
  75.6649970  89.1936000  71.9562250  86.7393710  92.4618740  69.3348900
  87.1074530  91.6413950  69.6628470  85.8791910  92.5220630  69.7504550
  90.1055740  91.4175680  60.1436460  89.4768900  91.5221350  59.4294690
  89.6107660  91.6372460  60.9330340  82.0739770  93.6961630  61.5594340
  81.3655920  94.1647970  62.0007950  82.3584250  93.0383640  62.1939530
  83.6995700  95.1158330  69.5586870  84.1980950  95.5904150  70.2238720
  83.8418650  94.1921850  69.7656900  86.1055200  90.4212290  62.9990130
  85.9822980  90.4398420  62.0499640  87.0539760  90.4691230  63.1188530
  80.2774790  92.0046710  58.9345050  81.1265320  92.4416860  58.8685240
  79.9106060  92.3166970  59.7617110  89.1984570  96.5759470  63.8476620
  88.2574710  96.5909700  64.0224310  89.5128640  95.7895430  64.2936920
  79.1766210  98.2579070  57.4080580  79.9429480  98.1460430  57.9706010
  79.2540900  97.5617040  56.7557350  77.8712970  95.6904140  58.0913470
  77.9516560  94.7431650  58.2030870  78.7632720  96.0211020  58.1974130
  81.2085240  98.2544200  59.3823220  81.6301660  98.0884070  60.2254610
  81.3336080  97.4444430  58.8878360  79.3712660  94.2340750  72.1894200
  78.8409120  93.7431700  71.5617540  80.0400730  94.6624950  71.6552130
  83.7212880  97.2781810  56.6300320  84.2418540  96.5630830  56.2641470
  84.3681280  97.9167680  56.9300830  79.8584960  91.2003120  72.2691490
  79.7641830  90.5823870  71.5442360  79.2782350  91.9269410  72.0421400
  82.6246400  89.7576360  69.3018880  82.1763700  89.7800620  68.4564430
  81.9911600  89.3595380  69.8989180  85.3669850  96.3846870  71.3069160
  85.4866060  95.7888010  72.0464000  86.2263850  96.4216560  70.8870460
  87.7057750  96.9384060  69.8831670  87.1792970  97.4626680  69.2796810
  88.0489090  97.5711450  70.5141400  80.1044140  94.3277430  56.3281380
  79.9033200  93.4644790  56.6894720  79.9336190  94.2410790  55.3902980
  87.5832450  89.1385660  58.8568260  87.8634740  88.2953560  59.2127680
  86.8098180  89.3708770  59.3707010  78.9026940  91.4278050  56.3159260
  79.2052840  91.4345480  55.4078410  79.6421530  91.0775910  56.8126920
  82.1211870  90.3712670  57.3015460  81.7733870  89.6936660  56.7217910
  82.3224640  89.9102180  58.1158850  75.4617510  96.9000320  63.6979830
  74.8066350  96.6311960  63.0539530  76.2995460  96.7904800  63.2481810
  88.4107950  91.6941610  57.9198320  88.8292830  91.5072590  57.0794980
  88.1044010  90.8420660  58.2301250  76.4993440  97.2852890  68.2383170
  76.8666480  97.1980290  69.1179190  75.9304260  96.5219440  68.1390030
  76.0509440  94.1961980  72.1441590  75.1565490  94.1628740  72.4835300
  76.5906990  94.3948770  72.9092840  74.6755590  94.1099250  59.6405160
  73.7719670  94.3729450  59.4656820  75.1596210  94.3810420  58.8605120
  77.2182800  93.1664790  57.5499540  77.9274500  92.7448010  57.0646820
  76.5022740  93.2340020  56.9182890  76.8656960  89.2204120  56.5902190
  77.5885090  89.7613060  56.9083410  77.1381480  88.9467540  55.7143730
  76.5549150  88.4710310  66.4924810  77.2025340  87.9207690  66.0519970
  76.9750990  88.7253460  67.3140620  76.3081150  88.6265980  69.2350130
  75.9595970  89.0829800  70.0008310  75.9768850  87.7323110  69.3172560
  87.1988570  88.0380060  68.7231130  86.3248410  88.3715170  68.5204060
  87.0899320  87.5653240  69.5483000  88.1060550  90.2450930  70.1072850
  87.7773910  89.4302690  69.7274580  89.0542850  90.2020740  69.9838540
  84.9463390  88.9549900  67.6624040  84.1635180  89.4295400  67.9420800
  84.6526320  88.0504730  67.5537220  89.4984460  89.6573000  65.7073130
  89.9392550  89.6018100  64.8594730  89.2292050  90.5731010  65.7783310
  76.2903800  89.2597380  60.1837760  77.0483160  89.3726260  59.6101790
  75.8280970  90.0966580  60.1381190  82.8317610  91.3736650  63.1740070
  82.0192120  90.9993540  62.8335950  83.3359250  90.6181730  63.4761260
  87.3342590  88.0379100  64.4123140  87.9371960  88.6099310  64.8871660
  86.5935580  88.6018540  64.1897040  90.4777190  88.4400660  59.6863420
  90.6727820  89.3384110  59.9530850  89.6907060  88.2087740  60.1796370
  78.6628950  89.7861430  58.7239730  79.1921710  88.9991230  58.5947680
  79.2957270  90.4652620  58.9575260  80.8566790  89.5236570  61.7785120
  80.2269530  88.8223880  61.9455250  80.3171930  90.2840700  61.5618280
  86.4895960  96.2366600  45.1552820  86.4090010  95.3221210  44.8844530
  86.0760380  96.7333670  44.4492530  84.6214000  98.0145620  47.0362090
  83.8456100  97.5346060  47.3260660  85.2726930  97.3351270  46.8618250
  78.6379830  98.3265430  47.9137850  77.8064710  98.0714140  48.3134360
  79.2460810  98.3976200  48.6495770  77.0471780  93.2867320  41.6980240
  76.1588480  93.6283290  41.5960120  77.3312970  93.0867640  40.8061070
  75.0104790  95.8872970  47.5819940  75.5820900  95.1195170  47.5823580
  75.0106330  96.1861730  46.6726550  76.2529660  91.2957330  49.3688870
  76.0732500  90.3983080  49.6491630  75.8509740  91.8429200  50.0435820
  85.0928160  93.4973190  47.2701180  85.4692980  92.6245070  47.1574850
  84.9947670  93.8331890  46.3791620  79.2233170  91.8698820  42.7318620
  79.3299920  92.7702550  43.0387380  78.3125530  91.8216790  42.4413270
  88.8752280  90.9923630  44.2029520  89.6961900  90.5020200  44.2455000
  88.9086360  91.5821290  44.9561360  76.8716330  93.7917830  47.9771210
  77.5526440  94.0556200  48.5958610  76.5564380  92.9518700  48.3109220
  81.0640900  94.8385190  47.0643800  81.5719120  95.3366160  47.7048820
  81.5954140  94.0620390  46.8883160  79.3477000  89.4783750  51.3307220
  79.3495440  89.9956140  50.5253120  78.5181310  89.0013930  51.3077150
  89.1113760  92.9324010  46.9757060  88.4069330  93.2208900  47.5560170
  89.4725920  93.7424120  46.6156620  79.0292330  91.1893710  49.3377670
  79.3709140  92.0335760  49.0431540  78.0908140  91.3377450  49.4543010
  82.7120220  88.6775980  45.6622260  83.0195200  88.1222870  44.9457760
  81.7820920  88.8120440  45.4795250  85.1000980  96.7424810  42.3982380
  84.1730260  96.6762190  42.6270850  85.2525800  97.6804940  42.2837620
  85.0870060  93.0141810  39.3949540  84.1473730  93.1755770  39.4802000
  85.4053320  93.7327490  38.8485530  89.1298270  98.3045110  42.9017630
  88.5110690  97.9664660  42.2543930  89.1122720  97.6604870  43.6096820
  88.5724830  94.4829650  50.3183440  88.1596010  95.3083360  50.5723430
  87.8400780  93.8974690  50.1259800  80.7057620  97.2689550  45.1802110
  80.3014620  96.5566800  44.6848010  80.7920740  96.9242790  46.0690150
  79.4186240  94.0432760  48.9601150  79.9700830  94.1528100  48.1854400
  79.9329750  94.4170360  49.6756380  87.3062970  97.5431920  39.9090380
  87.7456250  96.7054350  39.7628200  88.0191390  98.1761320  39.9954520
  79.0928970  97.5652120  52.5706490  78.9536740  98.4374920  52.9393890
  78.2110330  97.2224930  52.4254430  77.4062250  96.1634530  42.6808760
  77.2859850  96.8896620  42.0690030  77.0963140  95.3937440  42.2036670
  79.8725910  89.5069600  46.0632430  79.4294060  90.2879140  45.7316950
  80.4310900  89.8299490  46.7703370  84.1595720  92.3738120  51.6667750
  83.6975090  92.5821140  52.4787690  83.7573830  91.5597470  51.3638420
  89.1600230  93.5947070  52.7964410  88.3093820  93.2952820  53.1173480
  89.0002020  93.8389080  51.8848230  86.2549940  95.0948820  54.8963200
  86.5803350  94.2612570  54.5565430  87.0430270  95.6177340  55.0441530
  82.9884730  89.1280300  40.9438260  82.3638910  89.1240170  41.6691570
  82.9014850  88.2611260  40.5474230  81.9101810  90.0516930  47.9222030
  82.2074140  90.9579760  47.8414050  82.4587370  89.5635710  47.3081600
  79.6640130  94.6303170  43.7913680  79.4381050  94.4140340  44.6960300
  78.8832660  95.0631630  43.4459650  86.8937890  94.6366540  42.3904330
  86.2946780  95.3602340  42.2067950  87.4417500  94.5743320  41.6080780
  82.1039340  95.5288750  54.4573950  82.0082940  94.5883480  54.3074350
  82.9471320  95.7503820  54.0622020  85.5002760  93.2730080  44.4207610
  85.8932330  93.5902280  43.6076300  85.8619610  92.3941960  44.5352130
  77.2349880  91.9402420  52.6107730  76.8413270  92.7877630  52.8180510
  76.5468280  91.3028790  52.8016370  83.8094930  92.0237390  55.6804470
  83.1193250  91.8309590  56.3150560  84.5527230  92.3072030  56.2128770
  74.5366930  89.8630880  46.6437810  74.2479980  90.4333740  47.3562790
  75.2812690  89.3835330  47.0069040  74.7237160  93.8051000  37.8540530
  74.6411830  94.7481760  37.9955520  74.3720220  93.6625910  36.9752880
  86.0857900  95.8635830  48.5158390  85.3539020  96.3722640  48.8648490
  85.6882240  95.0465810  48.2147170  82.5235290  92.5390030  46.9210880
  82.5271350  92.0979980  46.0715420  83.4186410  92.8607360  47.0282700
  78.3737670  92.4216520  45.8805090  78.0337720  92.8991750  46.6372140
  77.6114990  91.9681640  45.5206190  82.5855440  93.5402110  39.9117640
  82.7068260  93.4988590  40.8603460  82.2003950  94.4026260  39.7564370
  86.5483810  91.3169510  47.9281330  86.5656550  91.7678160  48.7723180
  86.2999390  90.4175150  48.1414770  81.5976940  95.8503250  39.3100940
  81.0293840  95.4021500  38.6836850  82.3065940  96.2096030  38.7766090
  89.9754560  88.7301690  53.7667710  90.3000330  87.9991350  54.2925690
  90.0111070  88.4115330  52.8648700  82.8243260  96.5991810  48.6676290
  83.1913390  96.1250380  49.4137630  82.6348320  97.4733380  49.0084630
  75.6883750  91.3435500  44.7969760  75.4030670  90.9791170  45.6348380
  75.6262610  90.6115960  44.1832900  80.6142630  95.6400450  50.9860500
  80.3099700  96.5192430  51.2110860  81.5689090  95.7000240  51.0217940
  85.3622340  90.2364760  41.5183130  84.5486950  89.7377930  41.4428440
  85.1684290  91.0763010  41.1019480  88.0770730  94.6084410  39.8145290
  88.9650350  94.9201640  39.6396630  88.0475820  93.7356660  39.4225870
  76.6706360  96.4803190  52.1331860  76.3121300  97.1457040  52.7205200
  76.3760920  95.6486740  52.5044480  79.8719480  96.9387430  55.0171410
  79.5719620  97.0844610  54.1199230  80.6430720  96.3792720  54.9244800
  75.1814410  96.4794450  38.7566460  76.0509260  96.7619250  39.0402380
  74.6904730  97.2930320  38.6415270  82.3449220  97.8667660  42.8774740
  82.8012000  98.6772910  43.1034930  81.9937430  97.5490800  43.7093230
  78.2461000  88.2105310  43.3497260  78.1175630  88.2023210  44.2982180
  77.4223020  88.5488400  42.9988270  75.2454930  89.9696430  52.8103960
  74.5313450  90.1693350  53.4156570  75.6649970  89.1936000  53.1818760
  86.7393710  92.4618740  50.5605410  87.1074530  91.6413950  50.8884980
  85.8791910  92.5220630  50.9761060  90.1055740  91.4175680  41.3692970
  89.4768900  91.5221350  40.6551200  89.6107660  91.6372460  42.1586850
  82.0739770  93.6961630  42.7850850  81.3655920  94.1647970  43.2264460
  82.3584250  93.0383640  43.4196040  83.6995700  95.1158330  50.7843380
  84.1980950  95.5904150  51.4495230  83.8418650  94.1921850  50.9913410
  86.1055200  90.4212290  44.2246640  85.9822980  90.4398420  43.2756150
  87.0539760  90.4691230  44.3445040  80.2774790  92.0046710  40.1601560
  81.1265320  92.4416860  40.0941750  79.9106060  92.3166970  40.9873620
  89.1984570  96.5759470  45.0733130  88.2574710  96.5909700  45.2480820
  89.5128640  95.7895430  45.5193430  79.1766210  98.2579070  38.6337090
  79.9429480  98.1460430  39.1962520  79.2540900  97.5617040  37.9813860
  77.8712970  95.6904140  39.3169980  77.9516560  94.7431650  39.4287380
  78.7632720  96.0211020  39.4230640  75.3983770  97.5119060  54.5526150
  75.9022790  96.9326340  55.1242380  74.6591190  97.7959290  55.0902520
  77.4306850  95.6548650  55.4476220  77.4712190  95.3562520  56.3561450
  78.2852350  96.0556260  55.2883740  81.2085240  98.2544200  40.6079730
  81.6301660  98.0884070  41.4511120  81.3336080  97.4444430  40.1134870
  79.3712660  94.2340750  53.4150710  78.8409120  93.7431700  52.7874050
  80.0400730  94.6624950  52.8808640  83.7212880  97.2781810  37.8556830
  84.2418540  96.5630830  37.4897980  84.3681280  97.9167680  38.1557340
  88.7412890  96.0406370  55.1831050  89.3233660  95.2858690  55.0951530
  88.9174660  96.5713810  54.4062530  79.8584960  91.2003120  53.4948000
  79.7641830  90.5823870  52.7698870  79.2782350  91.9269410  53.2677910
  82.6246400  89.7576360  50.5275390  82.1763700  89.7800620  49.6820940
  81.9911600  89.3595380  51.1245690  85.3669850  96.3846870  52.5325670
  85.4866060  95.7888010  53.2720510  86.2263850  96.4216560  52.1126970
  87.7057750  96.9384060  51.1088180  87.1792970  97.4626680  50.5053320
  88.0489090  97.5711450  51.7397910  80.1044140  94.3277430  37.5537890
  79.9033200  93.4644790  37.9151230  79.9336190  94.2410790  36.6159490
  82.1338620  92.9268220  53.7901490  82.7238310  92.6184070  54.4779310
  81.3158860  92.4547970  53.9461390  86.9532050  92.5434030  54.0234510
  86.2647570  91.8815570  53.9584500  87.6738070  92.0972300  54.4682970
  87.5832450  89.1385660  40.0824770  87.8634740  88.2953560  40.4384190
  86.8098180  89.3708770  40.5963520  78.9026940  91.4278050  37.5415770
  79.2052840  91.4345480  36.6334920  79.6421530  91.0775910  38.0383430
  82.1211870  90.3712670  38.5271970  81.7733870  89.6936660  37.9474420
  82.3224640  89.9102180  39.3415360  75.4617510  96.9000320  44.9236340
  74.8066350  96.6311960  44.2796040  76.2995460  96.7904800  44.4738320
  88.4107950  91.6941610  39.1454830  88.8292830  91.5072590  38.3051490
  88.1044010  90.8420660  39.4557760  76.4993440  97.2852890  49.4639680
  76.8666480  97.1980290  50.3435700  75.9304260  96.5219440  49.3646540
  76.0509440  94.1961980  53.3698100  75.1565490  94.1628740  53.7091810
  76.5906990  94.3948770  54.1349350  89.7385370  90.9793700  55.2549850
  90.6155550  90.9877100  55.6383850  89.7506210  90.2424540  54.6442200
  74.6755590  94.1099250  40.8661670  73.7719670  94.3729450  40.6913330
  75.1596210  94.3810420  40.0861630  77.2182800  93.1664790  38.7756050
  77.9274500  92.7448010  38.2903330  76.5022740  93.2340020  38.1439400
  76.8656960  89.2204120  37.8158700  77.5885090  89.7613060  38.1339920
  77.1381480  88.9467540  36.9400240  76.5549150  88.4710310  47.7181320
  77.2025340  87.9207690  47.2776480  76.9750990  88.7253460  48.5397130
  76.3081150  88.6265980  50.4606640  75.9595970  89.0829800  51.2264820
  75.9768850  87.7323110  50.5429070  83.8205970  89.8177860  53.9826060
  83.7594860  90.4099690  54.7321470  84.7606350  89.7103820  53.8376320
  86.4580530  89.4747920  53.6218350  87.0720940  89.7927210  52.9599430
  87.0030090  88.9896510  54.2414210  76.9801790  88.1542180  53.7357410
  77.5284780  87.9730230  52.9723520  77.0457100  87.3636290  54.2713720
  87.1988570  88.0380060  49.9487640  86.3248410  88.3715170  49.7460570
  87.0899320  87.5653240  50.7739510  88.1060550  90.2450930  51.3329360
  87.7773910  89.4302690  50.9531090  89.0542850  90.2020740  51.2095050
  84.9463390  88.9549900  48.8880550  84.1635180  89.4295400  49.1677310
  84.6526320  88.0504730  48.7793730  89.4984460  89.6573000  46.9329640
  89.9392550  89.6018100  46.0851240  89.2292050  90.5731010  47.0039820
  76.2903800  89.2597380  41.4094270  77.0483160  89.3726260  40.8358300
  75.8280970  90.0966580  41.3637700  82.8317610  91.3736650  44.3996580
  82.0192120  90.9993540  44.0592460  83.3359250  90.6181730  44.7017770
  87.3342590  88.0379100  45.6379650  87.9371960  88.6099310  46.1128170
  86.5935580  88.6018540  45.4153550  90.4777190  88.4400660  40.9119930
  90.6727820  89.3384110  41.1787360  89.6907060  88.2087740  41.4052880
  78.6628950  89.7861430  39.9496240  79.1921710  88.9991230  39.8204190
  79.2957270  90.4652620  40.1831770  80.8566790  89.5236570  43.0041630
  80.2269530  88.8223880  43.1711760  80.3171930  90.2840700  42.7874790
  80.9822350  88.8020550  55.4394120  80.7006620  89.3054150  54.6754940
  81.3642050  88.0042300  55.0736250  87.5837810  88.2174130  56.0174590
  87.4703260  88.5368740  56.9126110  88.4007550  88.6186640  55.7211870
  86.4895960  96.2366600  26.3809330  86.4090010  95.3221210  26.1101040
  86.0760380  96.7333670  25.6749040  84.6214000  98.0145620  28.2618600
  83.8456100  97.5346060  28.5517170  85.2726930  97.3351270  28.0874760
  78.6379830  98.3265430  29.1394360  77.8064710  98.0714140  29.5390870
  79.2460810  98.3976200  29.8752280  77.0471780  93.2867320  22.9236750
  76.1588480  93.6283290  22.8216630  77.3312970  93.0867640  22.0317580
  75.0104790  95.8872970  28.8076450  75.5820900  95.1195170  28.8080090
  75.0106330  96.1861730  27.8983060  76.2529660  91.2957330  30.5945380
  76.0732500  90.3983080  30.8748140  75.8509740  91.8429200  31.2692330
  85.0928160  93.4973190  28.4957690  85.4692980  92.6245070  28.3831360
  84.9947670  93.8331890  27.6048130  79.2233170  91.8698820  23.9575130
  79.3299920  92.7702550  24.2643890  78.3125530  91.8216790  23.6669780
  88.8752280  90.9923630  25.4286030  89.6961900  90.5020200  25.4711510
  88.9086360  91.5821290  26.1817870  76.8716330  93.7917830  29.2027720
  77.5526440  94.0556200  29.8215120  76.5564380  92.9518700  29.5365730
  81.0640900  94.8385190  28.2900310  81.5719120  95.3366160  28.9305330
  81.5954140  94.0620390  28.1139670  79.3477000  89.4783750  32.5563730
  79.3495440  89.9956140  31.7509630  78.5181310  89.0013930  32.5333660
  89.1113760  92.9324010  28.2013570  88.4069330  93.2208900  28.7816680
  89.4725920  93.7424120  27.8413130  79.0292330  91.1893710  30.5634180
  79.3709140  92.0335760  30.2688050  78.0908140  91.3377450  30.6799520
  82.7120220  88.6775980  26.8878770  83.0195200  88.1222870  26.1714270
  81.7820920  88.8120440  26.7051760  85.1000980  96.7424810  23.6238890
  84.1730260  96.6762190  23.8527360  85.2525800  97.6804940  23.5094130
  85.0870060  93.0141810  20.6206050  84.1473730  93.1755770  20.7058510
  85.4053320  93.7327490  20.0742040  89.1298270  98.3045110  24.1274140
  88.5110690  97.9664660  23.4800440  89.1122720  97.6604870  24.8353330
  88.5724830  94.4829650  31.5439950  88.1596010  95.3083360  31.7979940
  87.8400780  93.8974690  31.3516310  80.7057620  97.2689550  26.4058620
  80.3014620  96.5566800  25.9104520  80.7920740  96.9242790  27.2946660
  79.4186240  94.0432760  30.1857660  79.9700830  94.1528100  29.4110910
  79.9329750  94.4170360  30.9012890  87.3062970  97.5431920  21.1346890
  87.7456250  96.7054350  20.9884710  88.0191390  98.1761320  21.2211030
  79.0928970  97.5652120  33.7963000  78.9536740  98.4374920  34.1650400
  78.2110330  97.2224930  33.6510940  77.4062250  96.1634530  23.9065270
  77.2859850  96.8896620  23.2946540  77.0963140  95.3937440  23.4293180
  79.8725910  89.5069600  27.2888940  79.4294060  90.2879140  26.9573460
  80.4310900  89.8299490  27.9959880  84.1595720  92.3738120  32.8924260
  83.6975090  92.5821140  33.7044200  83.7573830  91.5597470  32.5894930
  89.1600230  93.5947070  34.0220920  88.3093820  93.2952820  34.3429990
  89.0002020  93.8389080  33.1104740  86.2549940  95.0948820  36.1219710
  86.5803350  94.2612570  35.7821940  87.0430270  95.6177340  36.2698040
  82.9884730  89.1280300  22.1694770  82.3638910  89.1240170  22.8948080
  82.9014850  88.2611260  21.7730740  81.9101810  90.0516930  29.1478540
  82.2074140  90.9579760  29.0670560  82.4587370  89.5635710  28.5338110
  79.6640130  94.6303170  25.0170190  79.4381050  94.4140340  25.9216810
  78.8832660  95.0631630  24.6716160  86.8937890  94.6366540  23.6160840
  86.2946780  95.3602340  23.4324460  87.4417500  94.5743320  22.8337290
  82.1039340  95.5288750  35.6830460  82.0082940  94.5883480  35.5330860
  82.9471320  95.7503820  35.2878530  85.5002760  93.2730080  25.6464120
  85.8932330  93.5902280  24.8332810  85.8619610  92.3941960  25.7608640
  77.2349880  91.9402420  33.8364240  76.8413270  92.7877630  34.0437020
  76.5468280  91.3028790  34.0272880  83.8094930  92.0237390  36.9060980
  83.1193250  91.8309590  37.5407070  84.5527230  92.3072030  37.4385280
  74.5366930  89.8630880  27.8694320  74.2479980  90.4333740  28.5819300
  75.2812690  89.3835330  28.2325550  74.7237160  93.8051000  19.0797040
  74.6411830  94.7481760  19.2212030  74.3720220  93.6625910  18.2009390
  86.0857900  95.8635830  29.7414900  85.3539020  96.3722640  30.0905000
  85.6882240  95.0465810  29.4403680  82.5235290  92.5390030  28.1467390
  82.5271350  92.0979980  27.2971930  83.4186410  92.8607360  28.2539210
  78.3737670  92.4216520  27.1061600  78.0337720  92.8991750  27.8628650
  77.6114990  91.9681640  26.7462700  82.5855440  93.5402110  21.1374150
  82.7068260  93.4988590  22.0859970  82.2003950  94.4026260  20.9820880
  86.5483810  91.3169510  29.1537840  86.5656550  91.7678160  29.9979690
  86.2999390  90.4175150  29.3671280  81.5976940  95.8503250  20.5357450
  81.0293840  95.4021500  19.9093360  82.3065940  96.2096030  20.0022600
  89.9754560  88.7301690  34.9924220  90.3000330  87.9991350  35.5182200
  90.0111070  88.4115330  34.0905210  82.8243260  96.5991810  29.8932800
  83.1913390  96.1250380  30.6394140  82.6348320  97.4733380  30.2341140
  75.6883750  91.3435500  26.0226270  75.4030670  90.9791170  26.8604890
  75.6262610  90.6115960  25.4089410  80.6142630  95.6400450  32.2117010
  80.3099700  96.5192430  32.4367370  81.5689090  95.7000240  32.2474450
  85.3622340  90.2364760  22.7439640  84.5486950  89.7377930  22.6684950
  85.1684290  91.0763010  22.3275990  88.0770730  94.6084410  21.0401800
  88.9650350  94.9201640  20.8653140  88.0475820  93.7356660  20.6482380
  76.6706360  96.4803190  33.3588370  76.3121300  97.1457040  33.9461710
  76.3760920  95.6486740  33.7300990  79.8719480  96.9387430  36.2427920
  79.5719620  97.0844610  35.3455740  80.6430720  96.3792720  36.1501310
  75.1814410  96.4794450  19.9822970  76.0509260  96.7619250  20.2658890
  74.6904730  97.2930320  19.8671780  82.3449220  97.8667660  24.1031250
  82.8012000  98.6772910  24.3291440  81.9937430  97.5490800  24.9349740
  78.2461000  88.2105310  24.5753770  78.1175630  88.2023210  25.5238690
  77.4223020  88.5488400  24.2244780  75.2454930  89.9696430  34.0360470
  74.5313450  90.1693350  34.6413080  75.6649970  89.1936000  34.4075270
  86.7393710  92.4618740  31.7861920  87.1074530  91.6413950  32.1141490
  85.8791910  92.5220630  32.2017570  90.1055740  91.4175680  22.5949480
  89.4768900  91.5221350  21.8807710  89.6107660  91.6372460  23.3843360
  82.0739770  93.6961630  24.0107360  81.3655920  94.1647970  24.4520970
  82.3584250  93.0383640  24.6452550  83.6995700  95.1158330  32.0099890
  84.1980950  95.5904150  32.6751740  83.8418650  94.1921850  32.2169920
  86.1055200  90.4212290  25.4503150  85.9822980  90.4398420  24.5012660
  87.0539760  90.4691230  25.5701550  80.2774790  92.0046710  21.3858070
  81.1265320  92.4416860  21.3198260  79.9106060  92.3166970  22.2130130
  89.1984570  96.5759470  26.2989640  88.2574710  96.5909700  26.4737330
  89.5128640  95.7895430  26.7449940  79.1766210  98.2579070  19.8593600
  79.9429480  98.1460430  20.4219030  79.2540900  97.5617040  19.2070370
  77.8712970  95.6904140  20.5426490  77.9516560  94.7431650  20.6543890
  78.7632720  96.0211020  20.6487150  75.3983770  97.5119060  35.7782660
  75.9022790  96.9326340  36.3498890  74.6591190  97.7959290  36.3159030
  77.4306850  95.6548650  36.6732730  77.4712190  95.3562520  37.5817960
  78.2852350  96.0556260  36.5140250  81.2085240  98.2544200  21.8336240
  81.6301660  98.0884070  22.6767630  81.3336080  97.4444430  21.3391380
  79.3712660  94.2340750  34.6407220  78.8409120  93.7431700  34.0130560
  80.0400730  94.6624950  34.1065150  83.7212880  97.2781810  19.0813340
  84.2418540  96.5630830  18.7154490  84.3681280  97.9167680  19.3813850
  88.7412890  96.0406370  36.4087560  89.3233660  95.2858690  36.3208040
  88.9174660  96.5713810  35.6319040  79.8584960  91.2003120  34.7204510
  79.7641830  90.5823870  33.9955380  79.2782350  91.9269410  34.4934420
  82.6246400  89.7576360  31.7531900  82.1763700  89.7800620  30.9077450
  81.9911600  89.3595380  32.3502200  85.3669850  96.3846870  33.7582180
  85.4866060  95.7888010  34.4977020  86.2263850  96.4216560  33.3383480
  87.7057750  96.9384060  32.3344690  87.1792970  97.4626680  31.7309830
  88.0489090  97.5711450  32.9654420  80.1044140  94.3277430  18.7794400
  79.9033200  93.4644790  19.1407740  79.9336190  94.2410790  17.8416000
  82.1338620  92.9268220  35.0158000  82.7238310  92.6184070  35.7035820
  81.3158860  92.4547970  35.1717900  86.9532050  92.5434030  35.2491020
  86.2647570  91.8815570  35.1841010  87.6738070  92.0972300  35.6939480
  87.5832450  89.1385660  21.3081280  87.8634740  88.2953560  21.6640700
  86.8098180  89.3708770  21.8220030  78.9026940  91.4278050  18.7672280
  79.2052840  91.4345480  17.8591430  79.6421530  91.0775910  19.2639940
  82.1211870  90.3712670  19.7528480  81.7733870  89.6936660  19.1730930
  82.3224640  89.9102180  20.5671870  75.4617510  96.9000320  26.1492850
  74.8066350  96.6311960  25.5052550  76.2995460  96.7904800  25.6994830
  88.4107950  91.6941610  20.3711340  88.8292830  91.5072590  19.5308000
  88.1044010  90.8420660  20.6814270  76.4993440  97.2852890  30.6896190
  76.8666480  97.1980290  31.5692210  75.9304260  96.5219440  30.5903050
  76.0509440  94.1961980  34.5954610  75.1565490  94.1628740  34.9348320
  76.5906990  94.3948770  35.3605860  89.7385370  90.9793700  36.4806360
  90.6155550  90.9877100  36.8640360  89.7506210  90.2424540  35.8698710
  74.6755590  94.1099250  22.0918180  73.7719670  94.3729450  21.9169840
  75.1596210  94.3810420  21.3118140  77.2182800  93.1664790  20.0012560
  77.9274500  92.7448010  19.5159840  76.5022740  93.2340020  19.3695910
  76.8656960  89.2204120  19.0415210  77.5885090  89.7613060  19.3596430
  77.1381480  88.9467540  18.1656750  76.5549150  88.4710310  28.9437830
  77.2025340  87.9207690  28.5032990  76.9750990  88.7253460  29.7653640
  76.3081150  88.6265980  31.6863150  75.9595970  89.0829800  32.4521330
  75.9768850  87.7323110  31.7685580  83.8205970  89.8177860  35.2082570
  83.7594860  90.4099690  35.9577980  84.7606350  89.7103820  35.0632830
  86.4580530  89.4747920  34.8474860  87.0720940  89.7927210  34.1855940
  87.0030090  88.9896510  35.4670720  76.9801790  88.1542180  34.9613920
  77.5284780  87.9730230  34.1980030  77.0457100  87.3636290  35.4970230
  87.1988570  88.0380060  31.1744150  86.3248410  88.3715170  30.9717080
  87.0899320  87.5653240  31.9996020  88.1060550  90.2450930  32.5585870
  87.7773910  89.4302690  32.1787600  89.0542850  90.2020740  32.4351560
  84.9463390  88.9549900  30.1137060  84.1635180  89.4295400  30.3933820
  84.6526320  88.0504730  30.0050240  89.4984460  89.6573000  28.1586150
  89.9392550  89.6018100  27.3107750  89.2292050  90.5731010  28.2296330
  76.2903800  89.2597380  22.6350780  77.0483160  89.3726260  22.0614810
  75.8280970  90.0966580  22.5894210  82.8317610  91.3736650  25.6253090
  82.0192120  90.9993540  25.2848970  83.3359250  90.6181730  25.9274280
  87.3342590  88.0379100  26.8636160  87.9371960  88.6099310  27.3384680
  86.5935580  88.6018540  26.6410060  90.4777190  88.4400660  22.1376440
  90.6727820  89.3384110  22.4043870  89.6907060  88.2087740  22.6309390
  78.6628950  89.7861430  21.1752750  79.1921710  88.9991230  21.0460700
  79.2957270  90.4652620  21.4088280  80.8566790  89.5236570  24.2298140
  80.2269530  88.8223880  24.3968270  80.3171930  90.2840700  24.0131300
  80.9822350  88.8020550  36.6650630  80.7006620  89.3054150  35.9011450
  81.3642050  88.0042300  36.2992760  87.5837810  88.2174130  37.2431100
  87.4703260  88.5368740  38.1382620  88.4007550  88.6186640  36.9468380
  86.4895960  96.2366600   7.6065840  86.4090010  95.3221210   7.3357550
  86.0760380  96.7333670   6.9005550  84.6214000  98.0145620   9.4875110
  83.8456100  97.5346060   9.7773680  85.2726930  97.3351270   9.3131270
  78.6379830  98.3265430  10.3650870  77.8064710  98.0714140  10.7647380
  79.2460810  98.3976200  11.1008790  77.0471780  93.2867320   4.1493260
  76.1588480  93.6283290   4.0473140  77.3312970  93.0867640   3.2574090
  75.0104790  95.8872970  10.0332960  75.5820900  95.1195170  10.0336600
  75.0106330  96.1861730   9.1239570  76.2529660  91.2957330  11.8201890
  76.0732500  90.3983080  12.1004650  75.8509740  91.8429200  12.4948840
  85.0928160  93.4973190   9.7214200  85.4692980  92.6245070   9.6087870
  84.9947670  93.8331890   8.8304640  79.2233170  91.8698820   5.1831640
  79.3299920  92.7702550   5.4900400  78.3125530  91.8216790   4.8926290
  88.8752280  90.9923630   6.6542540  89.6961900  90.5020200   6.6968020
  88.9086360  91.5821290   7.4074380  76.8716330  93.7917830  10.4284230
  77.5526440  94.0556200  11.0471630  76.5564380  92.9518700  10.7622240
  81.0640900  94.8385190   9.5156820  81.5719120  95.3366160  10.1561840
  81.5954140  94.0620390   9.3396180  79.3477000  89.4783750  13.7820240
  79.3495440  89.9956140  12.9766140  78.5181310  89.0013930  13.7590170
  89.1113760  92.9324010   9.4270080  88.4069330  93.2208900  10.0073190
  89.4725920  93.7424120   9.0669640  79.0292330  91.1893710  11.7890690
  79.3709140  92.0335760  11.4944560  78.0908140  91.3377450  11.9056030
  82.7120220  88.6775980   8.1135280  83.0195200  88.1222870   7.3970780
  81.7820920  88.8120440   7.9308270  85.1000980  96.7424810   4.8495400
  84.1730260  96.6762190   5.0783870  85.2525800  97.6804940   4.7350640
  89.1298270  98.3045110   5.3530650  88.5110690  97.9664660   4.7056950
  89.1122720  97.6604870   6.0609840  88.5724830  94.4829650  12.7696460
  88.1596010  95.3083360  13.0236450  87.8400780  93.8974690  12.5772820
  80.7057620  97.2689550   7.6315130  80.3014620  96.5566800   7.1361030
  80.7920740  96.9242790   8.5203170  79.4186240  94.0432760  11.4114170
  79.9700830  94.1528100  10.6367420  79.9329750  94.4170360  12.1269400
  87.3062970  97.5431920   2.3603400  87.7456250  96.7054350   2.2141220
  88.0191390  98.1761320   2.4467540  79.0928970  97.5652120  15.0219510
  78.9536740  98.4374920  15.3906910  78.2110330  97.2224930  14.8767450
  77.4062250  96.1634530   5.1321780  77.2859850  96.8896620   4.5203050
  77.0963140  95.3937440   4.6549690  79.8725910  89.5069600   8.5145450
  79.4294060  90.2879140   8.1829970  80.4310900  89.8299490   9.2216390
  84.1595720  92.3738120  14.1180770  83.6975090  92.5821140  14.9300710
  83.7573830  91.5597470  13.8151440  89.1600230  93.5947070  15.2477430
  88.3093820  93.2952820  15.5686500  89.0002020  93.8389080  14.3361250
  86.2549940  95.0948820  17.3476220  86.5803350  94.2612570  17.0078450
  87.0430270  95.6177340  17.4954550  82.9884730  89.1280300   3.3951280
  82.3638910  89.1240170   4.1204590  82.9014850  88.2611260   2.9987250
  81.9101810  90.0516930  10.3735050  82.2074140  90.9579760  10.2927070
  82.4587370  89.5635710   9.7594620  79.6640130  94.6303170   6.2426700
  79.4381050  94.4140340   7.1473320  78.8832660  95.0631630   5.8972670
  86.8937890  94.6366540   4.8417350  86.2946780  95.3602340   4.6580970
  87.4417500  94.5743320   4.0593800  82.1039340  95.5288750  16.9086970
  82.0082940  94.5883480  16.7587370  82.9471320  95.7503820  16.5135040
  85.5002760  93.2730080   6.8720630  85.8932330  93.5902280   6.0589320
  85.8619610  92.3941960   6.9865150  77.2349880  91.9402420  15.0620750
  76.8413270  92.7877630  15.2693530  76.5468280  91.3028790  15.2529390
  83.8094930  92.0237390  18.1317490  83.1193250  91.8309590  18.7663580
  84.5527230  92.3072030  18.6641790  74.5366930  89.8630880   9.0950830
  74.2479980  90.4333740   9.8075810  75.2812690  89.3835330   9.4582060
  86.0857900  95.8635830  10.9671410  85.3539020  96.3722640  11.3161510
  85.6882240  95.0465810  10.6660190  82.5235290  92.5390030   9.3723900
  82.5271350  92.0979980   8.5228440  83.4186410  92.8607360   9.4795720
  78.3737670  92.4216520   8.3318110  78.0337720  92.8991750   9.0885160
  77.6114990  91.9681640   7.9719210  82.5855440  93.5402110   2.3630660
  82.7068260  93.4988590   3.3116480  82.2003950  94.4026260   2.2077390
  86.5483810  91.3169510  10.3794350  86.5656550  91.7678160  11.2236200
  86.2999390  90.4175150  10.5927790  89.9754560  88.7301690  16.2180730
  90.3000330  87.9991350  16.7438710  90.0111070  88.4115330  15.3161720
  82.8243260  96.5991810  11.1189310  83.1913390  96.1250380  11.8650650
  82.6348320  97.4733380  11.4597650  75.6883750  91.3435500   7.2482780
  75.4030670  90.9791170   8.0861400  75.6262610  90.6115960   6.6345920
  80.6142630  95.6400450  13.4373520  80.3099700  96.5192430  13.6623880
  81.5689090  95.7000240  13.4730960  85.3622340  90.2364760   3.9696150
  84.5486950  89.7377930   3.8941460  85.1684290  91.0763010   3.5532500
  88.0770730  94.6084410   2.2658310  88.9650350  94.9201640   2.0909650
  88.0475820  93.7356660   1.8738890  76.6706360  96.4803190  14.5844880
  76.3121300  97.1457040  15.1718220  76.3760920  95.6486740  14.9557500
  79.8719480  96.9387430  17.4684430  79.5719620  97.0844610  16.5712250
  80.6430720  96.3792720  17.3757820  82.3449220  97.8667660   5.3287760
  82.8012000  98.6772910   5.5547950  81.9937430  97.5490800   6.1606250
  78.2461000  88.2105310   5.8010280  78.1175630  88.2023210   6.7495200
  77.4223020  88.5488400   5.4501290  75.2454930  89.9696430  15.2616980
  74.5313450  90.1693350  15.8669590  75.6649970  89.1936000  15.6331780
  86.7393710  92.4618740  13.0118430  87.1074530  91.6413950  13.3398000
  85.8791910  92.5220630  13.4274080  90.1055740  91.4175680   3.8205990
  89.4768900  91.5221350   3.1064220  89.6107660  91.6372460   4.6099870
  82.0739770  93.6961630   5.2363870  81.3655920  94.1647970   5.6777480
  82.3584250  93.0383640   5.8709060  83.6995700  95.1158330  13.2356400
  84.1980950  95.5904150  13.9008250  83.8418650  94.1921850  13.4426430
  86.1055200  90.4212290   6.6759660  85.9822980  90.4398420   5.7269170
  87.0539760  90.4691230   6.7958060  80.2774790  92.0046710   2.6114580
  81.1265320  92.4416860   2.5454770  79.9106060  92.3166970   3.4386640
  89.1984570  96.5759470   7.5246150  88.2574710  96.5909700   7.6993840
  89.5128640  95.7895430   7.9706450  77.8712970  95.6904140   1.7683000
  77.9516560  94.7431650   1.8800400  78.7632720  96.0211020   1.8743660
  75.3983770  97.5119060  17.0039170  75.9022790  96.9326340  17.5755400
  74.6591190  97.7959290  17.5415540  77.4306850  95.6548650  17.8989240
  77.4712190  95.3562520  18.8074470  78.2852350  96.0556260  17.7396760
  81.2085240  98.2544200   3.0592750  81.6301660  98.0884070   3.9024140
  81.3336080  97.4444430   2.5647890  79.3712660  94.2340750  15.8663730
  78.8409120  93.7431700  15.2387070  80.0400730  94.6624950  15.3321660
  88.7412890  96.0406370  17.6344070  89.3233660  95.2858690  17.5464550
  88.9174660  96.5713810  16.8575550  79.8584960  91.2003120  15.9461020
  79.7641830  90.5823870  15.2211890  79.2782350  91.9269410  15.7190930
  82.6246400  89.7576360  12.9788410  82.1763700  89.7800620  12.1333960
  81.9911600  89.3595380  13.5758710  85.3669850  96.3846870  14.9838690
  85.4866060  95.7888010  15.7233530  86.2263850  96.4216560  14.5639990
  87.7057750  96.9384060  13.5601200  87.1792970  97.4626680  12.9566340
  88.0489090  97.5711450  14.1910930  82.1338620  92.9268220  16.2414510
  82.7238310  92.6184070  16.9292330  81.3158860  92.4547970  16.3974410
  86.9532050  92.5434030  16.4747530  86.2647570  91.8815570  16.4097520
  87.6738070  92.0972300  16.9195990  87.5832450  89.1385660   2.5337790
  87.8634740  88.2953560   2.8897210  86.8098180  89.3708770   3.0476540
  75.4617510  96.9000320   7.3749360  74.8066350  96.6311960   6.7309060
  76.2995460  96.7904800   6.9251340  76.4993440  97.2852890  11.9152700
  76.8666480  97.1980290  12.7948720  75.9304260  96.5219440  11.8159560
  76.0509440  94.1961980  15.8211120  75.1565490  94.1628740  16.1604830
  76.5906990  94.3948770  16.5862370  89.7385370  90.9793700  17.7062870
  90.6155550  90.9877100  18.0896870  89.7506210  90.2424540  17.0955220
  74.6755590  94.1099250   3.3174690  73.7719670  94.3729450   3.1426350
  75.1596210  94.3810420   2.5374650  76.5549150  88.4710310  10.1694340
  77.2025340  87.9207690   9.7289500  76.9750990  88.7253460  10.9910150
  76.3081150  88.6265980  12.9119660  75.9595970  89.0829800  13.6777840
  75.9768850  87.7323110  12.9942090  83.8205970  89.8177860  16.4339080
  83.7594860  90.4099690  17.1834490  84.7606350  89.7103820  16.2889340
  86.4580530  89.4747920  16.0731370  87.0720940  89.7927210  15.4112450
  87.0030090  88.9896510  16.6927230  76.9801790  88.1542180  16.1870430
  77.5284780  87.9730230  15.4236540  77.0457100  87.3636290  16.7226740
  87.1988570  88.0380060  12.4000660  86.3248410  88.3715170  12.1973590
  87.0899320  87.5653240  13.2252530  88.1060550  90.2450930  13.7842380
  87.7773910  89.4302690  13.4044110  89.0542850  90.2020740  13.6608070
  84.9463390  88.9549900  11.3393570  84.1635180  89.4295400  11.6190330
  84.6526320  88.0504730  11.2306750  89.4984460  89.6573000   9.3842660
  89.9392550  89.6018100   8.5364260  89.2292050  90.5731010   9.4552840
  76.2903800  89.2597380   3.8607290  77.0483160  89.3726260   3.2871320
  75.8280970  90.0966580   3.8150720  82.8317610  91.3736650   6.8509600
  82.0192120  90.9993540   6.5105480  83.3359250  90.6181730   7.1530790
  87.3342590  88.0379100   8.0892670  87.9371960  88.6099310   8.5641190
  86.5935580  88.6018540   7.8666570  90.4777190  88.4400660   3.3632950
  90.6727820  89.3384110   3.6300380  89.6907060  88.2087740   3.8565900
  78.6628950  89.7861430   2.4009260  79.1921710  88.9991230   2.2717210
  79.2957270  90.4652620   2.6344790  80.8566790  89.5236570   5.4554650
  80.2269530  88.8223880   5.6224780  80.3171930  90.2840700   5.2387810
  80.9822350  88.8020550  17.8907140  80.7006620  89.3054150  17.1267960
  81.3642050  88.0042300  17.5249270  87.5837810  88.2174130  18.4687610
  87.4703260  88.5368740  19.3639130  88.4007550  88.6186640  18.1724890
  86.4895960  77.4623110  63.9296310  86.4090010  76.5477720  63.6588020
  86.0760380  77.9590180  63.2236020  84.6214000  79.2402130  65.8105580
  83.8456100  78.7602570  66.1004150  85.2726930  78.5607780  65.6361740
  78.6379830  79.5521940  66.6881340  77.8064710  79.2970650  67.0877850
  79.2460810  79.6232710  67.4239260  88.6421430  83.6462320  64.5904710
  88.1802960  82.8749560  64.9191880  89.4546980  83.6728390  65.0957160
  78.6181090  83.5862030  66.8839360  78.9209130  82.6959770  66.7049580
  79.3624680  84.1432250  66.6561610  77.0471780  74.5123830  60.4723730
  76.1588480  74.8539800  60.3703610  77.3312970  74.3124150  59.5804560
  75.0104790  77.1129480  66.3563430  75.5820900  76.3451680  66.3567070
  75.0106330  77.4118240  65.4470040  84.8684740  85.9320330  64.2108700
  84.2496180  86.3877830  63.6403140  85.7236520  86.0871790  63.8098400
  84.0622990  81.9159320  65.8175740  83.9931270  80.9749260  65.6564870
  84.8242850  82.0060730  66.3898310  76.2529660  72.5213840  68.1432360
  76.0732500  71.6239590  68.4235120  75.8509740  73.0685710  68.8179310
  85.0928160  74.7229700  66.0444670  85.4692980  73.8501580  65.9318340
  84.9947670  75.0588400  65.1535110  79.2233170  73.0955330  61.5062110
  79.3299920  73.9959060  61.8130870  78.3125530  73.0473300  61.2156760
  88.8752280  72.2180140  62.9773010  89.6961900  71.7276710  63.0198490
  88.9086360  72.8077800  63.7304850  76.8716330  75.0174340  66.7514700
  77.5526440  75.2812710  67.3702100  76.5564380  74.1775210  67.0852710
  81.0640900  76.0641700  65.8387290  81.5719120  76.5622670  66.4792310
  81.5954140  75.2876900  65.6626650  79.3477000  70.7040260  70.1050710
  79.3495440  71.2212650  69.2996610  78.5181310  70.2270440  70.0820640
  85.7348090  80.8159570  61.6040610  85.1165360  81.2809020  61.0403330
  86.2471340  81.5087050  62.0210120  80.5979850  80.3435440  68.2824210
  80.2649230  80.9704360  68.9245280  80.7746530  80.8697320  67.5025880
  89.1113760  74.1580520  65.7500550  88.4069330  74.4465410  66.3303660
  89.4725920  74.9680630  65.3900110  79.0292330  72.4150220  68.1121160
  79.3709140  73.2592270  67.8175030  78.0908140  72.5633960  68.2286500
  79.8098950  82.3116240  70.0973390  80.4272950  82.9867320  69.8157840
  78.9492070  82.7204220  70.0060890  75.1031290  81.5016100  58.9780240
  74.7259270  81.9903200  58.2465140  75.3604360  82.1741380  59.6086770
  82.7120220  69.9032490  64.4365750  83.0195200  69.3479380  63.7201250
  81.7820920  70.0376950  64.2538740  88.2635280  85.6199780  66.7273210
  88.2762440  85.2162070  65.8595470  87.7110500  86.3947070  66.6234640
  89.5580700  82.3416000  61.8163380  89.4477030  81.3990330  61.9412800
  89.5548950  82.7031640  62.7026140  87.6620720  80.5229620  68.0555820
  88.0789510  80.3089730  67.2209280  88.3860540  80.7802410  68.6264440
  85.1000980  77.9681320  61.1725870  84.1730260  77.9018700  61.4014340
  85.2525800  78.9061450  61.0581110  85.0870060  74.2398320  58.1693030
  84.1473730  74.4012280  58.2545490  85.4053320  74.9584000  57.6229020
  89.1298270  79.5301620  61.6761120  88.5110690  79.1921170  61.0287420
  89.1122720  78.8861380  62.3840310  88.5724830  75.7086160  69.0926930
  88.1596010  76.5339870  69.3466920  87.8400780  75.1231200  68.9003290
  80.7057620  78.4946060  63.9545600  80.3014620  77.7823310  63.4591500
  80.7920740  78.1499300  64.8433640  81.1739320  82.1813620  66.1184810
  80.8767610  81.5759090  65.4392590  82.1239140  82.2190930  66.0074170
  79.4186240  75.2689270  67.7344640  79.9700830  75.3784610  66.9597890
  79.9329750  75.6426870  68.4499870  89.2624930  85.7545490  69.7807910
  88.7855490  86.5617680  69.5880520  88.5786720  85.1023820  69.9334120
  87.3062970  78.7688430  58.6833870  87.7456250  77.9310860  58.5371690
  88.0191390  79.4017830  58.7698010  79.0928970  78.7908630  71.3449980
  78.9536740  79.6631430  71.7137380  78.2110330  78.4481440  71.1997920
  85.4158350  83.7084500  62.6515110  85.8554260  84.4508830  62.2370500
  85.3545240  83.9511070  63.5754070  77.4062250  77.3891040  61.4552250
  77.2859850  78.1153130  60.8433520  77.0963140  76.6193950  60.9780160
  75.0447620  80.5606180  67.2620890  75.1228040  80.6954950  66.3176610
  75.6589300  79.8522070  67.4549010  76.2895250  82.2606370  63.6727070
  75.8823330  82.4020960  62.8180670  77.1808260  81.9766530  63.4698280
  86.1074130  86.4098280  70.5794120  86.6218800  86.3206290  71.3816550
  85.2643210  86.7557980  70.8722030  88.0828530  86.6953620  60.0078120
  87.9229670  86.4056560  60.9059950  87.9175240  85.9193750  59.4723350
  80.5616910  86.4752150  61.7849740  80.3859390  85.5587690  61.5717540
  79.7072650  86.8339440  62.0247540  87.7854660  84.2041180  58.5676120
  87.0919820  84.2018470  57.9078400  88.5277520  83.7800500  58.1370290
  87.3504590  85.8303890  62.6424610  87.8061540  85.0493270  62.9563230
  87.6897110  86.5410710  63.1865790  75.1007140  81.6020350  69.8015350
  75.2638180  81.1325710  68.9834720  75.5659590  81.0943910  70.4664190
  79.8725910  70.7326110  64.8375920  79.4294060  71.5135650  64.5060440
  80.4310900  71.0556000  65.5446860  84.1595720  73.5994630  70.4411240
  83.6975090  73.8077650  71.2531180  83.7573830  72.7853980  70.1381910
  89.1600230  74.8203580  71.5707900  88.3093820  74.5209330  71.8916970
  89.0002020  75.0645590  70.6591720  82.9884730  70.3536810  59.7181750
  82.3638910  70.3496680  60.4435060  82.9014850  69.4867770  59.3217720
  81.9101810  71.2773440  66.6965520  82.2074140  72.1836270  66.6157540
  82.4587370  70.7892220  66.0825090  79.6640130  75.8559680  62.5657170
  79.4381050  75.6396850  63.4703790  78.8832660  76.2888140  62.2203140
  86.8937890  75.8623050  61.1647820  86.2946780  76.5858850  60.9811440
  87.4417500  75.7999830  60.3824270  85.5002760  74.4986590  63.1951100
  85.8932330  74.8158790  62.3819790  85.8619610  73.6198470  63.3095620
  77.2349880  73.1658930  71.3851220  76.8413270  74.0134140  71.5924000
  76.5468280  72.5285300  71.5759860  74.5366930  71.0887390  65.4181300
  74.2479980  71.6590250  66.1306280  75.2812690  70.6091840  65.7812530
  74.7237160  75.0307510  56.6284020  74.6411830  75.9738270  56.7699010
  74.3720220  74.8882420  55.7496370  86.0857900  77.0892340  67.2901880
  85.3539020  77.5979150  67.6391980  85.6882240  76.2722320  66.9890660
  82.5235290  73.7646540  65.6954370  82.5271350  73.3236490  64.8458910
  83.4186410  74.0863870  65.8026190  78.3737670  73.6473030  64.6548580
  78.0337720  74.1248260  65.4115630  77.6114990  73.1938150  64.2949680
  82.5855440  74.7658620  58.6861130  82.7068260  74.7245100  59.6346950
  82.2003950  75.6282770  58.5307860  86.5483810  72.5426020  66.7024820
  86.5656550  72.9934670  67.5466670  86.2999390  71.6431660  66.9158260
  81.5976940  77.0759760  58.0844430  81.0293840  76.6278010  57.4580340
  82.3065940  77.4352540  57.5509580  76.6746120  80.9771780  71.9611160
  76.2900910  80.3365450  72.5594120  76.9858310  81.6807900  72.5305890
  82.8243260  77.8248320  67.4419780  83.1913390  77.3506890  68.1881120
  82.6348320  78.6989890  67.7828120  75.6883750  72.5692010  63.5713250
  75.4030670  72.2047680  64.4091870  75.6262610  71.8372470  62.9576390
  80.6142630  76.8656960  69.7603990  80.3099700  77.7448940  69.9854350
  81.5689090  76.9256750  69.7961430  79.1424420  81.0717950  60.3570840
  78.3686680  80.5315570  60.1969560  79.8719050  80.5524560  60.0188600
  89.9012400  80.0683310  66.1497230  90.6211520  80.5638600  65.7593340
  89.6994220  79.3901200  65.5051100  85.3622340  71.4621270  60.2926620
  84.5486950  70.9634440  60.2171930  85.1684290  72.3019520  59.8762970
  85.2831200  80.1392370  72.0366230  85.2168510  79.2188040  71.7823820
  84.6536340  80.2367810  72.7510870  88.0770730  75.8340920  58.5888780
  88.9650350  76.1458150  58.4140120  88.0475820  74.9613170  58.1969360
  79.1861820  80.7398330  63.9949650  79.7040490  79.9366590  63.9406540
  78.7345840  80.6777470  64.8366480  84.0731320  82.0064610  59.2676950
  84.4147020  82.7506840  58.7720270  83.2444030  82.3195730  59.6301780
  76.6706360  77.7059700  70.9075350  76.3121300  78.3713550  71.4948690
  76.3760920  76.8743250  71.2787970  85.2147930  82.9612940  71.7870030
  85.2292470  82.0293900  71.5688940  84.5073030  83.0472700  72.4259800
  86.9558730  81.3280450  64.6322460  87.3082550  80.7308580  63.9723830
  86.0721060  81.0024680  64.8030710  83.0422010  82.0878140  62.0392870
  83.7293140  82.6347350  62.4200460  82.2554430  82.6318870  62.0742480
  75.1814410  77.7050960  57.5309950  76.0509260  77.9875760  57.8145870
  74.6904730  78.5186830  57.4158760  82.3449220  79.0924170  61.6518230
  82.8012000  79.9029420  61.8778420  81.9937430  78.7747310  62.4836720
  84.6481830  84.6030510  68.8810530  85.2924050  84.8089890  69.5583950
  85.0111270  83.8418910  68.4281380  78.2461000  69.4361820  62.1240750
  78.1175630  69.4279720  63.0725670  77.4223020  69.7744910  61.7731760
  85.9213910  82.6062860  67.5987980  86.5636140  81.9056020  67.7120150
  86.4463260  83.3861300  67.4184870  89.7669630  82.8911480  57.3227120
  89.5407210  82.1741920  57.9151760  89.3765830  82.6423920  56.4848870
  87.6951530  83.4057760  70.8024040  88.0307770  83.9924450  71.4801960
  86.7751870  83.2750470  71.0321830  75.5485660  86.9178340  58.0971580
  75.9083300  87.5167680  57.4428850  75.4078000  87.4638230  58.8706610
  75.2454930  71.1952940  71.5847450  74.5313450  71.3949860  72.1900060
  75.6649970  70.4192510  71.9562250  89.3485880  80.8083420  58.9841280
  89.0607580  81.2696110  59.7719160  90.1438050  80.3481190  59.2525500
  75.5327520  85.1833200  72.5713980  75.6418640  84.2427940  72.4309370
  74.8808080  85.4487950  71.9227710  81.5654280  84.3009540  58.9145250
  81.5564380  85.0339230  58.2989760  80.6452640  84.0541120  59.0072210
  77.1660920  79.5224430  59.6592010  76.5588870  80.2623330  59.6687310
  77.6410270  79.6123790  58.8330210  86.7393710  73.6875250  69.3348900
  87.1074530  72.8670460  69.6628470  85.8791910  73.7477140  69.7504550
  90.1055740  72.6432190  60.1436460  89.4768900  72.7477860  59.4294690
  89.6107660  72.8628970  60.9330340  84.5513880  84.3637780  57.5770440
  84.6525860  84.1601770  56.6472420  83.6515620  84.1096060  57.7818220
  82.0739770  74.9218140  61.5594340  81.3655920  75.3904480  62.0007950
  82.3584250  74.2640150  62.1939530  83.6995700  76.3414840  69.5586870
  84.1980950  76.8160660  70.2238720  83.8418650  75.4178360  69.7656900
  86.1055200  71.6468800  62.9990130  85.9822980  71.6654930  62.0499640
  87.0539760  71.6947740  63.1188530  83.1931990  86.8824100  62.2718110
  83.4473490  86.8445490  61.3497480  82.2444470  86.7557430  62.2646360
  80.2774790  73.2303220  58.9345050  81.1265320  73.6673370  58.8685240
  79.9106060  73.5423480  59.7617110  89.1984570  77.8015980  63.8476620
  88.2574710  77.8166210  64.0224310  89.5128640  77.0151940  64.2936920
  79.1766210  79.4835580  57.4080580  79.9429480  79.3716940  57.9706010
  79.2540900  78.7873550  56.7557350  77.8712970  76.9160650  58.0913470
  77.9516560  75.9688160  58.2030870  78.7632720  77.2467530  58.1974130
  78.6727680  87.0656040  65.1948010  79.4090160  86.5171500  65.4656580
  79.0568600  87.9312050  65.0554000  75.5573160  83.1329610  61.0689520
  74.6312940  83.3750750  61.0594930  76.0229590  83.9603870  60.9474270
  81.7829990  86.2386350  57.0173580  82.5758600  86.5275180  56.5655370
  81.2634340  85.8078520  56.3386060  90.8360160  85.4656480  58.4410320
  90.5501670  85.0521620  57.6264500  90.6379710  86.3944190  58.3210840
  82.3007390  81.4589760  56.8815930  82.1958030  80.8442110  57.6077310
  82.1331610  80.9355650  56.0978940  82.4521710  80.1446560  72.8605160
  81.6867380  80.7131560  72.7759830  82.6337670  79.8522770  71.9673390
  85.5410120  80.5209790  57.4857920  84.9920220  80.9679090  58.1300660
  86.1629380  80.0159040  58.0095590  81.2085240  79.4800710  59.3823220
  81.6301660  79.3140580  60.2254610  81.3336080  78.6700940  58.8878360
  79.3712660  75.4597260  72.1894200  78.8409120  74.9688210  71.5617540
  80.0400730  75.8881460  71.6552130  83.7212880  78.5038320  56.6300320
  84.2418540  77.7887340  56.2641470  84.3681280  79.1424190  56.9300830
  88.2690720  79.9266720  71.9535390  88.6831740  80.0811800  72.8025810
  87.3341720  80.0521940  72.1161170  79.8584960  72.4259630  72.2691490
  79.7641830  71.8080380  71.5442360  79.2782350  73.1525920  72.0421400
  82.6246400  70.9832870  69.3018880  82.1763700  71.0057130  68.4564430
  81.9911600  70.5851890  69.8989180  83.0305950  79.8787200  69.9231320
  83.4494060  80.7219930  69.7507560  82.1114580  80.0159240  69.6938100
  85.3669850  77.6103380  71.3069160  85.4866060  77.0144520  72.0464000
  86.2263850  77.6473070  70.8870460  87.7057750  78.1640570  69.8831670
  87.1792970  78.6883190  69.2796810  88.0489090  78.7967960  70.5141400
  80.1044140  75.5533940  56.3281380  79.9033200  74.6901300  56.6894720
  79.9336190  75.4667300  55.3902980  80.8813370  86.1840210  71.0389050
  80.3434460  86.9086270  70.7197750  81.1347330  85.7070550  70.2486390
  87.5832450  70.3642170  58.8568260  87.8634740  69.5210070  59.2127680
  86.8098180  70.5965280  59.3707010  78.9026940  72.6534560  56.3159260
  79.2052840  72.6601990  55.4078410  79.6421530  72.3032420  56.8126920
  83.7375580  87.4191420  71.2975700  83.6634280  88.3226560  71.6048070
  82.8354420  87.1003320  71.2697770  82.1211870  71.5969180  57.3015460
  81.7733870  70.9193170  56.7217910  82.3224640  71.1358690  58.1158850
  84.2860910  86.5849930  58.9202060  85.1811700  86.9234900  58.9420820
  84.3178540  85.8629340  58.2926340  77.9257070  81.9576980  57.1489060
  78.3631940  82.5006650  57.8046640  78.4104800  81.1323930  57.1585400
  75.1402870  84.7466010  64.6009320  75.4705880  83.8787070  64.3687960
  75.5693870  84.9524530  65.4314280  79.7364790  83.0775020  62.2611290
  79.4360330  82.9539990  63.1615200  79.6302280  82.2183610  61.8527020
  75.6293080  85.6136600  67.3390950  75.1924070  85.7937400  68.1715100
  76.1970760  86.3711220  67.1972670  75.4617510  78.1256830  63.6979830
  74.8066350  77.8568470  63.0539530  76.2995460  78.0161310  63.2481810
  89.9506900  81.8405580  69.7244420  89.1366740  82.2702740  69.9870210
  90.3581100  82.4523990  69.1113470  88.4107950  72.9198120  57.9198320
  88.8292830  72.7329100  57.0794980  88.1044010  72.0677170  58.2301250
  76.4993440  78.5109400  68.2383170  76.8666480  78.4236800  69.1179190
  75.9304260  77.7475950  68.1390030  76.0509440  75.4218490  72.1441590
  75.1565490  75.3885250  72.4835300  76.5906990  75.6205280  72.9092840
  74.6755590  75.3355760  59.6405160  73.7719670  75.5985960  59.4656820
  75.1596210  75.6066930  58.8605120  77.2182800  74.3921300  57.5499540
  77.9274500  73.9704520  57.0646820  76.5022740  74.4596530  56.9182890
  76.8656960  70.4460630  56.5902190  77.5885090  70.9869570  56.9083410
  77.1381480  70.1724050  55.7143730  76.5549150  69.6966820  66.4924810
  77.2025340  69.1464200  66.0519970  76.9750990  69.9509970  67.3140620
  90.0082950  86.5924180  63.2512690  90.6042020  86.2708750  62.5747110
  90.2661100  86.1196000  64.0425960  76.3081150  69.8522490  69.2350130
  75.9595970  70.3086310  70.0008310  75.9768850  68.9579620  69.3172560
  81.6151550  84.5801680  69.0013040  81.3742910  84.8476240  68.1143560
  82.5554190  84.7507410  69.0563900  77.7533550  85.9704340  70.5201100
  77.1593870  85.8389040  71.2591140  77.7457390  85.1342480  70.0543200
  87.1988570  69.2636570  68.7231130  86.3248410  69.5971680  68.5204060
  87.0899320  68.7909750  69.5483000  88.1060550  71.4707440  70.1072850
  87.7773910  70.6559200  69.7274580  89.0542850  71.4277250  69.9838540
  90.5595160  87.2419480  67.0810420  90.0998130  87.9935290  66.7068440
  89.9307620  86.5225950  67.0225220  77.3845780  83.3362720  69.4709140
  76.6579840  82.7168010  69.4035090  77.4454930  83.7303330  68.6007220
  80.9890880  85.5507720  66.2558550  81.5055900  84.9395080  65.7306810
  81.6388260  86.0536500  66.7469560  83.7286380  86.4416210  67.0827530
  84.0164190  86.1870510  66.2060540  84.2409600  85.8893570  67.6733100
  84.9463390  70.1806410  67.6624040  84.1635180  70.6551910  67.9420800
  84.6526320  69.2761240  67.5537220  89.4984460  70.8829510  65.7073130
  89.9392550  70.8274610  64.8594730  89.2292050  71.7987520  65.7783310
  75.6675780  86.6537110  62.6805900  75.4997820  86.0207790  63.3787790
  74.8010290  86.8596510  62.3300090  76.2903800  70.4853890  60.1837760
  77.0483160  70.5982770  59.6101790  75.8280970  71.3223090  60.1381190
  82.8317610  72.5993160  63.1740070  82.0192120  72.2250050  62.8335950
  83.3359250  71.8438240  63.4761260  87.3342590  69.2635610  64.4123140
  87.9371960  69.8355820  64.8871660  86.5935580  69.8275050  64.1897040
  90.4777190  69.6657170  59.6863420  90.6727820  70.5640620  59.9530850
  89.6907060  69.4344250  60.1796370  77.2738480  85.3470340  60.1256040
  76.7486100  85.7278370  59.4218000  77.1983060  85.9721110  60.8465750
  78.6628950  71.0117940  58.7239730  79.1921710  70.2247740  58.5947680
  79.2957270  71.6909130  58.9575260  80.8566790  70.7493080  61.7785120
  80.2269530  70.0480390  61.9455250  80.3171930  71.5097210  61.5618280
  79.8731450  87.2952720  59.0005290  80.6050270  87.0112000  58.4529180
  80.1325120  87.0566000  59.8904670  79.0346240  83.4117450  59.0051620
  78.4055120  83.8802550  59.5537450  79.1494070  82.5666670  59.4397810
  86.4895960  77.4623110  45.1552820  86.4090010  76.5477720  44.8844530
  86.0760380  77.9590180  44.4492530  84.6214000  79.2402130  47.0362090
  83.8456100  78.7602570  47.3260660  85.2726930  78.5607780  46.8618250
  78.6379830  79.5521940  47.9137850  77.8064710  79.2970650  48.3134360
  79.2460810  79.6232710  48.6495770  88.6421430  83.6462320  45.8161220
  88.1802960  82.8749560  46.1448390  89.4546980  83.6728390  46.3213670
  78.6181090  83.5862030  48.1095870  78.9209130  82.6959770  47.9306090
  79.3624680  84.1432250  47.8818120  77.0471780  74.5123830  41.6980240
  76.1588480  74.8539800  41.5960120  77.3312970  74.3124150  40.8061070
  75.0104790  77.1129480  47.5819940  75.5820900  76.3451680  47.5823580
  75.0106330  77.4118240  46.6726550  84.8684740  85.9320330  45.4365210
  84.2496180  86.3877830  44.8659650  85.7236520  86.0871790  45.0354910
  84.0622990  81.9159320  47.0432250  83.9931270  80.9749260  46.8821380
  84.8242850  82.0060730  47.6154820  76.2529660  72.5213840  49.3688870
  76.0732500  71.6239590  49.6491630  75.8509740  73.0685710  50.0435820
  85.0928160  74.7229700  47.2701180  85.4692980  73.8501580  47.1574850
  84.9947670  75.0588400  46.3791620  79.2233170  73.0955330  42.7318620
  79.3299920  73.9959060  43.0387380  78.3125530  73.0473300  42.4413270
  88.8752280  72.2180140  44.2029520  89.6961900  71.7276710  44.2455000
  88.9086360  72.8077800  44.9561360  76.8716330  75.0174340  47.9771210
  77.5526440  75.2812710  48.5958610  76.5564380  74.1775210  48.3109220
  81.0640900  76.0641700  47.0643800  81.5719120  76.5622670  47.7048820
  81.5954140  75.2876900  46.8883160  79.3477000  70.7040260  51.3307220
  79.3495440  71.2212650  50.5253120  78.5181310  70.2270440  51.3077150
  85.7348090  80.8159570  42.8297120  85.1165360  81.2809020  42.2659840
  86.2471340  81.5087050  43.2466630  80.5979850  80.3435440  49.5080720
  80.2649230  80.9704360  50.1501790  80.7746530  80.8697320  48.7282390
  89.1113760  74.1580520  46.9757060  88.4069330  74.4465410  47.5560170
  89.4725920  74.9680630  46.6156620  79.0292330  72.4150220  49.3377670
  79.3709140  73.2592270  49.0431540  78.0908140  72.5633960  49.4543010
  79.8098950  82.3116240  51.3229900  80.4272950  82.9867320  51.0414350
  78.9492070  82.7204220  51.2317400  75.1031290  81.5016100  40.2036750
  74.7259270  81.9903200  39.4721650  75.3604360  82.1741380  40.8343280
  82.7120220  69.9032490  45.6622260  83.0195200  69.3479380  44.9457760
  81.7820920  70.0376950  45.4795250  88.2635280  85.6199780  47.9529720
  88.2762440  85.2162070  47.0851980  87.7110500  86.3947070  47.8491150
  89.5580700  82.3416000  43.0419890  89.4477030  81.3990330  43.1669310
  89.5548950  82.7031640  43.9282650  87.6620720  80.5229620  49.2812330
  88.0789510  80.3089730  48.4465790  88.3860540  80.7802410  49.8520950
  85.1000980  77.9681320  42.3982380  84.1730260  77.9018700  42.6270850
  85.2525800  78.9061450  42.2837620  85.0870060  74.2398320  39.3949540
  84.1473730  74.4012280  39.4802000  85.4053320  74.9584000  38.8485530
  89.1298270  79.5301620  42.9017630  88.5110690  79.1921170  42.2543930
  89.1122720  78.8861380  43.6096820  88.5724830  75.7086160  50.3183440
  88.1596010  76.5339870  50.5723430  87.8400780  75.1231200  50.1259800
  80.7057620  78.4946060  45.1802110  80.3014620  77.7823310  44.6848010
  80.7920740  78.1499300  46.0690150  81.1739320  82.1813620  47.3441320
  80.8767610  81.5759090  46.6649100  82.1239140  82.2190930  47.2330680
  79.4186240  75.2689270  48.9601150  79.9700830  75.3784610  48.1854400
  79.9329750  75.6426870  49.6756380  89.2624930  85.7545490  51.0064420
  88.7855490  86.5617680  50.8137030  88.5786720  85.1023820  51.1590630
  80.2657750  81.9195310  53.9949120  79.3686280  82.1435280  54.2422520
  80.2910620  82.0430250  53.0460520  87.3062970  78.7688430  39.9090380
  87.7456250  77.9310860  39.7628200  88.0191390  79.4017830  39.9954520
  79.0928970  78.7908630  52.5706490  78.9536740  79.6631430  52.9393890
  78.2110330  78.4481440  52.4254430  85.4158350  83.7084500  43.8771620
  85.8554260  84.4508830  43.4627010  85.3545240  83.9511070  44.8010580
  80.8909320  84.7330330  54.7791640  80.8624750  85.1373280  53.9120070
  80.7274290  83.8040690  54.6163240  77.4062250  77.3891040  42.6808760
  77.2859850  78.1153130  42.0690030  77.0963140  76.6193950  42.2036670
  75.0447620  80.5606180  48.4877400  75.1228040  80.6954950  47.5433120
  75.6589300  79.8522070  48.6805520  76.2895250  82.2606370  44.8983580
  75.8823330  82.4020960  44.0437180  77.1808260  81.9766530  44.6954790
  86.1074130  86.4098280  51.8050630  86.6218800  86.3206290  52.6073060
  85.2643210  86.7557980  52.0978540  88.0828530  86.6953620  41.2334630
  87.9229670  86.4056560  42.1316460  87.9175240  85.9193750  40.6979860
  80.5616910  86.4752150  43.0106250  80.3859390  85.5587690  42.7974050
  79.7072650  86.8339440  43.2504050  87.7854660  84.2041180  39.7932630
  87.0919820  84.2018470  39.1334910  88.5277520  83.7800500  39.3626800
  87.3504590  85.8303890  43.8681120  87.8061540  85.0493270  44.1819740
  87.6897110  86.5410710  44.4122300  75.1007140  81.6020350  51.0271860
  75.2638180  81.1325710  50.2091230  75.5659590  81.0943910  51.6920700
  79.8725910  70.7326110  46.0632430  79.4294060  71.5135650  45.7316950
  80.4310900  71.0556000  46.7703370  84.1595720  73.5994630  51.6667750
  83.6975090  73.8077650  52.4787690  83.7573830  72.7853980  51.3638420
  89.1600230  74.8203580  52.7964410  88.3093820  74.5209330  53.1173480
  89.0002020  75.0645590  51.8848230  86.2549940  76.3205330  54.8963200
  86.5803350  75.4869080  54.5565430  87.0430270  76.8433850  55.0441530
  82.9884730  70.3536810  40.9438260  82.3638910  70.3496680  41.6691570
  82.9014850  69.4867770  40.5474230  81.9101810  71.2773440  47.9222030
  82.2074140  72.1836270  47.8414050  82.4587370  70.7892220  47.3081600
  79.6640130  75.8559680  43.7913680  79.4381050  75.6396850  44.6960300
  78.8832660  76.2888140  43.4459650  86.8937890  75.8623050  42.3904330
  86.2946780  76.5858850  42.2067950  87.4417500  75.7999830  41.6080780
  82.1039340  76.7545260  54.4573950  82.0082940  75.8139990  54.3074350
  82.9471320  76.9760330  54.0622020  85.5002760  74.4986590  44.4207610
  85.8932330  74.8158790  43.6076300  85.8619610  73.6198470  44.5352130
  77.2349880  73.1658930  52.6107730  76.8413270  74.0134140  52.8180510
  76.5468280  72.5285300  52.8016370  83.8094930  73.2493900  55.6804470
  83.1193250  73.0566100  56.3150560  84.5527230  73.5328540  56.2128770
  74.5366930  71.0887390  46.6437810  74.2479980  71.6590250  47.3562790
  75.2812690  70.6091840  47.0069040  74.7237160  75.0307510  37.8540530
  74.6411830  75.9738270  37.9955520  74.3720220  74.8882420  36.9752880
  86.0857900  77.0892340  48.5158390  85.3539020  77.5979150  48.8648490
  85.6882240  76.2722320  48.2147170  82.5235290  73.7646540  46.9210880
  82.5271350  73.3236490  46.0715420  83.4186410  74.0863870  47.0282700
  78.3737670  73.6473030  45.8805090  78.0337720  74.1248260  46.6372140
  77.6114990  73.1938150  45.5206190  82.5855440  74.7658620  39.9117640
  82.7068260  74.7245100  40.8603460  82.2003950  75.6282770  39.7564370
  86.5483810  72.5426020  47.9281330  86.5656550  72.9934670  48.7723180
  86.2999390  71.6431660  48.1414770  81.5976940  77.0759760  39.3100940
  81.0293840  76.6278010  38.6836850  82.3065940  77.4352540  38.7766090
  89.9754560  69.9558200  53.7667710  90.3000330  69.2247860  54.2925690
  90.0111070  69.6371840  52.8648700  76.6746120  80.9771780  53.1867670
  76.2900910  80.3365450  53.7850630  76.9858310  81.6807900  53.7562400
  82.8243260  77.8248320  48.6676290  83.1913390  77.3506890  49.4137630
  82.6348320  78.6989890  49.0084630  75.6883750  72.5692010  44.7969760
  75.4030670  72.2047680  45.6348380  75.6262610  71.8372470  44.1832900
  80.6142630  76.8656960  50.9860500  80.3099700  77.7448940  51.2110860
  81.5689090  76.9256750  51.0217940  79.1424420  81.0717950  41.5827350
  78.3686680  80.5315570  41.4226070  79.8719050  80.5524560  41.2445110
  89.9012400  80.0683310  47.3753740  90.6211520  80.5638600  46.9849850
  89.6994220  79.3901200  46.7307610  85.3622340  71.4621270  41.5183130
  84.5486950  70.9634440  41.4428440  85.1684290  72.3019520  41.1019480
  85.2831200  80.1392370  53.2622740  85.2168510  79.2188040  53.0080330
  84.6536340  80.2367810  53.9767380  88.0770730  75.8340920  39.8145290
  88.9650350  76.1458150  39.6396630  88.0475820  74.9613170  39.4225870
  79.1861820  80.7398330  45.2206160  79.7040490  79.9366590  45.1663050
  78.7345840  80.6777470  46.0622990  84.0731320  82.0064610  40.4933460
  84.4147020  82.7506840  39.9976780  83.2444030  82.3195730  40.8558290
  76.6706360  77.7059700  52.1331860  76.3121300  78.3713550  52.7205200
  76.3760920  76.8743250  52.5044480  79.8719480  78.1643940  55.0171410
  79.5719620  78.3101120  54.1199230  80.6430720  77.6049230  54.9244800
  85.2147930  82.9612940  53.0126540  85.2292470  82.0293900  52.7945450
  84.5073030  83.0472700  53.6516310  86.9558730  81.3280450  45.8578970
  87.3082550  80.7308580  45.1980340  86.0721060  81.0024680  46.0287220
  83.0422010  82.0878140  43.2649380  83.7293140  82.6347350  43.6456970
  82.2554430  82.6318870  43.2998990  75.1814410  77.7050960  38.7566460
  76.0509260  77.9875760  39.0402380  74.6904730  78.5186830  38.6415270
  82.3449220  79.0924170  42.8774740  82.8012000  79.9029420  43.1034930
  81.9937430  78.7747310  43.7093230  84.6481830  84.6030510  50.1067040
  85.2924050  84.8089890  50.7840460  85.0111270  83.8418910  49.6537890
  78.2461000  69.4361820  43.3497260  78.1175630  69.4279720  44.2982180
  77.4223020  69.7744910  42.9988270  85.9213910  82.6062860  48.8244490
  86.5636140  81.9056020  48.9376660  86.4463260  83.3861300  48.6441380
  89.7669630  82.8911480  38.5483630  89.5407210  82.1741920  39.1408270
  89.3765830  82.6423920  37.7105380  87.6951530  83.4057760  52.0280550
  88.0307770  83.9924450  52.7058470  86.7751870  83.2750470  52.2578340
  75.5485660  86.9178340  39.3228090  75.9083300  87.5167680  38.6685360
  75.4078000  87.4638230  40.0963120  75.2454930  71.1952940  52.8103960
  74.5313450  71.3949860  53.4156570  75.6649970  70.4192510  53.1818760
  89.3485880  80.8083420  40.2097790  89.0607580  81.2696110  40.9975670
  90.1438050  80.3481190  40.4782010  75.5327520  85.1833200  53.7970490
  75.6418640  84.2427940  53.6565880  74.8808080  85.4487950  53.1484220
  83.5240110  83.4549090  55.1968610  83.2036980  82.7358330  55.7414300
  82.8498470  84.1304160  55.2704670  81.5654280  84.3009540  40.1401760
  81.5564380  85.0339230  39.5246270  80.6452640  84.0541120  40.2328720
  77.1660920  79.5224430  40.8848520  76.5588870  80.2623330  40.8943820
  77.6410270  79.6123790  40.0586720  86.7393710  73.6875250  50.5605410
  87.1074530  72.8670460  50.8884980  85.8791910  73.7477140  50.9761060
  90.1055740  72.6432190  41.3692970  89.4768900  72.7477860  40.6551200
  89.6107660  72.8628970  42.1586850  84.5513880  84.3637780  38.8026950
  84.6525860  84.1601770  37.8728930  83.6515620  84.1096060  39.0074730
  82.0739770  74.9218140  42.7850850  81.3655920  75.3904480  43.2264460
  82.3584250  74.2640150  43.4196040  83.6995700  76.3414840  50.7843380
  84.1980950  76.8160660  51.4495230  83.8418650  75.4178360  50.9913410
  86.1055200  71.6468800  44.2246640  85.9822980  71.6654930  43.2756150
  87.0539760  71.6947740  44.3445040  83.1931990  86.8824100  43.4974620
  83.4473490  86.8445490  42.5753990  82.2444470  86.7557430  43.4902870
  80.2774790  73.2303220  40.1601560  81.1265320  73.6673370  40.0941750
  79.9106060  73.5423480  40.9873620  89.1984570  77.8015980  45.0733130
  88.2574710  77.8166210  45.2480820  89.5128640  77.0151940  45.5193430
  79.1766210  79.4835580  38.6337090  79.9429480  79.3716940  39.1962520
  79.2540900  78.7873550  37.9813860  77.8712970  76.9160650  39.3169980
  77.9516560  75.9688160  39.4287380  78.7632720  77.2467530  39.4230640
  78.6727680  87.0656040  46.4204520  79.4090160  86.5171500  46.6913090
  79.0568600  87.9312050  46.2810510  75.5573160  83.1329610  42.2946030
  74.6312940  83.3750750  42.2851440  76.0229590  83.9603870  42.1730780
  77.6785960  86.2502110  55.6090100  78.4798690  86.5714160  56.0225500
  77.1637780  85.8897690  56.3310010  81.7829990  86.2386350  38.2430090
  82.5758600  86.5275180  37.7911880  81.2634340  85.8078520  37.5642570
  86.5150590  82.3581980  55.5565510  85.9088750  82.3813580  54.8161260
  86.2104700  81.6265020  56.0932760  87.9450960  86.0862270  54.1674920
  88.8972710  86.0020290  54.1175160  87.7979180  86.7503980  54.8408710
  90.8360160  85.4656480  39.6666830  90.5501670  85.0521620  38.8521010
  90.6379710  86.3944190  39.5467350  75.3983770  78.7375570  54.5526150
  75.9022790  78.1582850  55.1242380  74.6591190  79.0215800  55.0902520
  82.3007390  81.4589760  38.1072440  82.1958030  80.8442110  38.8333820
  82.1331610  80.9355650  37.3235450  82.4521710  80.1446560  54.0861670
  81.6867380  80.7131560  54.0016340  82.6337670  79.8522770  53.1929900
  85.5410120  80.5209790  38.7114430  84.9920220  80.9679090  39.3557170
  86.1629380  80.0159040  39.2352100  89.5945060  81.8751890  54.6436690
  90.3354530  82.2127650  54.1404150  88.8317740  82.0443950  54.0906460
  77.4306850  76.8805160  55.4476220  77.4712190  76.5819030  56.3561450
  78.2852350  77.2812770  55.2883740  81.2085240  79.4800710  40.6079730
  81.6301660  79.3140580  41.4511120  81.3336080  78.6700940  40.1134870
  79.3712660  75.4597260  53.4150710  78.8409120  74.9688210  52.7874050
  80.0400730  75.8881460  52.8808640  83.7212880  78.5038320  37.8556830
  84.2418540  77.7887340  37.4897980  84.3681280  79.1424190  38.1557340
  88.2690720  79.9266720  53.1791900  88.6831740  80.0811800  54.0282320
  87.3341720  80.0521940  53.3417680  88.7412890  77.2662880  55.1831050
  89.3233660  76.5115200  55.0951530  88.9174660  77.7970320  54.4062530
  79.8584960  72.4259630  53.4948000  79.7641830  71.8080380  52.7698870
  79.2782350  73.1525920  53.2677910  82.6246400  70.9832870  50.5275390
  82.1763700  71.0057130  49.6820940  81.9911600  70.5851890  51.1245690
  83.0305950  79.8787200  51.1487830  83.4494060  80.7219930  50.9764070
  82.1114580  80.0159240  50.9194610  85.3669850  77.6103380  52.5325670
  85.4866060  77.0144520  53.2720510  86.2263850  77.6473070  52.1126970
  87.7057750  78.1640570  51.1088180  87.1792970  78.6883190  50.5053320
  88.0489090  78.7967960  51.7397910  80.1044140  75.5533940  37.5537890
  79.9033200  74.6901300  37.9151230  79.9336190  75.4667300  36.6159490
  80.8813370  86.1840210  52.2645560  80.3434460  86.9086270  51.9454260
  81.1347330  85.7070550  51.4742900  82.1338620  74.1524730  53.7901490
  82.7238310  73.8440580  54.4779310  81.3158860  73.6804480  53.9461390
  86.9532050  73.7690540  54.0234510  86.2647570  73.1072080  53.9584500
  87.6738070  73.3228810  54.4682970  87.5832450  70.3642170  40.0824770
  87.8634740  69.5210070  40.4384190  86.8098180  70.5965280  40.5963520
  78.9026940  72.6534560  37.5415770  79.2052840  72.6601990  36.6334920
  79.6421530  72.3032420  38.0383430  83.7375580  87.4191420  52.5232210
  83.6634280  88.3226560  52.8304580  82.8354420  87.1003320  52.4954280
  82.1211870  71.5969180  38.5271970  81.7733870  70.9193170  37.9474420
  82.3224640  71.1358690  39.3415360  84.2860910  86.5849930  40.1458570
  85.1811700  86.9234900  40.1677330  84.3178540  85.8629340  39.5182850
  77.9257070  81.9576980  38.3745570  78.3631940  82.5006650  39.0303150
  78.4104800  81.1323930  38.3841910  75.1402870  84.7466010  45.8265830
  75.4705880  83.8787070  45.5944470  75.5693870  84.9524530  46.6570790
  79.7364790  83.0775020  43.4867800  79.4360330  82.9539990  44.3871710
  79.6302280  82.2183610  43.0783530  75.6293080  85.6136600  48.5647460
  75.1924070  85.7937400  49.3971610  76.1970760  86.3711220  48.4229180
  75.4617510  78.1256830  44.9236340  74.8066350  77.8568470  44.2796040
  76.2995460  78.0161310  44.4738320  89.9506900  81.8405580  50.9500930
  89.1366740  82.2702740  51.2126720  90.3581100  82.4523990  50.3369980
  88.4107950  72.9198120  39.1454830  88.8292830  72.7329100  38.3051490
  88.1044010  72.0677170  39.4557760  76.4993440  78.5109400  49.4639680
  76.8666480  78.4236800  50.3435700  75.9304260  77.7475950  49.3646540
  76.0509440  75.4218490  53.3698100  75.1565490  75.3885250  53.7091810
  76.5906990  75.6205280  54.1349350  89.7385370  72.2050210  55.2549850
  90.6155550  72.2133610  55.6383850  89.7506210  71.4681050  54.6442200
  74.6755590  75.3355760  40.8661670  73.7719670  75.5985960  40.6913330
  75.1596210  75.6066930  40.0861630  77.2182800  74.3921300  38.7756050
  77.9274500  73.9704520  38.2903330  76.5022740  74.4596530  38.1439400
  76.8656960  70.4460630  37.8158700  77.5885090  70.9869570  38.1339920
  77.1381480  70.1724050  36.9400240  76.5549150  69.6966820  47.7181320
  77.2025340  69.1464200  47.2776480  76.9750990  69.9509970  48.5397130
  90.0082950  86.5924180  44.4769200  90.6042020  86.2708750  43.8003620
  90.2661100  86.1196000  45.2682470  76.3081150  69.8522490  50.4606640
  75.9595970  70.3086310  51.2264820  75.9768850  68.9579620  50.5429070
  77.9145520  83.0242090  54.6259830  77.8715150  82.6535000  55.5074290
  78.0456530  83.9619660  54.7661650  81.6151550  84.5801680  50.2269550
  81.3742910  84.8476240  49.3400070  82.5554190  84.7507410  50.2820410
  83.8205970  71.0434370  53.9826060  83.7594860  71.6356200  54.7321470
  84.7606350  70.9360330  53.8376320  86.4580530  70.7004430  53.6218350
  87.0720940  71.0183720  52.9599430  87.0030090  70.2153020  54.2414210
  76.9801790  69.3798690  53.7357410  77.5284780  69.1986740  52.9723520
  77.0457100  68.5892800  54.2713720  77.7533550  85.9704340  51.7457610
  77.1593870  85.8389040  52.4847650  77.7457390  85.1342480  51.2799710
  87.1988570  69.2636570  49.9487640  86.3248410  69.5971680  49.7460570
  87.0899320  68.7909750  50.7739510  88.1060550  71.4707440  51.3329360
  87.7773910  70.6559200  50.9531090  89.0542850  71.4277250  51.2095050
  90.5595160  87.2419480  48.3066930  90.0998130  87.9935290  47.9324950
  89.9307620  86.5225950  48.2481730  77.3845780  83.3362720  50.6965650
  76.6579840  82.7168010  50.6291600  77.4454930  83.7303330  49.8263730
  80.9890880  85.5507720  47.4815060  81.5055900  84.9395080  46.9563320
  81.6388260  86.0536500  47.9726070  83.7286380  86.4416210  48.3084040
  84.0164190  86.1870510  47.4317050  84.2409600  85.8893570  48.8989610
  84.9463390  70.1806410  48.8880550  84.1635180  70.6551910  49.1677310
  84.6526320  69.2761240  48.7793730  89.4984460  70.8829510  46.9329640
  89.9392550  70.8274610  46.0851240  89.2292050  71.7987520  47.0039820
  75.6675780  86.6537110  43.9062410  75.4997820  86.0207790  44.6044300
  74.8010290  86.8596510  43.5556600  76.2903800  70.4853890  41.4094270
  77.0483160  70.5982770  40.8358300  75.8280970  71.3223090  41.3637700
  82.8317610  72.5993160  44.3996580  82.0192120  72.2250050  44.0592460
  83.3359250  71.8438240  44.7017770  87.3342590  69.2635610  45.6379650
  87.9371960  69.8355820  46.1128170  86.5935580  69.8275050  45.4153550
  90.4777190  69.6657170  40.9119930  90.6727820  70.5640620  41.1787360
  89.6907060  69.4344250  41.4052880  77.2738480  85.3470340  41.3512550
  76.7486100  85.7278370  40.6474510  77.1983060  85.9721110  42.0722260
  78.6628950  71.0117940  39.9496240  79.1921710  70.2247740  39.8204190
  79.2957270  71.6909130  40.1831770  80.8566790  70.7493080  43.0041630
  80.2269530  70.0480390  43.1711760  80.3171930  71.5097210  42.7874790
  83.7958740  87.3632310  55.6752240  84.7226050  87.1276580  55.7188200
  83.7809170  88.1904310  55.1938270  80.9822350  70.0277060  55.4394120
  80.7006620  70.5310660  54.6754940  81.3642050  69.2298810  55.0736250
  79.8731450  87.2952720  40.2261800  80.6050270  87.0112000  39.6785690
  80.1325120  87.0566000  41.1161180  79.0346240  83.4117450  40.2308130
  78.4055120  83.8802550  40.7793960  79.1494070  82.5666670  40.6654320
  87.5837810  69.4430640  56.0174590  87.4703260  69.7625250  56.9126110
  88.4007550  69.8443150  55.7211870  86.4895960  77.4623110  26.3809330
  86.4090010  76.5477720  26.1101040  86.0760380  77.9590180  25.6749040
  84.6214000  79.2402130  28.2618600  83.8456100  78.7602570  28.5517170
  85.2726930  78.5607780  28.0874760  78.6379830  79.5521940  29.1394360
  77.8064710  79.2970650  29.5390870  79.2460810  79.6232710  29.8752280
  88.6421430  83.6462320  27.0417730  88.1802960  82.8749560  27.3704900
  89.4546980  83.6728390  27.5470180  78.6181090  83.5862030  29.3352380
  78.9209130  82.6959770  29.1562600  79.3624680  84.1432250  29.1074630
  77.0471780  74.5123830  22.9236750  76.1588480  74.8539800  22.8216630
  77.3312970  74.3124150  22.0317580  75.0104790  77.1129480  28.8076450
  75.5820900  76.3451680  28.8080090  75.0106330  77.4118240  27.8983060
  84.8684740  85.9320330  26.6621720  84.2496180  86.3877830  26.0916160
  85.7236520  86.0871790  26.2611420  84.0622990  81.9159320  28.2688760
  83.9931270  80.9749260  28.1077890  84.8242850  82.0060730  28.8411330
  76.2529660  72.5213840  30.5945380  76.0732500  71.6239590  30.8748140
  75.8509740  73.0685710  31.2692330  85.0928160  74.7229700  28.4957690
  85.4692980  73.8501580  28.3831360  84.9947670  75.0588400  27.6048130
  79.2233170  73.0955330  23.9575130  79.3299920  73.9959060  24.2643890
  78.3125530  73.0473300  23.6669780  88.8752280  72.2180140  25.4286030
  89.6961900  71.7276710  25.4711510  88.9086360  72.8077800  26.1817870
  76.8716330  75.0174340  29.2027720  77.5526440  75.2812710  29.8215120
  76.5564380  74.1775210  29.5365730  81.0640900  76.0641700  28.2900310
  81.5719120  76.5622670  28.9305330  81.5954140  75.2876900  28.1139670
  79.3477000  70.7040260  32.5563730  79.3495440  71.2212650  31.7509630
  78.5181310  70.2270440  32.5333660  85.7348090  80.8159570  24.0553630
  85.1165360  81.2809020  23.4916350  86.2471340  81.5087050  24.4723140
  80.5979850  80.3435440  30.7337230  80.2649230  80.9704360  31.3758300
  80.7746530  80.8697320  29.9538900  89.1113760  74.1580520  28.2013570
  88.4069330  74.4465410  28.7816680  89.4725920  74.9680630  27.8413130
  79.0292330  72.4150220  30.5634180  79.3709140  73.2592270  30.2688050
  78.0908140  72.5633960  30.6799520  79.8098950  82.3116240  32.5486410
  80.4272950  82.9867320  32.2670860  78.9492070  82.7204220  32.4573910
  75.1031290  81.5016100  21.4293260  74.7259270  81.9903200  20.6978160
  75.3604360  82.1741380  22.0599790  82.7120220  69.9032490  26.8878770
  83.0195200  69.3479380  26.1714270  81.7820920  70.0376950  26.7051760
  88.2635280  85.6199780  29.1786230  88.2762440  85.2162070  28.3108490
  87.7110500  86.3947070  29.0747660  89.5580700  82.3416000  24.2676400
  89.4477030  81.3990330  24.3925820  89.5548950  82.7031640  25.1539160
  87.6620720  80.5229620  30.5068840  88.0789510  80.3089730  29.6722300
  88.3860540  80.7802410  31.0777460  85.1000980  77.9681320  23.6238890
  84.1730260  77.9018700  23.8527360  85.2525800  78.9061450  23.5094130
  85.0870060  74.2398320  20.6206050  84.1473730  74.4012280  20.7058510
  85.4053320  74.9584000  20.0742040  89.1298270  79.5301620  24.1274140
  88.5110690  79.1921170  23.4800440  89.1122720  78.8861380  24.8353330
  88.5724830  75.7086160  31.5439950  88.1596010  76.5339870  31.7979940
  87.8400780  75.1231200  31.3516310  80.7057620  78.4946060  26.4058620
  80.3014620  77.7823310  25.9104520  80.7920740  78.1499300  27.2946660
  81.1739320  82.1813620  28.5697830  80.8767610  81.5759090  27.8905610
  82.1239140  82.2190930  28.4587190  79.4186240  75.2689270  30.1857660
  79.9700830  75.3784610  29.4110910  79.9329750  75.6426870  30.9012890
  89.2624930  85.7545490  32.2320930  88.7855490  86.5617680  32.0393540
  88.5786720  85.1023820  32.3847140  80.2657750  81.9195310  35.2205630
  79.3686280  82.1435280  35.4679030  80.2910620  82.0430250  34.2717030
  87.3062970  78.7688430  21.1346890  87.7456250  77.9310860  20.9884710
  88.0191390  79.4017830  21.2211030  79.0928970  78.7908630  33.7963000
  78.9536740  79.6631430  34.1650400  78.2110330  78.4481440  33.6510940
  85.4158350  83.7084500  25.1028130  85.8554260  84.4508830  24.6883520
  85.3545240  83.9511070  26.0267090  80.8909320  84.7330330  36.0048150
  80.8624750  85.1373280  35.1376580  80.7274290  83.8040690  35.8419750
  77.4062250  77.3891040  23.9065270  77.2859850  78.1153130  23.2946540
  77.0963140  76.6193950  23.4293180  75.0447620  80.5606180  29.7133910
  75.1228040  80.6954950  28.7689630  75.6589300  79.8522070  29.9062030
  76.2895250  82.2606370  26.1240090  75.8823330  82.4020960  25.2693690
  77.1808260  81.9766530  25.9211300  86.1074130  86.4098280  33.0307140
  86.6218800  86.3206290  33.8329570  85.2643210  86.7557980  33.3235050
  88.0828530  86.6953620  22.4591140  87.9229670  86.4056560  23.3572970
  87.9175240  85.9193750  21.9236370  80.5616910  86.4752150  24.2362760
  80.3859390  85.5587690  24.0230560  79.7072650  86.8339440  24.4760560
  87.7854660  84.2041180  21.0189140  87.0919820  84.2018470  20.3591420
  88.5277520  83.7800500  20.5883310  87.3504590  85.8303890  25.0937630
  87.8061540  85.0493270  25.4076250  87.6897110  86.5410710  25.6378810
  75.1007140  81.6020350  32.2528370  75.2638180  81.1325710  31.4347740
  75.5659590  81.0943910  32.9177210  79.8725910  70.7326110  27.2888940
  79.4294060  71.5135650  26.9573460  80.4310900  71.0556000  27.9959880
  84.1595720  73.5994630  32.8924260  83.6975090  73.8077650  33.7044200
  83.7573830  72.7853980  32.5894930  89.1600230  74.8203580  34.0220920
  88.3093820  74.5209330  34.3429990  89.0002020  75.0645590  33.1104740
  86.2549940  76.3205330  36.1219710  86.5803350  75.4869080  35.7821940
  87.0430270  76.8433850  36.2698040  82.9884730  70.3536810  22.1694770
  82.3638910  70.3496680  22.8948080  82.9014850  69.4867770  21.7730740
  81.9101810  71.2773440  29.1478540  82.2074140  72.1836270  29.0670560
  82.4587370  70.7892220  28.5338110  79.6640130  75.8559680  25.0170190
  79.4381050  75.6396850  25.9216810  78.8832660  76.2888140  24.6716160
  86.8937890  75.8623050  23.6160840  86.2946780  76.5858850  23.4324460
  87.4417500  75.7999830  22.8337290  82.1039340  76.7545260  35.6830460
  82.0082940  75.8139990  35.5330860  82.9471320  76.9760330  35.2878530
  85.5002760  74.4986590  25.6464120  85.8932330  74.8158790  24.8332810
  85.8619610  73.6198470  25.7608640  77.2349880  73.1658930  33.8364240
  76.8413270  74.0134140  34.0437020  76.5468280  72.5285300  34.0272880
  83.8094930  73.2493900  36.9060980  83.1193250  73.0566100  37.5407070
  84.5527230  73.5328540  37.4385280  74.5366930  71.0887390  27.8694320
  74.2479980  71.6590250  28.5819300  75.2812690  70.6091840  28.2325550
  74.7237160  75.0307510  19.0797040  74.6411830  75.9738270  19.2212030
  74.3720220  74.8882420  18.2009390  86.0857900  77.0892340  29.7414900
  85.3539020  77.5979150  30.0905000  85.6882240  76.2722320  29.4403680
  82.5235290  73.7646540  28.1467390  82.5271350  73.3236490  27.2971930
  83.4186410  74.0863870  28.2539210  78.3737670  73.6473030  27.1061600
  78.0337720  74.1248260  27.8628650  77.6114990  73.1938150  26.7462700
  82.5855440  74.7658620  21.1374150  82.7068260  74.7245100  22.0859970
  82.2003950  75.6282770  20.9820880  86.5483810  72.5426020  29.1537840
  86.5656550  72.9934670  29.9979690  86.2999390  71.6431660  29.3671280
  81.5976940  77.0759760  20.5357450  81.0293840  76.6278010  19.9093360
  82.3065940  77.4352540  20.0022600  89.9754560  69.9558200  34.9924220
  90.3000330  69.2247860  35.5182200  90.0111070  69.6371840  34.0905210
  76.6746120  80.9771780  34.4124180  76.2900910  80.3365450  35.0107140
  76.9858310  81.6807900  34.9818910  82.8243260  77.8248320  29.8932800
  83.1913390  77.3506890  30.6394140  82.6348320  78.6989890  30.2341140
  75.6883750  72.5692010  26.0226270  75.4030670  72.2047680  26.8604890
  75.6262610  71.8372470  25.4089410  80.6142630  76.8656960  32.2117010
  80.3099700  77.7448940  32.4367370  81.5689090  76.9256750  32.2474450
  79.1424420  81.0717950  22.8083860  78.3686680  80.5315570  22.6482580
  79.8719050  80.5524560  22.4701620  89.9012400  80.0683310  28.6010250
  90.6211520  80.5638600  28.2106360  89.6994220  79.3901200  27.9564120
  85.3622340  71.4621270  22.7439640  84.5486950  70.9634440  22.6684950
  85.1684290  72.3019520  22.3275990  85.2831200  80.1392370  34.4879250
  85.2168510  79.2188040  34.2336840  84.6536340  80.2367810  35.2023890
  88.0770730  75.8340920  21.0401800  88.9650350  76.1458150  20.8653140
  88.0475820  74.9613170  20.6482380  79.1861820  80.7398330  26.4462670
  79.7040490  79.9366590  26.3919560  78.7345840  80.6777470  27.2879500
  84.0731320  82.0064610  21.7189970  84.4147020  82.7506840  21.2233290
  83.2444030  82.3195730  22.0814800  76.6706360  77.7059700  33.3588370
  76.3121300  78.3713550  33.9461710  76.3760920  76.8743250  33.7300990
  79.8719480  78.1643940  36.2427920  79.5719620  78.3101120  35.3455740
  80.6430720  77.6049230  36.1501310  85.2147930  82.9612940  34.2383050
  85.2292470  82.0293900  34.0201960  84.5073030  83.0472700  34.8772820
  86.9558730  81.3280450  27.0835480  87.3082550  80.7308580  26.4236850
  86.0721060  81.0024680  27.2543730  83.0422010  82.0878140  24.4905890
  83.7293140  82.6347350  24.8713480  82.2554430  82.6318870  24.5255500
  75.1814410  77.7050960  19.9822970  76.0509260  77.9875760  20.2658890
  74.6904730  78.5186830  19.8671780  82.3449220  79.0924170  24.1031250
  82.8012000  79.9029420  24.3291440  81.9937430  78.7747310  24.9349740
  84.6481830  84.6030510  31.3323550  85.2924050  84.8089890  32.0096970
  85.0111270  83.8418910  30.8794400  78.2461000  69.4361820  24.5753770
  78.1175630  69.4279720  25.5238690  77.4223020  69.7744910  24.2244780
  85.9213910  82.6062860  30.0501000  86.5636140  81.9056020  30.1633170
  86.4463260  83.3861300  29.8697890  89.7669630  82.8911480  19.7740140
  89.5407210  82.1741920  20.3664780  89.3765830  82.6423920  18.9361890
  87.6951530  83.4057760  33.2537060  88.0307770  83.9924450  33.9314980
  86.7751870  83.2750470  33.4834850  75.5485660  86.9178340  20.5484600
  75.9083300  87.5167680  19.8941870  75.4078000  87.4638230  21.3219630
  75.2454930  71.1952940  34.0360470  74.5313450  71.3949860  34.6413080
  75.6649970  70.4192510  34.4075270  89.3485880  80.8083420  21.4354300
  89.0607580  81.2696110  22.2232180  90.1438050  80.3481190  21.7038520
  75.5327520  85.1833200  35.0227000  75.6418640  84.2427940  34.8822390
  74.8808080  85.4487950  34.3740730  83.5240110  83.4549090  36.4225120
  83.2036980  82.7358330  36.9670810  82.8498470  84.1304160  36.4961180
  81.5654280  84.3009540  21.3658270  81.5564380  85.0339230  20.7502780
  80.6452640  84.0541120  21.4585230  77.1660920  79.5224430  22.1105030
  76.5588870  80.2623330  22.1200330  77.6410270  79.6123790  21.2843230
  86.7393710  73.6875250  31.7861920  87.1074530  72.8670460  32.1141490
  85.8791910  73.7477140  32.2017570  90.1055740  72.6432190  22.5949480
  89.4768900  72.7477860  21.8807710  89.6107660  72.8628970  23.3843360
  84.5513880  84.3637780  20.0283460  84.6525860  84.1601770  19.0985440
  83.6515620  84.1096060  20.2331240  82.0739770  74.9218140  24.0107360
  81.3655920  75.3904480  24.4520970  82.3584250  74.2640150  24.6452550
  83.6995700  76.3414840  32.0099890  84.1980950  76.8160660  32.6751740
  83.8418650  75.4178360  32.2169920  86.1055200  71.6468800  25.4503150
  85.9822980  71.6654930  24.5012660  87.0539760  71.6947740  25.5701550
  83.1931990  86.8824100  24.7231130  83.4473490  86.8445490  23.8010500
  82.2444470  86.7557430  24.7159380  80.2774790  73.2303220  21.3858070
  81.1265320  73.6673370  21.3198260  79.9106060  73.5423480  22.2130130
  89.1984570  77.8015980  26.2989640  88.2574710  77.8166210  26.4737330
  89.5128640  77.0151940  26.7449940  79.1766210  79.4835580  19.8593600
  79.9429480  79.3716940  20.4219030  79.2540900  78.7873550  19.2070370
  77.8712970  76.9160650  20.5426490  77.9516560  75.9688160  20.6543890
  78.7632720  77.2467530  20.6487150  78.6727680  87.0656040  27.6461030
  79.4090160  86.5171500  27.9169600  79.0568600  87.9312050  27.5067020
  75.5573160  83.1329610  23.5202540  74.6312940  83.3750750  23.5107950
  76.0229590  83.9603870  23.3987290  77.6785960  86.2502110  36.8346610
  78.4798690  86.5714160  37.2482010  77.1637780  85.8897690  37.5566520
  81.7829990  86.2386350  19.4686600  82.5758600  86.5275180  19.0168390
  81.2634340  85.8078520  18.7899080  86.5150590  82.3581980  36.7822020
  85.9088750  82.3813580  36.0417770  86.2104700  81.6265020  37.3189270
  87.9450960  86.0862270  35.3931430  88.8972710  86.0020290  35.3431670
  87.7979180  86.7503980  36.0665220  90.8360160  85.4656480  20.8923340
  90.5501670  85.0521620  20.0777520  90.6379710  86.3944190  20.7723860
  75.3983770  78.7375570  35.7782660  75.9022790  78.1582850  36.3498890
  74.6591190  79.0215800  36.3159030  82.3007390  81.4589760  19.3328950
  82.1958030  80.8442110  20.0590330  82.1331610  80.9355650  18.5491960
  82.4521710  80.1446560  35.3118180  81.6867380  80.7131560  35.2272850
  82.6337670  79.8522770  34.4186410  85.5410120  80.5209790  19.9370940
  84.9920220  80.9679090  20.5813680  86.1629380  80.0159040  20.4608610
  89.5945060  81.8751890  35.8693200  90.3354530  82.2127650  35.3660660
  88.8317740  82.0443950  35.3162970  77.4306850  76.8805160  36.6732730
  77.4712190  76.5819030  37.5817960  78.2852350  77.2812770  36.5140250
  81.2085240  79.4800710  21.8336240  81.6301660  79.3140580  22.6767630
  81.3336080  78.6700940  21.3391380  79.3712660  75.4597260  34.6407220
  78.8409120  74.9688210  34.0130560  80.0400730  75.8881460  34.1065150
  83.7212880  78.5038320  19.0813340  84.2418540  77.7887340  18.7154490
  84.3681280  79.1424190  19.3813850  88.2690720  79.9266720  34.4048410
  88.6831740  80.0811800  35.2538830  87.3341720  80.0521940  34.5674190
  88.7412890  77.2662880  36.4087560  89.3233660  76.5115200  36.3208040
  88.9174660  77.7970320  35.6319040  79.8584960  72.4259630  34.7204510
  79.7641830  71.8080380  33.9955380  79.2782350  73.1525920  34.4934420
  82.6246400  70.9832870  31.7531900  82.1763700  71.0057130  30.9077450
  81.9911600  70.5851890  32.3502200  83.0305950  79.8787200  32.3744340
  83.4494060  80.7219930  32.2020580  82.1114580  80.0159240  32.1451120
  85.3669850  77.6103380  33.7582180  85.4866060  77.0144520  34.4977020
  86.2263850  77.6473070  33.3383480  87.7057750  78.1640570  32.3344690
  87.1792970  78.6883190  31.7309830  88.0489090  78.7967960  32.9654420
  80.1044140  75.5533940  18.7794400  79.9033200  74.6901300  19.1407740
  79.9336190  75.4667300  17.8416000  80.8813370  86.1840210  33.4902070
  80.3434460  86.9086270  33.1710770  81.1347330  85.7070550  32.6999410
  82.1338620  74.1524730  35.0158000  82.7238310  73.8440580  35.7035820
  81.3158860  73.6804480  35.1717900  86.9532050  73.7690540  35.2491020
  86.2647570  73.1072080  35.1841010  87.6738070  73.3228810  35.6939480
  87.5832450  70.3642170  21.3081280  87.8634740  69.5210070  21.6640700
  86.8098180  70.5965280  21.8220030  78.9026940  72.6534560  18.7672280
  79.2052840  72.6601990  17.8591430  79.6421530  72.3032420  19.2639940
  83.7375580  87.4191420  33.7488720  83.6634280  88.3226560  34.0561090
  82.8354420  87.1003320  33.7210790  82.1211870  71.5969180  19.7528480
  81.7733870  70.9193170  19.1730930  82.3224640  71.1358690  20.5671870
  84.2860910  86.5849930  21.3715080  85.1811700  86.9234900  21.3933840
  84.3178540  85.8629340  20.7439360  77.9257070  81.9576980  19.6002080
  78.3631940  82.5006650  20.2559660  78.4104800  81.1323930  19.6098420
  75.1402870  84.7466010  27.0522340  75.4705880  83.8787070  26.8200980
  75.5693870  84.9524530  27.8827300  79.7364790  83.0775020  24.7124310
  79.4360330  82.9539990  25.6128220  79.6302280  82.2183610  24.3040040
  75.6293080  85.6136600  29.7903970  75.1924070  85.7937400  30.6228120
  76.1970760  86.3711220  29.6485690  75.4617510  78.1256830  26.1492850
  74.8066350  77.8568470  25.5052550  76.2995460  78.0161310  25.6994830
  89.9506900  81.8405580  32.1757440  89.1366740  82.2702740  32.4383230
  90.3581100  82.4523990  31.5626490  88.4107950  72.9198120  20.3711340
  88.8292830  72.7329100  19.5308000  88.1044010  72.0677170  20.6814270
  76.4993440  78.5109400  30.6896190  76.8666480  78.4236800  31.5692210
  75.9304260  77.7475950  30.5903050  76.0509440  75.4218490  34.5954610
  75.1565490  75.3885250  34.9348320  76.5906990  75.6205280  35.3605860
  89.7385370  72.2050210  36.4806360  90.6155550  72.2133610  36.8640360
  89.7506210  71.4681050  35.8698710  74.6755590  75.3355760  22.0918180
  73.7719670  75.5985960  21.9169840  75.1596210  75.6066930  21.3118140
  77.2182800  74.3921300  20.0012560  77.9274500  73.9704520  19.5159840
  76.5022740  74.4596530  19.3695910  76.8656960  70.4460630  19.0415210
  77.5885090  70.9869570  19.3596430  77.1381480  70.1724050  18.1656750
  76.5549150  69.6966820  28.9437830  77.2025340  69.1464200  28.5032990
  76.9750990  69.9509970  29.7653640  90.0082950  86.5924180  25.7025710
  90.6042020  86.2708750  25.0260130  90.2661100  86.1196000  26.4938980
  76.3081150  69.8522490  31.6863150  75.9595970  70.3086310  32.4521330
  75.9768850  68.9579620  31.7685580  77.9145520  83.0242090  35.8516340
  77.8715150  82.6535000  36.7330800  78.0456530  83.9619660  35.9918160
  81.6151550  84.5801680  31.4526060  81.3742910  84.8476240  30.5656580
  82.5554190  84.7507410  31.5076920  83.8205970  71.0434370  35.2082570
  83.7594860  71.6356200  35.9577980  84.7606350  70.9360330  35.0632830
  86.4580530  70.7004430  34.8474860  87.0720940  71.0183720  34.1855940
  87.0030090  70.2153020  35.4670720  76.9801790  69.3798690  34.9613920
  77.5284780  69.1986740  34.1980030  77.0457100  68.5892800  35.4970230
  77.7533550  85.9704340  32.9714120  77.1593870  85.8389040  33.7104160
  77.7457390  85.1342480  32.5056220  87.1988570  69.2636570  31.1744150
  86.3248410  69.5971680  30.9717080  87.0899320  68.7909750  31.9996020
  88.1060550  71.4707440  32.5585870  87.7773910  70.6559200  32.1787600
  89.0542850  71.4277250  32.4351560  90.5595160  87.2419480  29.5323440
  90.0998130  87.9935290  29.1581460  89.9307620  86.5225950  29.4738240
  77.3845780  83.3362720  31.9222160  76.6579840  82.7168010  31.8548110
  77.4454930  83.7303330  31.0520240  80.9890880  85.5507720  28.7071570
  81.5055900  84.9395080  28.1819830  81.6388260  86.0536500  29.1982580
  83.7286380  86.4416210  29.5340550  84.0164190  86.1870510  28.6573560
  84.2409600  85.8893570  30.1246120  84.9463390  70.1806410  30.1137060
  84.1635180  70.6551910  30.3933820  84.6526320  69.2761240  30.0050240
  89.4984460  70.8829510  28.1586150  89.9392550  70.8274610  27.3107750
  89.2292050  71.7987520  28.2296330  75.6675780  86.6537110  25.1318920
  75.4997820  86.0207790  25.8300810  74.8010290  86.8596510  24.7813110
  76.2903800  70.4853890  22.6350780  77.0483160  70.5982770  22.0614810
  75.8280970  71.3223090  22.5894210  82.8317610  72.5993160  25.6253090
  82.0192120  72.2250050  25.2848970  83.3359250  71.8438240  25.9274280
  87.3342590  69.2635610  26.8636160  87.9371960  69.8355820  27.3384680
  86.5935580  69.8275050  26.6410060  90.4777190  69.6657170  22.1376440
  90.6727820  70.5640620  22.4043870  89.6907060  69.4344250  22.6309390
  77.2738480  85.3470340  22.5769060  76.7486100  85.7278370  21.8731020
  77.1983060  85.9721110  23.2978770  78.6628950  71.0117940  21.1752750
  79.1921710  70.2247740  21.0460700  79.2957270  71.6909130  21.4088280
  80.8566790  70.7493080  24.2298140  80.2269530  70.0480390  24.3968270
  80.3171930  71.5097210  24.0131300  83.7958740  87.3632310  36.9008750
  84.7226050  87.1276580  36.9444710  83.7809170  88.1904310  36.4194780
  80.9822350  70.0277060  36.6650630  80.7006620  70.5310660  35.9011450
  81.3642050  69.2298810  36.2992760  79.8731450  87.2952720  21.4518310
  80.6050270  87.0112000  20.9042200  80.1325120  87.0566000  22.3417690
  79.0346240  83.4117450  21.4564640  78.4055120  83.8802550  22.0050470
  79.1494070  82.5666670  21.8910830  87.5837810  69.4430640  37.2431100
  87.4703260  69.7625250  38.1382620  88.4007550  69.8443150  36.9468380
  86.4895960  77.4623110   7.6065840  86.4090010  76.5477720   7.3357550
  86.0760380  77.9590180   6.9005550  84.6214000  79.2402130   9.4875110
  83.8456100  78.7602570   9.7773680  85.2726930  78.5607780   9.3131270
  78.6379830  79.5521940  10.3650870  77.8064710  79.2970650  10.7647380
  79.2460810  79.6232710  11.1008790  88.6421430  83.6462320   8.2674240
  88.1802960  82.8749560   8.5961410  89.4546980  83.6728390   8.7726690
  78.6181090  83.5862030  10.5608890  78.9209130  82.6959770  10.3819110
  79.3624680  84.1432250  10.3331140  77.0471780  74.5123830   4.1493260
  76.1588480  74.8539800   4.0473140  77.3312970  74.3124150   3.2574090
  75.0104790  77.1129480  10.0332960  75.5820900  76.3451680  10.0336600
  75.0106330  77.4118240   9.1239570  84.8684740  85.9320330   7.8878230
  84.2496180  86.3877830   7.3172670  85.7236520  86.0871790   7.4867930
  84.0622990  81.9159320   9.4945270  83.9931270  80.9749260   9.3334400
  84.8242850  82.0060730  10.0667840  76.2529660  72.5213840  11.8201890
  76.0732500  71.6239590  12.1004650  75.8509740  73.0685710  12.4948840
  85.0928160  74.7229700   9.7214200  85.4692980  73.8501580   9.6087870
  84.9947670  75.0588400   8.8304640  79.2233170  73.0955330   5.1831640
  79.3299920  73.9959060   5.4900400  78.3125530  73.0473300   4.8926290
  88.8752280  72.2180140   6.6542540  89.6961900  71.7276710   6.6968020
  88.9086360  72.8077800   7.4074380  76.8716330  75.0174340  10.4284230
  77.5526440  75.2812710  11.0471630  76.5564380  74.1775210  10.7622240
  81.0640900  76.0641700   9.5156820  81.5719120  76.5622670  10.1561840
  81.5954140  75.2876900   9.3396180  79.3477000  70.7040260  13.7820240
  79.3495440  71.2212650  12.9766140  78.5181310  70.2270440  13.7590170
  85.7348090  80.8159570   5.2810140  85.1165360  81.2809020   4.7172860
  86.2471340  81.5087050   5.6979650  80.5979850  80.3435440  11.9593740
  80.2649230  80.9704360  12.6014810  80.7746530  80.8697320  11.1795410
  89.1113760  74.1580520   9.4270080  88.4069330  74.4465410  10.0073190
  89.4725920  74.9680630   9.0669640  79.0292330  72.4150220  11.7890690
  79.3709140  73.2592270  11.4944560  78.0908140  72.5633960  11.9056030
  79.8098950  82.3116240  13.7742920  80.4272950  82.9867320  13.4927370
  78.9492070  82.7204220  13.6830420  75.1031290  81.5016100   2.6549770
  74.7259270  81.9903200   1.9234670  75.3604360  82.1741380   3.2856300
  82.7120220  69.9032490   8.1135280  83.0195200  69.3479380   7.3970780
  81.7820920  70.0376950   7.9308270  88.2635280  85.6199780  10.4042740
  88.2762440  85.2162070   9.5365000  87.7110500  86.3947070  10.3004170
  89.5580700  82.3416000   5.4932910  89.4477030  81.3990330   5.6182330
  89.5548950  82.7031640   6.3795670  87.6620720  80.5229620  11.7325350
  88.0789510  80.3089730  10.8978810  88.3860540  80.7802410  12.3033970
  85.1000980  77.9681320   4.8495400  84.1730260  77.9018700   5.0783870
  85.2525800  78.9061450   4.7350640  89.1298270  79.5301620   5.3530650
  88.5110690  79.1921170   4.7056950  89.1122720  78.8861380   6.0609840
  88.5724830  75.7086160  12.7696460  88.1596010  76.5339870  13.0236450
  87.8400780  75.1231200  12.5772820  80.7057620  78.4946060   7.6315130
  80.3014620  77.7823310   7.1361030  80.7920740  78.1499300   8.5203170
  81.1739320  82.1813620   9.7954340  80.8767610  81.5759090   9.1162120
  82.1239140  82.2190930   9.6843700  79.4186240  75.2689270  11.4114170
  79.9700830  75.3784610  10.6367420  79.9329750  75.6426870  12.1269400
  89.2624930  85.7545490  13.4577440  88.7855490  86.5617680  13.2650050
  88.5786720  85.1023820  13.6103650  80.2657750  81.9195310  16.4462140
  79.3686280  82.1435280  16.6935540  80.2910620  82.0430250  15.4973540
  87.3062970  78.7688430   2.3603400  87.7456250  77.9310860   2.2141220
  88.0191390  79.4017830   2.4467540  79.0928970  78.7908630  15.0219510
  78.9536740  79.6631430  15.3906910  78.2110330  78.4481440  14.8767450
  85.4158350  83.7084500   6.3284640  85.8554260  84.4508830   5.9140030
  85.3545240  83.9511070   7.2523600  80.8909320  84.7330330  17.2304660
  80.8624750  85.1373280  16.3633090  80.7274290  83.8040690  17.0676260
  77.4062250  77.3891040   5.1321780  77.2859850  78.1153130   4.5203050
  77.0963140  76.6193950   4.6549690  75.0447620  80.5606180  10.9390420
  75.1228040  80.6954950   9.9946140  75.6589300  79.8522070  11.1318540
  76.2895250  82.2606370   7.3496600  75.8823330  82.4020960   6.4950200
  77.1808260  81.9766530   7.1467810  86.1074130  86.4098280  14.2563650
  86.6218800  86.3206290  15.0586080  85.2643210  86.7557980  14.5491560
  88.0828530  86.6953620   3.6847650  87.9229670  86.4056560   4.5829480
  87.9175240  85.9193750   3.1492880  80.5616910  86.4752150   5.4619270
  80.3859390  85.5587690   5.2487070  79.7072650  86.8339440   5.7017070
  87.3504590  85.8303890   6.3194140  87.8061540  85.0493270   6.6332760
  87.6897110  86.5410710   6.8635320  75.1007140  81.6020350  13.4784880
  75.2638180  81.1325710  12.6604250  75.5659590  81.0943910  14.1433720
  79.8725910  70.7326110   8.5145450  79.4294060  71.5135650   8.1829970
  80.4310900  71.0556000   9.2216390  84.1595720  73.5994630  14.1180770
  83.6975090  73.8077650  14.9300710  83.7573830  72.7853980  13.8151440
  89.1600230  74.8203580  15.2477430  88.3093820  74.5209330  15.5686500
  89.0002020  75.0645590  14.3361250  86.2549940  76.3205330  17.3476220
  86.5803350  75.4869080  17.0078450  87.0430270  76.8433850  17.4954550
  82.9884730  70.3536810   3.3951280  82.3638910  70.3496680   4.1204590
  82.9014850  69.4867770   2.9987250  81.9101810  71.2773440  10.3735050
  82.2074140  72.1836270  10.2927070  82.4587370  70.7892220   9.7594620
  79.6640130  75.8559680   6.2426700  79.4381050  75.6396850   7.1473320
  78.8832660  76.2888140   5.8972670  86.8937890  75.8623050   4.8417350
  86.2946780  76.5858850   4.6580970  87.4417500  75.7999830   4.0593800
  82.1039340  76.7545260  16.9086970  82.0082940  75.8139990  16.7587370
  82.9471320  76.9760330  16.5135040  85.5002760  74.4986590   6.8720630
  85.8932330  74.8158790   6.0589320  85.8619610  73.6198470   6.9865150
  77.2349880  73.1658930  15.0620750  76.8413270  74.0134140  15.2693530
  76.5468280  72.5285300  15.2529390  83.8094930  73.2493900  18.1317490
  83.1193250  73.0566100  18.7663580  84.5527230  73.5328540  18.6641790
  74.5366930  71.0887390   9.0950830  74.2479980  71.6590250   9.8075810
  75.2812690  70.6091840   9.4582060  86.0857900  77.0892340  10.9671410
  85.3539020  77.5979150  11.3161510  85.6882240  76.2722320  10.6660190
  82.5235290  73.7646540   9.3723900  82.5271350  73.3236490   8.5228440
  83.4186410  74.0863870   9.4795720  78.3737670  73.6473030   8.3318110
  78.0337720  74.1248260   9.0885160  77.6114990  73.1938150   7.9719210
  82.5855440  74.7658620   2.3630660  82.7068260  74.7245100   3.3116480
  82.2003950  75.6282770   2.2077390  86.5483810  72.5426020  10.3794350
  86.5656550  72.9934670  11.2236200  86.2999390  71.6431660  10.5927790
  89.9754560  69.9558200  16.2180730  90.3000330  69.2247860  16.7438710
  90.0111070  69.6371840  15.3161720  76.6746120  80.9771780  15.6380690
  76.2900910  80.3365450  16.2363650  76.9858310  81.6807900  16.2075420
  82.8243260  77.8248320  11.1189310  83.1913390  77.3506890  11.8650650
  82.6348320  78.6989890  11.4597650  75.6883750  72.5692010   7.2482780
  75.4030670  72.2047680   8.0861400  75.6262610  71.8372470   6.6345920
  80.6142630  76.8656960  13.4373520  80.3099700  77.7448940  13.6623880
  81.5689090  76.9256750  13.4730960  79.1424420  81.0717950   4.0340370
  78.3686680  80.5315570   3.8739090  79.8719050  80.5524560   3.6958130
  89.9012400  80.0683310   9.8266760  90.6211520  80.5638600   9.4362870
  89.6994220  79.3901200   9.1820630  85.3622340  71.4621270   3.9696150
  84.5486950  70.9634440   3.8941460  85.1684290  72.3019520   3.5532500
  85.2831200  80.1392370  15.7135760  85.2168510  79.2188040  15.4593350
  84.6536340  80.2367810  16.4280400  88.0770730  75.8340920   2.2658310
  88.9650350  76.1458150   2.0909650  88.0475820  74.9613170   1.8738890
  79.1861820  80.7398330   7.6719180  79.7040490  79.9366590   7.6176070
  78.7345840  80.6777470   8.5136010  84.0731320  82.0064610   2.9446480
  84.4147020  82.7506840   2.4489800  83.2444030  82.3195730   3.3071310
  76.6706360  77.7059700  14.5844880  76.3121300  78.3713550  15.1718220
  76.3760920  76.8743250  14.9557500  79.8719480  78.1643940  17.4684430
  79.5719620  78.3101120  16.5712250  80.6430720  77.6049230  17.3757820
  85.2147930  82.9612940  15.4639560  85.2292470  82.0293900  15.2458470
  84.5073030  83.0472700  16.1029330  86.9558730  81.3280450   8.3091990
  87.3082550  80.7308580   7.6493360  86.0721060  81.0024680   8.4800240
  83.0422010  82.0878140   5.7162400  83.7293140  82.6347350   6.0969990
  82.2554430  82.6318870   5.7512010  82.3449220  79.0924170   5.3287760
  82.8012000  79.9029420   5.5547950  81.9937430  78.7747310   6.1606250
  84.6481830  84.6030510  12.5580060  85.2924050  84.8089890  13.2353480
  85.0111270  83.8418910  12.1050910  78.2461000  69.4361820   5.8010280
  78.1175630  69.4279720   6.7495200  77.4223020  69.7744910   5.4501290
  85.9213910  82.6062860  11.2757510  86.5636140  81.9056020  11.3889680
  86.4463260  83.3861300  11.0954400  87.6951530  83.4057760  14.4793570
  88.0307770  83.9924450  15.1571490  86.7751870  83.2750470  14.7091360
  75.2454930  71.1952940  15.2616980  74.5313450  71.3949860  15.8669590
  75.6649970  70.4192510  15.6331780  89.3485880  80.8083420   2.6610810
  89.0607580  81.2696110   3.4488690  90.1438050  80.3481190   2.9295030
  75.5327520  85.1833200  16.2483510  75.6418640  84.2427940  16.1078900
  74.8808080  85.4487950  15.5997240  83.5240110  83.4549090  17.6481630
  83.2036980  82.7358330  18.1927320  82.8498470  84.1304160  17.7217690
  81.5654280  84.3009540   2.5914780  81.5564380  85.0339230   1.9759290
  80.6452640  84.0541120   2.6841740  77.1660920  79.5224430   3.3361540
  76.5588870  80.2623330   3.3456840  77.6410270  79.6123790   2.5099740
  86.7393710  73.6875250  13.0118430  87.1074530  72.8670460  13.3398000
  85.8791910  73.7477140  13.4274080  90.1055740  72.6432190   3.8205990
  89.4768900  72.7477860   3.1064220  89.6107660  72.8628970   4.6099870
  82.0739770  74.9218140   5.2363870  81.3655920  75.3904480   5.6777480
  82.3584250  74.2640150   5.8709060  83.6995700  76.3414840  13.2356400
  84.1980950  76.8160660  13.9008250  83.8418650  75.4178360  13.4426430
  86.1055200  71.6468800   6.6759660  85.9822980  71.6654930   5.7269170
  87.0539760  71.6947740   6.7958060  83.1931990  86.8824100   5.9487640
  83.4473490  86.8445490   5.0267010  82.2444470  86.7557430   5.9415890
  80.2774790  73.2303220   2.6114580  81.1265320  73.6673370   2.5454770
  79.9106060  73.5423480   3.4386640  89.1984570  77.8015980   7.5246150
  88.2574710  77.8166210   7.6993840  89.5128640  77.0151940   7.9706450
  77.8712970  76.9160650   1.7683000  77.9516560  75.9688160   1.8800400
  78.7632720  77.2467530   1.8743660  78.6727680  87.0656040   8.8717540
  79.4090160  86.5171500   9.1426110  79.0568600  87.9312050   8.7323530
  75.5573160  83.1329610   4.7459050  74.6312940  83.3750750   4.7364460
  76.0229590  83.9603870   4.6243800  77.6785960  86.2502110  18.0603120
  78.4798690  86.5714160  18.4738520  77.1637780  85.8897690  18.7823030
  86.5150590  82.3581980  18.0078530  85.9088750  82.3813580  17.2674280
  86.2104700  81.6265020  18.5445780  87.9450960  86.0862270  16.6187940
  88.8972710  86.0020290  16.5688180  87.7979180  86.7503980  17.2921730
  75.3983770  78.7375570  17.0039170  75.9022790  78.1582850  17.5755400
  74.6591190  79.0215800  17.5415540  82.4521710  80.1446560  16.5374690
  81.6867380  80.7131560  16.4529360  82.6337670  79.8522770  15.6442920
  89.5945060  81.8751890  17.0949710  90.3354530  82.2127650  16.5917170
  88.8317740  82.0443950  16.5419480  77.4306850  76.8805160  17.8989240
  77.4712190  76.5819030  18.8074470  78.2852350  77.2812770  17.7396760
  81.2085240  79.4800710   3.0592750  81.6301660  79.3140580   3.9024140
  81.3336080  78.6700940   2.5647890  79.3712660  75.4597260  15.8663730
  78.8409120  74.9688210  15.2387070  80.0400730  75.8881460  15.3321660
  88.2690720  79.9266720  15.6304920  88.6831740  80.0811800  16.4795340
  87.3341720  80.0521940  15.7930700  88.7412890  77.2662880  17.6344070
  89.3233660  76.5115200  17.5464550  88.9174660  77.7970320  16.8575550
  79.8584960  72.4259630  15.9461020  79.7641830  71.8080380  15.2211890
  79.2782350  73.1525920  15.7190930  82.6246400  70.9832870  12.9788410
  82.1763700  71.0057130  12.1333960  81.9911600  70.5851890  13.5758710
  83.0305950  79.8787200  13.6000850  83.4494060  80.7219930  13.4277090
  82.1114580  80.0159240  13.3707630  85.3669850  77.6103380  14.9838690
  85.4866060  77.0144520  15.7233530  86.2263850  77.6473070  14.5639990
  87.7057750  78.1640570  13.5601200  87.1792970  78.6883190  12.9566340
  88.0489090  78.7967960  14.1910930  80.8813370  86.1840210  14.7158580
  80.3434460  86.9086270  14.3967280  81.1347330  85.7070550  13.9255920
  82.1338620  74.1524730  16.2414510  82.7238310  73.8440580  16.9292330
  81.3158860  73.6804480  16.3974410  86.9532050  73.7690540  16.4747530
  86.2647570  73.1072080  16.4097520  87.6738070  73.3228810  16.9195990
  87.5832450  70.3642170   2.5337790  87.8634740  69.5210070   2.8897210
  86.8098180  70.5965280   3.0476540  83.7375580  87.4191420  14.9745230
  83.6634280  88.3226560  15.2817600  82.8354420  87.1003320  14.9467300
  84.2860910  86.5849930   2.5971590  85.1811700  86.9234900   2.6190350
  84.3178540  85.8629340   1.9695870  75.1402870  84.7466010   8.2778850
  75.4705880  83.8787070   8.0457490  75.5693870  84.9524530   9.1083810
  79.7364790  83.0775020   5.9380820  79.4360330  82.9539990   6.8384730
  79.6302280  82.2183610   5.5296550  75.6293080  85.6136600  11.0160480
  75.1924070  85.7937400  11.8484630  76.1970760  86.3711220  10.8742200
  75.4617510  78.1256830   7.3749360  74.8066350  77.8568470   6.7309060
  76.2995460  78.0161310   6.9251340  89.9506900  81.8405580  13.4013950
  89.1366740  82.2702740  13.6639740  90.3581100  82.4523990  12.7883000
  76.4993440  78.5109400  11.9152700  76.8666480  78.4236800  12.7948720
  75.9304260  77.7475950  11.8159560  76.0509440  75.4218490  15.8211120
  75.1565490  75.3885250  16.1604830  76.5906990  75.6205280  16.5862370
  89.7385370  72.2050210  17.7062870  90.6155550  72.2133610  18.0896870
  89.7506210  71.4681050  17.0955220  74.6755590  75.3355760   3.3174690
  73.7719670  75.5985960   3.1426350  75.1596210  75.6066930   2.5374650
  76.5549150  69.6966820  10.1694340  77.2025340  69.1464200   9.7289500
  76.9750990  69.9509970  10.9910150  90.0082950  86.5924180   6.9282220
  90.6042020  86.2708750   6.2516640  90.2661100  86.1196000   7.7195490
  76.3081150  69.8522490  12.9119660  75.9595970  70.3086310  13.6777840
  75.9768850  68.9579620  12.9942090  77.9145520  83.0242090  17.0772850
  77.8715150  82.6535000  17.9587310  78.0456530  83.9619660  17.2174670
  81.6151550  84.5801680  12.6782570  81.3742910  84.8476240  11.7913090
  82.5554190  84.7507410  12.7333430  83.8205970  71.0434370  16.4339080
  83.7594860  71.6356200  17.1834490  84.7606350  70.9360330  16.2889340
  86.4580530  70.7004430  16.0731370  87.0720940  71.0183720  15.4112450
  87.0030090  70.2153020  16.6927230  76.9801790  69.3798690  16.1870430
  77.5284780  69.1986740  15.4236540  77.0457100  68.5892800  16.7226740
  77.7533550  85.9704340  14.1970630  77.1593870  85.8389040  14.9360670
  77.7457390  85.1342480  13.7312730  87.1988570  69.2636570  12.4000660
  86.3248410  69.5971680  12.1973590  87.0899320  68.7909750  13.2252530
  88.1060550  71.4707440  13.7842380  87.7773910  70.6559200  13.4044110
  89.0542850  71.4277250  13.6608070  90.5595160  87.2419480  10.7579950
  90.0998130  87.9935290  10.3837970  89.9307620  86.5225950  10.6994750
  77.3845780  83.3362720  13.1478670  76.6579840  82.7168010  13.0804620
  77.4454930  83.7303330  12.2776750  80.9890880  85.5507720   9.9328080
  81.5055900  84.9395080   9.4076340  81.6388260  86.0536500  10.4239090
  83.7286380  86.4416210  10.7597060  84.0164190  86.1870510   9.8830070
  84.2409600  85.8893570  11.3502630  84.9463390  70.1806410  11.3393570
  84.1635180  70.6551910  11.6190330  84.6526320  69.2761240  11.2306750
  89.4984460  70.8829510   9.3842660  89.9392550  70.8274610   8.5364260
  89.2292050  71.7987520   9.4552840  75.6675780  86.6537110   6.3575430
  75.4997820  86.0207790   7.0557320  74.8010290  86.8596510   6.0069620
  76.2903800  70.4853890   3.8607290  77.0483160  70.5982770   3.2871320
  75.8280970  71.3223090   3.8150720  82.8317610  72.5993160   6.8509600
  82.0192120  72.2250050   6.5105480  83.3359250  71.8438240   7.1530790
  87.3342590  69.2635610   8.0892670  87.9371960  69.8355820   8.5641190
  86.5935580  69.8275050   7.8666570  90.4777190  69.6657170   3.3632950
  90.6727820  70.5640620   3.6300380  89.6907060  69.4344250   3.8565900
  77.2738480  85.3470340   3.8025570  76.7486100  85.7278370   3.0987530
  77.1983060  85.9721110   4.5235280  78.6628950  71.0117940   2.4009260
  79.1921710  70.2247740   2.2717210  79.2957270  71.6909130   2.6344790
  80.8566790  70.7493080   5.4554650  80.2269530  70.0480390   5.6224780
  80.3171930  71.5097210   5.2387810  83.7958740  87.3632310  18.1265260
  84.7226050  87.1276580  18.1701220  83.7809170  88.1904310  17.6451290
  80.9822350  70.0277060  17.8907140  80.7006620  70.5310660  17.1267960
  81.3642050  69.2298810  17.5249270  79.8731450  87.2952720   2.6774820
  80.6050270  87.0112000   2.1298710  80.1325120  87.0566000   3.5674200
  79.0346240  83.4117450   2.6821150  78.4055120  83.8802550   3.2306980
  79.1494070  82.5666670   3.1167340  87.5837810  69.4430640  18.4687610
  87.4703260  69.7625250  19.3639130  88.4007550  69.8443150  18.1724890
  86.4895960  58.6879620  63.9296310  86.4090010  57.7734230  63.6588020
  86.0760380  59.1846690  63.2236020  84.6214000  60.4658640  65.8105580
  83.8456100  59.9859080  66.1004150  85.2726930  59.7864290  65.6361740
  78.6379830  60.7778450  66.6881340  77.8064710  60.5227160  67.0877850
  79.2460810  60.8489220  67.4239260  88.6421430  64.8718830  64.5904710
  88.1802960  64.1006070  64.9191880  89.4546980  64.8984900  65.0957160
  78.6181090  64.8118540  66.8839360  78.9209130  63.9216280  66.7049580
  79.3624680  65.3688760  66.6561610  77.0471780  55.7380340  60.4723730
  76.1588480  56.0796310  60.3703610  77.3312970  55.5380660  59.5804560
  75.0104790  58.3385990  66.3563430  75.5820900  57.5708190  66.3567070
  75.0106330  58.6374750  65.4470040  84.8684740  67.1576840  64.2108700
  84.2496180  67.6134340  63.6403140  85.7236520  67.3128300  63.8098400
  84.0622990  63.1415830  65.8175740  83.9931270  62.2005770  65.6564870
  84.8242850  63.2317240  66.3898310  76.2529660  53.7470350  68.1432360
  76.0732500  52.8496100  68.4235120  75.8509740  54.2942220  68.8179310
  85.0928160  55.9486210  66.0444670  85.4692980  55.0758090  65.9318340
  84.9947670  56.2844910  65.1535110  79.2233170  54.3211840  61.5062110
  79.3299920  55.2215570  61.8130870  78.3125530  54.2729810  61.2156760
  88.8752280  53.4436650  62.9773010  89.6961900  52.9533220  63.0198490
  88.9086360  54.0334310  63.7304850  76.8716330  56.2430850  66.7514700
  77.5526440  56.5069220  67.3702100  76.5564380  55.4031720  67.0852710
  81.0640900  57.2898210  65.8387290  81.5719120  57.7879180  66.4792310
  81.5954140  56.5133410  65.6626650  79.3477000  51.9296770  70.1050710
  79.3495440  52.4469160  69.2996610  78.5181310  51.4526950  70.0820640
  85.7348090  62.0416080  61.6040610  85.1165360  62.5065530  61.0403330
  86.2471340  62.7343560  62.0210120  80.5979850  61.5691950  68.2824210
  80.2649230  62.1960870  68.9245280  80.7746530  62.0953830  67.5025880
  89.1113760  55.3837030  65.7500550  88.4069330  55.6721920  66.3303660
  89.4725920  56.1937140  65.3900110  79.0292330  53.6406730  68.1121160
  79.3709140  54.4848780  67.8175030  78.0908140  53.7890470  68.2286500
  79.8098950  63.5372750  70.0973390  80.4272950  64.2123830  69.8157840
  78.9492070  63.9460730  70.0060890  75.1031290  62.7272610  58.9780240
  74.7259270  63.2159710  58.2465140  75.3604360  63.3997890  59.6086770
  82.7120220  51.1289000  64.4365750  83.0195200  50.5735890  63.7201250
  81.7820920  51.2633460  64.2538740  88.2635280  66.8456290  66.7273210
  88.2762440  66.4418580  65.8595470  87.7110500  67.6203580  66.6234640
  89.5580700  63.5672510  61.8163380  89.4477030  62.6246840  61.9412800
  89.5548950  63.9288150  62.7026140  87.6620720  61.7486130  68.0555820
  88.0789510  61.5346240  67.2209280  88.3860540  62.0058920  68.6264440
  85.1000980  59.1937830  61.1725870  84.1730260  59.1275210  61.4014340
  85.2525800  60.1317960  61.0581110  85.0870060  55.4654830  58.1693030
  84.1473730  55.6268790  58.2545490  85.4053320  56.1840510  57.6229020
  89.1298270  60.7558130  61.6761120  88.5110690  60.4177680  61.0287420
  89.1122720  60.1117890  62.3840310  88.5724830  56.9342670  69.0926930
  88.1596010  57.7596380  69.3466920  87.8400780  56.3487710  68.9003290
  80.7057620  59.7202570  63.9545600  80.3014620  59.0079820  63.4591500
  80.7920740  59.3755810  64.8433640  81.1739320  63.4070130  66.1184810
  80.8767610  62.8015600  65.4392590  82.1239140  63.4447440  66.0074170
  79.4186240  56.4945780  67.7344640  79.9700830  56.6041120  66.9597890
  79.9329750  56.8683380  68.4499870  89.2624930  66.9802000  69.7807910
  88.7855490  67.7874190  69.5880520  88.5786720  66.3280330  69.9334120
  87.3062970  59.9944940  58.6833870  87.7456250  59.1567370  58.5371690
  88.0191390  60.6274340  58.7698010  79.0928970  60.0165140  71.3449980
  78.9536740  60.8887940  71.7137380  78.2110330  59.6737950  71.1997920
  85.4158350  64.9341010  62.6515110  85.8554260  65.6765340  62.2370500
  85.3545240  65.1767580  63.5754070  77.4062250  58.6147550  61.4552250
  77.2859850  59.3409640  60.8433520  77.0963140  57.8450460  60.9780160
  75.0447620  61.7862690  67.2620890  75.1228040  61.9211460  66.3176610
  75.6589300  61.0778580  67.4549010  76.2895250  63.4862880  63.6727070
  75.8823330  63.6277470  62.8180670  77.1808260  63.2023040  63.4698280
  86.1074130  67.6354790  70.5794120  86.6218800  67.5462800  71.3816550
  85.2643210  67.9814490  70.8722030  88.0828530  67.9210130  60.0078120
  87.9229670  67.6313070  60.9059950  87.9175240  67.1450260  59.4723350
  80.5616910  67.7008660  61.7849740  80.3859390  66.7844200  61.5717540
  79.7072650  68.0595950  62.0247540  87.7854660  65.4297690  58.5676120
  87.0919820  65.4274980  57.9078400  88.5277520  65.0057010  58.1370290
  87.3504590  67.0560400  62.6424610  87.8061540  66.2749780  62.9563230
  87.6897110  67.7667220  63.1865790  75.1007140  62.8276860  69.8015350
  75.2638180  62.3582220  68.9834720  75.5659590  62.3200420  70.4664190
  79.8725910  51.9582620  64.8375920  79.4294060  52.7392160  64.5060440
  80.4310900  52.2812510  65.5446860  84.1595720  54.8251140  70.4411240
  83.6975090  55.0334160  71.2531180  83.7573830  54.0110490  70.1381910
  89.1600230  56.0460090  71.5707900  88.3093820  55.7465840  71.8916970
  89.0002020  56.2902100  70.6591720  82.9884730  51.5793320  59.7181750
  82.3638910  51.5753190  60.4435060  82.9014850  50.7124280  59.3217720
  81.9101810  52.5029950  66.6965520  82.2074140  53.4092780  66.6157540
  82.4587370  52.0148730  66.0825090  79.6640130  57.0816190  62.5657170
  79.4381050  56.8653360  63.4703790  78.8832660  57.5144650  62.2203140
  86.8937890  57.0879560  61.1647820  86.2946780  57.8115360  60.9811440
  87.4417500  57.0256340  60.3824270  85.5002760  55.7243100  63.1951100
  85.8932330  56.0415300  62.3819790  85.8619610  54.8454980  63.3095620
  77.2349880  54.3915440  71.3851220  76.8413270  55.2390650  71.5924000
  76.5468280  53.7541810  71.5759860  74.5366930  52.3143900  65.4181300
  74.2479980  52.8846760  66.1306280  75.2812690  51.8348350  65.7812530
  74.7237160  56.2564020  56.6284020  74.6411830  57.1994780  56.7699010
  74.3720220  56.1138930  55.7496370  86.0857900  58.3148850  67.2901880
  85.3539020  58.8235660  67.6391980  85.6882240  57.4978830  66.9890660
  82.5235290  54.9903050  65.6954370  82.5271350  54.5493000  64.8458910
  83.4186410  55.3120380  65.8026190  78.3737670  54.8729540  64.6548580
  78.0337720  55.3504770  65.4115630  77.6114990  54.4194660  64.2949680
  82.5855440  55.9915130  58.6861130  82.7068260  55.9501610  59.6346950
  82.2003950  56.8539280  58.5307860  86.5483810  53.7682530  66.7024820
  86.5656550  54.2191180  67.5466670  86.2999390  52.8688170  66.9158260
  81.5976940  58.3016270  58.0844430  81.0293840  57.8534520  57.4580340
  82.3065940  58.6609050  57.5509580  76.6746120  62.2028290  71.9611160
  76.2900910  61.5621960  72.5594120  76.9858310  62.9064410  72.5305890
  82.8243260  59.0504830  67.4419780  83.1913390  58.5763400  68.1881120
  82.6348320  59.9246400  67.7828120  75.6883750  53.7948520  63.5713250
  75.4030670  53.4304190  64.4091870  75.6262610  53.0628980  62.9576390
  80.6142630  58.0913470  69.7603990  80.3099700  58.9705450  69.9854350
  81.5689090  58.1513260  69.7961430  79.1424420  62.2974460  60.3570840
  78.3686680  61.7572080  60.1969560  79.8719050  61.7781070  60.0188600
  89.9012400  61.2939820  66.1497230  90.6211520  61.7895110  65.7593340
  89.6994220  60.6157710  65.5051100  85.3622340  52.6877780  60.2926620
  84.5486950  52.1890950  60.2171930  85.1684290  53.5276030  59.8762970
  85.2831200  61.3648880  72.0366230  85.2168510  60.4444550  71.7823820
  84.6536340  61.4624320  72.7510870  88.0770730  57.0597430  58.5888780
  88.9650350  57.3714660  58.4140120  88.0475820  56.1869680  58.1969360
  79.1861820  61.9654840  63.9949650  79.7040490  61.1623100  63.9406540
  78.7345840  61.9033980  64.8366480  84.0731320  63.2321120  59.2676950
  84.4147020  63.9763350  58.7720270  83.2444030  63.5452240  59.6301780
  76.6706360  58.9316210  70.9075350  76.3121300  59.5970060  71.4948690
  76.3760920  58.0999760  71.2787970  85.2147930  64.1869450  71.7870030
  85.2292470  63.2550410  71.5688940  84.5073030  64.2729210  72.4259800
  86.9558730  62.5536960  64.6322460  87.3082550  61.9565090  63.9723830
  86.0721060  62.2281190  64.8030710  83.0422010  63.3134650  62.0392870
  83.7293140  63.8603860  62.4200460  82.2554430  63.8575380  62.0742480
  75.1814410  58.9307470  57.5309950  76.0509260  59.2132270  57.8145870
  74.6904730  59.7443340  57.4158760  82.3449220  60.3180680  61.6518230
  82.8012000  61.1285930  61.8778420  81.9937430  60.0003820  62.4836720
  84.6481830  65.8287020  68.8810530  85.2924050  66.0346400  69.5583950
  85.0111270  65.0675420  68.4281380  78.2461000  50.6618330  62.1240750
  78.1175630  50.6536230  63.0725670  77.4223020  51.0001420  61.7731760
  85.9213910  63.8319370  67.5987980  86.5636140  63.1312530  67.7120150
  86.4463260  64.6117810  67.4184870  89.7669630  64.1167990  57.3227120
  89.5407210  63.3998430  57.9151760  89.3765830  63.8680430  56.4848870
  87.6951530  64.6314270  70.8024040  88.0307770  65.2180960  71.4801960
  86.7751870  64.5006980  71.0321830  75.5485660  68.1434850  58.0971580
  75.9083300  68.7424190  57.4428850  75.4078000  68.6894740  58.8706610
  75.2454930  52.4209450  71.5847450  74.5313450  52.6206370  72.1900060
  75.6649970  51.6449020  71.9562250  89.3485880  62.0339930  58.9841280
  89.0607580  62.4952620  59.7719160  90.1438050  61.5737700  59.2525500
  75.5327520  66.4089710  72.5713980  75.6418640  65.4684450  72.4309370
  74.8808080  66.6744460  71.9227710  81.5654280  65.5266050  58.9145250
  81.5564380  66.2595740  58.2989760  80.6452640  65.2797630  59.0072210
  77.1660920  60.7480940  59.6592010  76.5588870  61.4879840  59.6687310
  77.6410270  60.8380300  58.8330210  86.7393710  54.9131760  69.3348900
  87.1074530  54.0926970  69.6628470  85.8791910  54.9733650  69.7504550
  90.1055740  53.8688700  60.1436460  89.4768900  53.9734370  59.4294690
  89.6107660  54.0885480  60.9330340  84.5513880  65.5894290  57.5770440
  84.6525860  65.3858280  56.6472420  83.6515620  65.3352570  57.7818220
  82.0739770  56.1474650  61.5594340  81.3655920  56.6160990  62.0007950
  82.3584250  55.4896660  62.1939530  83.6995700  57.5671350  69.5586870
  84.1980950  58.0417170  70.2238720  83.8418650  56.6434870  69.7656900
  86.1055200  52.8725310  62.9990130  85.9822980  52.8911440  62.0499640
  87.0539760  52.9204250  63.1188530  83.1931990  68.1080610  62.2718110
  83.4473490  68.0702000  61.3497480  82.2444470  67.9813940  62.2646360
  80.2774790  54.4559730  58.9345050  81.1265320  54.8929880  58.8685240
  79.9106060  54.7679990  59.7617110  89.1984570  59.0272490  63.8476620
  88.2574710  59.0422720  64.0224310  89.5128640  58.2408450  64.2936920
  79.1766210  60.7092090  57.4080580  79.9429480  60.5973450  57.9706010
  79.2540900  60.0130060  56.7557350  77.8712970  58.1417160  58.0913470
  77.9516560  57.1944670  58.2030870  78.7632720  58.4724040  58.1974130
  78.6727680  68.2912550  65.1948010  79.4090160  67.7428010  65.4656580
  79.0568600  69.1568560  65.0554000  75.5573160  64.3586120  61.0689520
  74.6312940  64.6007260  61.0594930  76.0229590  65.1860380  60.9474270
  81.7829990  67.4642860  57.0173580  82.5758600  67.7531690  56.5655370
  81.2634340  67.0335030  56.3386060  90.8360160  66.6912990  58.4410320
  90.5501670  66.2778130  57.6264500  90.6379710  67.6200700  58.3210840
  82.3007390  62.6846270  56.8815930  82.1958030  62.0698620  57.6077310
  82.1331610  62.1612160  56.0978940  82.4521710  61.3703070  72.8605160
  81.6867380  61.9388070  72.7759830  82.6337670  61.0779280  71.9673390
  85.5410120  61.7466300  57.4857920  84.9920220  62.1935600  58.1300660
  86.1629380  61.2415550  58.0095590  81.2085240  60.7057220  59.3823220
  81.6301660  60.5397090  60.2254610  81.3336080  59.8957450  58.8878360
  79.3712660  56.6853770  72.1894200  78.8409120  56.1944720  71.5617540
  80.0400730  57.1137970  71.6552130  83.7212880  59.7294830  56.6300320
  84.2418540  59.0143850  56.2641470  84.3681280  60.3680700  56.9300830
  88.2690720  61.1523230  71.9535390  88.6831740  61.3068310  72.8025810
  87.3341720  61.2778450  72.1161170  79.8584960  53.6516140  72.2691490
  79.7641830  53.0336890  71.5442360  79.2782350  54.3782430  72.0421400
  82.6246400  52.2089380  69.3018880  82.1763700  52.2313640  68.4564430
  81.9911600  51.8108400  69.8989180  83.0305950  61.1043710  69.9231320
  83.4494060  61.9476440  69.7507560  82.1114580  61.2415750  69.6938100
  85.3669850  58.8359890  71.3069160  85.4866060  58.2401030  72.0464000
  86.2263850  58.8729580  70.8870460  87.7057750  59.3897080  69.8831670
  87.1792970  59.9139700  69.2796810  88.0489090  60.0224470  70.5141400
  80.1044140  56.7790450  56.3281380  79.9033200  55.9157810  56.6894720
  79.9336190  56.6923810  55.3902980  80.8813370  67.4096720  71.0389050
  80.3434460  68.1342780  70.7197750  81.1347330  66.9327060  70.2486390
  87.5832450  51.5898680  58.8568260  87.8634740  50.7466580  59.2127680
  86.8098180  51.8221790  59.3707010  78.9026940  53.8791070  56.3159260
  79.2052840  53.8858500  55.4078410  79.6421530  53.5288930  56.8126920
  83.7375580  68.6447930  71.2975700  83.6634280  69.5483070  71.6048070
  82.8354420  68.3259830  71.2697770  82.1211870  52.8225690  57.3015460
  81.7733870  52.1449680  56.7217910  82.3224640  52.3615200  58.1158850
  84.2860910  67.8106440  58.9202060  85.1811700  68.1491410  58.9420820
  84.3178540  67.0885850  58.2926340  77.9257070  63.1833490  57.1489060
  78.3631940  63.7263160  57.8046640  78.4104800  62.3580440  57.1585400
  75.1402870  65.9722520  64.6009320  75.4705880  65.1043580  64.3687960
  75.5693870  66.1781040  65.4314280  79.7364790  64.3031530  62.2611290
  79.4360330  64.1796500  63.1615200  79.6302280  63.4440120  61.8527020
  75.6293080  66.8393110  67.3390950  75.1924070  67.0193910  68.1715100
  76.1970760  67.5967730  67.1972670  75.4617510  59.3513340  63.6979830
  74.8066350  59.0824980  63.0539530  76.2995460  59.2417820  63.2481810
  89.9506900  63.0662090  69.7244420  89.1366740  63.4959250  69.9870210
  90.3581100  63.6780500  69.1113470  88.4107950  54.1454630  57.9198320
  88.8292830  53.9585610  57.0794980  88.1044010  53.2933680  58.2301250
  76.4993440  59.7365910  68.2383170  76.8666480  59.6493310  69.1179190
  75.9304260  58.9732460  68.1390030  76.0509440  56.6475000  72.1441590
  75.1565490  56.6141760  72.4835300  76.5906990  56.8461790  72.9092840
  74.6755590  56.5612270  59.6405160  73.7719670  56.8242470  59.4656820
  75.1596210  56.8323440  58.8605120  77.2182800  55.6177810  57.5499540
  77.9274500  55.1961030  57.0646820  76.5022740  55.6853040  56.9182890
  76.8656960  51.6717140  56.5902190  77.5885090  52.2126080  56.9083410
  77.1381480  51.3980560  55.7143730  76.5549150  50.9223330  66.4924810
  77.2025340  50.3720710  66.0519970  76.9750990  51.1766480  67.3140620
  90.0082950  67.8180690  63.2512690  90.6042020  67.4965260  62.5747110
  90.2661100  67.3452510  64.0425960  76.3081150  51.0779000  69.2350130
  75.9595970  51.5342820  70.0008310  75.9768850  50.1836130  69.3172560
  81.6151550  65.8058190  69.0013040  81.3742910  66.0732750  68.1143560
  82.5554190  65.9763920  69.0563900  77.7533550  67.1960850  70.5201100
  77.1593870  67.0645550  71.2591140  77.7457390  66.3598990  70.0543200
  87.1988570  50.4893080  68.7231130  86.3248410  50.8228190  68.5204060
  87.0899320  50.0166260  69.5483000  88.1060550  52.6963950  70.1072850
  87.7773910  51.8815710  69.7274580  89.0542850  52.6533760  69.9838540
  90.5595160  68.4675990  67.0810420  90.0998130  69.2191800  66.7068440
  89.9307620  67.7482460  67.0225220  77.3845780  64.5619230  69.4709140
  76.6579840  63.9424520  69.4035090  77.4454930  64.9559840  68.6007220
  80.9890880  66.7764230  66.2558550  81.5055900  66.1651590  65.7306810
  81.6388260  67.2793010  66.7469560  83.7286380  67.6672720  67.0827530
  84.0164190  67.4127020  66.2060540  84.2409600  67.1150080  67.6733100
  84.9463390  51.4062920  67.6624040  84.1635180  51.8808420  67.9420800
  84.6526320  50.5017750  67.5537220  89.4984460  52.1086020  65.7073130
  89.9392550  52.0531120  64.8594730  89.2292050  53.0244030  65.7783310
  75.6675780  67.8793620  62.6805900  75.4997820  67.2464300  63.3787790
  74.8010290  68.0853020  62.3300090  76.2903800  51.7110400  60.1837760
  77.0483160  51.8239280  59.6101790  75.8280970  52.5479600  60.1381190
  82.8317610  53.8249670  63.1740070  82.0192120  53.4506560  62.8335950
  83.3359250  53.0694750  63.4761260  87.3342590  50.4892120  64.4123140
  87.9371960  51.0612330  64.8871660  86.5935580  51.0531560  64.1897040
  90.4777190  50.8913680  59.6863420  90.6727820  51.7897130  59.9530850
  89.6907060  50.6600760  60.1796370  77.2738480  66.5726850  60.1256040
  76.7486100  66.9534880  59.4218000  77.1983060  67.1977620  60.8465750
  78.6628950  52.2374450  58.7239730  79.1921710  51.4504250  58.5947680
  79.2957270  52.9165640  58.9575260  80.8566790  51.9749590  61.7785120
  80.2269530  51.2736900  61.9455250  80.3171930  52.7353720  61.5618280
  79.8731450  68.5209230  59.0005290  80.6050270  68.2368510  58.4529180
  80.1325120  68.2822510  59.8904670  79.0346240  64.6373960  59.0051620
  78.4055120  65.1059060  59.5537450  79.1494070  63.7923180  59.4397810
  86.4895960  58.6879620  45.1552820  86.4090010  57.7734230  44.8844530
  86.0760380  59.1846690  44.4492530  84.6214000  60.4658640  47.0362090
  83.8456100  59.9859080  47.3260660  85.2726930  59.7864290  46.8618250
  78.6379830  60.7778450  47.9137850  77.8064710  60.5227160  48.3134360
  79.2460810  60.8489220  48.6495770  88.6421430  64.8718830  45.8161220
  88.1802960  64.1006070  46.1448390  89.4546980  64.8984900  46.3213670
  78.6181090  64.8118540  48.1095870  78.9209130  63.9216280  47.9306090
  79.3624680  65.3688760  47.8818120  77.0471780  55.7380340  41.6980240
  76.1588480  56.0796310  41.5960120  77.3312970  55.5380660  40.8061070
  75.0104790  58.3385990  47.5819940  75.5820900  57.5708190  47.5823580
  75.0106330  58.6374750  46.6726550  84.8684740  67.1576840  45.4365210
  84.2496180  67.6134340  44.8659650  85.7236520  67.3128300  45.0354910
  84.0622990  63.1415830  47.0432250  83.9931270  62.2005770  46.8821380
  84.8242850  63.2317240  47.6154820  76.2529660  53.7470350  49.3688870
  76.0732500  52.8496100  49.6491630  75.8509740  54.2942220  50.0435820
  85.0928160  55.9486210  47.2701180  85.4692980  55.0758090  47.1574850
  84.9947670  56.2844910  46.3791620  79.2233170  54.3211840  42.7318620
  79.3299920  55.2215570  43.0387380  78.3125530  54.2729810  42.4413270
  88.8752280  53.4436650  44.2029520  89.6961900  52.9533220  44.2455000
  88.9086360  54.0334310  44.9561360  76.8716330  56.2430850  47.9771210
  77.5526440  56.5069220  48.5958610  76.5564380  55.4031720  48.3109220
  81.0640900  57.2898210  47.0643800  81.5719120  57.7879180  47.7048820
  81.5954140  56.5133410  46.8883160  79.3477000  51.9296770  51.3307220
  79.3495440  52.4469160  50.5253120  78.5181310  51.4526950  51.3077150
  85.7348090  62.0416080  42.8297120  85.1165360  62.5065530  42.2659840
  86.2471340  62.7343560  43.2466630  80.5979850  61.5691950  49.5080720
  80.2649230  62.1960870  50.1501790  80.7746530  62.0953830  48.7282390
  89.1113760  55.3837030  46.9757060  88.4069330  55.6721920  47.5560170
  89.4725920  56.1937140  46.6156620  79.0292330  53.6406730  49.3377670
  79.3709140  54.4848780  49.0431540  78.0908140  53.7890470  49.4543010
  79.8098950  63.5372750  51.3229900  80.4272950  64.2123830  51.0414350
  78.9492070  63.9460730  51.2317400  75.1031290  62.7272610  40.2036750
  74.7259270  63.2159710  39.4721650  75.3604360  63.3997890  40.8343280
  82.7120220  51.1289000  45.6622260  83.0195200  50.5735890  44.9457760
  81.7820920  51.2633460  45.4795250  88.2635280  66.8456290  47.9529720
  88.2762440  66.4418580  47.0851980  87.7110500  67.6203580  47.8491150
  89.5580700  63.5672510  43.0419890  89.4477030  62.6246840  43.1669310
  89.5548950  63.9288150  43.9282650  87.6620720  61.7486130  49.2812330
  88.0789510  61.5346240  48.4465790  88.3860540  62.0058920  49.8520950
  85.1000980  59.1937830  42.3982380  84.1730260  59.1275210  42.6270850
  85.2525800  60.1317960  42.2837620  85.0870060  55.4654830  39.3949540
  84.1473730  55.6268790  39.4802000  85.4053320  56.1840510  38.8485530
  89.1298270  60.7558130  42.9017630  88.5110690  60.4177680  42.2543930
  89.1122720  60.1117890  43.6096820  88.5724830  56.9342670  50.3183440
  88.1596010  57.7596380  50.5723430  87.8400780  56.3487710  50.1259800
  80.7057620  59.7202570  45.1802110  80.3014620  59.0079820  44.6848010
  80.7920740  59.3755810  46.0690150  81.1739320  63.4070130  47.3441320
  80.8767610  62.8015600  46.6649100  82.1239140  63.4447440  47.2330680
  79.4186240  56.4945780  48.9601150  79.9700830  56.6041120  48.1854400
  79.9329750  56.8683380  49.6756380  89.2624930  66.9802000  51.0064420
  88.7855490  67.7874190  50.8137030  88.5786720  66.3280330  51.1590630
  80.2657750  63.1451820  53.9949120  79.3686280  63.3691790  54.2422520
  80.2910620  63.2686760  53.0460520  87.3062970  59.9944940  39.9090380
  87.7456250  59.1567370  39.7628200  88.0191390  60.6274340  39.9954520
  79.0928970  60.0165140  52.5706490  78.9536740  60.8887940  52.9393890
  78.2110330  59.6737950  52.4254430  85.4158350  64.9341010  43.8771620
  85.8554260  65.6765340  43.4627010  85.3545240  65.1767580  44.8010580
  80.8909320  65.9586840  54.7791640  80.8624750  66.3629790  53.9120070
  80.7274290  65.0297200  54.6163240  77.4062250  58.6147550  42.6808760
  77.2859850  59.3409640  42.0690030  77.0963140  57.8450460  42.2036670
  75.0447620  61.7862690  48.4877400  75.1228040  61.9211460  47.5433120
  75.6589300  61.0778580  48.6805520  76.2895250  63.4862880  44.8983580
  75.8823330  63.6277470  44.0437180  77.1808260  63.2023040  44.6954790
  86.1074130  67.6354790  51.8050630  86.6218800  67.5462800  52.6073060
  85.2643210  67.9814490  52.0978540  88.0828530  67.9210130  41.2334630
  87.9229670  67.6313070  42.1316460  87.9175240  67.1450260  40.6979860
  80.5616910  67.7008660  43.0106250  80.3859390  66.7844200  42.7974050
  79.7072650  68.0595950  43.2504050  87.7854660  65.4297690  39.7932630
  87.0919820  65.4274980  39.1334910  88.5277520  65.0057010  39.3626800
  87.3504590  67.0560400  43.8681120  87.8061540  66.2749780  44.1819740
  87.6897110  67.7667220  44.4122300  75.1007140  62.8276860  51.0271860
  75.2638180  62.3582220  50.2091230  75.5659590  62.3200420  51.6920700
  79.8725910  51.9582620  46.0632430  79.4294060  52.7392160  45.7316950
  80.4310900  52.2812510  46.7703370  84.1595720  54.8251140  51.6667750
  83.6975090  55.0334160  52.4787690  83.7573830  54.0110490  51.3638420
  89.1600230  56.0460090  52.7964410  88.3093820  55.7465840  53.1173480
  89.0002020  56.2902100  51.8848230  86.2549940  57.5461840  54.8963200
  86.5803350  56.7125590  54.5565430  87.0430270  58.0690360  55.0441530
  82.9884730  51.5793320  40.9438260  82.3638910  51.5753190  41.6691570
  82.9014850  50.7124280  40.5474230  81.9101810  52.5029950  47.9222030
  82.2074140  53.4092780  47.8414050  82.4587370  52.0148730  47.3081600
  79.6640130  57.0816190  43.7913680  79.4381050  56.8653360  44.6960300
  78.8832660  57.5144650  43.4459650  86.8937890  57.0879560  42.3904330
  86.2946780  57.8115360  42.2067950  87.4417500  57.0256340  41.6080780
  82.1039340  57.9801770  54.4573950  82.0082940  57.0396500  54.3074350
  82.9471320  58.2016840  54.0622020  85.5002760  55.7243100  44.4207610
  85.8932330  56.0415300  43.6076300  85.8619610  54.8454980  44.5352130
  77.2349880  54.3915440  52.6107730  76.8413270  55.2390650  52.8180510
  76.5468280  53.7541810  52.8016370  83.8094930  54.4750410  55.6804470
  83.1193250  54.2822610  56.3150560  84.5527230  54.7585050  56.2128770
  74.5366930  52.3143900  46.6437810  74.2479980  52.8846760  47.3562790
  75.2812690  51.8348350  47.0069040  74.7237160  56.2564020  37.8540530
  74.6411830  57.1994780  37.9955520  74.3720220  56.1138930  36.9752880
  86.0857900  58.3148850  48.5158390  85.3539020  58.8235660  48.8648490
  85.6882240  57.4978830  48.2147170  82.5235290  54.9903050  46.9210880
  82.5271350  54.5493000  46.0715420  83.4186410  55.3120380  47.0282700
  78.3737670  54.8729540  45.8805090  78.0337720  55.3504770  46.6372140
  77.6114990  54.4194660  45.5206190  82.5855440  55.9915130  39.9117640
  82.7068260  55.9501610  40.8603460  82.2003950  56.8539280  39.7564370
  86.5483810  53.7682530  47.9281330  86.5656550  54.2191180  48.7723180
  86.2999390  52.8688170  48.1414770  81.5976940  58.3016270  39.3100940
  81.0293840  57.8534520  38.6836850  82.3065940  58.6609050  38.7766090
  89.9754560  51.1814710  53.7667710  90.3000330  50.4504370  54.2925690
  90.0111070  50.8628350  52.8648700  76.6746120  62.2028290  53.1867670
  76.2900910  61.5621960  53.7850630  76.9858310  62.9064410  53.7562400
  82.8243260  59.0504830  48.6676290  83.1913390  58.5763400  49.4137630
  82.6348320  59.9246400  49.0084630  75.6883750  53.7948520  44.7969760
  75.4030670  53.4304190  45.6348380  75.6262610  53.0628980  44.1832900
  80.6142630  58.0913470  50.9860500  80.3099700  58.9705450  51.2110860
  81.5689090  58.1513260  51.0217940  79.1424420  62.2974460  41.5827350
  78.3686680  61.7572080  41.4226070  79.8719050  61.7781070  41.2445110
  89.9012400  61.2939820  47.3753740  90.6211520  61.7895110  46.9849850
  89.6994220  60.6157710  46.7307610  85.3622340  52.6877780  41.5183130
  84.5486950  52.1890950  41.4428440  85.1684290  53.5276030  41.1019480
  85.2831200  61.3648880  53.2622740  85.2168510  60.4444550  53.0080330
  84.6536340  61.4624320  53.9767380  88.0770730  57.0597430  39.8145290
  88.9650350  57.3714660  39.6396630  88.0475820  56.1869680  39.4225870
  79.1861820  61.9654840  45.2206160  79.7040490  61.1623100  45.1663050
  78.7345840  61.9033980  46.0622990  84.0731320  63.2321120  40.4933460
  84.4147020  63.9763350  39.9976780  83.2444030  63.5452240  40.8558290
  76.6706360  58.9316210  52.1331860  76.3121300  59.5970060  52.7205200
  76.3760920  58.0999760  52.5044480  79.8719480  59.3900450  55.0171410
  79.5719620  59.5357630  54.1199230  80.6430720  58.8305740  54.9244800
  85.2147930  64.1869450  53.0126540  85.2292470  63.2550410  52.7945450
  84.5073030  64.2729210  53.6516310  86.9558730  62.5536960  45.8578970
  87.3082550  61.9565090  45.1980340  86.0721060  62.2281190  46.0287220
  83.0422010  63.3134650  43.2649380  83.7293140  63.8603860  43.6456970
  82.2554430  63.8575380  43.2998990  75.1814410  58.9307470  38.7566460
  76.0509260  59.2132270  39.0402380  74.6904730  59.7443340  38.6415270
  82.3449220  60.3180680  42.8774740  82.8012000  61.1285930  43.1034930
  81.9937430  60.0003820  43.7093230  84.6481830  65.8287020  50.1067040
  85.2924050  66.0346400  50.7840460  85.0111270  65.0675420  49.6537890
  78.2461000  50.6618330  43.3497260  78.1175630  50.6536230  44.2982180
  77.4223020  51.0001420  42.9988270  85.9213910  63.8319370  48.8244490
  86.5636140  63.1312530  48.9376660  86.4463260  64.6117810  48.6441380
  89.7669630  64.1167990  38.5483630  89.5407210  63.3998430  39.1408270
  89.3765830  63.8680430  37.7105380  87.6951530  64.6314270  52.0280550
  88.0307770  65.2180960  52.7058470  86.7751870  64.5006980  52.2578340
  75.5485660  68.1434850  39.3228090  75.9083300  68.7424190  38.6685360
  75.4078000  68.6894740  40.0963120  75.2454930  52.4209450  52.8103960
  74.5313450  52.6206370  53.4156570  75.6649970  51.6449020  53.1818760
  89.3485880  62.0339930  40.2097790  89.0607580  62.4952620  40.9975670
  90.1438050  61.5737700  40.4782010  75.5327520  66.4089710  53.7970490
  75.6418640  65.4684450  53.6565880  74.8808080  66.6744460  53.1484220
  83.5240110  64.6805600  55.1968610  83.2036980  63.9614840  55.7414300
  82.8498470  65.3560670  55.2704670  81.5654280  65.5266050  40.1401760
  81.5564380  66.2595740  39.5246270  80.6452640  65.2797630  40.2328720
  77.1660920  60.7480940  40.8848520  76.5588870  61.4879840  40.8943820
  77.6410270  60.8380300  40.0586720  86.7393710  54.9131760  50.5605410
  87.1074530  54.0926970  50.8884980  85.8791910  54.9733650  50.9761060
  90.1055740  53.8688700  41.3692970  89.4768900  53.9734370  40.6551200
  89.6107660  54.0885480  42.1586850  84.5513880  65.5894290  38.8026950
  84.6525860  65.3858280  37.8728930  83.6515620  65.3352570  39.0074730
  82.0739770  56.1474650  42.7850850  81.3655920  56.6160990  43.2264460
  82.3584250  55.4896660  43.4196040  83.6995700  57.5671350  50.7843380
  84.1980950  58.0417170  51.4495230  83.8418650  56.6434870  50.9913410
  86.1055200  52.8725310  44.2246640  85.9822980  52.8911440  43.2756150
  87.0539760  52.9204250  44.3445040  83.1931990  68.1080610  43.4974620
  83.4473490  68.0702000  42.5753990  82.2444470  67.9813940  43.4902870
  80.2774790  54.4559730  40.1601560  81.1265320  54.8929880  40.0941750
  79.9106060  54.7679990  40.9873620  89.1984570  59.0272490  45.0733130
  88.2574710  59.0422720  45.2480820  89.5128640  58.2408450  45.5193430
  79.1766210  60.7092090  38.6337090  79.9429480  60.5973450  39.1962520
  79.2540900  60.0130060  37.9813860  77.8712970  58.1417160  39.3169980
  77.9516560  57.1944670  39.4287380  78.7632720  58.4724040  39.4230640
  78.6727680  68.2912550  46.4204520  79.4090160  67.7428010  46.6913090
  79.0568600  69.1568560  46.2810510  75.5573160  64.3586120  42.2946030
  74.6312940  64.6007260  42.2851440  76.0229590  65.1860380  42.1730780
  77.6785960  67.4758620  55.6090100  78.4798690  67.7970670  56.0225500
  77.1637780  67.1154200  56.3310010  81.7829990  67.4642860  38.2430090
  82.5758600  67.7531690  37.7911880  81.2634340  67.0335030  37.5642570
  86.5150590  63.5838490  55.5565510  85.9088750  63.6070090  54.8161260
  86.2104700  62.8521530  56.0932760  87.9450960  67.3118780  54.1674920
  88.8972710  67.2276800  54.1175160  87.7979180  67.9760490  54.8408710
  90.8360160  66.6912990  39.6666830  90.5501670  66.2778130  38.8521010
  90.6379710  67.6200700  39.5467350  75.3983770  59.9632080  54.5526150
  75.9022790  59.3839360  55.1242380  74.6591190  60.2472310  55.0902520
  82.3007390  62.6846270  38.1072440  82.1958030  62.0698620  38.8333820
  82.1331610  62.1612160  37.3235450  82.4521710  61.3703070  54.0861670
  81.6867380  61.9388070  54.0016340  82.6337670  61.0779280  53.1929900
  85.5410120  61.7466300  38.7114430  84.9920220  62.1935600  39.3557170
  86.1629380  61.2415550  39.2352100  89.5945060  63.1008400  54.6436690
  90.3354530  63.4384160  54.1404150  88.8317740  63.2700460  54.0906460
  77.4306850  58.1061670  55.4476220  77.4712190  57.8075540  56.3561450
  78.2852350  58.5069280  55.2883740  81.2085240  60.7057220  40.6079730
  81.6301660  60.5397090  41.4511120  81.3336080  59.8957450  40.1134870
  79.3712660  56.6853770  53.4150710  78.8409120  56.1944720  52.7874050
  80.0400730  57.1137970  52.8808640  83.7212880  59.7294830  37.8556830
  84.2418540  59.0143850  37.4897980  84.3681280  60.3680700  38.1557340
  88.2690720  61.1523230  53.1791900  88.6831740  61.3068310  54.0282320
  87.3341720  61.2778450  53.3417680  88.7412890  58.4919390  55.1831050
  89.3233660  57.7371710  55.0951530  88.9174660  59.0226830  54.4062530
  79.8584960  53.6516140  53.4948000  79.7641830  53.0336890  52.7698870
  79.2782350  54.3782430  53.2677910  82.6246400  52.2089380  50.5275390
  82.1763700  52.2313640  49.6820940  81.9911600  51.8108400  51.1245690
  83.0305950  61.1043710  51.1487830  83.4494060  61.9476440  50.9764070
  82.1114580  61.2415750  50.9194610  85.3669850  58.8359890  52.5325670
  85.4866060  58.2401030  53.2720510  86.2263850  58.8729580  52.1126970
  87.7057750  59.3897080  51.1088180  87.1792970  59.9139700  50.5053320
  88.0489090  60.0224470  51.7397910  80.1044140  56.7790450  37.5537890
  79.9033200  55.9157810  37.9151230  79.9336190  56.6923810  36.6159490
  80.8813370  67.4096720  52.2645560  80.3434460  68.1342780  51.9454260
  81.1347330  66.9327060  51.4742900  82.1338620  55.3781240  53.7901490
  82.7238310  55.0697090  54.4779310  81.3158860  54.9060990  53.9461390
  86.9532050  54.9947050  54.0234510  86.2647570  54.3328590  53.9584500
  87.6738070  54.5485320  54.4682970  87.5832450  51.5898680  40.0824770
  87.8634740  50.7466580  40.4384190  86.8098180  51.8221790  40.5963520
  78.9026940  53.8791070  37.5415770  79.2052840  53.8858500  36.6334920
  79.6421530  53.5288930  38.0383430  83.7375580  68.6447930  52.5232210
  83.6634280  69.5483070  52.8304580  82.8354420  68.3259830  52.4954280
  82.1211870  52.8225690  38.5271970  81.7733870  52.1449680  37.9474420
  82.3224640  52.3615200  39.3415360  84.2860910  67.8106440  40.1458570
  85.1811700  68.1491410  40.1677330  84.3178540  67.0885850  39.5182850
  77.9257070  63.1833490  38.3745570  78.3631940  63.7263160  39.0303150
  78.4104800  62.3580440  38.3841910  75.1402870  65.9722520  45.8265830
  75.4705880  65.1043580  45.5944470  75.5693870  66.1781040  46.6570790
  79.7364790  64.3031530  43.4867800  79.4360330  64.1796500  44.3871710
  79.6302280  63.4440120  43.0783530  75.6293080  66.8393110  48.5647460
  75.1924070  67.0193910  49.3971610  76.1970760  67.5967730  48.4229180
  75.4617510  59.3513340  44.9236340  74.8066350  59.0824980  44.2796040
  76.2995460  59.2417820  44.4738320  89.9506900  63.0662090  50.9500930
  89.1366740  63.4959250  51.2126720  90.3581100  63.6780500  50.3369980
  88.4107950  54.1454630  39.1454830  88.8292830  53.9585610  38.3051490
  88.1044010  53.2933680  39.4557760  76.4993440  59.7365910  49.4639680
  76.8666480  59.6493310  50.3435700  75.9304260  58.9732460  49.3646540
  76.0509440  56.6475000  53.3698100  75.1565490  56.6141760  53.7091810
  76.5906990  56.8461790  54.1349350  89.7385370  53.4306720  55.2549850
  90.6155550  53.4390120  55.6383850  89.7506210  52.6937560  54.6442200
  74.6755590  56.5612270  40.8661670  73.7719670  56.8242470  40.6913330
  75.1596210  56.8323440  40.0861630  77.2182800  55.6177810  38.7756050
  77.9274500  55.1961030  38.2903330  76.5022740  55.6853040  38.1439400
  76.8656960  51.6717140  37.8158700  77.5885090  52.2126080  38.1339920
  77.1381480  51.3980560  36.9400240  76.5549150  50.9223330  47.7181320
  77.2025340  50.3720710  47.2776480  76.9750990  51.1766480  48.5397130
  90.0082950  67.8180690  44.4769200  90.6042020  67.4965260  43.8003620
  90.2661100  67.3452510  45.2682470  76.3081150  51.0779000  50.4606640
  75.9595970  51.5342820  51.2264820  75.9768850  50.1836130  50.5429070
  77.9145520  64.2498600  54.6259830  77.8715150  63.8791510  55.5074290
  78.0456530  65.1876170  54.7661650  81.6151550  65.8058190  50.2269550
  81.3742910  66.0732750  49.3400070  82.5554190  65.9763920  50.2820410
  83.8205970  52.2690880  53.9826060  83.7594860  52.8612710  54.7321470
  84.7606350  52.1616840  53.8376320  86.4580530  51.9260940  53.6218350
  87.0720940  52.2440230  52.9599430  87.0030090  51.4409530  54.2414210
  76.9801790  50.6055200  53.7357410  77.5284780  50.4243250  52.9723520
  77.0457100  49.8149310  54.2713720  77.7533550  67.1960850  51.7457610
  77.1593870  67.0645550  52.4847650  77.7457390  66.3598990  51.2799710
  87.1988570  50.4893080  49.9487640  86.3248410  50.8228190  49.7460570
  87.0899320  50.0166260  50.7739510  88.1060550  52.6963950  51.3329360
  87.7773910  51.8815710  50.9531090  89.0542850  52.6533760  51.2095050
  90.5595160  68.4675990  48.3066930  90.0998130  69.2191800  47.9324950
  89.9307620  67.7482460  48.2481730  77.3845780  64.5619230  50.6965650
  76.6579840  63.9424520  50.6291600  77.4454930  64.9559840  49.8263730
  80.9890880  66.7764230  47.4815060  81.5055900  66.1651590  46.9563320
  81.6388260  67.2793010  47.9726070  83.7286380  67.6672720  48.3084040
  84.0164190  67.4127020  47.4317050  84.2409600  67.1150080  48.8989610
  84.9463390  51.4062920  48.8880550  84.1635180  51.8808420  49.1677310
  84.6526320  50.5017750  48.7793730  89.4984460  52.1086020  46.9329640
  89.9392550  52.0531120  46.0851240  89.2292050  53.0244030  47.0039820
  75.6675780  67.8793620  43.9062410  75.4997820  67.2464300  44.6044300
  74.8010290  68.0853020  43.5556600  76.2903800  51.7110400  41.4094270
  77.0483160  51.8239280  40.8358300  75.8280970  52.5479600  41.3637700
  82.8317610  53.8249670  44.3996580  82.0192120  53.4506560  44.0592460
  83.3359250  53.0694750  44.7017770  87.3342590  50.4892120  45.6379650
  87.9371960  51.0612330  46.1128170  86.5935580  51.0531560  45.4153550
  90.4777190  50.8913680  40.9119930  90.6727820  51.7897130  41.1787360
  89.6907060  50.6600760  41.4052880  77.2738480  66.5726850  41.3512550
  76.7486100  66.9534880  40.6474510  77.1983060  67.1977620  42.0722260
  78.6628950  52.2374450  39.9496240  79.1921710  51.4504250  39.8204190
  79.2957270  52.9165640  40.1831770  80.8566790  51.9749590  43.0041630
  80.2269530  51.2736900  43.1711760  80.3171930  52.7353720  42.7874790
  83.7958740  68.5888820  55.6752240  84.7226050  68.3533090  55.7188200
  83.7809170  69.4160820  55.1938270  80.9822350  51.2533570  55.4394120
  80.7006620  51.7567170  54.6754940  81.3642050  50.4555320  55.0736250
  79.8731450  68.5209230  40.2261800  80.6050270  68.2368510  39.6785690
  80.1325120  68.2822510  41.1161180  79.0346240  64.6373960  40.2308130
  78.4055120  65.1059060  40.7793960  79.1494070  63.7923180  40.6654320
  87.5837810  50.6687150  56.0174590  87.4703260  50.9881760  56.9126110
  88.4007550  51.0699660  55.7211870  86.4895960  58.6879620  26.3809330
  86.4090010  57.7734230  26.1101040  86.0760380  59.1846690  25.6749040
  84.6214000  60.4658640  28.2618600  83.8456100  59.9859080  28.5517170
  85.2726930  59.7864290  28.0874760  78.6379830  60.7778450  29.1394360
  77.8064710  60.5227160  29.5390870  79.2460810  60.8489220  29.8752280
  88.6421430  64.8718830  27.0417730  88.1802960  64.1006070  27.3704900
  89.4546980  64.8984900  27.5470180  78.6181090  64.8118540  29.3352380
  78.9209130  63.9216280  29.1562600  79.3624680  65.3688760  29.1074630
  77.0471780  55.7380340  22.9236750  76.1588480  56.0796310  22.8216630
  77.3312970  55.5380660  22.0317580  75.0104790  58.3385990  28.8076450
  75.5820900  57.5708190  28.8080090  75.0106330  58.6374750  27.8983060
  84.8684740  67.1576840  26.6621720  84.2496180  67.6134340  26.0916160
  85.7236520  67.3128300  26.2611420  84.0622990  63.1415830  28.2688760
  83.9931270  62.2005770  28.1077890  84.8242850  63.2317240  28.8411330
  76.2529660  53.7470350  30.5945380  76.0732500  52.8496100  30.8748140
  75.8509740  54.2942220  31.2692330  85.0928160  55.9486210  28.4957690
  85.4692980  55.0758090  28.3831360  84.9947670  56.2844910  27.6048130
  79.2233170  54.3211840  23.9575130  79.3299920  55.2215570  24.2643890
  78.3125530  54.2729810  23.6669780  88.8752280  53.4436650  25.4286030
  89.6961900  52.9533220  25.4711510  88.9086360  54.0334310  26.1817870
  76.8716330  56.2430850  29.2027720  77.5526440  56.5069220  29.8215120
  76.5564380  55.4031720  29.5365730  81.0640900  57.2898210  28.2900310
  81.5719120  57.7879180  28.9305330  81.5954140  56.5133410  28.1139670
  79.3477000  51.9296770  32.5563730  79.3495440  52.4469160  31.7509630
  78.5181310  51.4526950  32.5333660  85.7348090  62.0416080  24.0553630
  85.1165360  62.5065530  23.4916350  86.2471340  62.7343560  24.4723140
  80.5979850  61.5691950  30.7337230  80.2649230  62.1960870  31.3758300
  80.7746530  62.0953830  29.9538900  89.1113760  55.3837030  28.2013570
  88.4069330  55.6721920  28.7816680  89.4725920  56.1937140  27.8413130
  79.0292330  53.6406730  30.5634180  79.3709140  54.4848780  30.2688050
  78.0908140  53.7890470  30.6799520  79.8098950  63.5372750  32.5486410
  80.4272950  64.2123830  32.2670860  78.9492070  63.9460730  32.4573910
  75.1031290  62.7272610  21.4293260  74.7259270  63.2159710  20.6978160
  75.3604360  63.3997890  22.0599790  82.7120220  51.1289000  26.8878770
  83.0195200  50.5735890  26.1714270  81.7820920  51.2633460  26.7051760
  88.2635280  66.8456290  29.1786230  88.2762440  66.4418580  28.3108490
  87.7110500  67.6203580  29.0747660  89.5580700  63.5672510  24.2676400
  89.4477030  62.6246840  24.3925820  89.5548950  63.9288150  25.1539160
  87.6620720  61.7486130  30.5068840  88.0789510  61.5346240  29.6722300
  88.3860540  62.0058920  31.0777460  85.1000980  59.1937830  23.6238890
  84.1730260  59.1275210  23.8527360  85.2525800  60.1317960  23.5094130
  85.0870060  55.4654830  20.6206050  84.1473730  55.6268790  20.7058510
  85.4053320  56.1840510  20.0742040  89.1298270  60.7558130  24.1274140
  88.5110690  60.4177680  23.4800440  89.1122720  60.1117890  24.8353330
  88.5724830  56.9342670  31.5439950  88.1596010  57.7596380  31.7979940
  87.8400780  56.3487710  31.3516310  80.7057620  59.7202570  26.4058620
  80.3014620  59.0079820  25.9104520  80.7920740  59.3755810  27.2946660
  81.1739320  63.4070130  28.5697830  80.8767610  62.8015600  27.8905610
  82.1239140  63.4447440  28.4587190  79.4186240  56.4945780  30.1857660
  79.9700830  56.6041120  29.4110910  79.9329750  56.8683380  30.9012890
  89.2624930  66.9802000  32.2320930  88.7855490  67.7874190  32.0393540
  88.5786720  66.3280330  32.3847140  80.2657750  63.1451820  35.2205630
  79.3686280  63.3691790  35.4679030  80.2910620  63.2686760  34.2717030
  87.3062970  59.9944940  21.1346890  87.7456250  59.1567370  20.9884710
  88.0191390  60.6274340  21.2211030  79.0928970  60.0165140  33.7963000
  78.9536740  60.8887940  34.1650400  78.2110330  59.6737950  33.6510940
  85.4158350  64.9341010  25.1028130  85.8554260  65.6765340  24.6883520
  85.3545240  65.1767580  26.0267090  80.8909320  65.9586840  36.0048150
  80.8624750  66.3629790  35.1376580  80.7274290  65.0297200  35.8419750
  77.4062250  58.6147550  23.9065270  77.2859850  59.3409640  23.2946540
  77.0963140  57.8450460  23.4293180  75.0447620  61.7862690  29.7133910
  75.1228040  61.9211460  28.7689630  75.6589300  61.0778580  29.9062030
  76.2895250  63.4862880  26.1240090  75.8823330  63.6277470  25.2693690
  77.1808260  63.2023040  25.9211300  86.1074130  67.6354790  33.0307140
  86.6218800  67.5462800  33.8329570  85.2643210  67.9814490  33.3235050
  88.0828530  67.9210130  22.4591140  87.9229670  67.6313070  23.3572970
  87.9175240  67.1450260  21.9236370  80.5616910  67.7008660  24.2362760
  80.3859390  66.7844200  24.0230560  79.7072650  68.0595950  24.4760560
  87.7854660  65.4297690  21.0189140  87.0919820  65.4274980  20.3591420
  88.5277520  65.0057010  20.5883310  87.3504590  67.0560400  25.0937630
  87.8061540  66.2749780  25.4076250  87.6897110  67.7667220  25.6378810
  75.1007140  62.8276860  32.2528370  75.2638180  62.3582220  31.4347740
  75.5659590  62.3200420  32.9177210  79.8725910  51.9582620  27.2888940
  79.4294060  52.7392160  26.9573460  80.4310900  52.2812510  27.9959880
  84.1595720  54.8251140  32.8924260  83.6975090  55.0334160  33.7044200
  83.7573830  54.0110490  32.5894930  89.1600230  56.0460090  34.0220920
  88.3093820  55.7465840  34.3429990  89.0002020  56.2902100  33.1104740
  86.2549940  57.5461840  36.1219710  86.5803350  56.7125590  35.7821940
  87.0430270  58.0690360  36.2698040  82.9884730  51.5793320  22.1694770
  82.3638910  51.5753190  22.8948080  82.9014850  50.7124280  21.7730740
  81.9101810  52.5029950  29.1478540  82.2074140  53.4092780  29.0670560
  82.4587370  52.0148730  28.5338110  79.6640130  57.0816190  25.0170190
  79.4381050  56.8653360  25.9216810  78.8832660  57.5144650  24.6716160
  86.8937890  57.0879560  23.6160840  86.2946780  57.8115360  23.4324460
  87.4417500  57.0256340  22.8337290  82.1039340  57.9801770  35.6830460
  82.0082940  57.0396500  35.5330860  82.9471320  58.2016840  35.2878530
  85.5002760  55.7243100  25.6464120  85.8932330  56.0415300  24.8332810
  85.8619610  54.8454980  25.7608640  77.2349880  54.3915440  33.8364240
  76.8413270  55.2390650  34.0437020  76.5468280  53.7541810  34.0272880
  83.8094930  54.4750410  36.9060980  83.1193250  54.2822610  37.5407070
  84.5527230  54.7585050  37.4385280  74.5366930  52.3143900  27.8694320
  74.2479980  52.8846760  28.5819300  75.2812690  51.8348350  28.2325550
  74.7237160  56.2564020  19.0797040  74.6411830  57.1994780  19.2212030
  74.3720220  56.1138930  18.2009390  86.0857900  58.3148850  29.7414900
  85.3539020  58.8235660  30.0905000  85.6882240  57.4978830  29.4403680
  82.5235290  54.9903050  28.1467390  82.5271350  54.5493000  27.2971930
  83.4186410  55.3120380  28.2539210  78.3737670  54.8729540  27.1061600
  78.0337720  55.3504770  27.8628650  77.6114990  54.4194660  26.7462700
  82.5855440  55.9915130  21.1374150  82.7068260  55.9501610  22.0859970
  82.2003950  56.8539280  20.9820880  86.5483810  53.7682530  29.1537840
  86.5656550  54.2191180  29.9979690  86.2999390  52.8688170  29.3671280
  81.5976940  58.3016270  20.5357450  81.0293840  57.8534520  19.9093360
  82.3065940  58.6609050  20.0022600  89.9754560  51.1814710  34.9924220
  90.3000330  50.4504370  35.5182200  90.0111070  50.8628350  34.0905210
  76.6746120  62.2028290  34.4124180  76.2900910  61.5621960  35.0107140
  76.9858310  62.9064410  34.9818910  82.8243260  59.0504830  29.8932800
  83.1913390  58.5763400  30.6394140  82.6348320  59.9246400  30.2341140
  75.6883750  53.7948520  26.0226270  75.4030670  53.4304190  26.8604890
  75.6262610  53.0628980  25.4089410  80.6142630  58.0913470  32.2117010
  80.3099700  58.9705450  32.4367370  81.5689090  58.1513260  32.2474450
  79.1424420  62.2974460  22.8083860  78.3686680  61.7572080  22.6482580
  79.8719050  61.7781070  22.4701620  89.9012400  61.2939820  28.6010250
  90.6211520  61.7895110  28.2106360  89.6994220  60.6157710  27.9564120
  85.3622340  52.6877780  22.7439640  84.5486950  52.1890950  22.6684950
  85.1684290  53.5276030  22.3275990  85.2831200  61.3648880  34.4879250
  85.2168510  60.4444550  34.2336840  84.6536340  61.4624320  35.2023890
  88.0770730  57.0597430  21.0401800  88.9650350  57.3714660  20.8653140
  88.0475820  56.1869680  20.6482380  79.1861820  61.9654840  26.4462670
  79.7040490  61.1623100  26.3919560  78.7345840  61.9033980  27.2879500
  84.0731320  63.2321120  21.7189970  84.4147020  63.9763350  21.2233290
  83.2444030  63.5452240  22.0814800  76.6706360  58.9316210  33.3588370
  76.3121300  59.5970060  33.9461710  76.3760920  58.0999760  33.7300990
  79.8719480  59.3900450  36.2427920  79.5719620  59.5357630  35.3455740
  80.6430720  58.8305740  36.1501310  85.2147930  64.1869450  34.2383050
  85.2292470  63.2550410  34.0201960  84.5073030  64.2729210  34.8772820
  86.9558730  62.5536960  27.0835480  87.3082550  61.9565090  26.4236850
  86.0721060  62.2281190  27.2543730  83.0422010  63.3134650  24.4905890
  83.7293140  63.8603860  24.8713480  82.2554430  63.8575380  24.5255500
  75.1814410  58.9307470  19.9822970  76.0509260  59.2132270  20.2658890
  74.6904730  59.7443340  19.8671780  82.3449220  60.3180680  24.1031250
  82.8012000  61.1285930  24.3291440  81.9937430  60.0003820  24.9349740
  84.6481830  65.8287020  31.3323550  85.2924050  66.0346400  32.0096970
  85.0111270  65.0675420  30.8794400  78.2461000  50.6618330  24.5753770
  78.1175630  50.6536230  25.5238690  77.4223020  51.0001420  24.2244780
  85.9213910  63.8319370  30.0501000  86.5636140  63.1312530  30.1633170
  86.4463260  64.6117810  29.8697890  89.7669630  64.1167990  19.7740140
  89.5407210  63.3998430  20.3664780  89.3765830  63.8680430  18.9361890
  87.6951530  64.6314270  33.2537060  88.0307770  65.2180960  33.9314980
  86.7751870  64.5006980  33.4834850  75.5485660  68.1434850  20.5484600
  75.9083300  68.7424190  19.8941870  75.4078000  68.6894740  21.3219630
  75.2454930  52.4209450  34.0360470  74.5313450  52.6206370  34.6413080
  75.6649970  51.6449020  34.4075270  89.3485880  62.0339930  21.4354300
  89.0607580  62.4952620  22.2232180  90.1438050  61.5737700  21.7038520
  75.5327520  66.4089710  35.0227000  75.6418640  65.4684450  34.8822390
  74.8808080  66.6744460  34.3740730  83.5240110  64.6805600  36.4225120
  83.2036980  63.9614840  36.9670810  82.8498470  65.3560670  36.4961180
  81.5654280  65.5266050  21.3658270  81.5564380  66.2595740  20.7502780
  80.6452640  65.2797630  21.4585230  77.1660920  60.7480940  22.1105030
  76.5588870  61.4879840  22.1200330  77.6410270  60.8380300  21.2843230
  86.7393710  54.9131760  31.7861920  87.1074530  54.0926970  32.1141490
  85.8791910  54.9733650  32.2017570  90.1055740  53.8688700  22.5949480
  89.4768900  53.9734370  21.8807710  89.6107660  54.0885480  23.3843360
  84.5513880  65.5894290  20.0283460  84.6525860  65.3858280  19.0985440
  83.6515620  65.3352570  20.2331240  82.0739770  56.1474650  24.0107360
  81.3655920  56.6160990  24.4520970  82.3584250  55.4896660  24.6452550
  83.6995700  57.5671350  32.0099890  84.1980950  58.0417170  32.6751740
  83.8418650  56.6434870  32.2169920  86.1055200  52.8725310  25.4503150
  85.9822980  52.8911440  24.5012660  87.0539760  52.9204250  25.5701550
  83.1931990  68.1080610  24.7231130  83.4473490  68.0702000  23.8010500
  82.2444470  67.9813940  24.7159380  80.2774790  54.4559730  21.3858070
  81.1265320  54.8929880  21.3198260  79.9106060  54.7679990  22.2130130
  89.1984570  59.0272490  26.2989640  88.2574710  59.0422720  26.4737330
  89.5128640  58.2408450  26.7449940  79.1766210  60.7092090  19.8593600
  79.9429480  60.5973450  20.4219030  79.2540900  60.0130060  19.2070370
  77.8712970  58.1417160  20.5426490  77.9516560  57.1944670  20.6543890
  78.7632720  58.4724040  20.6487150  78.6727680  68.2912550  27.6461030
  79.4090160  67.7428010  27.9169600  79.0568600  69.1568560  27.5067020
  75.5573160  64.3586120  23.5202540  74.6312940  64.6007260  23.5107950
  76.0229590  65.1860380  23.3987290  77.6785960  67.4758620  36.8346610
  78.4798690  67.7970670  37.2482010  77.1637780  67.1154200  37.5566520
  81.7829990  67.4642860  19.4686600  82.5758600  67.7531690  19.0168390
  81.2634340  67.0335030  18.7899080  86.5150590  63.5838490  36.7822020
  85.9088750  63.6070090  36.0417770  86.2104700  62.8521530  37.3189270
  87.9450960  67.3118780  35.3931430  88.8972710  67.2276800  35.3431670
  87.7979180  67.9760490  36.0665220  90.8360160  66.6912990  20.8923340
  90.5501670  66.2778130  20.0777520  90.6379710  67.6200700  20.7723860
  75.3983770  59.9632080  35.7782660  75.9022790  59.3839360  36.3498890
  74.6591190  60.2472310  36.3159030  82.3007390  62.6846270  19.3328950
  82.1958030  62.0698620  20.0590330  82.1331610  62.1612160  18.5491960
  82.4521710  61.3703070  35.3118180  81.6867380  61.9388070  35.2272850
  82.6337670  61.0779280  34.4186410  85.5410120  61.7466300  19.9370940
  84.9920220  62.1935600  20.5813680  86.1629380  61.2415550  20.4608610
  89.5945060  63.1008400  35.8693200  90.3354530  63.4384160  35.3660660
  88.8317740  63.2700460  35.3162970  77.4306850  58.1061670  36.6732730
  77.4712190  57.8075540  37.5817960  78.2852350  58.5069280  36.5140250
  81.2085240  60.7057220  21.8336240  81.6301660  60.5397090  22.6767630
  81.3336080  59.8957450  21.3391380  79.3712660  56.6853770  34.6407220
  78.8409120  56.1944720  34.0130560  80.0400730  57.1137970  34.1065150
  83.7212880  59.7294830  19.0813340  84.2418540  59.0143850  18.7154490
  84.3681280  60.3680700  19.3813850  88.2690720  61.1523230  34.4048410
  88.6831740  61.3068310  35.2538830  87.3341720  61.2778450  34.5674190
  88.7412890  58.4919390  36.4087560  89.3233660  57.7371710  36.3208040
  88.9174660  59.0226830  35.6319040  79.8584960  53.6516140  34.7204510
  79.7641830  53.0336890  33.9955380  79.2782350  54.3782430  34.4934420
  82.6246400  52.2089380  31.7531900  82.1763700  52.2313640  30.9077450
  81.9911600  51.8108400  32.3502200  83.0305950  61.1043710  32.3744340
  83.4494060  61.9476440  32.2020580  82.1114580  61.2415750  32.1451120
  85.3669850  58.8359890  33.7582180  85.4866060  58.2401030  34.4977020
  86.2263850  58.8729580  33.3383480  87.7057750  59.3897080  32.3344690
  87.1792970  59.9139700  31.7309830  88.0489090  60.0224470  32.9654420
  80.1044140  56.7790450  18.7794400  79.9033200  55.9157810  19.1407740
  79.9336190  56.6923810  17.8416000  80.8813370  67.4096720  33.4902070
  80.3434460  68.1342780  33.1710770  81.1347330  66.9327060  32.6999410
  82.1338620  55.3781240  35.0158000  82.7238310  55.0697090  35.7035820
  81.3158860  54.9060990  35.1717900  86.9532050  54.9947050  35.2491020
  86.2647570  54.3328590  35.1841010  87.6738070  54.5485320  35.6939480
  87.5832450  51.5898680  21.3081280  87.8634740  50.7466580  21.6640700
  86.8098180  51.8221790  21.8220030  78.9026940  53.8791070  18.7672280
  79.2052840  53.8858500  17.8591430  79.6421530  53.5288930  19.2639940
  83.7375580  68.6447930  33.7488720  83.6634280  69.5483070  34.0561090
  82.8354420  68.3259830  33.7210790  82.1211870  52.8225690  19.7528480
  81.7733870  52.1449680  19.1730930  82.3224640  52.3615200  20.5671870
  84.2860910  67.8106440  21.3715080  85.1811700  68.1491410  21.3933840
  84.3178540  67.0885850  20.7439360  77.9257070  63.1833490  19.6002080
  78.3631940  63.7263160  20.2559660  78.4104800  62.3580440  19.6098420
  75.1402870  65.9722520  27.0522340  75.4705880  65.1043580  26.8200980
  75.5693870  66.1781040  27.8827300  79.7364790  64.3031530  24.7124310
  79.4360330  64.1796500  25.6128220  79.6302280  63.4440120  24.3040040
  75.6293080  66.8393110  29.7903970  75.1924070  67.0193910  30.6228120
  76.1970760  67.5967730  29.6485690  75.4617510  59.3513340  26.1492850
  74.8066350  59.0824980  25.5052550  76.2995460  59.2417820  25.6994830
  89.9506900  63.0662090  32.1757440  89.1366740  63.4959250  32.4383230
  90.3581100  63.6780500  31.5626490  88.4107950  54.1454630  20.3711340
  88.8292830  53.9585610  19.5308000  88.1044010  53.2933680  20.6814270
  76.4993440  59.7365910  30.6896190  76.8666480  59.6493310  31.5692210
  75.9304260  58.9732460  30.5903050  76.0509440  56.6475000  34.5954610
  75.1565490  56.6141760  34.9348320  76.5906990  56.8461790  35.3605860
  89.7385370  53.4306720  36.4806360  90.6155550  53.4390120  36.8640360
  89.7506210  52.6937560  35.8698710  74.6755590  56.5612270  22.0918180
  73.7719670  56.8242470  21.9169840  75.1596210  56.8323440  21.3118140
  77.2182800  55.6177810  20.0012560  77.9274500  55.1961030  19.5159840
  76.5022740  55.6853040  19.3695910  76.8656960  51.6717140  19.0415210
  77.5885090  52.2126080  19.3596430  77.1381480  51.3980560  18.1656750
  76.5549150  50.9223330  28.9437830  77.2025340  50.3720710  28.5032990
  76.9750990  51.1766480  29.7653640  90.0082950  67.8180690  25.7025710
  90.6042020  67.4965260  25.0260130  90.2661100  67.3452510  26.4938980
  76.3081150  51.0779000  31.6863150  75.9595970  51.5342820  32.4521330
  75.9768850  50.1836130  31.7685580  77.9145520  64.2498600  35.8516340
  77.8715150  63.8791510  36.7330800  78.0456530  65.1876170  35.9918160
  81.6151550  65.8058190  31.4526060  81.3742910  66.0732750  30.5656580
  82.5554190  65.9763920  31.5076920  83.8205970  52.2690880  35.2082570
  83.7594860  52.8612710  35.9577980  84.7606350  52.1616840  35.0632830
  86.4580530  51.9260940  34.8474860  87.0720940  52.2440230  34.1855940
  87.0030090  51.4409530  35.4670720  76.9801790  50.6055200  34.9613920
  77.5284780  50.4243250  34.1980030  77.0457100  49.8149310  35.4970230
  77.7533550  67.1960850  32.9714120  77.1593870  67.0645550  33.7104160
  77.7457390  66.3598990  32.5056220  87.1988570  50.4893080  31.1744150
  86.3248410  50.8228190  30.9717080  87.0899320  50.0166260  31.9996020
  88.1060550  52.6963950  32.5585870  87.7773910  51.8815710  32.1787600
  89.0542850  52.6533760  32.4351560  90.5595160  68.4675990  29.5323440
  90.0998130  69.2191800  29.1581460  89.9307620  67.7482460  29.4738240
  77.3845780  64.5619230  31.9222160  76.6579840  63.9424520  31.8548110
  77.4454930  64.9559840  31.0520240  80.9890880  66.7764230  28.7071570
  81.5055900  66.1651590  28.1819830  81.6388260  67.2793010  29.1982580
  83.7286380  67.6672720  29.5340550  84.0164190  67.4127020  28.6573560
  84.2409600  67.1150080  30.1246120  84.9463390  51.4062920  30.1137060
  84.1635180  51.8808420  30.3933820  84.6526320  50.5017750  30.0050240
  89.4984460  52.1086020  28.1586150  89.9392550  52.0531120  27.3107750
  89.2292050  53.0244030  28.2296330  75.6675780  67.8793620  25.1318920
  75.4997820  67.2464300  25.8300810  74.8010290  68.0853020  24.7813110
  76.2903800  51.7110400  22.6350780  77.0483160  51.8239280  22.0614810
  75.8280970  52.5479600  22.5894210  82.8317610  53.8249670  25.6253090
  82.0192120  53.4506560  25.2848970  83.3359250  53.0694750  25.9274280
  87.3342590  50.4892120  26.8636160  87.9371960  51.0612330  27.3384680
  86.5935580  51.0531560  26.6410060  90.4777190  50.8913680  22.1376440
  90.6727820  51.7897130  22.4043870  89.6907060  50.6600760  22.6309390
  77.2738480  66.5726850  22.5769060  76.7486100  66.9534880  21.8731020
  77.1983060  67.1977620  23.2978770  78.6628950  52.2374450  21.1752750
  79.1921710  51.4504250  21.0460700  79.2957270  52.9165640  21.4088280
  80.8566790  51.9749590  24.2298140  80.2269530  51.2736900  24.3968270
  80.3171930  52.7353720  24.0131300  83.7958740  68.5888820  36.9008750
  84.7226050  68.3533090  36.9444710  83.7809170  69.4160820  36.4194780
  80.9822350  51.2533570  36.6650630  80.7006620  51.7567170  35.9011450
  81.3642050  50.4555320  36.2992760  79.8731450  68.5209230  21.4518310
  80.6050270  68.2368510  20.9042200  80.1325120  68.2822510  22.3417690
  79.0346240  64.6373960  21.4564640  78.4055120  65.1059060  22.0050470
  79.1494070  63.7923180  21.8910830  87.5837810  50.6687150  37.2431100
  87.4703260  50.9881760  38.1382620  88.4007550  51.0699660  36.9468380
  86.4895960  58.6879620   7.6065840  86.4090010  57.7734230   7.3357550
  86.0760380  59.1846690   6.9005550  84.6214000  60.4658640   9.4875110
  83.8456100  59.9859080   9.7773680  85.2726930  59.7864290   9.3131270
  78.6379830  60.7778450  10.3650870  77.8064710  60.5227160  10.7647380
  79.2460810  60.8489220  11.1008790  88.6421430  64.8718830   8.2674240
  88.1802960  64.1006070   8.5961410  89.4546980  64.8984900   8.7726690
  78.6181090  64.8118540  10.5608890  78.9209130  63.9216280  10.3819110
  79.3624680  65.3688760  10.3331140  77.0471780  55.7380340   4.1493260
  76.1588480  56.0796310   4.0473140  77.3312970  55.5380660   3.2574090
  75.0104790  58.3385990  10.0332960  75.5820900  57.5708190  10.0336600
  75.0106330  58.6374750   9.1239570  84.8684740  67.1576840   7.8878230
  84.2496180  67.6134340   7.3172670  85.7236520  67.3128300   7.4867930
  84.0622990  63.1415830   9.4945270  83.9931270  62.2005770   9.3334400
  84.8242850  63.2317240  10.0667840  76.2529660  53.7470350  11.8201890
  76.0732500  52.8496100  12.1004650  75.8509740  54.2942220  12.4948840
  85.0928160  55.9486210   9.7214200  85.4692980  55.0758090   9.6087870
  84.9947670  56.2844910   8.8304640  79.2233170  54.3211840   5.1831640
  79.3299920  55.2215570   5.4900400  78.3125530  54.2729810   4.8926290
  88.8752280  53.4436650   6.6542540  89.6961900  52.9533220   6.6968020
  88.9086360  54.0334310   7.4074380  76.8716330  56.2430850  10.4284230
  77.5526440  56.5069220  11.0471630  76.5564380  55.4031720  10.7622240
  81.0640900  57.2898210   9.5156820  81.5719120  57.7879180  10.1561840
  81.5954140  56.5133410   9.3396180  79.3477000  51.9296770  13.7820240
  79.3495440  52.4469160  12.9766140  78.5181310  51.4526950  13.7590170
  85.7348090  62.0416080   5.2810140  85.1165360  62.5065530   4.7172860
  86.2471340  62.7343560   5.6979650  80.5979850  61.5691950  11.9593740
  80.2649230  62.1960870  12.6014810  80.7746530  62.0953830  11.1795410
  89.1113760  55.3837030   9.4270080  88.4069330  55.6721920  10.0073190
  89.4725920  56.1937140   9.0669640  79.0292330  53.6406730  11.7890690
  79.3709140  54.4848780  11.4944560  78.0908140  53.7890470  11.9056030
  79.8098950  63.5372750  13.7742920  80.4272950  64.2123830  13.4927370
  78.9492070  63.9460730  13.6830420  75.1031290  62.7272610   2.6549770
  74.7259270  63.2159710   1.9234670  75.3604360  63.3997890   3.2856300
  82.7120220  51.1289000   8.1135280  83.0195200  50.5735890   7.3970780
  81.7820920  51.2633460   7.9308270  88.2635280  66.8456290  10.4042740
  88.2762440  66.4418580   9.5365000  87.7110500  67.6203580  10.3004170
  89.5580700  63.5672510   5.4932910  89.4477030  62.6246840   5.6182330
  89.5548950  63.9288150   6.3795670  87.6620720  61.7486130  11.7325350
  88.0789510  61.5346240  10.8978810  88.3860540  62.0058920  12.3033970
  85.1000980  59.1937830   4.8495400  84.1730260  59.1275210   5.0783870
  85.2525800  60.1317960   4.7350640  89.1298270  60.7558130   5.3530650
  88.5110690  60.4177680   4.7056950  89.1122720  60.1117890   6.0609840
  88.5724830  56.9342670  12.7696460  88.1596010  57.7596380  13.0236450
  87.8400780  56.3487710  12.5772820  80.7057620  59.7202570   7.6315130
  80.3014620  59.0079820   7.1361030  80.7920740  59.3755810   8.5203170
  81.1739320  63.4070130   9.7954340  80.8767610  62.8015600   9.1162120
  82.1239140  63.4447440   9.6843700  79.4186240  56.4945780  11.4114170
  79.9700830  56.6041120  10.6367420  79.9329750  56.8683380  12.1269400
  89.2624930  66.9802000  13.4577440  88.7855490  67.7874190  13.2650050
  88.5786720  66.3280330  13.6103650  80.2657750  63.1451820  16.4462140
  79.3686280  63.3691790  16.6935540  80.2910620  63.2686760  15.4973540
  87.3062970  59.9944940   2.3603400  87.7456250  59.1567370   2.2141220
  88.0191390  60.6274340   2.4467540  79.0928970  60.0165140  15.0219510
  78.9536740  60.8887940  15.3906910  78.2110330  59.6737950  14.8767450
  85.4158350  64.9341010   6.3284640  85.8554260  65.6765340   5.9140030
  85.3545240  65.1767580   7.2523600  80.8909320  65.9586840  17.2304660
  80.8624750  66.3629790  16.3633090  80.7274290  65.0297200  17.0676260
  77.4062250  58.6147550   5.1321780  77.2859850  59.3409640   4.5203050
  77.0963140  57.8450460   4.6549690  75.0447620  61.7862690  10.9390420
  75.1228040  61.9211460   9.9946140  75.6589300  61.0778580  11.1318540
  76.2895250  63.4862880   7.3496600  75.8823330  63.6277470   6.4950200
  77.1808260  63.2023040   7.1467810  86.1074130  67.6354790  14.2563650
  86.6218800  67.5462800  15.0586080  85.2643210  67.9814490  14.5491560
  88.0828530  67.9210130   3.6847650  87.9229670  67.6313070   4.5829480
  87.9175240  67.1450260   3.1492880  80.5616910  67.7008660   5.4619270
  80.3859390  66.7844200   5.2487070  79.7072650  68.0595950   5.7017070
  87.3504590  67.0560400   6.3194140  87.8061540  66.2749780   6.6332760
  87.6897110  67.7667220   6.8635320  75.1007140  62.8276860  13.4784880
  75.2638180  62.3582220  12.6604250  75.5659590  62.3200420  14.1433720
  79.8725910  51.9582620   8.5145450  79.4294060  52.7392160   8.1829970
  80.4310900  52.2812510   9.2216390  84.1595720  54.8251140  14.1180770
  83.6975090  55.0334160  14.9300710  83.7573830  54.0110490  13.8151440
  89.1600230  56.0460090  15.2477430  88.3093820  55.7465840  15.5686500
  89.0002020  56.2902100  14.3361250  86.2549940  57.5461840  17.3476220
  86.5803350  56.7125590  17.0078450  87.0430270  58.0690360  17.4954550
  82.9884730  51.5793320   3.3951280  82.3638910  51.5753190   4.1204590
  82.9014850  50.7124280   2.9987250  81.9101810  52.5029950  10.3735050
  82.2074140  53.4092780  10.2927070  82.4587370  52.0148730   9.7594620
  79.6640130  57.0816190   6.2426700  79.4381050  56.8653360   7.1473320
  78.8832660  57.5144650   5.8972670  86.8937890  57.0879560   4.8417350
  86.2946780  57.8115360   4.6580970  87.4417500  57.0256340   4.0593800
  82.1039340  57.9801770  16.9086970  82.0082940  57.0396500  16.7587370
  82.9471320  58.2016840  16.5135040  85.5002760  55.7243100   6.8720630
  85.8932330  56.0415300   6.0589320  85.8619610  54.8454980   6.9865150
  77.2349880  54.3915440  15.0620750  76.8413270  55.2390650  15.2693530
  76.5468280  53.7541810  15.2529390  83.8094930  54.4750410  18.1317490
  83.1193250  54.2822610  18.7663580  84.5527230  54.7585050  18.6641790
  74.5366930  52.3143900   9.0950830  74.2479980  52.8846760   9.8075810
  75.2812690  51.8348350   9.4582060  86.0857900  58.3148850  10.9671410
  85.3539020  58.8235660  11.3161510  85.6882240  57.4978830  10.6660190
  82.5235290  54.9903050   9.3723900  82.5271350  54.5493000   8.5228440
  83.4186410  55.3120380   9.4795720  78.3737670  54.8729540   8.3318110
  78.0337720  55.3504770   9.0885160  77.6114990  54.4194660   7.9719210
  82.5855440  55.9915130   2.3630660  82.7068260  55.9501610   3.3116480
  82.2003950  56.8539280   2.2077390  86.5483810  53.7682530  10.3794350
  86.5656550  54.2191180  11.2236200  86.2999390  52.8688170  10.5927790
  89.9754560  51.1814710  16.2180730  90.3000330  50.4504370  16.7438710
  90.0111070  50.8628350  15.3161720  76.6746120  62.2028290  15.6380690
  76.2900910  61.5621960  16.2363650  76.9858310  62.9064410  16.2075420
  82.8243260  59.0504830  11.1189310  83.1913390  58.5763400  11.8650650
  82.6348320  59.9246400  11.4597650  75.6883750  53.7948520   7.2482780
  75.4030670  53.4304190   8.0861400  75.6262610  53.0628980   6.6345920
  80.6142630  58.0913470  13.4373520  80.3099700  58.9705450  13.6623880
  81.5689090  58.1513260  13.4730960  79.1424420  62.2974460   4.0340370
  78.3686680  61.7572080   3.8739090  79.8719050  61.7781070   3.6958130
  89.9012400  61.2939820   9.8266760  90.6211520  61.7895110   9.4362870
  89.6994220  60.6157710   9.1820630  85.3622340  52.6877780   3.9696150
  84.5486950  52.1890950   3.8941460  85.1684290  53.5276030   3.5532500
  85.2831200  61.3648880  15.7135760  85.2168510  60.4444550  15.4593350
  84.6536340  61.4624320  16.4280400  88.0770730  57.0597430   2.2658310
  88.9650350  57.3714660   2.0909650  88.0475820  56.1869680   1.8738890
  79.1861820  61.9654840   7.6719180  79.7040490  61.1623100   7.6176070
  78.7345840  61.9033980   8.5136010  84.0731320  63.2321120   2.9446480
  84.4147020  63.9763350   2.4489800  83.2444030  63.5452240   3.3071310
  76.6706360  58.9316210  14.5844880  76.3121300  59.5970060  15.1718220
  76.3760920  58.0999760  14.9557500  79.8719480  59.3900450  17.4684430
  79.5719620  59.5357630  16.5712250  80.6430720  58.8305740  17.3757820
  85.2147930  64.1869450  15.4639560  85.2292470  63.2550410  15.2458470
  84.5073030  64.2729210  16.1029330  86.9558730  62.5536960   8.3091990
  87.3082550  61.9565090   7.6493360  86.0721060  62.2281190   8.4800240
  83.0422010  63.3134650   5.7162400  83.7293140  63.8603860   6.0969990
  82.2554430  63.8575380   5.7512010  82.3449220  60.3180680   5.3287760
  82.8012000  61.1285930   5.5547950  81.9937430  60.0003820   6.1606250
  84.6481830  65.8287020  12.5580060  85.2924050  66.0346400  13.2353480
  85.0111270  65.0675420  12.1050910  78.2461000  50.6618330   5.8010280
  78.1175630  50.6536230   6.7495200  77.4223020  51.0001420   5.4501290
  85.9213910  63.8319370  11.2757510  86.5636140  63.1312530  11.3889680
  86.4463260  64.6117810  11.0954400  87.6951530  64.6314270  14.4793570
  88.0307770  65.2180960  15.1571490  86.7751870  64.5006980  14.7091360
  75.2454930  52.4209450  15.2616980  74.5313450  52.6206370  15.8669590
  75.6649970  51.6449020  15.6331780  89.3485880  62.0339930   2.6610810
  89.0607580  62.4952620   3.4488690  90.1438050  61.5737700   2.9295030
  75.5327520  66.4089710  16.2483510  75.6418640  65.4684450  16.1078900
  74.8808080  66.6744460  15.5997240  83.5240110  64.6805600  17.6481630
  83.2036980  63.9614840  18.1927320  82.8498470  65.3560670  17.7217690
  81.5654280  65.5266050   2.5914780  81.5564380  66.2595740   1.9759290
  80.6452640  65.2797630   2.6841740  77.1660920  60.7480940   3.3361540
  76.5588870  61.4879840   3.3456840  77.6410270  60.8380300   2.5099740
  86.7393710  54.9131760  13.0118430  87.1074530  54.0926970  13.3398000
  85.8791910  54.9733650  13.4274080  90.1055740  53.8688700   3.8205990
  89.4768900  53.9734370   3.1064220  89.6107660  54.0885480   4.6099870
  82.0739770  56.1474650   5.2363870  81.3655920  56.6160990   5.6777480
  82.3584250  55.4896660   5.8709060  83.6995700  57.5671350  13.2356400
  84.1980950  58.0417170  13.9008250  83.8418650  56.6434870  13.4426430
  86.1055200  52.8725310   6.6759660  85.9822980  52.8911440   5.7269170
  87.0539760  52.9204250   6.7958060  83.1931990  68.1080610   5.9487640
  83.4473490  68.0702000   5.0267010  82.2444470  67.9813940   5.9415890
  80.2774790  54.4559730   2.6114580  81.1265320  54.8929880   2.5454770
  79.9106060  54.7679990   3.4386640  89.1984570  59.0272490   7.5246150
  88.2574710  59.0422720   7.6993840  89.5128640  58.2408450   7.9706450
  77.8712970  58.1417160   1.7683000  77.9516560  57.1944670   1.8800400
  78.7632720  58.4724040   1.8743660  78.6727680  68.2912550   8.8717540
  79.4090160  67.7428010   9.1426110  79.0568600  69.1568560   8.7323530
  75.5573160  64.3586120   4.7459050  74.6312940  64.6007260   4.7364460
  76.0229590  65.1860380   4.6243800  77.6785960  67.4758620  18.0603120
  78.4798690  67.7970670  18.4738520  77.1637780  67.1154200  18.7823030
  86.5150590  63.5838490  18.0078530  85.9088750  63.6070090  17.2674280
  86.2104700  62.8521530  18.5445780  87.9450960  67.3118780  16.6187940
  88.8972710  67.2276800  16.5688180  87.7979180  67.9760490  17.2921730
  75.3983770  59.9632080  17.0039170  75.9022790  59.3839360  17.5755400
  74.6591190  60.2472310  17.5415540  82.4521710  61.3703070  16.5374690
  81.6867380  61.9388070  16.4529360  82.6337670  61.0779280  15.6442920
  89.5945060  63.1008400  17.0949710  90.3354530  63.4384160  16.5917170
  88.8317740  63.2700460  16.5419480  77.4306850  58.1061670  17.8989240
  77.4712190  57.8075540  18.8074470  78.2852350  58.5069280  17.7396760
  81.2085240  60.7057220   3.0592750  81.6301660  60.5397090   3.9024140
  81.3336080  59.8957450   2.5647890  79.3712660  56.6853770  15.8663730
  78.8409120  56.1944720  15.2387070  80.0400730  57.1137970  15.3321660
  88.2690720  61.1523230  15.6304920  88.6831740  61.3068310  16.4795340
  87.3341720  61.2778450  15.7930700  88.7412890  58.4919390  17.6344070
  89.3233660  57.7371710  17.5464550  88.9174660  59.0226830  16.8575550
  79.8584960  53.6516140  15.9461020  79.7641830  53.0336890  15.2211890
  79.2782350  54.3782430  15.7190930  82.6246400  52.2089380  12.9788410
  82.1763700  52.2313640  12.1333960  81.9911600  51.8108400  13.5758710
  83.0305950  61.1043710  13.6000850  83.4494060  61.9476440  13.4277090
  82.1114580  61.2415750  13.3707630  85.3669850  58.8359890  14.9838690
  85.4866060  58.2401030  15.7233530  86.2263850  58.8729580  14.5639990
  87.7057750  59.3897080  13.5601200  87.1792970  59.9139700  12.9566340
  88.0489090  60.0224470  14.1910930  80.8813370  67.4096720  14.7158580
  80.3434460  68.1342780  14.3967280  81.1347330  66.9327060  13.9255920
  82.1338620  55.3781240  16.2414510  82.7238310  55.0697090  16.9292330
  81.3158860  54.9060990  16.3974410  86.9532050  54.9947050  16.4747530
  86.2647570  54.3328590  16.4097520  87.6738070  54.5485320  16.9195990
  87.5832450  51.5898680   2.5337790  87.8634740  50.7466580   2.8897210
  86.8098180  51.8221790   3.0476540  83.7375580  68.6447930  14.9745230
  83.6634280  69.5483070  15.2817600  82.8354420  68.3259830  14.9467300
  84.2860910  67.8106440   2.5971590  85.1811700  68.1491410   2.6190350
  84.3178540  67.0885850   1.9695870  75.1402870  65.9722520   8.2778850
  75.4705880  65.1043580   8.0457490  75.5693870  66.1781040   9.1083810
  79.7364790  64.3031530   5.9380820  79.4360330  64.1796500   6.8384730
  79.6302280  63.4440120   5.5296550  75.6293080  66.8393110  11.0160480
  75.1924070  67.0193910  11.8484630  76.1970760  67.5967730  10.8742200
  75.4617510  59.3513340   7.3749360  74.8066350  59.0824980   6.7309060
  76.2995460  59.2417820   6.9251340  89.9506900  63.0662090  13.4013950
  89.1366740  63.4959250  13.6639740  90.3581100  63.6780500  12.7883000
  76.4993440  59.7365910  11.9152700  76.8666480  59.6493310  12.7948720
  75.9304260  58.9732460  11.8159560  76.0509440  56.6475000  15.8211120
  75.1565490  56.6141760  16.1604830  76.5906990  56.8461790  16.5862370
  89.7385370  53.4306720  17.7062870  90.6155550  53.4390120  18.0896870
  89.7506210  52.6937560  17.0955220  74.6755590  56.5612270   3.3174690
  73.7719670  56.8242470   3.1426350  75.1596210  56.8323440   2.5374650
  76.5549150  50.9223330  10.1694340  77.2025340  50.3720710   9.7289500
  76.9750990  51.1766480  10.9910150  90.0082950  67.8180690   6.9282220
  90.6042020  67.4965260   6.2516640  90.2661100  67.3452510   7.7195490
  76.3081150  51.0779000  12.9119660  75.9595970  51.5342820  13.6777840
  75.9768850  50.1836130  12.9942090  77.9145520  64.2498600  17.0772850
  77.8715150  63.8791510  17.9587310  78.0456530  65.1876170  17.2174670
  81.6151550  65.8058190  12.6782570  81.3742910  66.0732750  11.7913090
  82.5554190  65.9763920  12.7333430  83.8205970  52.2690880  16.4339080
  83.7594860  52.8612710  17.1834490  84.7606350  52.1616840  16.2889340
  86.4580530  51.9260940  16.0731370  87.0720940  52.2440230  15.4112450
  87.0030090  51.4409530  16.6927230  76.9801790  50.6055200  16.1870430
  77.5284780  50.4243250  15.4236540  77.0457100  49.8149310  16.7226740
  77.7533550  67.1960850  14.1970630  77.1593870  67.0645550  14.9360670
  77.7457390  66.3598990  13.7312730  87.1988570  50.4893080  12.4000660
  86.3248410  50.8228190  12.1973590  87.0899320  50.0166260  13.2252530
  88.1060550  52.6963950  13.7842380  87.7773910  51.8815710  13.4044110
  89.0542850  52.6533760  13.6608070  90.5595160  68.4675990  10.7579950
  90.0998130  69.2191800  10.3837970  89.9307620  67.7482460  10.6994750
  77.3845780  64.5619230  13.1478670  76.6579840  63.9424520  13.0804620
  77.4454930  64.9559840  12.2776750  80.9890880  66.7764230   9.9328080
  81.5055900  66.1651590   9.4076340  81.6388260  67.2793010  10.4239090
  83.7286380  67.6672720  10.7597060  84.0164190  67.4127020   9.8830070
  84.2409600  67.1150080  11.3502630  84.9463390  51.4062920  11.3393570
  84.1635180  51.8808420  11.6190330  84.6526320  50.5017750  11.2306750
  89.4984460  52.1086020   9.3842660  89.9392550  52.0531120   8.5364260
  89.2292050  53.0244030   9.4552840  75.6675780  67.8793620   6.3575430
  75.4997820  67.2464300   7.0557320  74.8010290  68.0853020   6.0069620
  76.2903800  51.7110400   3.8607290  77.0483160  51.8239280   3.2871320
  75.8280970  52.5479600   3.8150720  82.8317610  53.8249670   6.8509600
  82.0192120  53.4506560   6.5105480  83.3359250  53.0694750   7.1530790
  87.3342590  50.4892120   8.0892670  87.9371960  51.0612330   8.5641190
  86.5935580  51.0531560   7.8666570  90.4777190  50.8913680   3.3632950
  90.6727820  51.7897130   3.6300380  89.6907060  50.6600760   3.8565900
  77.2738480  66.5726850   3.8025570  76.7486100  66.9534880   3.0987530
  77.1983060  67.1977620   4.5235280  78.6628950  52.2374450   2.4009260
  79.1921710  51.4504250   2.2717210  79.2957270  52.9165640   2.6344790
  80.8566790  51.9749590   5.4554650  80.2269530  51.2736900   5.6224780
  80.3171930  52.7353720   5.2387810  83.7958740  68.5888820  18.1265260
  84.7226050  68.3533090  18.1701220  83.7809170  69.4160820  17.6451290
  80.9822350  51.2533570  17.8907140  80.7006620  51.7567170  17.1267960
  81.3642050  50.4555320  17.5249270  79.8731450  68.5209230   2.6774820
  80.6050270  68.2368510   2.1298710  80.1325120  68.2822510   3.5674200
  79.0346240  64.6373960   2.6821150  78.4055120  65.1059060   3.2306980
  79.1494070  63.7923180   3.1167340  87.5837810  50.6687150  18.4687610
  87.4703260  50.9881760  19.3639130  88.4007550  51.0699660  18.1724890
  86.4895960  39.9136130  63.9296310  86.4090010  38.9990740  63.6588020
  86.0760380  40.4103200  63.2236020  84.6214000  41.6915150  65.8105580
  83.8456100  41.2115590  66.1004150  85.2726930  41.0120800  65.6361740
  78.6379830  42.0034960  66.6881340  77.8064710  41.7483670  67.0877850
  79.2460810  42.0745730  67.4239260  88.6421430  46.0975340  64.5904710
  88.1802960  45.3262580  64.9191880  89.4546980  46.1241410  65.0957160
  78.6181090  46.0375050  66.8839360  78.9209130  45.1472790  66.7049580
  79.3624680  46.5945270  66.6561610  77.0471780  36.9636850  60.4723730
  76.1588480  37.3052820  60.3703610  77.3312970  36.7637170  59.5804560
  75.0104790  39.5642500  66.3563430  75.5820900  38.7964700  66.3567070
  75.0106330  39.8631260  65.4470040  84.8684740  48.3833350  64.2108700
  84.2496180  48.8390850  63.6403140  85.7236520  48.5384810  63.8098400
  84.0622990  44.3672340  65.8175740  83.9931270  43.4262280  65.6564870
  84.8242850  44.4573750  66.3898310  76.2529660  34.9726860  68.1432360
  76.0732500  34.0752610  68.4235120  75.8509740  35.5198730  68.8179310
  85.0928160  37.1742720  66.0444670  85.4692980  36.3014600  65.9318340
  84.9947670  37.5101420  65.1535110  79.2233170  35.5468350  61.5062110
  79.3299920  36.4472080  61.8130870  78.3125530  35.4986320  61.2156760
  88.8752280  34.6693160  62.9773010  89.6961900  34.1789730  63.0198490
  88.9086360  35.2590820  63.7304850  76.8716330  37.4687360  66.7514700
  77.5526440  37.7325730  67.3702100  76.5564380  36.6288230  67.0852710
  81.0640900  38.5154720  65.8387290  81.5719120  39.0135690  66.4792310
  81.5954140  37.7389920  65.6626650  79.3477000  33.1553280  70.1050710
  79.3495440  33.6725670  69.2996610  78.5181310  32.6783460  70.0820640
  85.7348090  43.2672590  61.6040610  85.1165360  43.7322040  61.0403330
  86.2471340  43.9600070  62.0210120  80.5979850  42.7948460  68.2824210
  80.2649230  43.4217380  68.9245280  80.7746530  43.3210340  67.5025880
  89.1113760  36.6093540  65.7500550  88.4069330  36.8978430  66.3303660
  89.4725920  37.4193650  65.3900110  79.0292330  34.8663240  68.1121160
  79.3709140  35.7105290  67.8175030  78.0908140  35.0146980  68.2286500
  79.8098950  44.7629260  70.0973390  80.4272950  45.4380340  69.8157840
  78.9492070  45.1717240  70.0060890  75.1031290  43.9529120  58.9780240
  74.7259270  44.4416220  58.2465140  75.3604360  44.6254400  59.6086770
  82.7120220  32.3545510  64.4365750  83.0195200  31.7992400  63.7201250
  81.7820920  32.4889970  64.2538740  88.2635280  48.0712800  66.7273210
  88.2762440  47.6675090  65.8595470  87.7110500  48.8460090  66.6234640
  89.5580700  44.7929020  61.8163380  89.4477030  43.8503350  61.9412800
  89.5548950  45.1544660  62.7026140  87.6620720  42.9742640  68.0555820
  88.0789510  42.7602750  67.2209280  88.3860540  43.2315430  68.6264440
  85.1000980  40.4194340  61.1725870  84.1730260  40.3531720  61.4014340
  85.2525800  41.3574470  61.0581110  85.0870060  36.6911340  58.1693030
  84.1473730  36.8525300  58.2545490  85.4053320  37.4097020  57.6229020
  89.1298270  41.9814640  61.6761120  88.5110690  41.6434190  61.0287420
  89.1122720  41.3374400  62.3840310  88.5724830  38.1599180  69.0926930
  88.1596010  38.9852890  69.3466920  87.8400780  37.5744220  68.9003290
  80.7057620  40.9459080  63.9545600  80.3014620  40.2336330  63.4591500
  80.7920740  40.6012320  64.8433640  81.1739320  44.6326640  66.1184810
  80.8767610  44.0272110  65.4392590  82.1239140  44.6703950  66.0074170
  79.4186240  37.7202290  67.7344640  79.9700830  37.8297630  66.9597890
  79.9329750  38.0939890  68.4499870  89.2624930  48.2058510  69.7807910
  88.7855490  49.0130700  69.5880520  88.5786720  47.5536840  69.9334120
  87.3062970  41.2201450  58.6833870  87.7456250  40.3823880  58.5371690
  88.0191390  41.8530850  58.7698010  79.0928970  41.2421650  71.3449980
  78.9536740  42.1144450  71.7137380  78.2110330  40.8994460  71.1997920
  85.4158350  46.1597520  62.6515110  85.8554260  46.9021850  62.2370500
  85.3545240  46.4024090  63.5754070  77.4062250  39.8404060  61.4552250
  77.2859850  40.5666150  60.8433520  77.0963140  39.0706970  60.9780160
  75.0447620  43.0119200  67.2620890  75.1228040  43.1467970  66.3176610
  75.6589300  42.3035090  67.4549010  76.2895250  44.7119390  63.6727070
  75.8823330  44.8533980  62.8180670  77.1808260  44.4279550  63.4698280
  86.1074130  48.8611300  70.5794120  86.6218800  48.7719310  71.3816550
  85.2643210  49.2071000  70.8722030  88.0828530  49.1466640  60.0078120
  87.9229670  48.8569580  60.9059950  87.9175240  48.3706770  59.4723350
  80.5616910  48.9265170  61.7849740  80.3859390  48.0100710  61.5717540
  79.7072650  49.2852460  62.0247540  87.7854660  46.6554200  58.5676120
  87.0919820  46.6531490  57.9078400  88.5277520  46.2313520  58.1370290
  87.3504590  48.2816910  62.6424610  87.8061540  47.5006290  62.9563230
  87.6897110  48.9923730  63.1865790  75.1007140  44.0533370  69.8015350
  75.2638180  43.5838730  68.9834720  75.5659590  43.5456930  70.4664190
  79.8725910  33.1839130  64.8375920  79.4294060  33.9648670  64.5060440
  80.4310900  33.5069020  65.5446860  84.1595720  36.0507650  70.4411240
  83.6975090  36.2590670  71.2531180  83.7573830  35.2367000  70.1381910
  89.1600230  37.2716600  71.5707900  88.3093820  36.9722350  71.8916970
  89.0002020  37.5158610  70.6591720  82.9884730  32.8049830  59.7181750
  82.3638910  32.8009700  60.4435060  82.9014850  31.9380790  59.3217720
  81.9101810  33.7286460  66.6965520  82.2074140  34.6349290  66.6157540
  82.4587370  33.2405240  66.0825090  79.6640130  38.3072700  62.5657170
  79.4381050  38.0909870  63.4703790  78.8832660  38.7401160  62.2203140
  86.8937890  38.3136070  61.1647820  86.2946780  39.0371870  60.9811440
  87.4417500  38.2512850  60.3824270  85.5002760  36.9499610  63.1951100
  85.8932330  37.2671810  62.3819790  85.8619610  36.0711490  63.3095620
  77.2349880  35.6171950  71.3851220  76.8413270  36.4647160  71.5924000
  76.5468280  34.9798320  71.5759860  74.5366930  33.5400410  65.4181300
  74.2479980  34.1103270  66.1306280  75.2812690  33.0604860  65.7812530
  74.7237160  37.4820530  56.6284020  74.6411830  38.4251290  56.7699010
  74.3720220  37.3395440  55.7496370  86.0857900  39.5405360  67.2901880
  85.3539020  40.0492170  67.6391980  85.6882240  38.7235340  66.9890660
  82.5235290  36.2159560  65.6954370  82.5271350  35.7749510  64.8458910
  83.4186410  36.5376890  65.8026190  78.3737670  36.0986050  64.6548580
  78.0337720  36.5761280  65.4115630  77.6114990  35.6451170  64.2949680
  82.5855440  37.2171640  58.6861130  82.7068260  37.1758120  59.6346950
  82.2003950  38.0795790  58.5307860  86.5483810  34.9939040  66.7024820
  86.5656550  35.4447690  67.5466670  86.2999390  34.0944680  66.9158260
  81.5976940  39.5272780  58.0844430  81.0293840  39.0791030  57.4580340
  82.3065940  39.8865560  57.5509580  76.6746120  43.4284800  71.9611160
  76.2900910  42.7878470  72.5594120  76.9858310  44.1320920  72.5305890
  82.8243260  40.2761340  67.4419780  83.1913390  39.8019910  68.1881120
  82.6348320  41.1502910  67.7828120  75.6883750  35.0205030  63.5713250
  75.4030670  34.6560700  64.4091870  75.6262610  34.2885490  62.9576390
  80.6142630  39.3169980  69.7603990  80.3099700  40.1961960  69.9854350
  81.5689090  39.3769770  69.7961430  79.1424420  43.5230970  60.3570840
  78.3686680  42.9828590  60.1969560  79.8719050  43.0037580  60.0188600
  89.9012400  42.5196330  66.1497230  90.6211520  43.0151620  65.7593340
  89.6994220  41.8414220  65.5051100  85.3622340  33.9134290  60.2926620
  84.5486950  33.4147460  60.2171930  85.1684290  34.7532540  59.8762970
  85.2831200  42.5905390  72.0366230  85.2168510  41.6701060  71.7823820
  84.6536340  42.6880830  72.7510870  88.0770730  38.2853940  58.5888780
  88.9650350  38.5971170  58.4140120  88.0475820  37.4126190  58.1969360
  79.1861820  43.1911350  63.9949650  79.7040490  42.3879610  63.9406540
  78.7345840  43.1290490  64.8366480  84.0731320  44.4577630  59.2676950
  84.4147020  45.2019860  58.7720270  83.2444030  44.7708750  59.6301780
  76.6706360  40.1572720  70.9075350  76.3121300  40.8226570  71.4948690
  76.3760920  39.3256270  71.2787970  85.2147930  45.4125960  71.7870030
  85.2292470  44.4806920  71.5688940  84.5073030  45.4985720  72.4259800
  86.9558730  43.7793470  64.6322460  87.3082550  43.1821600  63.9723830
  86.0721060  43.4537700  64.8030710  83.0422010  44.5391160  62.0392870
  83.7293140  45.0860370  62.4200460  82.2554430  45.0831890  62.0742480
  75.1814410  40.1563980  57.5309950  76.0509260  40.4388780  57.8145870
  74.6904730  40.9699850  57.4158760  82.3449220  41.5437190  61.6518230
  82.8012000  42.3542440  61.8778420  81.9937430  41.2260330  62.4836720
  84.6481830  47.0543530  68.8810530  85.2924050  47.2602910  69.5583950
  85.0111270  46.2931930  68.4281380  78.2461000  31.8874840  62.1240750
  78.1175630  31.8792740  63.0725670  77.4223020  32.2257930  61.7731760
  85.9213910  45.0575880  67.5987980  86.5636140  44.3569040  67.7120150
  86.4463260  45.8374320  67.4184870  89.7669630  45.3424500  57.3227120
  89.5407210  44.6254940  57.9151760  89.3765830  45.0936940  56.4848870
  87.6951530  45.8570780  70.8024040  88.0307770  46.4437470  71.4801960
  86.7751870  45.7263490  71.0321830  75.5485660  49.3691360  58.0971580
  75.9083300  49.9680700  57.4428850  75.4078000  49.9151250  58.8706610
  75.2454930  33.6465960  71.5847450  74.5313450  33.8462880  72.1900060
  75.6649970  32.8705530  71.9562250  89.3485880  43.2596440  58.9841280
  89.0607580  43.7209130  59.7719160  90.1438050  42.7994210  59.2525500
  75.5327520  47.6346220  72.5713980  75.6418640  46.6940960  72.4309370
  74.8808080  47.9000970  71.9227710  81.5654280  46.7522560  58.9145250
  81.5564380  47.4852250  58.2989760  80.6452640  46.5054140  59.0072210
  77.1660920  41.9737450  59.6592010  76.5588870  42.7136350  59.6687310
  77.6410270  42.0636810  58.8330210  86.7393710  36.1388270  69.3348900
  87.1074530  35.3183480  69.6628470  85.8791910  36.1990160  69.7504550
  90.1055740  35.0945210  60.1436460  89.4768900  35.1990880  59.4294690
  89.6107660  35.3141990  60.9330340  84.5513880  46.8150800  57.5770440
  84.6525860  46.6114790  56.6472420  83.6515620  46.5609080  57.7818220
  82.0739770  37.3731160  61.5594340  81.3655920  37.8417500  62.0007950
  82.3584250  36.7153170  62.1939530  83.6995700  38.7927860  69.5586870
  84.1980950  39.2673680  70.2238720  83.8418650  37.8691380  69.7656900
  86.1055200  34.0981820  62.9990130  85.9822980  34.1167950  62.0499640
  87.0539760  34.1460760  63.1188530  83.1931990  49.3337120  62.2718110
  83.4473490  49.2958510  61.3497480  82.2444470  49.2070450  62.2646360
  80.2774790  35.6816240  58.9345050  81.1265320  36.1186390  58.8685240
  79.9106060  35.9936500  59.7617110  89.1984570  40.2529000  63.8476620
  88.2574710  40.2679230  64.0224310  89.5128640  39.4664960  64.2936920
  79.1766210  41.9348600  57.4080580  79.9429480  41.8229960  57.9706010
  79.2540900  41.2386570  56.7557350  77.8712970  39.3673670  58.0913470
  77.9516560  38.4201180  58.2030870  78.7632720  39.6980550  58.1974130
  78.6727680  49.5169060  65.1948010  79.4090160  48.9684520  65.4656580
  79.0568600  50.3825070  65.0554000  75.5573160  45.5842630  61.0689520
  74.6312940  45.8263770  61.0594930  76.0229590  46.4116890  60.9474270
  81.7829990  48.6899370  57.0173580  82.5758600  48.9788200  56.5655370
  81.2634340  48.2591540  56.3386060  90.8360160  47.9169500  58.4410320
  90.5501670  47.5034640  57.6264500  90.6379710  48.8457210  58.3210840
  82.3007390  43.9102780  56.8815930  82.1958030  43.2955130  57.6077310
  82.1331610  43.3868670  56.0978940  82.4521710  42.5959580  72.8605160
  81.6867380  43.1644580  72.7759830  82.6337670  42.3035790  71.9673390
  85.5410120  42.9722810  57.4857920  84.9920220  43.4192110  58.1300660
  86.1629380  42.4672060  58.0095590  81.2085240  41.9313730  59.3823220
  81.6301660  41.7653600  60.2254610  81.3336080  41.1213960  58.8878360
  79.3712660  37.9110280  72.1894200  78.8409120  37.4201230  71.5617540
  80.0400730  38.3394480  71.6552130  83.7212880  40.9551340  56.6300320
  84.2418540  40.2400360  56.2641470  84.3681280  41.5937210  56.9300830
  88.2690720  42.3779740  71.9535390  88.6831740  42.5324820  72.8025810
  87.3341720  42.5034960  72.1161170  79.8584960  34.8772650  72.2691490
  79.7641830  34.2593400  71.5442360  79.2782350  35.6038940  72.0421400
  82.6246400  33.4345890  69.3018880  82.1763700  33.4570150  68.4564430
  81.9911600  33.0364910  69.8989180  83.0305950  42.3300220  69.9231320
  83.4494060  43.1732950  69.7507560  82.1114580  42.4672260  69.6938100
  85.3669850  40.0616400  71.3069160  85.4866060  39.4657540  72.0464000
  86.2263850  40.0986090  70.8870460  87.7057750  40.6153590  69.8831670
  87.1792970  41.1396210  69.2796810  88.0489090  41.2480980  70.5141400
  80.1044140  38.0046960  56.3281380  79.9033200  37.1414320  56.6894720
  79.9336190  37.9180320  55.3902980  80.8813370  48.6353230  71.0389050
  80.3434460  49.3599290  70.7197750  81.1347330  48.1583570  70.2486390
  87.5832450  32.8155190  58.8568260  87.8634740  31.9723090  59.2127680
  86.8098180  33.0478300  59.3707010  78.9026940  35.1047580  56.3159260
  79.2052840  35.1115010  55.4078410  79.6421530  34.7545440  56.8126920
  83.7375580  49.8704440  71.2975700  83.6634280  50.7739580  71.6048070
  82.8354420  49.5516340  71.2697770  82.1211870  34.0482200  57.3015460
  81.7733870  33.3706190  56.7217910  82.3224640  33.5871710  58.1158850
  84.2860910  49.0362950  58.9202060  85.1811700  49.3747920  58.9420820
  84.3178540  48.3142360  58.2926340  77.9257070  44.4090000  57.1489060
  78.3631940  44.9519670  57.8046640  78.4104800  43.5836950  57.1585400
  75.1402870  47.1979030  64.6009320  75.4705880  46.3300090  64.3687960
  75.5693870  47.4037550  65.4314280  79.7364790  45.5288040  62.2611290
  79.4360330  45.4053010  63.1615200  79.6302280  44.6696630  61.8527020
  75.6293080  48.0649620  67.3390950  75.1924070  48.2450420  68.1715100
  76.1970760  48.8224240  67.1972670  75.4617510  40.5769850  63.6979830
  74.8066350  40.3081490  63.0539530  76.2995460  40.4674330  63.2481810
  89.9506900  44.2918600  69.7244420  89.1366740  44.7215760  69.9870210
  90.3581100  44.9037010  69.1113470  88.4107950  35.3711140  57.9198320
  88.8292830  35.1842120  57.0794980  88.1044010  34.5190190  58.2301250
  76.4993440  40.9622420  68.2383170  76.8666480  40.8749820  69.1179190
  75.9304260  40.1988970  68.1390030  76.0509440  37.8731510  72.1441590
  75.1565490  37.8398270  72.4835300  76.5906990  38.0718300  72.9092840
  74.6755590  37.7868780  59.6405160  73.7719670  38.0498980  59.4656820
  75.1596210  38.0579950  58.8605120  77.2182800  36.8434320  57.5499540
  77.9274500  36.4217540  57.0646820  76.5022740  36.9109550  56.9182890
  76.8656960  32.8973650  56.5902190  77.5885090  33.4382590  56.9083410
  77.1381480  32.6237070  55.7143730  76.5549150  32.1479840  66.4924810
  77.2025340  31.5977220  66.0519970  76.9750990  32.4022990  67.3140620
  90.0082950  49.0437200  63.2512690  90.6042020  48.7221770  62.5747110
  90.2661100  48.5709020  64.0425960  76.3081150  32.3035510  69.2350130
  75.9595970  32.7599330  70.0008310  75.9768850  31.4092640  69.3172560
  81.6151550  47.0314700  69.0013040  81.3742910  47.2989260  68.1143560
  82.5554190  47.2020430  69.0563900  77.7533550  48.4217360  70.5201100
  77.1593870  48.2902060  71.2591140  77.7457390  47.5855500  70.0543200
  87.1988570  31.7149590  68.7231130  86.3248410  32.0484700  68.5204060
  87.0899320  31.2422770  69.5483000  88.1060550  33.9220460  70.1072850
  87.7773910  33.1072220  69.7274580  89.0542850  33.8790270  69.9838540
  90.5595160  49.6932500  67.0810420  90.0998130  50.4448310  66.7068440
  89.9307620  48.9738970  67.0225220  77.3845780  45.7875740  69.4709140
  76.6579840  45.1681030  69.4035090  77.4454930  46.1816350  68.6007220
  80.9890880  48.0020740  66.2558550  81.5055900  47.3908100  65.7306810
  81.6388260  48.5049520  66.7469560  83.7286380  48.8929230  67.0827530
  84.0164190  48.6383530  66.2060540  84.2409600  48.3406590  67.6733100
  84.9463390  32.6319430  67.6624040  84.1635180  33.1064930  67.9420800
  84.6526320  31.7274260  67.5537220  89.4984460  33.3342530  65.7073130
  89.9392550  33.2787630  64.8594730  89.2292050  34.2500540  65.7783310
  75.6675780  49.1050130  62.6805900  75.4997820  48.4720810  63.3787790
  74.8010290  49.3109530  62.3300090  76.2903800  32.9366910  60.1837760
  77.0483160  33.0495790  59.6101790  75.8280970  33.7736110  60.1381190
  82.8317610  35.0506180  63.1740070  82.0192120  34.6763070  62.8335950
  83.3359250  34.2951260  63.4761260  87.3342590  31.7148630  64.4123140
  87.9371960  32.2868840  64.8871660  86.5935580  32.2788070  64.1897040
  90.4777190  32.1170190  59.6863420  90.6727820  33.0153640  59.9530850
  89.6907060  31.8857270  60.1796370  77.2738480  47.7983360  60.1256040
  76.7486100  48.1791390  59.4218000  77.1983060  48.4234130  60.8465750
  78.6628950  33.4630960  58.7239730  79.1921710  32.6760760  58.5947680
  79.2957270  34.1422150  58.9575260  80.8566790  33.2006100  61.7785120
  80.2269530  32.4993410  61.9455250  80.3171930  33.9610230  61.5618280
  79.8731450  49.7465740  59.0005290  80.6050270  49.4625020  58.4529180
  80.1325120  49.5079020  59.8904670  79.0346240  45.8630470  59.0051620
  78.4055120  46.3315570  59.5537450  79.1494070  45.0179690  59.4397810
  86.4895960  39.9136130  45.1552820  86.4090010  38.9990740  44.8844530
  86.0760380  40.4103200  44.4492530  84.6214000  41.6915150  47.0362090
  83.8456100  41.2115590  47.3260660  85.2726930  41.0120800  46.8618250
  78.6379830  42.0034960  47.9137850  77.8064710  41.7483670  48.3134360
  79.2460810  42.0745730  48.6495770  88.6421430  46.0975340  45.8161220
  88.1802960  45.3262580  46.1448390  89.4546980  46.1241410  46.3213670
  78.6181090  46.0375050  48.1095870  78.9209130  45.1472790  47.9306090
  79.3624680  46.5945270  47.8818120  77.0471780  36.9636850  41.6980240
  76.1588480  37.3052820  41.5960120  77.3312970  36.7637170  40.8061070
  75.0104790  39.5642500  47.5819940  75.5820900  38.7964700  47.5823580
  75.0106330  39.8631260  46.6726550  84.8684740  48.3833350  45.4365210
  84.2496180  48.8390850  44.8659650  85.7236520  48.5384810  45.0354910
  84.0622990  44.3672340  47.0432250  83.9931270  43.4262280  46.8821380
  84.8242850  44.4573750  47.6154820  76.2529660  34.9726860  49.3688870
  76.0732500  34.0752610  49.6491630  75.8509740  35.5198730  50.0435820
  85.0928160  37.1742720  47.2701180  85.4692980  36.3014600  47.1574850
  84.9947670  37.5101420  46.3791620  79.2233170  35.5468350  42.7318620
  79.3299920  36.4472080  43.0387380  78.3125530  35.4986320  42.4413270
  88.8752280  34.6693160  44.2029520  89.6961900  34.1789730  44.2455000
  88.9086360  35.2590820  44.9561360  76.8716330  37.4687360  47.9771210
  77.5526440  37.7325730  48.5958610  76.5564380  36.6288230  48.3109220
  81.0640900  38.5154720  47.0643800  81.5719120  39.0135690  47.7048820
  81.5954140  37.7389920  46.8883160  79.3477000  33.1553280  51.3307220
  79.3495440  33.6725670  50.5253120  78.5181310  32.6783460  51.3077150
  85.7348090  43.2672590  42.8297120  85.1165360  43.7322040  42.2659840
  86.2471340  43.9600070  43.2466630  80.5979850  42.7948460  49.5080720
  80.2649230  43.4217380  50.1501790  80.7746530  43.3210340  48.7282390
  89.1113760  36.6093540  46.9757060  88.4069330  36.8978430  47.5560170
  89.4725920  37.4193650  46.6156620  79.0292330  34.8663240  49.3377670
  79.3709140  35.7105290  49.0431540  78.0908140  35.0146980  49.4543010
  79.8098950  44.7629260  51.3229900  80.4272950  45.4380340  51.0414350
  78.9492070  45.1717240  51.2317400  75.1031290  43.9529120  40.2036750
  74.7259270  44.4416220  39.4721650  75.3604360  44.6254400  40.8343280
  82.7120220  32.3545510  45.6622260  83.0195200  31.7992400  44.9457760
  81.7820920  32.4889970  45.4795250  88.2635280  48.0712800  47.9529720
  88.2762440  47.6675090  47.0851980  87.7110500  48.8460090  47.8491150
  89.5580700  44.7929020  43.0419890  89.4477030  43.8503350  43.1669310
  89.5548950  45.1544660  43.9282650  87.6620720  42.9742640  49.2812330
  88.0789510  42.7602750  48.4465790  88.3860540  43.2315430  49.8520950
  85.1000980  40.4194340  42.3982380  84.1730260  40.3531720  42.6270850
  85.2525800  41.3574470  42.2837620  85.0870060  36.6911340  39.3949540
  84.1473730  36.8525300  39.4802000  85.4053320  37.4097020  38.8485530
  89.1298270  41.9814640  42.9017630  88.5110690  41.6434190  42.2543930
  89.1122720  41.3374400  43.6096820  88.5724830  38.1599180  50.3183440
  88.1596010  38.9852890  50.5723430  87.8400780  37.5744220  50.1259800
  80.7057620  40.9459080  45.1802110  80.3014620  40.2336330  44.6848010
  80.7920740  40.6012320  46.0690150  81.1739320  44.6326640  47.3441320
  80.8767610  44.0272110  46.6649100  82.1239140  44.6703950  47.2330680
  79.4186240  37.7202290  48.9601150  79.9700830  37.8297630  48.1854400
  79.9329750  38.0939890  49.6756380  89.2624930  48.2058510  51.0064420
  88.7855490  49.0130700  50.8137030  88.5786720  47.5536840  51.1590630
  80.2657750  44.3708330  53.9949120  79.3686280  44.5948300  54.2422520
  80.2910620  44.4943270  53.0460520  87.3062970  41.2201450  39.9090380
  87.7456250  40.3823880  39.7628200  88.0191390  41.8530850  39.9954520
  79.0928970  41.2421650  52.5706490  78.9536740  42.1144450  52.9393890
  78.2110330  40.8994460  52.4254430  85.4158350  46.1597520  43.8771620
  85.8554260  46.9021850  43.4627010  85.3545240  46.4024090  44.8010580
  80.8909320  47.1843350  54.7791640  80.8624750  47.5886300  53.9120070
  80.7274290  46.2553710  54.6163240  77.4062250  39.8404060  42.6808760
  77.2859850  40.5666150  42.0690030  77.0963140  39.0706970  42.2036670
  75.0447620  43.0119200  48.4877400  75.1228040  43.1467970  47.5433120
  75.6589300  42.3035090  48.6805520  76.2895250  44.7119390  44.8983580
  75.8823330  44.8533980  44.0437180  77.1808260  44.4279550  44.6954790
  86.1074130  48.8611300  51.8050630  86.6218800  48.7719310  52.6073060
  85.2643210  49.2071000  52.0978540  88.0828530  49.1466640  41.2334630
  87.9229670  48.8569580  42.1316460  87.9175240  48.3706770  40.6979860
  80.5616910  48.9265170  43.0106250  80.3859390  48.0100710  42.7974050
  79.7072650  49.2852460  43.2504050  87.7854660  46.6554200  39.7932630
  87.0919820  46.6531490  39.1334910  88.5277520  46.2313520  39.3626800
  87.3504590  48.2816910  43.8681120  87.8061540  47.5006290  44.1819740
  87.6897110  48.9923730  44.4122300  75.1007140  44.0533370  51.0271860
  75.2638180  43.5838730  50.2091230  75.5659590  43.5456930  51.6920700
  79.8725910  33.1839130  46.0632430  79.4294060  33.9648670  45.7316950
  80.4310900  33.5069020  46.7703370  84.1595720  36.0507650  51.6667750
  83.6975090  36.2590670  52.4787690  83.7573830  35.2367000  51.3638420
  89.1600230  37.2716600  52.7964410  88.3093820  36.9722350  53.1173480
  89.0002020  37.5158610  51.8848230  86.2549940  38.7718350  54.8963200
  86.5803350  37.9382100  54.5565430  87.0430270  39.2946870  55.0441530
  82.9884730  32.8049830  40.9438260  82.3638910  32.8009700  41.6691570
  82.9014850  31.9380790  40.5474230  81.9101810  33.7286460  47.9222030
  82.2074140  34.6349290  47.8414050  82.4587370  33.2405240  47.3081600
  79.6640130  38.3072700  43.7913680  79.4381050  38.0909870  44.6960300
  78.8832660  38.7401160  43.4459650  86.8937890  38.3136070  42.3904330
  86.2946780  39.0371870  42.2067950  87.4417500  38.2512850  41.6080780
  82.1039340  39.2058280  54.4573950  82.0082940  38.2653010  54.3074350
  82.9471320  39.4273350  54.0622020  85.5002760  36.9499610  44.4207610
  85.8932330  37.2671810  43.6076300  85.8619610  36.0711490  44.5352130
  77.2349880  35.6171950  52.6107730  76.8413270  36.4647160  52.8180510
  76.5468280  34.9798320  52.8016370  83.8094930  35.7006920  55.6804470
  83.1193250  35.5079120  56.3150560  84.5527230  35.9841560  56.2128770
  74.5366930  33.5400410  46.6437810  74.2479980  34.1103270  47.3562790
  75.2812690  33.0604860  47.0069040  74.7237160  37.4820530  37.8540530
  74.6411830  38.4251290  37.9955520  74.3720220  37.3395440  36.9752880
  86.0857900  39.5405360  48.5158390  85.3539020  40.0492170  48.8648490
  85.6882240  38.7235340  48.2147170  82.5235290  36.2159560  46.9210880
  82.5271350  35.7749510  46.0715420  83.4186410  36.5376890  47.0282700
  78.3737670  36.0986050  45.8805090  78.0337720  36.5761280  46.6372140
  77.6114990  35.6451170  45.5206190  82.5855440  37.2171640  39.9117640
  82.7068260  37.1758120  40.8603460  82.2003950  38.0795790  39.7564370
  86.5483810  34.9939040  47.9281330  86.5656550  35.4447690  48.7723180
  86.2999390  34.0944680  48.1414770  81.5976940  39.5272780  39.3100940
  81.0293840  39.0791030  38.6836850  82.3065940  39.8865560  38.7766090
  89.9754560  32.4071220  53.7667710  90.3000330  31.6760880  54.2925690
  90.0111070  32.0884860  52.8648700  76.6746120  43.4284800  53.1867670
  76.2900910  42.7878470  53.7850630  76.9858310  44.1320920  53.7562400
  82.8243260  40.2761340  48.6676290  83.1913390  39.8019910  49.4137630
  82.6348320  41.1502910  49.0084630  75.6883750  35.0205030  44.7969760
  75.4030670  34.6560700  45.6348380  75.6262610  34.2885490  44.1832900
  80.6142630  39.3169980  50.9860500  80.3099700  40.1961960  51.2110860
  81.5689090  39.3769770  51.0217940  79.1424420  43.5230970  41.5827350
  78.3686680  42.9828590  41.4226070  79.8719050  43.0037580  41.2445110
  89.9012400  42.5196330  47.3753740  90.6211520  43.0151620  46.9849850
  89.6994220  41.8414220  46.7307610  85.3622340  33.9134290  41.5183130
  84.5486950  33.4147460  41.4428440  85.1684290  34.7532540  41.1019480
  85.2831200  42.5905390  53.2622740  85.2168510  41.6701060  53.0080330
  84.6536340  42.6880830  53.9767380  88.0770730  38.2853940  39.8145290
  88.9650350  38.5971170  39.6396630  88.0475820  37.4126190  39.4225870
  79.1861820  43.1911350  45.2206160  79.7040490  42.3879610  45.1663050
  78.7345840  43.1290490  46.0622990  84.0731320  44.4577630  40.4933460
  84.4147020  45.2019860  39.9976780  83.2444030  44.7708750  40.8558290
  76.6706360  40.1572720  52.1331860  76.3121300  40.8226570  52.7205200
  76.3760920  39.3256270  52.5044480  79.8719480  40.6156960  55.0171410
  79.5719620  40.7614140  54.1199230  80.6430720  40.0562250  54.9244800
  85.2147930  45.4125960  53.0126540  85.2292470  44.4806920  52.7945450
  84.5073030  45.4985720  53.6516310  86.9558730  43.7793470  45.8578970
  87.3082550  43.1821600  45.1980340  86.0721060  43.4537700  46.0287220
  83.0422010  44.5391160  43.2649380  83.7293140  45.0860370  43.6456970
  82.2554430  45.0831890  43.2998990  75.1814410  40.1563980  38.7566460
  76.0509260  40.4388780  39.0402380  74.6904730  40.9699850  38.6415270
  82.3449220  41.5437190  42.8774740  82.8012000  42.3542440  43.1034930
  81.9937430  41.2260330  43.7093230  84.6481830  47.0543530  50.1067040
  85.2924050  47.2602910  50.7840460  85.0111270  46.2931930  49.6537890
  78.2461000  31.8874840  43.3497260  78.1175630  31.8792740  44.2982180
  77.4223020  32.2257930  42.9988270  85.9213910  45.0575880  48.8244490
  86.5636140  44.3569040  48.9376660  86.4463260  45.8374320  48.6441380
  89.7669630  45.3424500  38.5483630  89.5407210  44.6254940  39.1408270
  89.3765830  45.0936940  37.7105380  87.6951530  45.8570780  52.0280550
  88.0307770  46.4437470  52.7058470  86.7751870  45.7263490  52.2578340
  75.5485660  49.3691360  39.3228090  75.9083300  49.9680700  38.6685360
  75.4078000  49.9151250  40.0963120  75.2454930  33.6465960  52.8103960
  74.5313450  33.8462880  53.4156570  75.6649970  32.8705530  53.1818760
  89.3485880  43.2596440  40.2097790  89.0607580  43.7209130  40.9975670
  90.1438050  42.7994210  40.4782010  75.5327520  47.6346220  53.7970490
  75.6418640  46.6940960  53.6565880  74.8808080  47.9000970  53.1484220
  83.5240110  45.9062110  55.1968610  83.2036980  45.1871350  55.7414300
  82.8498470  46.5817180  55.2704670  81.5654280  46.7522560  40.1401760
  81.5564380  47.4852250  39.5246270  80.6452640  46.5054140  40.2328720
  77.1660920  41.9737450  40.8848520  76.5588870  42.7136350  40.8943820
  77.6410270  42.0636810  40.0586720  86.7393710  36.1388270  50.5605410
  87.1074530  35.3183480  50.8884980  85.8791910  36.1990160  50.9761060
  90.1055740  35.0945210  41.3692970  89.4768900  35.1990880  40.6551200
  89.6107660  35.3141990  42.1586850  84.5513880  46.8150800  38.8026950
  84.6525860  46.6114790  37.8728930  83.6515620  46.5609080  39.0074730
  82.0739770  37.3731160  42.7850850  81.3655920  37.8417500  43.2264460
  82.3584250  36.7153170  43.4196040  83.6995700  38.7927860  50.7843380
  84.1980950  39.2673680  51.4495230  83.8418650  37.8691380  50.9913410
  86.1055200  34.0981820  44.2246640  85.9822980  34.1167950  43.2756150
  87.0539760  34.1460760  44.3445040  83.1931990  49.3337120  43.4974620
  83.4473490  49.2958510  42.5753990  82.2444470  49.2070450  43.4902870
  80.2774790  35.6816240  40.1601560  81.1265320  36.1186390  40.0941750
  79.9106060  35.9936500  40.9873620  89.1984570  40.2529000  45.0733130
  88.2574710  40.2679230  45.2480820  89.5128640  39.4664960  45.5193430
  79.1766210  41.9348600  38.6337090  79.9429480  41.8229960  39.1962520
  79.2540900  41.2386570  37.9813860  77.8712970  39.3673670  39.3169980
  77.9516560  38.4201180  39.4287380  78.7632720  39.6980550  39.4230640
  78.6727680  49.5169060  46.4204520  79.4090160  48.9684520  46.6913090
  79.0568600  50.3825070  46.2810510  75.5573160  45.5842630  42.2946030
  74.6312940  45.8263770  42.2851440  76.0229590  46.4116890  42.1730780
  77.6785960  48.7015130  55.6090100  78.4798690  49.0227180  56.0225500
  77.1637780  48.3410710  56.3310010  81.7829990  48.6899370  38.2430090
  82.5758600  48.9788200  37.7911880  81.2634340  48.2591540  37.5642570
  86.5150590  44.8095000  55.5565510  85.9088750  44.8326600  54.8161260
  86.2104700  44.0778040  56.0932760  87.9450960  48.5375290  54.1674920
  88.8972710  48.4533310  54.1175160  87.7979180  49.2017000  54.8408710
  90.8360160  47.9169500  39.6666830  90.5501670  47.5034640  38.8521010
  90.6379710  48.8457210  39.5467350  75.3983770  41.1888590  54.5526150
  75.9022790  40.6095870  55.1242380  74.6591190  41.4728820  55.0902520
  82.3007390  43.9102780  38.1072440  82.1958030  43.2955130  38.8333820
  82.1331610  43.3868670  37.3235450  82.4521710  42.5959580  54.0861670
  81.6867380  43.1644580  54.0016340  82.6337670  42.3035790  53.1929900
  85.5410120  42.9722810  38.7114430  84.9920220  43.4192110  39.3557170
  86.1629380  42.4672060  39.2352100  89.5945060  44.3264910  54.6436690
  90.3354530  44.6640670  54.1404150  88.8317740  44.4956970  54.0906460
  77.4306850  39.3318180  55.4476220  77.4712190  39.0332050  56.3561450
  78.2852350  39.7325790  55.2883740  81.2085240  41.9313730  40.6079730
  81.6301660  41.7653600  41.4511120  81.3336080  41.1213960  40.1134870
  79.3712660  37.9110280  53.4150710  78.8409120  37.4201230  52.7874050
  80.0400730  38.3394480  52.8808640  83.7212880  40.9551340  37.8556830
  84.2418540  40.2400360  37.4897980  84.3681280  41.5937210  38.1557340
  88.2690720  42.3779740  53.1791900  88.6831740  42.5324820  54.0282320
  87.3341720  42.5034960  53.3417680  88.7412890  39.7175900  55.1831050
  89.3233660  38.9628220  55.0951530  88.9174660  40.2483340  54.4062530
  79.8584960  34.8772650  53.4948000  79.7641830  34.2593400  52.7698870
  79.2782350  35.6038940  53.2677910  82.6246400  33.4345890  50.5275390
  82.1763700  33.4570150  49.6820940  81.9911600  33.0364910  51.1245690
  83.0305950  42.3300220  51.1487830  83.4494060  43.1732950  50.9764070
  82.1114580  42.4672260  50.9194610  85.3669850  40.0616400  52.5325670
  85.4866060  39.4657540  53.2720510  86.2263850  40.0986090  52.1126970
  87.7057750  40.6153590  51.1088180  87.1792970  41.1396210  50.5053320
  88.0489090  41.2480980  51.7397910  80.1044140  38.0046960  37.5537890
  79.9033200  37.1414320  37.9151230  79.9336190  37.9180320  36.6159490
  80.8813370  48.6353230  52.2645560  80.3434460  49.3599290  51.9454260
  81.1347330  48.1583570  51.4742900  82.1338620  36.6037750  53.7901490
  82.7238310  36.2953600  54.4779310  81.3158860  36.1317500  53.9461390
  86.9532050  36.2203560  54.0234510  86.2647570  35.5585100  53.9584500
  87.6738070  35.7741830  54.4682970  87.5832450  32.8155190  40.0824770
  87.8634740  31.9723090  40.4384190  86.8098180  33.0478300  40.5963520
  78.9026940  35.1047580  37.5415770  79.2052840  35.1115010  36.6334920
  79.6421530  34.7545440  38.0383430  83.7375580  49.8704440  52.5232210
  83.6634280  50.7739580  52.8304580  82.8354420  49.5516340  52.4954280
  82.1211870  34.0482200  38.5271970  81.7733870  33.3706190  37.9474420
  82.3224640  33.5871710  39.3415360  84.2860910  49.0362950  40.1458570
  85.1811700  49.3747920  40.1677330  84.3178540  48.3142360  39.5182850
  77.9257070  44.4090000  38.3745570  78.3631940  44.9519670  39.0303150
  78.4104800  43.5836950  38.3841910  75.1402870  47.1979030  45.8265830
  75.4705880  46.3300090  45.5944470  75.5693870  47.4037550  46.6570790
  79.7364790  45.5288040  43.4867800  79.4360330  45.4053010  44.3871710
  79.6302280  44.6696630  43.0783530  75.6293080  48.0649620  48.5647460
  75.1924070  48.2450420  49.3971610  76.1970760  48.8224240  48.4229180
  75.4617510  40.5769850  44.9236340  74.8066350  40.3081490  44.2796040
  76.2995460  40.4674330  44.4738320  89.9506900  44.2918600  50.9500930
  89.1366740  44.7215760  51.2126720  90.3581100  44.9037010  50.3369980
  88.4107950  35.3711140  39.1454830  88.8292830  35.1842120  38.3051490
  88.1044010  34.5190190  39.4557760  76.4993440  40.9622420  49.4639680
  76.8666480  40.8749820  50.3435700  75.9304260  40.1988970  49.3646540
  76.0509440  37.8731510  53.3698100  75.1565490  37.8398270  53.7091810
  76.5906990  38.0718300  54.1349350  89.7385370  34.6563230  55.2549850
  90.6155550  34.6646630  55.6383850  89.7506210  33.9194070  54.6442200
  74.6755590  37.7868780  40.8661670  73.7719670  38.0498980  40.6913330
  75.1596210  38.0579950  40.0861630  77.2182800  36.8434320  38.7756050
  77.9274500  36.4217540  38.2903330  76.5022740  36.9109550  38.1439400
  76.8656960  32.8973650  37.8158700  77.5885090  33.4382590  38.1339920
  77.1381480  32.6237070  36.9400240  76.5549150  32.1479840  47.7181320
  77.2025340  31.5977220  47.2776480  76.9750990  32.4022990  48.5397130
  90.0082950  49.0437200  44.4769200  90.6042020  48.7221770  43.8003620
  90.2661100  48.5709020  45.2682470  76.3081150  32.3035510  50.4606640
  75.9595970  32.7599330  51.2264820  75.9768850  31.4092640  50.5429070
  77.9145520  45.4755110  54.6259830  77.8715150  45.1048020  55.5074290
  78.0456530  46.4132680  54.7661650  81.6151550  47.0314700  50.2269550
  81.3742910  47.2989260  49.3400070  82.5554190  47.2020430  50.2820410
  83.8205970  33.4947390  53.9826060  83.7594860  34.0869220  54.7321470
  84.7606350  33.3873350  53.8376320  86.4580530  33.1517450  53.6218350
  87.0720940  33.4696740  52.9599430  87.0030090  32.6666040  54.2414210
  76.9801790  31.8311710  53.7357410  77.5284780  31.6499760  52.9723520
  77.0457100  31.0405820  54.2713720  77.7533550  48.4217360  51.7457610
  77.1593870  48.2902060  52.4847650  77.7457390  47.5855500  51.2799710
  87.1988570  31.7149590  49.9487640  86.3248410  32.0484700  49.7460570
  87.0899320  31.2422770  50.7739510  88.1060550  33.9220460  51.3329360
  87.7773910  33.1072220  50.9531090  89.0542850  33.8790270  51.2095050
  90.5595160  49.6932500  48.3066930  90.0998130  50.4448310  47.9324950
  89.9307620  48.9738970  48.2481730  77.3845780  45.7875740  50.6965650
  76.6579840  45.1681030  50.6291600  77.4454930  46.1816350  49.8263730
  80.9890880  48.0020740  47.4815060  81.5055900  47.3908100  46.9563320
  81.6388260  48.5049520  47.9726070  83.7286380  48.8929230  48.3084040
  84.0164190  48.6383530  47.4317050  84.2409600  48.3406590  48.8989610
  84.9463390  32.6319430  48.8880550  84.1635180  33.1064930  49.1677310
  84.6526320  31.7274260  48.7793730  89.4984460  33.3342530  46.9329640
  89.9392550  33.2787630  46.0851240  89.2292050  34.2500540  47.0039820
  75.6675780  49.1050130  43.9062410  75.4997820  48.4720810  44.6044300
  74.8010290  49.3109530  43.5556600  76.2903800  32.9366910  41.4094270
  77.0483160  33.0495790  40.8358300  75.8280970  33.7736110  41.3637700
  82.8317610  35.0506180  44.3996580  82.0192120  34.6763070  44.0592460
  83.3359250  34.2951260  44.7017770  87.3342590  31.7148630  45.6379650
  87.9371960  32.2868840  46.1128170  86.5935580  32.2788070  45.4153550
  90.4777190  32.1170190  40.9119930  90.6727820  33.0153640  41.1787360
  89.6907060  31.8857270  41.4052880  77.2738480  47.7983360  41.3512550
  76.7486100  48.1791390  40.6474510  77.1983060  48.4234130  42.0722260
  78.6628950  33.4630960  39.9496240  79.1921710  32.6760760  39.8204190
  79.2957270  34.1422150  40.1831770  80.8566790  33.2006100  43.0041630
  80.2269530  32.4993410  43.1711760  80.3171930  33.9610230  42.7874790
  83.7958740  49.8145330  55.6752240  84.7226050  49.5789600  55.7188200
  83.7809170  50.6417330  55.1938270  80.9822350  32.4790080  55.4394120
  80.7006620  32.9823680  54.6754940  81.3642050  31.6811830  55.0736250
  79.8731450  49.7465740  40.2261800  80.6050270  49.4625020  39.6785690
  80.1325120  49.5079020  41.1161180  79.0346240  45.8630470  40.2308130
  78.4055120  46.3315570  40.7793960  79.1494070  45.0179690  40.6654320
  87.5837810  31.8943660  56.0174590  87.4703260  32.2138270  56.9126110
  88.4007550  32.2956170  55.7211870  86.4895960  39.9136130  26.3809330
  86.4090010  38.9990740  26.1101040  86.0760380  40.4103200  25.6749040
  84.6214000  41.6915150  28.2618600  83.8456100  41.2115590  28.5517170
  85.2726930  41.0120800  28.0874760  78.6379830  42.0034960  29.1394360
  77.8064710  41.7483670  29.5390870  79.2460810  42.0745730  29.8752280
  88.6421430  46.0975340  27.0417730  88.1802960  45.3262580  27.3704900
  89.4546980  46.1241410  27.5470180  78.6181090  46.0375050  29.3352380
  78.9209130  45.1472790  29.1562600  79.3624680  46.5945270  29.1074630
  77.0471780  36.9636850  22.9236750  76.1588480  37.3052820  22.8216630
  77.3312970  36.7637170  22.0317580  75.0104790  39.5642500  28.8076450
  75.5820900  38.7964700  28.8080090  75.0106330  39.8631260  27.8983060
  84.8684740  48.3833350  26.6621720  84.2496180  48.8390850  26.0916160
  85.7236520  48.5384810  26.2611420  84.0622990  44.3672340  28.2688760
  83.9931270  43.4262280  28.1077890  84.8242850  44.4573750  28.8411330
  76.2529660  34.9726860  30.5945380  76.0732500  34.0752610  30.8748140
  75.8509740  35.5198730  31.2692330  85.0928160  37.1742720  28.4957690
  85.4692980  36.3014600  28.3831360  84.9947670  37.5101420  27.6048130
  79.2233170  35.5468350  23.9575130  79.3299920  36.4472080  24.2643890
  78.3125530  35.4986320  23.6669780  88.8752280  34.6693160  25.4286030
  89.6961900  34.1789730  25.4711510  88.9086360  35.2590820  26.1817870
  76.8716330  37.4687360  29.2027720  77.5526440  37.7325730  29.8215120
  76.5564380  36.6288230  29.5365730  81.0640900  38.5154720  28.2900310
  81.5719120  39.0135690  28.9305330  81.5954140  37.7389920  28.1139670
  79.3477000  33.1553280  32.5563730  79.3495440  33.6725670  31.7509630
  78.5181310  32.6783460  32.5333660  85.7348090  43.2672590  24.0553630
  85.1165360  43.7322040  23.4916350  86.2471340  43.9600070  24.4723140
  80.5979850  42.7948460  30.7337230  80.2649230  43.4217380  31.3758300
  80.7746530  43.3210340  29.9538900  89.1113760  36.6093540  28.2013570
  88.4069330  36.8978430  28.7816680  89.4725920  37.4193650  27.8413130
  79.0292330  34.8663240  30.5634180  79.3709140  35.7105290  30.2688050
  78.0908140  35.0146980  30.6799520  79.8098950  44.7629260  32.5486410
  80.4272950  45.4380340  32.2670860  78.9492070  45.1717240  32.4573910
  75.1031290  43.9529120  21.4293260  74.7259270  44.4416220  20.6978160
  75.3604360  44.6254400  22.0599790  82.7120220  32.3545510  26.8878770
  83.0195200  31.7992400  26.1714270  81.7820920  32.4889970  26.7051760
  88.2635280  48.0712800  29.1786230  88.2762440  47.6675090  28.3108490
  87.7110500  48.8460090  29.0747660  89.5580700  44.7929020  24.2676400
  89.4477030  43.8503350  24.3925820  89.5548950  45.1544660  25.1539160
  87.6620720  42.9742640  30.5068840  88.0789510  42.7602750  29.6722300
  88.3860540  43.2315430  31.0777460  85.1000980  40.4194340  23.6238890
  84.1730260  40.3531720  23.8527360  85.2525800  41.3574470  23.5094130
  85.0870060  36.6911340  20.6206050  84.1473730  36.8525300  20.7058510
  85.4053320  37.4097020  20.0742040  89.1298270  41.9814640  24.1274140
  88.5110690  41.6434190  23.4800440  89.1122720  41.3374400  24.8353330
  88.5724830  38.1599180  31.5439950  88.1596010  38.9852890  31.7979940
  87.8400780  37.5744220  31.3516310  80.7057620  40.9459080  26.4058620
  80.3014620  40.2336330  25.9104520  80.7920740  40.6012320  27.2946660
  81.1739320  44.6326640  28.5697830  80.8767610  44.0272110  27.8905610
  82.1239140  44.6703950  28.4587190  79.4186240  37.7202290  30.1857660
  79.9700830  37.8297630  29.4110910  79.9329750  38.0939890  30.9012890
  89.2624930  48.2058510  32.2320930  88.7855490  49.0130700  32.0393540
  88.5786720  47.5536840  32.3847140  80.2657750  44.3708330  35.2205630
  79.3686280  44.5948300  35.4679030  80.2910620  44.4943270  34.2717030
  87.3062970  41.2201450  21.1346890  87.7456250  40.3823880  20.9884710
  88.0191390  41.8530850  21.2211030  79.0928970  41.2421650  33.7963000
  78.9536740  42.1144450  34.1650400  78.2110330  40.8994460  33.6510940
  85.4158350  46.1597520  25.1028130  85.8554260  46.9021850  24.6883520
  85.3545240  46.4024090  26.0267090  80.8909320  47.1843350  36.0048150
  80.8624750  47.5886300  35.1376580  80.7274290  46.2553710  35.8419750
  77.4062250  39.8404060  23.9065270  77.2859850  40.5666150  23.2946540
  77.0963140  39.0706970  23.4293180  75.0447620  43.0119200  29.7133910
  75.1228040  43.1467970  28.7689630  75.6589300  42.3035090  29.9062030
  76.2895250  44.7119390  26.1240090  75.8823330  44.8533980  25.2693690
  77.1808260  44.4279550  25.9211300  86.1074130  48.8611300  33.0307140
  86.6218800  48.7719310  33.8329570  85.2643210  49.2071000  33.3235050
  88.0828530  49.1466640  22.4591140  87.9229670  48.8569580  23.3572970
  87.9175240  48.3706770  21.9236370  80.5616910  48.9265170  24.2362760
  80.3859390  48.0100710  24.0230560  79.7072650  49.2852460  24.4760560
  87.7854660  46.6554200  21.0189140  87.0919820  46.6531490  20.3591420
  88.5277520  46.2313520  20.5883310  87.3504590  48.2816910  25.0937630
  87.8061540  47.5006290  25.4076250  87.6897110  48.9923730  25.6378810
  75.1007140  44.0533370  32.2528370  75.2638180  43.5838730  31.4347740
  75.5659590  43.5456930  32.9177210  79.8725910  33.1839130  27.2888940
  79.4294060  33.9648670  26.9573460  80.4310900  33.5069020  27.9959880
  84.1595720  36.0507650  32.8924260  83.6975090  36.2590670  33.7044200
  83.7573830  35.2367000  32.5894930  89.1600230  37.2716600  34.0220920
  88.3093820  36.9722350  34.3429990  89.0002020  37.5158610  33.1104740
  86.2549940  38.7718350  36.1219710  86.5803350  37.9382100  35.7821940
  87.0430270  39.2946870  36.2698040  82.9884730  32.8049830  22.1694770
  82.3638910  32.8009700  22.8948080  82.9014850  31.9380790  21.7730740
  81.9101810  33.7286460  29.1478540  82.2074140  34.6349290  29.0670560
  82.4587370  33.2405240  28.5338110  79.6640130  38.3072700  25.0170190
  79.4381050  38.0909870  25.9216810  78.8832660  38.7401160  24.6716160
  86.8937890  38.3136070  23.6160840  86.2946780  39.0371870  23.4324460
  87.4417500  38.2512850  22.8337290  82.1039340  39.2058280  35.6830460
  82.0082940  38.2653010  35.5330860  82.9471320  39.4273350  35.2878530
  85.5002760  36.9499610  25.6464120  85.8932330  37.2671810  24.8332810
  85.8619610  36.0711490  25.7608640  77.2349880  35.6171950  33.8364240
  76.8413270  36.4647160  34.0437020  76.5468280  34.9798320  34.0272880
  83.8094930  35.7006920  36.9060980  83.1193250  35.5079120  37.5407070
  84.5527230  35.9841560  37.4385280  74.5366930  33.5400410  27.8694320
  74.2479980  34.1103270  28.5819300  75.2812690  33.0604860  28.2325550
  74.7237160  37.4820530  19.0797040  74.6411830  38.4251290  19.2212030
  74.3720220  37.3395440  18.2009390  86.0857900  39.5405360  29.7414900
  85.3539020  40.0492170  30.0905000  85.6882240  38.7235340  29.4403680
  82.5235290  36.2159560  28.1467390  82.5271350  35.7749510  27.2971930
  83.4186410  36.5376890  28.2539210  78.3737670  36.0986050  27.1061600
  78.0337720  36.5761280  27.8628650  77.6114990  35.6451170  26.7462700
  82.5855440  37.2171640  21.1374150  82.7068260  37.1758120  22.0859970
  82.2003950  38.0795790  20.9820880  86.5483810  34.9939040  29.1537840
  86.5656550  35.4447690  29.9979690  86.2999390  34.0944680  29.3671280
  81.5976940  39.5272780  20.5357450  81.0293840  39.0791030  19.9093360
  82.3065940  39.8865560  20.0022600  89.9754560  32.4071220  34.9924220
  90.3000330  31.6760880  35.5182200  90.0111070  32.0884860  34.0905210
  76.6746120  43.4284800  34.4124180  76.2900910  42.7878470  35.0107140
  76.9858310  44.1320920  34.9818910  82.8243260  40.2761340  29.8932800
  83.1913390  39.8019910  30.6394140  82.6348320  41.1502910  30.2341140
  75.6883750  35.0205030  26.0226270  75.4030670  34.6560700  26.8604890
  75.6262610  34.2885490  25.4089410  80.6142630  39.3169980  32.2117010
  80.3099700  40.1961960  32.4367370  81.5689090  39.3769770  32.2474450
  79.1424420  43.5230970  22.8083860  78.3686680  42.9828590  22.6482580
  79.8719050  43.0037580  22.4701620  89.9012400  42.5196330  28.6010250
  90.6211520  43.0151620  28.2106360  89.6994220  41.8414220  27.9564120
  85.3622340  33.9134290  22.7439640  84.5486950  33.4147460  22.6684950
  85.1684290  34.7532540  22.3275990  85.2831200  42.5905390  34.4879250
  85.2168510  41.6701060  34.2336840  84.6536340  42.6880830  35.2023890
  88.0770730  38.2853940  21.0401800  88.9650350  38.5971170  20.8653140
  88.0475820  37.4126190  20.6482380  79.1861820  43.1911350  26.4462670
  79.7040490  42.3879610  26.3919560  78.7345840  43.1290490  27.2879500
  84.0731320  44.4577630  21.7189970  84.4147020  45.2019860  21.2233290
  83.2444030  44.7708750  22.0814800  76.6706360  40.1572720  33.3588370
  76.3121300  40.8226570  33.9461710  76.3760920  39.3256270  33.7300990
  79.8719480  40.6156960  36.2427920  79.5719620  40.7614140  35.3455740
  80.6430720  40.0562250  36.1501310  85.2147930  45.4125960  34.2383050
  85.2292470  44.4806920  34.0201960  84.5073030  45.4985720  34.8772820
  86.9558730  43.7793470  27.0835480  87.3082550  43.1821600  26.4236850
  86.0721060  43.4537700  27.2543730  83.0422010  44.5391160  24.4905890
  83.7293140  45.0860370  24.8713480  82.2554430  45.0831890  24.5255500
  75.1814410  40.1563980  19.9822970  76.0509260  40.4388780  20.2658890
  74.6904730  40.9699850  19.8671780  82.3449220  41.5437190  24.1031250
  82.8012000  42.3542440  24.3291440  81.9937430  41.2260330  24.9349740
  84.6481830  47.0543530  31.3323550  85.2924050  47.2602910  32.0096970
  85.0111270  46.2931930  30.8794400  78.2461000  31.8874840  24.5753770
  78.1175630  31.8792740  25.5238690  77.4223020  32.2257930  24.2244780
  85.9213910  45.0575880  30.0501000  86.5636140  44.3569040  30.1633170
  86.4463260  45.8374320  29.8697890  89.7669630  45.3424500  19.7740140
  89.5407210  44.6254940  20.3664780  89.3765830  45.0936940  18.9361890
  87.6951530  45.8570780  33.2537060  88.0307770  46.4437470  33.9314980
  86.7751870  45.7263490  33.4834850  75.5485660  49.3691360  20.5484600
  75.9083300  49.9680700  19.8941870  75.4078000  49.9151250  21.3219630
  75.2454930  33.6465960  34.0360470  74.5313450  33.8462880  34.6413080
  75.6649970  32.8705530  34.4075270  89.3485880  43.2596440  21.4354300
  89.0607580  43.7209130  22.2232180  90.1438050  42.7994210  21.7038520
  75.5327520  47.6346220  35.0227000  75.6418640  46.6940960  34.8822390
  74.8808080  47.9000970  34.3740730  83.5240110  45.9062110  36.4225120
  83.2036980  45.1871350  36.9670810  82.8498470  46.5817180  36.4961180
  81.5654280  46.7522560  21.3658270  81.5564380  47.4852250  20.7502780
  80.6452640  46.5054140  21.4585230  77.1660920  41.9737450  22.1105030
  76.5588870  42.7136350  22.1200330  77.6410270  42.0636810  21.2843230
  86.7393710  36.1388270  31.7861920  87.1074530  35.3183480  32.1141490
  85.8791910  36.1990160  32.2017570  90.1055740  35.0945210  22.5949480
  89.4768900  35.1990880  21.8807710  89.6107660  35.3141990  23.3843360
  84.5513880  46.8150800  20.0283460  84.6525860  46.6114790  19.0985440
  83.6515620  46.5609080  20.2331240  82.0739770  37.3731160  24.0107360
  81.3655920  37.8417500  24.4520970  82.3584250  36.7153170  24.6452550
  83.6995700  38.7927860  32.0099890  84.1980950  39.2673680  32.6751740
  83.8418650  37.8691380  32.2169920  86.1055200  34.0981820  25.4503150
  85.9822980  34.1167950  24.5012660  87.0539760  34.1460760  25.5701550
  83.1931990  49.3337120  24.7231130  83.4473490  49.2958510  23.8010500
  82.2444470  49.2070450  24.7159380  80.2774790  35.6816240  21.3858070
  81.1265320  36.1186390  21.3198260  79.9106060  35.9936500  22.2130130
  89.1984570  40.2529000  26.2989640  88.2574710  40.2679230  26.4737330
  89.5128640  39.4664960  26.7449940  79.1766210  41.9348600  19.8593600
  79.9429480  41.8229960  20.4219030  79.2540900  41.2386570  19.2070370
  77.8712970  39.3673670  20.5426490  77.9516560  38.4201180  20.6543890
  78.7632720  39.6980550  20.6487150  78.6727680  49.5169060  27.6461030
  79.4090160  48.9684520  27.9169600  79.0568600  50.3825070  27.5067020
  75.5573160  45.5842630  23.5202540  74.6312940  45.8263770  23.5107950
  76.0229590  46.4116890  23.3987290  77.6785960  48.7015130  36.8346610
  78.4798690  49.0227180  37.2482010  77.1637780  48.3410710  37.5566520
  81.7829990  48.6899370  19.4686600  82.5758600  48.9788200  19.0168390
  81.2634340  48.2591540  18.7899080  86.5150590  44.8095000  36.7822020
  85.9088750  44.8326600  36.0417770  86.2104700  44.0778040  37.3189270
  87.9450960  48.5375290  35.3931430  88.8972710  48.4533310  35.3431670
  87.7979180  49.2017000  36.0665220  90.8360160  47.9169500  20.8923340
  90.5501670  47.5034640  20.0777520  90.6379710  48.8457210  20.7723860
  75.3983770  41.1888590  35.7782660  75.9022790  40.6095870  36.3498890
  74.6591190  41.4728820  36.3159030  82.3007390  43.9102780  19.3328950
  82.1958030  43.2955130  20.0590330  82.1331610  43.3868670  18.5491960
  82.4521710  42.5959580  35.3118180  81.6867380  43.1644580  35.2272850
  82.6337670  42.3035790  34.4186410  85.5410120  42.9722810  19.9370940
  84.9920220  43.4192110  20.5813680  86.1629380  42.4672060  20.4608610
  89.5945060  44.3264910  35.8693200  90.3354530  44.6640670  35.3660660
  88.8317740  44.4956970  35.3162970  77.4306850  39.3318180  36.6732730
  77.4712190  39.0332050  37.5817960  78.2852350  39.7325790  36.5140250
  81.2085240  41.9313730  21.8336240  81.6301660  41.7653600  22.6767630
  81.3336080  41.1213960  21.3391380  79.3712660  37.9110280  34.6407220
  78.8409120  37.4201230  34.0130560  80.0400730  38.3394480  34.1065150
  83.7212880  40.9551340  19.0813340  84.2418540  40.2400360  18.7154490
  84.3681280  41.5937210  19.3813850  88.2690720  42.3779740  34.4048410
  88.6831740  42.5324820  35.2538830  87.3341720  42.5034960  34.5674190
  88.7412890  39.7175900  36.4087560  89.3233660  38.9628220  36.3208040
  88.9174660  40.2483340  35.6319040  79.8584960  34.8772650  34.7204510
  79.7641830  34.2593400  33.9955380  79.2782350  35.6038940  34.4934420
  82.6246400  33.4345890  31.7531900  82.1763700  33.4570150  30.9077450
  81.9911600  33.0364910  32.3502200  83.0305950  42.3300220  32.3744340
  83.4494060  43.1732950  32.2020580  82.1114580  42.4672260  32.1451120
  85.3669850  40.0616400  33.7582180  85.4866060  39.4657540  34.4977020
  86.2263850  40.0986090  33.3383480  87.7057750  40.6153590  32.3344690
  87.1792970  41.1396210  31.7309830  88.0489090  41.2480980  32.9654420
  80.1044140  38.0046960  18.7794400  79.9033200  37.1414320  19.1407740
  79.9336190  37.9180320  17.8416000  80.8813370  48.6353230  33.4902070
  80.3434460  49.3599290  33.1710770  81.1347330  48.1583570  32.6999410
  82.1338620  36.6037750  35.0158000  82.7238310  36.2953600  35.7035820
  81.3158860  36.1317500  35.1717900  86.9532050  36.2203560  35.2491020
  86.2647570  35.5585100  35.1841010  87.6738070  35.7741830  35.6939480
  87.5832450  32.8155190  21.3081280  87.8634740  31.9723090  21.6640700
  86.8098180  33.0478300  21.8220030  78.9026940  35.1047580  18.7672280
  79.2052840  35.1115010  17.8591430  79.6421530  34.7545440  19.2639940
  83.7375580  49.8704440  33.7488720  83.6634280  50.7739580  34.0561090
  82.8354420  49.5516340  33.7210790  82.1211870  34.0482200  19.7528480
  81.7733870  33.3706190  19.1730930  82.3224640  33.5871710  20.5671870
  84.2860910  49.0362950  21.3715080  85.1811700  49.3747920  21.3933840
  84.3178540  48.3142360  20.7439360  77.9257070  44.4090000  19.6002080
  78.3631940  44.9519670  20.2559660  78.4104800  43.5836950  19.6098420
  75.1402870  47.1979030  27.0522340  75.4705880  46.3300090  26.8200980
  75.5693870  47.4037550  27.8827300  79.7364790  45.5288040  24.7124310
  79.4360330  45.4053010  25.6128220  79.6302280  44.6696630  24.3040040
  75.6293080  48.0649620  29.7903970  75.1924070  48.2450420  30.6228120
  76.1970760  48.8224240  29.6485690  75.4617510  40.5769850  26.1492850
  74.8066350  40.3081490  25.5052550  76.2995460  40.4674330  25.6994830
  89.9506900  44.2918600  32.1757440  89.1366740  44.7215760  32.4383230
  90.3581100  44.9037010  31.5626490  88.4107950  35.3711140  20.3711340
  88.8292830  35.1842120  19.5308000  88.1044010  34.5190190  20.6814270
  76.4993440  40.9622420  30.6896190  76.8666480  40.8749820  31.5692210
  75.9304260  40.1988970  30.5903050  76.0509440  37.8731510  34.5954610
  75.1565490  37.8398270  34.9348320  76.5906990  38.0718300  35.3605860
  89.7385370  34.6563230  36.4806360  90.6155550  34.6646630  36.8640360
  89.7506210  33.9194070  35.8698710  74.6755590  37.7868780  22.0918180
  73.7719670  38.0498980  21.9169840  75.1596210  38.0579950  21.3118140
  77.2182800  36.8434320  20.0012560  77.9274500  36.4217540  19.5159840
  76.5022740  36.9109550  19.3695910  76.8656960  32.8973650  19.0415210
  77.5885090  33.4382590  19.3596430  77.1381480  32.6237070  18.1656750
  76.5549150  32.1479840  28.9437830  77.2025340  31.5977220  28.5032990
  76.9750990  32.4022990  29.7653640  90.0082950  49.0437200  25.7025710
  90.6042020  48.7221770  25.0260130  90.2661100  48.5709020  26.4938980
  76.3081150  32.3035510  31.6863150  75.9595970  32.7599330  32.4521330
  75.9768850  31.4092640  31.7685580  77.9145520  45.4755110  35.8516340
  77.8715150  45.1048020  36.7330800  78.0456530  46.4132680  35.9918160
  81.6151550  47.0314700  31.4526060  81.3742910  47.2989260  30.5656580
  82.5554190  47.2020430  31.5076920  83.8205970  33.4947390  35.2082570
  83.7594860  34.0869220  35.9577980  84.7606350  33.3873350  35.0632830
  86.4580530  33.1517450  34.8474860  87.0720940  33.4696740  34.1855940
  87.0030090  32.6666040  35.4670720  76.9801790  31.8311710  34.9613920
  77.5284780  31.6499760  34.1980030  77.0457100  31.0405820  35.4970230
  77.7533550  48.4217360  32.9714120  77.1593870  48.2902060  33.7104160
  77.7457390  47.5855500  32.5056220  87.1988570  31.7149590  31.1744150
  86.3248410  32.0484700  30.9717080  87.0899320  31.2422770  31.9996020
  88.1060550  33.9220460  32.5585870  87.7773910  33.1072220  32.1787600
  89.0542850  33.8790270  32.4351560  90.5595160  49.6932500  29.5323440
  90.0998130  50.4448310  29.1581460  89.9307620  48.9738970  29.4738240
  77.3845780  45.7875740  31.9222160  76.6579840  45.1681030  31.8548110
  77.4454930  46.1816350  31.0520240  80.9890880  48.0020740  28.7071570
  81.5055900  47.3908100  28.1819830  81.6388260  48.5049520  29.1982580
  83.7286380  48.8929230  29.5340550  84.0164190  48.6383530  28.6573560
  84.2409600  48.3406590  30.1246120  84.9463390  32.6319430  30.1137060
  84.1635180  33.1064930  30.3933820  84.6526320  31.7274260  30.0050240
  89.4984460  33.3342530  28.1586150  89.9392550  33.2787630  27.3107750
  89.2292050  34.2500540  28.2296330  75.6675780  49.1050130  25.1318920
  75.4997820  48.4720810  25.8300810  74.8010290  49.3109530  24.7813110
  76.2903800  32.9366910  22.6350780  77.0483160  33.0495790  22.0614810
  75.8280970  33.7736110  22.5894210  82.8317610  35.0506180  25.6253090
  82.0192120  34.6763070  25.2848970  83.3359250  34.2951260  25.9274280
  87.3342590  31.7148630  26.8636160  87.9371960  32.2868840  27.3384680
  86.5935580  32.2788070  26.6410060  90.4777190  32.1170190  22.1376440
  90.6727820  33.0153640  22.4043870  89.6907060  31.8857270  22.6309390
  77.2738480  47.7983360  22.5769060  76.7486100  48.1791390  21.8731020
  77.1983060  48.4234130  23.2978770  78.6628950  33.4630960  21.1752750
  79.1921710  32.6760760  21.0460700  79.2957270  34.1422150  21.4088280
  80.8566790  33.2006100  24.2298140  80.2269530  32.4993410  24.3968270
  80.3171930  33.9610230  24.0131300  83.7958740  49.8145330  36.9008750
  84.7226050  49.5789600  36.9444710  83.7809170  50.6417330  36.4194780
  80.9822350  32.4790080  36.6650630  80.7006620  32.9823680  35.9011450
  81.3642050  31.6811830  36.2992760  79.8731450  49.7465740  21.4518310
  80.6050270  49.4625020  20.9042200  80.1325120  49.5079020  22.3417690
  79.0346240  45.8630470  21.4564640  78.4055120  46.3315570  22.0050470
  79.1494070  45.0179690  21.8910830  87.5837810  31.8943660  37.2431100
  87.4703260  32.2138270  38.1382620  88.4007550  32.2956170  36.9468380
  86.4895960  39.9136130   7.6065840  86.4090010  38.9990740   7.3357550
  86.0760380  40.4103200   6.9005550  84.6214000  41.6915150   9.4875110
  83.8456100  41.2115590   9.7773680  85.2726930  41.0120800   9.3131270
  78.6379830  42.0034960  10.3650870  77.8064710  41.7483670  10.7647380
  79.2460810  42.0745730  11.1008790  88.6421430  46.0975340   8.2674240
  88.1802960  45.3262580   8.5961410  89.4546980  46.1241410   8.7726690
  78.6181090  46.0375050  10.5608890  78.9209130  45.1472790  10.3819110
  79.3624680  46.5945270  10.3331140  77.0471780  36.9636850   4.1493260
  76.1588480  37.3052820   4.0473140  77.3312970  36.7637170   3.2574090
  75.0104790  39.5642500  10.0332960  75.5820900  38.7964700  10.0336600
  75.0106330  39.8631260   9.1239570  84.8684740  48.3833350   7.8878230
  84.2496180  48.8390850   7.3172670  85.7236520  48.5384810   7.4867930
  84.0622990  44.3672340   9.4945270  83.9931270  43.4262280   9.3334400
  84.8242850  44.4573750  10.0667840  76.2529660  34.9726860  11.8201890
  76.0732500  34.0752610  12.1004650  75.8509740  35.5198730  12.4948840
  85.0928160  37.1742720   9.7214200  85.4692980  36.3014600   9.6087870
  84.9947670  37.5101420   8.8304640  79.2233170  35.5468350   5.1831640
  79.3299920  36.4472080   5.4900400  78.3125530  35.4986320   4.8926290
  88.8752280  34.6693160   6.6542540  89.6961900  34.1789730   6.6968020
  88.9086360  35.2590820   7.4074380  76.8716330  37.4687360  10.4284230
  77.5526440  37.7325730  11.0471630  76.5564380  36.6288230  10.7622240
  81.0640900  38.5154720   9.5156820  81.5719120  39.0135690  10.1561840
  81.5954140  37.7389920   9.3396180  79.3477000  33.1553280  13.7820240
  79.3495440  33.6725670  12.9766140  78.5181310  32.6783460  13.7590170
  85.7348090  43.2672590   5.2810140  85.1165360  43.7322040   4.7172860
  86.2471340  43.9600070   5.6979650  80.5979850  42.7948460  11.9593740
  80.2649230  43.4217380  12.6014810  80.7746530  43.3210340  11.1795410
  89.1113760  36.6093540   9.4270080  88.4069330  36.8978430  10.0073190
  89.4725920  37.4193650   9.0669640  79.0292330  34.8663240  11.7890690
  79.3709140  35.7105290  11.4944560  78.0908140  35.0146980  11.9056030
  79.8098950  44.7629260  13.7742920  80.4272950  45.4380340  13.4927370
  78.9492070  45.1717240  13.6830420  75.1031290  43.9529120   2.6549770
  74.7259270  44.4416220   1.9234670  75.3604360  44.6254400   3.2856300
  82.7120220  32.3545510   8.1135280  83.0195200  31.7992400   7.3970780
  81.7820920  32.4889970   7.9308270  88.2635280  48.0712800  10.4042740
  88.2762440  47.6675090   9.5365000  87.7110500  48.8460090  10.3004170
  89.5580700  44.7929020   5.4932910  89.4477030  43.8503350   5.6182330
  89.5548950  45.1544660   6.3795670  87.6620720  42.9742640  11.7325350
  88.0789510  42.7602750  10.8978810  88.3860540  43.2315430  12.3033970
  85.1000980  40.4194340   4.8495400  84.1730260  40.3531720   5.0783870
  85.2525800  41.3574470   4.7350640  89.1298270  41.9814640   5.3530650
  88.5110690  41.6434190   4.7056950  89.1122720  41.3374400   6.0609840
  88.5724830  38.1599180  12.7696460  88.1596010  38.9852890  13.0236450
  87.8400780  37.5744220  12.5772820  80.7057620  40.9459080   7.6315130
  80.3014620  40.2336330   7.1361030  80.7920740  40.6012320   8.5203170
  81.1739320  44.6326640   9.7954340  80.8767610  44.0272110   9.1162120
  82.1239140  44.6703950   9.6843700  79.4186240  37.7202290  11.4114170
  79.9700830  37.8297630  10.6367420  79.9329750  38.0939890  12.1269400
  89.2624930  48.2058510  13.4577440  88.7855490  49.0130700  13.2650050
  88.5786720  47.5536840  13.6103650  80.2657750  44.3708330  16.4462140
  79.3686280  44.5948300  16.6935540  80.2910620  44.4943270  15.4973540
  87.3062970  41.2201450   2.3603400  87.7456250  40.3823880   2.2141220
  88.0191390  41.8530850   2.4467540  79.0928970  41.2421650  15.0219510
  78.9536740  42.1144450  15.3906910  78.2110330  40.8994460  14.8767450
  85.4158350  46.1597520   6.3284640  85.8554260  46.9021850   5.9140030
  85.3545240  46.4024090   7.2523600  80.8909320  47.1843350  17.2304660
  80.8624750  47.5886300  16.3633090  80.7274290  46.2553710  17.0676260
  77.4062250  39.8404060   5.1321780  77.2859850  40.5666150   4.5203050
  77.0963140  39.0706970   4.6549690  75.0447620  43.0119200  10.9390420
  75.1228040  43.1467970   9.9946140  75.6589300  42.3035090  11.1318540
  76.2895250  44.7119390   7.3496600  75.8823330  44.8533980   6.4950200
  77.1808260  44.4279550   7.1467810  86.1074130  48.8611300  14.2563650
  86.6218800  48.7719310  15.0586080  85.2643210  49.2071000  14.5491560
  88.0828530  49.1466640   3.6847650  87.9229670  48.8569580   4.5829480
  87.9175240  48.3706770   3.1492880  80.5616910  48.9265170   5.4619270
  80.3859390  48.0100710   5.2487070  79.7072650  49.2852460   5.7017070
  87.3504590  48.2816910   6.3194140  87.8061540  47.5006290   6.6332760
  87.6897110  48.9923730   6.8635320  75.1007140  44.0533370  13.4784880
  75.2638180  43.5838730  12.6604250  75.5659590  43.5456930  14.1433720
  79.8725910  33.1839130   8.5145450  79.4294060  33.9648670   8.1829970
  80.4310900  33.5069020   9.2216390  84.1595720  36.0507650  14.1180770
  83.6975090  36.2590670  14.9300710  83.7573830  35.2367000  13.8151440
  89.1600230  37.2716600  15.2477430  88.3093820  36.9722350  15.5686500
  89.0002020  37.5158610  14.3361250  86.2549940  38.7718350  17.3476220
  86.5803350  37.9382100  17.0078450  87.0430270  39.2946870  17.4954550
  82.9884730  32.8049830   3.3951280  82.3638910  32.8009700   4.1204590
  82.9014850  31.9380790   2.9987250  81.9101810  33.7286460  10.3735050
  82.2074140  34.6349290  10.2927070  82.4587370  33.2405240   9.7594620
  79.6640130  38.3072700   6.2426700  79.4381050  38.0909870   7.1473320
  78.8832660  38.7401160   5.8972670  86.8937890  38.3136070   4.8417350
  86.2946780  39.0371870   4.6580970  87.4417500  38.2512850   4.0593800
  82.1039340  39.2058280  16.9086970  82.0082940  38.2653010  16.7587370
  82.9471320  39.4273350  16.5135040  85.5002760  36.9499610   6.8720630
  85.8932330  37.2671810   6.0589320  85.8619610  36.0711490   6.9865150
  77.2349880  35.6171950  15.0620750  76.8413270  36.4647160  15.2693530
  76.5468280  34.9798320  15.2529390  83.8094930  35.7006920  18.1317490
  83.1193250  35.5079120  18.7663580  84.5527230  35.9841560  18.6641790
  74.5366930  33.5400410   9.0950830  74.2479980  34.1103270   9.8075810
  75.2812690  33.0604860   9.4582060  86.0857900  39.5405360  10.9671410
  85.3539020  40.0492170  11.3161510  85.6882240  38.7235340  10.6660190
  82.5235290  36.2159560   9.3723900  82.5271350  35.7749510   8.5228440
  83.4186410  36.5376890   9.4795720  78.3737670  36.0986050   8.3318110
  78.0337720  36.5761280   9.0885160  77.6114990  35.6451170   7.9719210
  82.5855440  37.2171640   2.3630660  82.7068260  37.1758120   3.3116480
  82.2003950  38.0795790   2.2077390  86.5483810  34.9939040  10.3794350
  86.5656550  35.4447690  11.2236200  86.2999390  34.0944680  10.5927790
  89.9754560  32.4071220  16.2180730  90.3000330  31.6760880  16.7438710
  90.0111070  32.0884860  15.3161720  76.6746120  43.4284800  15.6380690
  76.2900910  42.7878470  16.2363650  76.9858310  44.1320920  16.2075420
  82.8243260  40.2761340  11.1189310  83.1913390  39.8019910  11.8650650
  82.6348320  41.1502910  11.4597650  75.6883750  35.0205030   7.2482780
  75.4030670  34.6560700   8.0861400  75.6262610  34.2885490   6.6345920
  80.6142630  39.3169980  13.4373520  80.3099700  40.1961960  13.6623880
  81.5689090  39.3769770  13.4730960  79.1424420  43.5230970   4.0340370
  78.3686680  42.9828590   3.8739090  79.8719050  43.0037580   3.6958130
  89.9012400  42.5196330   9.8266760  90.6211520  43.0151620   9.4362870
  89.6994220  41.8414220   9.1820630  85.3622340  33.9134290   3.9696150
  84.5486950  33.4147460   3.8941460  85.1684290  34.7532540   3.5532500
  85.2831200  42.5905390  15.7135760  85.2168510  41.6701060  15.4593350
  84.6536340  42.6880830  16.4280400  88.0770730  38.2853940   2.2658310
  88.9650350  38.5971170   2.0909650  88.0475820  37.4126190   1.8738890
  79.1861820  43.1911350   7.6719180  79.7040490  42.3879610   7.6176070
  78.7345840  43.1290490   8.5136010  84.0731320  44.4577630   2.9446480
  84.4147020  45.2019860   2.4489800  83.2444030  44.7708750   3.3071310
  76.6706360  40.1572720  14.5844880  76.3121300  40.8226570  15.1718220
  76.3760920  39.3256270  14.9557500  79.8719480  40.6156960  17.4684430
  79.5719620  40.7614140  16.5712250  80.6430720  40.0562250  17.3757820
  85.2147930  45.4125960  15.4639560  85.2292470  44.4806920  15.2458470
  84.5073030  45.4985720  16.1029330  86.9558730  43.7793470   8.3091990
  87.3082550  43.1821600   7.6493360  86.0721060  43.4537700   8.4800240
  83.0422010  44.5391160   5.7162400  83.7293140  45.0860370   6.0969990
  82.2554430  45.0831890   5.7512010  82.3449220  41.5437190   5.3287760
  82.8012000  42.3542440   5.5547950  81.9937430  41.2260330   6.1606250
  84.6481830  47.0543530  12.5580060  85.2924050  47.2602910  13.2353480
  85.0111270  46.2931930  12.1050910  78.2461000  31.8874840   5.8010280
  78.1175630  31.8792740   6.7495200  77.4223020  32.2257930   5.4501290
  85.9213910  45.0575880  11.2757510  86.5636140  44.3569040  11.3889680
  86.4463260  45.8374320  11.0954400  87.6951530  45.8570780  14.4793570
  88.0307770  46.4437470  15.1571490  86.7751870  45.7263490  14.7091360
  75.2454930  33.6465960  15.2616980  74.5313450  33.8462880  15.8669590
  75.6649970  32.8705530  15.6331780  89.3485880  43.2596440   2.6610810
  89.0607580  43.7209130   3.4488690  90.1438050  42.7994210   2.9295030
  75.5327520  47.6346220  16.2483510  75.6418640  46.6940960  16.1078900
  74.8808080  47.9000970  15.5997240  83.5240110  45.9062110  17.6481630
  83.2036980  45.1871350  18.1927320  82.8498470  46.5817180  17.7217690
  81.5654280  46.7522560   2.5914780  81.5564380  47.4852250   1.9759290
  80.6452640  46.5054140   2.6841740  77.1660920  41.9737450   3.3361540
  76.5588870  42.7136350   3.3456840  77.6410270  42.0636810   2.5099740
  86.7393710  36.1388270  13.0118430  87.1074530  35.3183480  13.3398000
  85.8791910  36.1990160  13.4274080  90.1055740  35.0945210   3.8205990
  89.4768900  35.1990880   3.1064220  89.6107660  35.3141990   4.6099870
  82.0739770  37.3731160   5.2363870  81.3655920  37.8417500   5.6777480
  82.3584250  36.7153170   5.8709060  83.6995700  38.7927860  13.2356400
  84.1980950  39.2673680  13.9008250  83.8418650  37.8691380  13.4426430
  86.1055200  34.0981820   6.6759660  85.9822980  34.1167950   5.7269170
  87.0539760  34.1460760   6.7958060  83.1931990  49.3337120   5.9487640
  83.4473490  49.2958510   5.0267010  82.2444470  49.2070450   5.9415890
  80.2774790  35.6816240   2.6114580  81.1265320  36.1186390   2.5454770
  79.9106060  35.9936500   3.4386640  89.1984570  40.2529000   7.5246150
  88.2574710  40.2679230   7.6993840  89.5128640  39.4664960   7.9706450
  77.8712970  39.3673670   1.7683000  77.9516560  38.4201180   1.8800400
  78.7632720  39.6980550   1.8743660  78.6727680  49.5169060   8.8717540
  79.4090160  48.9684520   9.1426110  79.0568600  50.3825070   8.7323530
  75.5573160  45.5842630   4.7459050  74.6312940  45.8263770   4.7364460
  76.0229590  46.4116890   4.6243800  77.6785960  48.7015130  18.0603120
  78.4798690  49.0227180  18.4738520  77.1637780  48.3410710  18.7823030
  86.5150590  44.8095000  18.0078530  85.9088750  44.8326600  17.2674280
  86.2104700  44.0778040  18.5445780  87.9450960  48.5375290  16.6187940
  88.8972710  48.4533310  16.5688180  87.7979180  49.2017000  17.2921730
  75.3983770  41.1888590  17.0039170  75.9022790  40.6095870  17.5755400
  74.6591190  41.4728820  17.5415540  82.4521710  42.5959580  16.5374690
  81.6867380  43.1644580  16.4529360  82.6337670  42.3035790  15.6442920
  89.5945060  44.3264910  17.0949710  90.3354530  44.6640670  16.5917170
  88.8317740  44.4956970  16.5419480  77.4306850  39.3318180  17.8989240
  77.4712190  39.0332050  18.8074470  78.2852350  39.7325790  17.7396760
  81.2085240  41.9313730   3.0592750  81.6301660  41.7653600   3.9024140
  81.3336080  41.1213960   2.5647890  79.3712660  37.9110280  15.8663730
  78.8409120  37.4201230  15.2387070  80.0400730  38.3394480  15.3321660
  88.2690720  42.3779740  15.6304920  88.6831740  42.5324820  16.4795340
  87.3341720  42.5034960  15.7930700  88.7412890  39.7175900  17.6344070
  89.3233660  38.9628220  17.5464550  88.9174660  40.2483340  16.8575550
  79.8584960  34.8772650  15.9461020  79.7641830  34.2593400  15.2211890
  79.2782350  35.6038940  15.7190930  82.6246400  33.4345890  12.9788410
  82.1763700  33.4570150  12.1333960  81.9911600  33.0364910  13.5758710
  83.0305950  42.3300220  13.6000850  83.4494060  43.1732950  13.4277090
  82.1114580  42.4672260  13.3707630  85.3669850  40.0616400  14.9838690
  85.4866060  39.4657540  15.7233530  86.2263850  40.0986090  14.5639990
  87.7057750  40.6153590  13.5601200  87.1792970  41.1396210  12.9566340
  88.0489090  41.2480980  14.1910930  80.8813370  48.6353230  14.7158580
  80.3434460  49.3599290  14.3967280  81.1347330  48.1583570  13.9255920
  82.1338620  36.6037750  16.2414510  82.7238310  36.2953600  16.9292330
  81.3158860  36.1317500  16.3974410  86.9532050  36.2203560  16.4747530
  86.2647570  35.5585100  16.4097520  87.6738070  35.7741830  16.9195990
  87.5832450  32.8155190   2.5337790  87.8634740  31.9723090   2.8897210
  86.8098180  33.0478300   3.0476540  83.7375580  49.8704440  14.9745230
  83.6634280  50.7739580  15.2817600  82.8354420  49.5516340  14.9467300
  84.2860910  49.0362950   2.5971590  85.1811700  49.3747920   2.6190350
  84.3178540  48.3142360   1.9695870  75.1402870  47.1979030   8.2778850
  75.4705880  46.3300090   8.0457490  75.5693870  47.4037550   9.1083810
  79.7364790  45.5288040   5.9380820  79.4360330  45.4053010   6.8384730
  79.6302280  44.6696630   5.5296550  75.6293080  48.0649620  11.0160480
  75.1924070  48.2450420  11.8484630  76.1970760  48.8224240  10.8742200
  75.4617510  40.5769850   7.3749360  74.8066350  40.3081490   6.7309060
  76.2995460  40.4674330   6.9251340  89.9506900  44.2918600  13.4013950
  89.1366740  44.7215760  13.6639740  90.3581100  44.9037010  12.7883000
  76.4993440  40.9622420  11.9152700  76.8666480  40.8749820  12.7948720
  75.9304260  40.1988970  11.8159560  76.0509440  37.8731510  15.8211120
  75.1565490  37.8398270  16.1604830  76.5906990  38.0718300  16.5862370
  89.7385370  34.6563230  17.7062870  90.6155550  34.6646630  18.0896870
  89.7506210  33.9194070  17.0955220  74.6755590  37.7868780   3.3174690
  73.7719670  38.0498980   3.1426350  75.1596210  38.0579950   2.5374650
  76.5549150  32.1479840  10.1694340  77.2025340  31.5977220   9.7289500
  76.9750990  32.4022990  10.9910150  90.0082950  49.0437200   6.9282220
  90.6042020  48.7221770   6.2516640  90.2661100  48.5709020   7.7195490
  76.3081150  32.3035510  12.9119660  75.9595970  32.7599330  13.6777840
  75.9768850  31.4092640  12.9942090  77.9145520  45.4755110  17.0772850
  77.8715150  45.1048020  17.9587310  78.0456530  46.4132680  17.2174670
  81.6151550  47.0314700  12.6782570  81.3742910  47.2989260  11.7913090
  82.5554190  47.2020430  12.7333430  83.8205970  33.4947390  16.4339080
  83.7594860  34.0869220  17.1834490  84.7606350  33.3873350  16.2889340
  86.4580530  33.1517450  16.0731370  87.0720940  33.4696740  15.4112450
  87.0030090  32.6666040  16.6927230  76.9801790  31.8311710  16.1870430
  77.5284780  31.6499760  15.4236540  77.0457100  31.0405820  16.7226740
  77.7533550  48.4217360  14.1970630  77.1593870  48.2902060  14.9360670
  77.7457390  47.5855500  13.7312730  87.1988570  31.7149590  12.4000660
  86.3248410  32.0484700  12.1973590  87.0899320  31.2422770  13.2252530
  88.1060550  33.9220460  13.7842380  87.7773910  33.1072220  13.4044110
  89.0542850  33.8790270  13.6608070  90.5595160  49.6932500  10.7579950
  90.0998130  50.4448310  10.3837970  89.9307620  48.9738970  10.6994750
  77.3845780  45.7875740  13.1478670  76.6579840  45.1681030  13.0804620
  77.4454930  46.1816350  12.2776750  80.9890880  48.0020740   9.9328080
  81.5055900  47.3908100   9.4076340  81.6388260  48.5049520  10.4239090
  83.7286380  48.8929230  10.7597060  84.0164190  48.6383530   9.8830070
  84.2409600  48.3406590  11.3502630  84.9463390  32.6319430  11.3393570
  84.1635180  33.1064930  11.6190330  84.6526320  31.7274260  11.2306750
  89.4984460  33.3342530   9.3842660  89.9392550  33.2787630   8.5364260
  89.2292050  34.2500540   9.4552840  75.6675780  49.1050130   6.3575430
  75.4997820  48.4720810   7.0557320  74.8010290  49.3109530   6.0069620
  76.2903800  32.9366910   3.8607290  77.0483160  33.0495790   3.2871320
  75.8280970  33.7736110   3.8150720  82.8317610  35.0506180   6.8509600
  82.0192120  34.6763070   6.5105480  83.3359250  34.2951260   7.1530790
  87.3342590  31.7148630   8.0892670  87.9371960  32.2868840   8.5641190
  86.5935580  32.2788070   7.8666570  90.4777190  32.1170190   3.3632950
  90.6727820  33.0153640   3.6300380  89.6907060  31.8857270   3.8565900
  77.2738480  47.7983360   3.8025570  76.7486100  48.1791390   3.0987530
  77.1983060  48.4234130   4.5235280  78.6628950  33.4630960   2.4009260
  79.1921710  32.6760760   2.2717210  79.2957270  34.1422150   2.6344790
  80.8566790  33.2006100   5.4554650  80.2269530  32.4993410   5.6224780
  80.3171930  33.9610230   5.2387810  83.7958740  49.8145330  18.1265260
  84.7226050  49.5789600  18.1701220  83.7809170  50.6417330  17.6451290
  80.9822350  32.4790080  17.8907140  80.7006620  32.9823680  17.1267960
  81.3642050  31.6811830  17.5249270  79.8731450  49.7465740   2.6774820
  80.6050270  49.4625020   2.1298710  80.1325120  49.5079020   3.5674200
  79.0346240  45.8630470   2.6821150  78.4055120  46.3315570   3.2306980
  79.1494070  45.0179690   3.1167340  87.5837810  31.8943660  18.4687610
  87.4703260  32.2138270  19.3639130  88.4007550  32.2956170  18.1724890
  86.4895960  21.1392640  63.9296310  86.4090010  20.2247250  63.6588020
  86.0760380  21.6359710  63.2236020  84.6214000  22.9171660  65.8105580
  83.8456100  22.4372100  66.1004150  85.2726930  22.2377310  65.6361740
  78.6379830  23.2291470  66.6881340  77.8064710  22.9740180  67.0877850
  79.2460810  23.3002240  67.4239260  88.6421430  27.3231850  64.5904710
  88.1802960  26.5519090  64.9191880  89.4546980  27.3497920  65.0957160
  78.6181090  27.2631560  66.8839360  78.9209130  26.3729300  66.7049580
  79.3624680  27.8201780  66.6561610  77.0471780  18.1893360  60.4723730
  76.1588480  18.5309330  60.3703610  77.3312970  17.9893680  59.5804560
  75.0104790  20.7899010  66.3563430  75.5820900  20.0221210  66.3567070
  75.0106330  21.0887770  65.4470040  84.8684740  29.6089860  64.2108700
  84.2496180  30.0647360  63.6403140  85.7236520  29.7641320  63.8098400
  84.0622990  25.5928850  65.8175740  83.9931270  24.6518790  65.6564870
  84.8242850  25.6830260  66.3898310  76.2529660  16.1983370  68.1432360
  76.0732500  15.3009120  68.4235120  75.8509740  16.7455240  68.8179310
  85.0928160  18.3999230  66.0444670  85.4692980  17.5271110  65.9318340
  84.9947670  18.7357930  65.1535110  79.2233170  16.7724860  61.5062110
  79.3299920  17.6728590  61.8130870  78.3125530  16.7242830  61.2156760
  88.8752280  15.8949670  62.9773010  89.6961900  15.4046240  63.0198490
  88.9086360  16.4847330  63.7304850  76.8716330  18.6943870  66.7514700
  77.5526440  18.9582240  67.3702100  76.5564380  17.8544740  67.0852710
  81.0640900  19.7411230  65.8387290  81.5719120  20.2392200  66.4792310
  81.5954140  18.9646430  65.6626650  79.3477000  14.3809790  70.1050710
  79.3495440  14.8982180  69.2996610  78.5181310  13.9039970  70.0820640
  85.7348090  24.4929100  61.6040610  85.1165360  24.9578550  61.0403330
  86.2471340  25.1856580  62.0210120  80.5979850  24.0204970  68.2824210
  80.2649230  24.6473890  68.9245280  80.7746530  24.5466850  67.5025880
  89.1113760  17.8350050  65.7500550  88.4069330  18.1234940  66.3303660
  89.4725920  18.6450160  65.3900110  79.0292330  16.0919750  68.1121160
  79.3709140  16.9361800  67.8175030  78.0908140  16.2403490  68.2286500
  79.8098950  25.9885770  70.0973390  80.4272950  26.6636850  69.8157840
  78.9492070  26.3973750  70.0060890  75.1031290  25.1785630  58.9780240
  74.7259270  25.6672730  58.2465140  75.3604360  25.8510910  59.6086770
  82.7120220  13.5802020  64.4365750  83.0195200  13.0248910  63.7201250
  81.7820920  13.7146480  64.2538740  88.2635280  29.2969310  66.7273210
  88.2762440  28.8931600  65.8595470  87.7110500  30.0716600  66.6234640
  89.5580700  26.0185530  61.8163380  89.4477030  25.0759860  61.9412800
  89.5548950  26.3801170  62.7026140  87.6620720  24.1999150  68.0555820
  88.0789510  23.9859260  67.2209280  88.3860540  24.4571940  68.6264440
  85.1000980  21.6450850  61.1725870  84.1730260  21.5788230  61.4014340
  85.2525800  22.5830980  61.0581110  85.0870060  17.9167850  58.1693030
  84.1473730  18.0781810  58.2545490  85.4053320  18.6353530  57.6229020
  89.1298270  23.2071150  61.6761120  88.5110690  22.8690700  61.0287420
  89.1122720  22.5630910  62.3840310  88.5724830  19.3855690  69.0926930
  88.1596010  20.2109400  69.3466920  87.8400780  18.8000730  68.9003290
  80.7057620  22.1715590  63.9545600  80.3014620  21.4592840  63.4591500
  80.7920740  21.8268830  64.8433640  81.1739320  25.8583150  66.1184810
  80.8767610  25.2528620  65.4392590  82.1239140  25.8960460  66.0074170
  79.4186240  18.9458800  67.7344640  79.9700830  19.0554140  66.9597890
  79.9329750  19.3196400  68.4499870  89.2624930  29.4315020  69.7807910
  88.7855490  30.2387210  69.5880520  88.5786720  28.7793350  69.9334120
  87.3062970  22.4457960  58.6833870  87.7456250  21.6080390  58.5371690
  88.0191390  23.0787360  58.7698010  79.0928970  22.4678160  71.3449980
  78.9536740  23.3400960  71.7137380  78.2110330  22.1250970  71.1997920
  85.4158350  27.3854030  62.6515110  85.8554260  28.1278360  62.2370500
  85.3545240  27.6280600  63.5754070  77.4062250  21.0660570  61.4552250
  77.2859850  21.7922660  60.8433520  77.0963140  20.2963480  60.9780160
  75.0447620  24.2375710  67.2620890  75.1228040  24.3724480  66.3176610
  75.6589300  23.5291600  67.4549010  76.2895250  25.9375900  63.6727070
  75.8823330  26.0790490  62.8180670  77.1808260  25.6536060  63.4698280
  86.1074130  30.0867810  70.5794120  86.6218800  29.9975820  71.3816550
  85.2643210  30.4327510  70.8722030  88.0828530  30.3723150  60.0078120
  87.9229670  30.0826090  60.9059950  87.9175240  29.5963280  59.4723350
  80.5616910  30.1521680  61.7849740  80.3859390  29.2357220  61.5717540
  79.7072650  30.5108970  62.0247540  87.7854660  27.8810710  58.5676120
  87.0919820  27.8788000  57.9078400  88.5277520  27.4570030  58.1370290
  87.3504590  29.5073420  62.6424610  87.8061540  28.7262800  62.9563230
  87.6897110  30.2180240  63.1865790  75.1007140  25.2789880  69.8015350
  75.2638180  24.8095240  68.9834720  75.5659590  24.7713440  70.4664190
  79.8725910  14.4095640  64.8375920  79.4294060  15.1905180  64.5060440
  80.4310900  14.7325530  65.5446860  84.1595720  17.2764160  70.4411240
  83.6975090  17.4847180  71.2531180  83.7573830  16.4623510  70.1381910
  89.1600230  18.4973110  71.5707900  88.3093820  18.1978860  71.8916970
  89.0002020  18.7415120  70.6591720  82.9884730  14.0306340  59.7181750
  82.3638910  14.0266210  60.4435060  82.9014850  13.1637300  59.3217720
  81.9101810  14.9542970  66.6965520  82.2074140  15.8605800  66.6157540
  82.4587370  14.4661750  66.0825090  79.6640130  19.5329210  62.5657170
  79.4381050  19.3166380  63.4703790  78.8832660  19.9657670  62.2203140
  86.8937890  19.5392580  61.1647820  86.2946780  20.2628380  60.9811440
  87.4417500  19.4769360  60.3824270  85.5002760  18.1756120  63.1951100
  85.8932330  18.4928320  62.3819790  85.8619610  17.2968000  63.3095620
  77.2349880  16.8428460  71.3851220  76.8413270  17.6903670  71.5924000
  76.5468280  16.2054830  71.5759860  74.5366930  14.7656920  65.4181300
  74.2479980  15.3359780  66.1306280  75.2812690  14.2861370  65.7812530
  74.7237160  18.7077040  56.6284020  74.6411830  19.6507800  56.7699010
  74.3720220  18.5651950  55.7496370  86.0857900  20.7661870  67.2901880
  85.3539020  21.2748680  67.6391980  85.6882240  19.9491850  66.9890660
  82.5235290  17.4416070  65.6954370  82.5271350  17.0006020  64.8458910
  83.4186410  17.7633400  65.8026190  78.3737670  17.3242560  64.6548580
  78.0337720  17.8017790  65.4115630  77.6114990  16.8707680  64.2949680
  82.5855440  18.4428150  58.6861130  82.7068260  18.4014630  59.6346950
  82.2003950  19.3052300  58.5307860  86.5483810  16.2195550  66.7024820
  86.5656550  16.6704200  67.5466670  86.2999390  15.3201190  66.9158260
  81.5976940  20.7529290  58.0844430  81.0293840  20.3047540  57.4580340
  82.3065940  21.1122070  57.5509580  76.6746120  24.6541310  71.9611160
  76.2900910  24.0134980  72.5594120  76.9858310  25.3577430  72.5305890
  82.8243260  21.5017850  67.4419780  83.1913390  21.0276420  68.1881120
  82.6348320  22.3759420  67.7828120  75.6883750  16.2461540  63.5713250
  75.4030670  15.8817210  64.4091870  75.6262610  15.5142000  62.9576390
  80.6142630  20.5426490  69.7603990  80.3099700  21.4218470  69.9854350
  81.5689090  20.6026280  69.7961430  79.1424420  24.7487480  60.3570840
  78.3686680  24.2085100  60.1969560  79.8719050  24.2294090  60.0188600
  89.9012400  23.7452840  66.1497230  90.6211520  24.2408130  65.7593340
  89.6994220  23.0670730  65.5051100  85.3622340  15.1390800  60.2926620
  84.5486950  14.6403970  60.2171930  85.1684290  15.9789050  59.8762970
  85.2831200  23.8161900  72.0366230  85.2168510  22.8957570  71.7823820
  84.6536340  23.9137340  72.7510870  88.0770730  19.5110450  58.5888780
  88.9650350  19.8227680  58.4140120  88.0475820  18.6382700  58.1969360
  79.1861820  24.4167860  63.9949650  79.7040490  23.6136120  63.9406540
  78.7345840  24.3547000  64.8366480  84.0731320  25.6834140  59.2676950
  84.4147020  26.4276370  58.7720270  83.2444030  25.9965260  59.6301780
  76.6706360  21.3829230  70.9075350  76.3121300  22.0483080  71.4948690
  76.3760920  20.5512780  71.2787970  85.2147930  26.6382470  71.7870030
  85.2292470  25.7063430  71.5688940  84.5073030  26.7242230  72.4259800
  86.9558730  25.0049980  64.6322460  87.3082550  24.4078110  63.9723830
  86.0721060  24.6794210  64.8030710  83.0422010  25.7647670  62.0392870
  83.7293140  26.3116880  62.4200460  82.2554430  26.3088400  62.0742480
  75.1814410  21.3820490  57.5309950  76.0509260  21.6645290  57.8145870
  74.6904730  22.1956360  57.4158760  82.3449220  22.7693700  61.6518230
  82.8012000  23.5798950  61.8778420  81.9937430  22.4516840  62.4836720
  84.6481830  28.2800040  68.8810530  85.2924050  28.4859420  69.5583950
  85.0111270  27.5188440  68.4281380  78.2461000  13.1131350  62.1240750
  78.1175630  13.1049250  63.0725670  77.4223020  13.4514440  61.7731760
  85.9213910  26.2832390  67.5987980  86.5636140  25.5825550  67.7120150
  86.4463260  27.0630830  67.4184870  89.7669630  26.5681010  57.3227120
  89.5407210  25.8511450  57.9151760  89.3765830  26.3193450  56.4848870
  87.6951530  27.0827290  70.8024040  88.0307770  27.6693980  71.4801960
  86.7751870  26.9520000  71.0321830  75.5485660  30.5947870  58.0971580
  75.9083300  31.1937210  57.4428850  75.4078000  31.1407760  58.8706610
  75.2454930  14.8722470  71.5847450  74.5313450  15.0719390  72.1900060
  75.6649970  14.0962040  71.9562250  89.3485880  24.4852950  58.9841280
  89.0607580  24.9465640  59.7719160  90.1438050  24.0250720  59.2525500
  75.5327520  28.8602730  72.5713980  75.6418640  27.9197470  72.4309370
  74.8808080  29.1257480  71.9227710  81.5654280  27.9779070  58.9145250
  81.5564380  28.7108760  58.2989760  80.6452640  27.7310650  59.0072210
  77.1660920  23.1993960  59.6592010  76.5588870  23.9392860  59.6687310
  77.6410270  23.2893320  58.8330210  86.7393710  17.3644780  69.3348900
  87.1074530  16.5439990  69.6628470  85.8791910  17.4246670  69.7504550
  90.1055740  16.3201720  60.1436460  89.4768900  16.4247390  59.4294690
  89.6107660  16.5398500  60.9330340  84.5513880  28.0407310  57.5770440
  84.6525860  27.8371300  56.6472420  83.6515620  27.7865590  57.7818220
  82.0739770  18.5987670  61.5594340  81.3655920  19.0674010  62.0007950
  82.3584250  17.9409680  62.1939530  83.6995700  20.0184370  69.5586870
  84.1980950  20.4930190  70.2238720  83.8418650  19.0947890  69.7656900
  86.1055200  15.3238330  62.9990130  85.9822980  15.3424460  62.0499640
  87.0539760  15.3717270  63.1188530  83.1931990  30.5593630  62.2718110
  83.4473490  30.5215020  61.3497480  82.2444470  30.4326960  62.2646360
  80.2774790  16.9072750  58.9345050  81.1265320  17.3442900  58.8685240
  79.9106060  17.2193010  59.7617110  89.1984570  21.4785510  63.8476620
  88.2574710  21.4935740  64.0224310  89.5128640  20.6921470  64.2936920
  79.1766210  23.1605110  57.4080580  79.9429480  23.0486470  57.9706010
  79.2540900  22.4643080  56.7557350  77.8712970  20.5930180  58.0913470
  77.9516560  19.6457690  58.2030870  78.7632720  20.9237060  58.1974130
  78.6727680  30.7425570  65.1948010  79.4090160  30.1941030  65.4656580
  79.0568600  31.6081580  65.0554000  75.5573160  26.8099140  61.0689520
  74.6312940  27.0520280  61.0594930  76.0229590  27.6373400  60.9474270
  81.7829990  29.9155880  57.0173580  82.5758600  30.2044710  56.5655370
  81.2634340  29.4848050  56.3386060  90.8360160  29.1426010  58.4410320
  90.5501670  28.7291150  57.6264500  90.6379710  30.0713720  58.3210840
  82.3007390  25.1359290  56.8815930  82.1958030  24.5211640  57.6077310
  82.1331610  24.6125180  56.0978940  82.4521710  23.8216090  72.8605160
  81.6867380  24.3901090  72.7759830  82.6337670  23.5292300  71.9673390
  85.5410120  24.1979320  57.4857920  84.9920220  24.6448620  58.1300660
  86.1629380  23.6928570  58.0095590  81.2085240  23.1570240  59.3823220
  81.6301660  22.9910110  60.2254610  81.3336080  22.3470470  58.8878360
  79.3712660  19.1366790  72.1894200  78.8409120  18.6457740  71.5617540
  80.0400730  19.5650990  71.6552130  83.7212880  22.1807850  56.6300320
  84.2418540  21.4656870  56.2641470  84.3681280  22.8193720  56.9300830
  88.2690720  23.6036250  71.9535390  88.6831740  23.7581330  72.8025810
  87.3341720  23.7291470  72.1161170  79.8584960  16.1029160  72.2691490
  79.7641830  15.4849910  71.5442360  79.2782350  16.8295450  72.0421400
  82.6246400  14.6602400  69.3018880  82.1763700  14.6826660  68.4564430
  81.9911600  14.2621420  69.8989180  83.0305950  23.5556730  69.9231320
  83.4494060  24.3989460  69.7507560  82.1114580  23.6928770  69.6938100
  85.3669850  21.2872910  71.3069160  85.4866060  20.6914050  72.0464000
  86.2263850  21.3242600  70.8870460  87.7057750  21.8410100  69.8831670
  87.1792970  22.3652720  69.2796810  88.0489090  22.4737490  70.5141400
  80.1044140  19.2303470  56.3281380  79.9033200  18.3670830  56.6894720
  79.9336190  19.1436830  55.3902980  80.8813370  29.8609740  71.0389050
  80.3434460  30.5855800  70.7197750  81.1347330  29.3840080  70.2486390
  87.5832450  14.0411700  58.8568260  87.8634740  13.1979600  59.2127680
  86.8098180  14.2734810  59.3707010  78.9026940  16.3304090  56.3159260
  79.2052840  16.3371520  55.4078410  79.6421530  15.9801950  56.8126920
  83.7375580  31.0960950  71.2975700  83.6634280  31.9996090  71.6048070
  82.8354420  30.7772850  71.2697770  82.1211870  15.2738710  57.3015460
  81.7733870  14.5962700  56.7217910  82.3224640  14.8128220  58.1158850
  84.2860910  30.2619460  58.9202060  85.1811700  30.6004430  58.9420820
  84.3178540  29.5398870  58.2926340  77.9257070  25.6346510  57.1489060
  78.3631940  26.1776180  57.8046640  78.4104800  24.8093460  57.1585400
  75.1402870  28.4235540  64.6009320  75.4705880  27.5556600  64.3687960
  75.5693870  28.6294060  65.4314280  79.7364790  26.7544550  62.2611290
  79.4360330  26.6309520  63.1615200  79.6302280  25.8953140  61.8527020
  75.6293080  29.2906130  67.3390950  75.1924070  29.4706930  68.1715100
  76.1970760  30.0480750  67.1972670  75.4617510  21.8026360  63.6979830
  74.8066350  21.5338000  63.0539530  76.2995460  21.6930840  63.2481810
  89.9506900  25.5175110  69.7244420  89.1366740  25.9472270  69.9870210
  90.3581100  26.1293520  69.1113470  88.4107950  16.5967650  57.9198320
  88.8292830  16.4098630  57.0794980  88.1044010  15.7446700  58.2301250
  76.4993440  22.1878930  68.2383170  76.8666480  22.1006330  69.1179190
  75.9304260  21.4245480  68.1390030  76.0509440  19.0988020  72.1441590
  75.1565490  19.0654780  72.4835300  76.5906990  19.2974810  72.9092840
  74.6755590  19.0125290  59.6405160  73.7719670  19.2755490  59.4656820
  75.1596210  19.2836460  58.8605120  77.2182800  18.0690830  57.5499540
  77.9274500  17.6474050  57.0646820  76.5022740  18.1366060  56.9182890
  76.8656960  14.1230160  56.5902190  77.5885090  14.6639100  56.9083410
  77.1381480  13.8493580  55.7143730  76.5549150  13.3736350  66.4924810
  77.2025340  12.8233730  66.0519970  76.9750990  13.6279500  67.3140620
  90.0082950  30.2693710  63.2512690  90.6042020  29.9478280  62.5747110
  90.2661100  29.7965530  64.0425960  76.3081150  13.5292020  69.2350130
  75.9595970  13.9855840  70.0008310  75.9768850  12.6349150  69.3172560
  81.6151550  28.2571210  69.0013040  81.3742910  28.5245770  68.1143560
  82.5554190  28.4276940  69.0563900  77.7533550  29.6473870  70.5201100
  77.1593870  29.5158570  71.2591140  77.7457390  28.8112010  70.0543200
  87.1988570  12.9406100  68.7231130  86.3248410  13.2741210  68.5204060
  87.0899320  12.4679280  69.5483000  88.1060550  15.1476970  70.1072850
  87.7773910  14.3328730  69.7274580  89.0542850  15.1046780  69.9838540
  90.5595160  30.9189010  67.0810420  90.0998130  31.6704820  66.7068440
  89.9307620  30.1995480  67.0225220  77.3845780  27.0132250  69.4709140
  76.6579840  26.3937540  69.4035090  77.4454930  27.4072860  68.6007220
  80.9890880  29.2277250  66.2558550  81.5055900  28.6164610  65.7306810
  81.6388260  29.7306030  66.7469560  83.7286380  30.1185740  67.0827530
  84.0164190  29.8640040  66.2060540  84.2409600  29.5663100  67.6733100
  84.9463390  13.8575940  67.6624040  84.1635180  14.3321440  67.9420800
  84.6526320  12.9530770  67.5537220  89.4984460  14.5599040  65.7073130
  89.9392550  14.5044140  64.8594730  89.2292050  15.4757050  65.7783310
  75.6675780  30.3306640  62.6805900  75.4997820  29.6977320  63.3787790
  74.8010290  30.5366040  62.3300090  76.2903800  14.1623420  60.1837760
  77.0483160  14.2752300  59.6101790  75.8280970  14.9992620  60.1381190
  82.8317610  16.2762690  63.1740070  82.0192120  15.9019580  62.8335950
  83.3359250  15.5207770  63.4761260  87.3342590  12.9405140  64.4123140
  87.9371960  13.5125350  64.8871660  86.5935580  13.5044580  64.1897040
  90.4777190  13.3426700  59.6863420  90.6727820  14.2410150  59.9530850
  89.6907060  13.1113780  60.1796370  77.2738480  29.0239870  60.1256040
  76.7486100  29.4047900  59.4218000  77.1983060  29.6490640  60.8465750
  78.6628950  14.6887470  58.7239730  79.1921710  13.9017270  58.5947680
  79.2957270  15.3678660  58.9575260  80.8566790  14.4262610  61.7785120
  80.2269530  13.7249920  61.9455250  80.3171930  15.1866740  61.5618280
  79.8731450  30.9722250  59.0005290  80.6050270  30.6881530  58.4529180
  80.1325120  30.7335530  59.8904670  79.0346240  27.0886980  59.0051620
  78.4055120  27.5572080  59.5537450  79.1494070  26.2436200  59.4397810
  86.4895960  21.1392640  45.1552820  86.4090010  20.2247250  44.8844530
  86.0760380  21.6359710  44.4492530  84.6214000  22.9171660  47.0362090
  83.8456100  22.4372100  47.3260660  85.2726930  22.2377310  46.8618250
  78.6379830  23.2291470  47.9137850  77.8064710  22.9740180  48.3134360
  79.2460810  23.3002240  48.6495770  88.6421430  27.3231850  45.8161220
  88.1802960  26.5519090  46.1448390  89.4546980  27.3497920  46.3213670
  78.6181090  27.2631560  48.1095870  78.9209130  26.3729300  47.9306090
  79.3624680  27.8201780  47.8818120  77.0471780  18.1893360  41.6980240
  76.1588480  18.5309330  41.5960120  77.3312970  17.9893680  40.8061070
  75.0104790  20.7899010  47.5819940  75.5820900  20.0221210  47.5823580
  75.0106330  21.0887770  46.6726550  84.8684740  29.6089860  45.4365210
  84.2496180  30.0647360  44.8659650  85.7236520  29.7641320  45.0354910
  84.0622990  25.5928850  47.0432250  83.9931270  24.6518790  46.8821380
  84.8242850  25.6830260  47.6154820  76.2529660  16.1983370  49.3688870
  76.0732500  15.3009120  49.6491630  75.8509740  16.7455240  50.0435820
  85.0928160  18.3999230  47.2701180  85.4692980  17.5271110  47.1574850
  84.9947670  18.7357930  46.3791620  79.2233170  16.7724860  42.7318620
  79.3299920  17.6728590  43.0387380  78.3125530  16.7242830  42.4413270
  88.8752280  15.8949670  44.2029520  89.6961900  15.4046240  44.2455000
  88.9086360  16.4847330  44.9561360  76.8716330  18.6943870  47.9771210
  77.5526440  18.9582240  48.5958610  76.5564380  17.8544740  48.3109220
  81.0640900  19.7411230  47.0643800  81.5719120  20.2392200  47.7048820
  81.5954140  18.9646430  46.8883160  79.3477000  14.3809790  51.3307220
  79.3495440  14.8982180  50.5253120  78.5181310  13.9039970  51.3077150
  85.7348090  24.4929100  42.8297120  85.1165360  24.9578550  42.2659840
  86.2471340  25.1856580  43.2466630  80.5979850  24.0204970  49.5080720
  80.2649230  24.6473890  50.1501790  80.7746530  24.5466850  48.7282390
  89.1113760  17.8350050  46.9757060  88.4069330  18.1234940  47.5560170
  89.4725920  18.6450160  46.6156620  79.0292330  16.0919750  49.3377670
  79.3709140  16.9361800  49.0431540  78.0908140  16.2403490  49.4543010
  79.8098950  25.9885770  51.3229900  80.4272950  26.6636850  51.0414350
  78.9492070  26.3973750  51.2317400  75.1031290  25.1785630  40.2036750
  74.7259270  25.6672730  39.4721650  75.3604360  25.8510910  40.8343280
  82.7120220  13.5802020  45.6622260  83.0195200  13.0248910  44.9457760
  81.7820920  13.7146480  45.4795250  88.2635280  29.2969310  47.9529720
  88.2762440  28.8931600  47.0851980  87.7110500  30.0716600  47.8491150
  89.5580700  26.0185530  43.0419890  89.4477030  25.0759860  43.1669310
  89.5548950  26.3801170  43.9282650  87.6620720  24.1999150  49.2812330
  88.0789510  23.9859260  48.4465790  88.3860540  24.4571940  49.8520950
  85.1000980  21.6450850  42.3982380  84.1730260  21.5788230  42.6270850
  85.2525800  22.5830980  42.2837620  85.0870060  17.9167850  39.3949540
  84.1473730  18.0781810  39.4802000  85.4053320  18.6353530  38.8485530
  89.1298270  23.2071150  42.9017630  88.5110690  22.8690700  42.2543930
  89.1122720  22.5630910  43.6096820  88.5724830  19.3855690  50.3183440
  88.1596010  20.2109400  50.5723430  87.8400780  18.8000730  50.1259800
  80.7057620  22.1715590  45.1802110  80.3014620  21.4592840  44.6848010
  80.7920740  21.8268830  46.0690150  81.1739320  25.8583150  47.3441320
  80.8767610  25.2528620  46.6649100  82.1239140  25.8960460  47.2330680
  79.4186240  18.9458800  48.9601150  79.9700830  19.0554140  48.1854400
  79.9329750  19.3196400  49.6756380  89.2624930  29.4315020  51.0064420
  88.7855490  30.2387210  50.8137030  88.5786720  28.7793350  51.1590630
  80.2657750  25.5964840  53.9949120  79.3686280  25.8204810  54.2422520
  80.2910620  25.7199780  53.0460520  87.3062970  22.4457960  39.9090380
  87.7456250  21.6080390  39.7628200  88.0191390  23.0787360  39.9954520
  79.0928970  22.4678160  52.5706490  78.9536740  23.3400960  52.9393890
  78.2110330  22.1250970  52.4254430  85.4158350  27.3854030  43.8771620
  85.8554260  28.1278360  43.4627010  85.3545240  27.6280600  44.8010580
  80.8909320  28.4099860  54.7791640  80.8624750  28.8142810  53.9120070
  80.7274290  27.4810220  54.6163240  77.4062250  21.0660570  42.6808760
  77.2859850  21.7922660  42.0690030  77.0963140  20.2963480  42.2036670
  75.0447620  24.2375710  48.4877400  75.1228040  24.3724480  47.5433120
  75.6589300  23.5291600  48.6805520  76.2895250  25.9375900  44.8983580
  75.8823330  26.0790490  44.0437180  77.1808260  25.6536060  44.6954790
  86.1074130  30.0867810  51.8050630  86.6218800  29.9975820  52.6073060
  85.2643210  30.4327510  52.0978540  88.0828530  30.3723150  41.2334630
  87.9229670  30.0826090  42.1316460  87.9175240  29.5963280  40.6979860
  80.5616910  30.1521680  43.0106250  80.3859390  29.2357220  42.7974050
  79.7072650  30.5108970  43.2504050  87.7854660  27.8810710  39.7932630
  87.0919820  27.8788000  39.1334910  88.5277520  27.4570030  39.3626800
  87.3504590  29.5073420  43.8681120  87.8061540  28.7262800  44.1819740
  87.6897110  30.2180240  44.4122300  75.1007140  25.2789880  51.0271860
  75.2638180  24.8095240  50.2091230  75.5659590  24.7713440  51.6920700
  79.8725910  14.4095640  46.0632430  79.4294060  15.1905180  45.7316950
  80.4310900  14.7325530  46.7703370  84.1595720  17.2764160  51.6667750
  83.6975090  17.4847180  52.4787690  83.7573830  16.4623510  51.3638420
  89.1600230  18.4973110  52.7964410  88.3093820  18.1978860  53.1173480
  89.0002020  18.7415120  51.8848230  86.2549940  19.9974860  54.8963200
  86.5803350  19.1638610  54.5565430  87.0430270  20.5203380  55.0441530
  82.9884730  14.0306340  40.9438260  82.3638910  14.0266210  41.6691570
  82.9014850  13.1637300  40.5474230  81.9101810  14.9542970  47.9222030
  82.2074140  15.8605800  47.8414050  82.4587370  14.4661750  47.3081600
  79.6640130  19.5329210  43.7913680  79.4381050  19.3166380  44.6960300
  78.8832660  19.9657670  43.4459650  86.8937890  19.5392580  42.3904330
  86.2946780  20.2628380  42.2067950  87.4417500  19.4769360  41.6080780
  82.1039340  20.4314790  54.4573950  82.0082940  19.4909520  54.3074350
  82.9471320  20.6529860  54.0622020  85.5002760  18.1756120  44.4207610
  85.8932330  18.4928320  43.6076300  85.8619610  17.2968000  44.5352130
  77.2349880  16.8428460  52.6107730  76.8413270  17.6903670  52.8180510
  76.5468280  16.2054830  52.8016370  83.8094930  16.9263430  55.6804470
  83.1193250  16.7335630  56.3150560  84.5527230  17.2098070  56.2128770
  74.5366930  14.7656920  46.6437810  74.2479980  15.3359780  47.3562790
  75.2812690  14.2861370  47.0069040  74.7237160  18.7077040  37.8540530
  74.6411830  19.6507800  37.9955520  74.3720220  18.5651950  36.9752880
  86.0857900  20.7661870  48.5158390  85.3539020  21.2748680  48.8648490
  85.6882240  19.9491850  48.2147170  82.5235290  17.4416070  46.9210880
  82.5271350  17.0006020  46.0715420  83.4186410  17.7633400  47.0282700
  78.3737670  17.3242560  45.8805090  78.0337720  17.8017790  46.6372140
  77.6114990  16.8707680  45.5206190  82.5855440  18.4428150  39.9117640
  82.7068260  18.4014630  40.8603460  82.2003950  19.3052300  39.7564370
  86.5483810  16.2195550  47.9281330  86.5656550  16.6704200  48.7723180
  86.2999390  15.3201190  48.1414770  81.5976940  20.7529290  39.3100940
  81.0293840  20.3047540  38.6836850  82.3065940  21.1122070  38.7766090
  89.9754560  13.6327730  53.7667710  90.3000330  12.9017390  54.2925690
  90.0111070  13.3141370  52.8648700  76.6746120  24.6541310  53.1867670
  76.2900910  24.0134980  53.7850630  76.9858310  25.3577430  53.7562400
  82.8243260  21.5017850  48.6676290  83.1913390  21.0276420  49.4137630
  82.6348320  22.3759420  49.0084630  75.6883750  16.2461540  44.7969760
  75.4030670  15.8817210  45.6348380  75.6262610  15.5142000  44.1832900
  80.6142630  20.5426490  50.9860500  80.3099700  21.4218470  51.2110860
  81.5689090  20.6026280  51.0217940  79.1424420  24.7487480  41.5827350
  78.3686680  24.2085100  41.4226070  79.8719050  24.2294090  41.2445110
  89.9012400  23.7452840  47.3753740  90.6211520  24.2408130  46.9849850
  89.6994220  23.0670730  46.7307610  85.3622340  15.1390800  41.5183130
  84.5486950  14.6403970  41.4428440  85.1684290  15.9789050  41.1019480
  85.2831200  23.8161900  53.2622740  85.2168510  22.8957570  53.0080330
  84.6536340  23.9137340  53.9767380  88.0770730  19.5110450  39.8145290
  88.9650350  19.8227680  39.6396630  88.0475820  18.6382700  39.4225870
  79.1861820  24.4167860  45.2206160  79.7040490  23.6136120  45.1663050
  78.7345840  24.3547000  46.0622990  84.0731320  25.6834140  40.4933460
  84.4147020  26.4276370  39.9976780  83.2444030  25.9965260  40.8558290
  76.6706360  21.3829230  52.1331860  76.3121300  22.0483080  52.7205200
  76.3760920  20.5512780  52.5044480  79.8719480  21.8413470  55.0171410
  79.5719620  21.9870650  54.1199230  80.6430720  21.2818760  54.9244800
  85.2147930  26.6382470  53.0126540  85.2292470  25.7063430  52.7945450
  84.5073030  26.7242230  53.6516310  86.9558730  25.0049980  45.8578970
  87.3082550  24.4078110  45.1980340  86.0721060  24.6794210  46.0287220
  83.0422010  25.7647670  43.2649380  83.7293140  26.3116880  43.6456970
  82.2554430  26.3088400  43.2998990  75.1814410  21.3820490  38.7566460
  76.0509260  21.6645290  39.0402380  74.6904730  22.1956360  38.6415270
  82.3449220  22.7693700  42.8774740  82.8012000  23.5798950  43.1034930
  81.9937430  22.4516840  43.7093230  84.6481830  28.2800040  50.1067040
  85.2924050  28.4859420  50.7840460  85.0111270  27.5188440  49.6537890
  78.2461000  13.1131350  43.3497260  78.1175630  13.1049250  44.2982180
  77.4223020  13.4514440  42.9988270  85.9213910  26.2832390  48.8244490
  86.5636140  25.5825550  48.9376660  86.4463260  27.0630830  48.6441380
  89.7669630  26.5681010  38.5483630  89.5407210  25.8511450  39.1408270
  89.3765830  26.3193450  37.7105380  87.6951530  27.0827290  52.0280550
  88.0307770  27.6693980  52.7058470  86.7751870  26.9520000  52.2578340
  75.5485660  30.5947870  39.3228090  75.9083300  31.1937210  38.6685360
  75.4078000  31.1407760  40.0963120  75.2454930  14.8722470  52.8103960
  74.5313450  15.0719390  53.4156570  75.6649970  14.0962040  53.1818760
  89.3485880  24.4852950  40.2097790  89.0607580  24.9465640  40.9975670
  90.1438050  24.0250720  40.4782010  75.5327520  28.8602730  53.7970490
  75.6418640  27.9197470  53.6565880  74.8808080  29.1257480  53.1484220
  83.5240110  27.1318620  55.1968610  83.2036980  26.4127860  55.7414300
  82.8498470  27.8073690  55.2704670  81.5654280  27.9779070  40.1401760
  81.5564380  28.7108760  39.5246270  80.6452640  27.7310650  40.2328720
  77.1660920  23.1993960  40.8848520  76.5588870  23.9392860  40.8943820
  77.6410270  23.2893320  40.0586720  86.7393710  17.3644780  50.5605410
  87.1074530  16.5439990  50.8884980  85.8791910  17.4246670  50.9761060
  90.1055740  16.3201720  41.3692970  89.4768900  16.4247390  40.6551200
  89.6107660  16.5398500  42.1586850  84.5513880  28.0407310  38.8026950
  84.6525860  27.8371300  37.8728930  83.6515620  27.7865590  39.0074730
  82.0739770  18.5987670  42.7850850  81.3655920  19.0674010  43.2264460
  82.3584250  17.9409680  43.4196040  83.6995700  20.0184370  50.7843380
  84.1980950  20.4930190  51.4495230  83.8418650  19.0947890  50.9913410
  86.1055200  15.3238330  44.2246640  85.9822980  15.3424460  43.2756150
  87.0539760  15.3717270  44.3445040  83.1931990  30.5593630  43.4974620
  83.4473490  30.5215020  42.5753990  82.2444470  30.4326960  43.4902870
  80.2774790  16.9072750  40.1601560  81.1265320  17.3442900  40.0941750
  79.9106060  17.2193010  40.9873620  89.1984570  21.4785510  45.0733130
  88.2574710  21.4935740  45.2480820  89.5128640  20.6921470  45.5193430
  79.1766210  23.1605110  38.6337090  79.9429480  23.0486470  39.1962520
  79.2540900  22.4643080  37.9813860  77.8712970  20.5930180  39.3169980
  77.9516560  19.6457690  39.4287380  78.7632720  20.9237060  39.4230640
  78.6727680  30.7425570  46.4204520  79.4090160  30.1941030  46.6913090
  79.0568600  31.6081580  46.2810510  75.5573160  26.8099140  42.2946030
  74.6312940  27.0520280  42.2851440  76.0229590  27.6373400  42.1730780
  77.6785960  29.9271640  55.6090100  78.4798690  30.2483690  56.0225500
  77.1637780  29.5667220  56.3310010  81.7829990  29.9155880  38.2430090
  82.5758600  30.2044710  37.7911880  81.2634340  29.4848050  37.5642570
  86.5150590  26.0351510  55.5565510  85.9088750  26.0583110  54.8161260
  86.2104700  25.3034550  56.0932760  87.9450960  29.7631800  54.1674920
  88.8972710  29.6789820  54.1175160  87.7979180  30.4273510  54.8408710
  90.8360160  29.1426010  39.6666830  90.5501670  28.7291150  38.8521010
  90.6379710  30.0713720  39.5467350  75.3983770  22.4145100  54.5526150
  75.9022790  21.8352380  55.1242380  74.6591190  22.6985330  55.0902520
  82.3007390  25.1359290  38.1072440  82.1958030  24.5211640  38.8333820
  82.1331610  24.6125180  37.3235450  82.4521710  23.8216090  54.0861670
  81.6867380  24.3901090  54.0016340  82.6337670  23.5292300  53.1929900
  85.5410120  24.1979320  38.7114430  84.9920220  24.6448620  39.3557170
  86.1629380  23.6928570  39.2352100  89.5945060  25.5521420  54.6436690
  90.3354530  25.8897180  54.1404150  88.8317740  25.7213480  54.0906460
  77.4306850  20.5574690  55.4476220  77.4712190  20.2588560  56.3561450
  78.2852350  20.9582300  55.2883740  81.2085240  23.1570240  40.6079730
  81.6301660  22.9910110  41.4511120  81.3336080  22.3470470  40.1134870
  79.3712660  19.1366790  53.4150710  78.8409120  18.6457740  52.7874050
  80.0400730  19.5650990  52.8808640  83.7212880  22.1807850  37.8556830
  84.2418540  21.4656870  37.4897980  84.3681280  22.8193720  38.1557340
  88.2690720  23.6036250  53.1791900  88.6831740  23.7581330  54.0282320
  87.3341720  23.7291470  53.3417680  88.7412890  20.9432410  55.1831050
  89.3233660  20.1884730  55.0951530  88.9174660  21.4739850  54.4062530
  79.8584960  16.1029160  53.4948000  79.7641830  15.4849910  52.7698870
  79.2782350  16.8295450  53.2677910  82.6246400  14.6602400  50.5275390
  82.1763700  14.6826660  49.6820940  81.9911600  14.2621420  51.1245690
  83.0305950  23.5556730  51.1487830  83.4494060  24.3989460  50.9764070
  82.1114580  23.6928770  50.9194610  85.3669850  21.2872910  52.5325670
  85.4866060  20.6914050  53.2720510  86.2263850  21.3242600  52.1126970
  87.7057750  21.8410100  51.1088180  87.1792970  22.3652720  50.5053320
  88.0489090  22.4737490  51.7397910  80.1044140  19.2303470  37.5537890
  79.9033200  18.3670830  37.9151230  79.9336190  19.1436830  36.6159490
  80.8813370  29.8609740  52.2645560  80.3434460  30.5855800  51.9454260
  81.1347330  29.3840080  51.4742900  82.1338620  17.8294260  53.7901490
  82.7238310  17.5210110  54.4779310  81.3158860  17.3574010  53.9461390
  86.9532050  17.4460070  54.0234510  86.2647570  16.7841610  53.9584500
  87.6738070  16.9998340  54.4682970  87.5832450  14.0411700  40.0824770
  87.8634740  13.1979600  40.4384190  86.8098180  14.2734810  40.5963520
  78.9026940  16.3304090  37.5415770  79.2052840  16.3371520  36.6334920
  79.6421530  15.9801950  38.0383430  83.7375580  31.0960950  52.5232210
  83.6634280  31.9996090  52.8304580  82.8354420  30.7772850  52.4954280
  82.1211870  15.2738710  38.5271970  81.7733870  14.5962700  37.9474420
  82.3224640  14.8128220  39.3415360  84.2860910  30.2619460  40.1458570
  85.1811700  30.6004430  40.1677330  84.3178540  29.5398870  39.5182850
  77.9257070  25.6346510  38.3745570  78.3631940  26.1776180  39.0303150
  78.4104800  24.8093460  38.3841910  75.1402870  28.4235540  45.8265830
  75.4705880  27.5556600  45.5944470  75.5693870  28.6294060  46.6570790
  79.7364790  26.7544550  43.4867800  79.4360330  26.6309520  44.3871710
  79.6302280  25.8953140  43.0783530  75.6293080  29.2906130  48.5647460
  75.1924070  29.4706930  49.3971610  76.1970760  30.0480750  48.4229180
  75.4617510  21.8026360  44.9236340  74.8066350  21.5338000  44.2796040
  76.2995460  21.6930840  44.4738320  89.9506900  25.5175110  50.9500930
  89.1366740  25.9472270  51.2126720  90.3581100  26.1293520  50.3369980
  88.4107950  16.5967650  39.1454830  88.8292830  16.4098630  38.3051490
  88.1044010  15.7446700  39.4557760  76.4993440  22.1878930  49.4639680
  76.8666480  22.1006330  50.3435700  75.9304260  21.4245480  49.3646540
  76.0509440  19.0988020  53.3698100  75.1565490  19.0654780  53.7091810
  76.5906990  19.2974810  54.1349350  89.7385370  15.8819740  55.2549850
  90.6155550  15.8903140  55.6383850  89.7506210  15.1450580  54.6442200
  74.6755590  19.0125290  40.8661670  73.7719670  19.2755490  40.6913330
  75.1596210  19.2836460  40.0861630  77.2182800  18.0690830  38.7756050
  77.9274500  17.6474050  38.2903330  76.5022740  18.1366060  38.1439400
  76.8656960  14.1230160  37.8158700  77.5885090  14.6639100  38.1339920
  77.1381480  13.8493580  36.9400240  76.5549150  13.3736350  47.7181320
  77.2025340  12.8233730  47.2776480  76.9750990  13.6279500  48.5397130
  90.0082950  30.2693710  44.4769200  90.6042020  29.9478280  43.8003620
  90.2661100  29.7965530  45.2682470  76.3081150  13.5292020  50.4606640
  75.9595970  13.9855840  51.2264820  75.9768850  12.6349150  50.5429070
  77.9145520  26.7011620  54.6259830  77.8715150  26.3304530  55.5074290
  78.0456530  27.6389190  54.7661650  81.6151550  28.2571210  50.2269550
  81.3742910  28.5245770  49.3400070  82.5554190  28.4276940  50.2820410
  83.8205970  14.7203900  53.9826060  83.7594860  15.3125730  54.7321470
  84.7606350  14.6129860  53.8376320  86.4580530  14.3773960  53.6218350
  87.0720940  14.6953250  52.9599430  87.0030090  13.8922550  54.2414210
  76.9801790  13.0568220  53.7357410  77.5284780  12.8756270  52.9723520
  77.0457100  12.2662330  54.2713720  77.7533550  29.6473870  51.7457610
  77.1593870  29.5158570  52.4847650  77.7457390  28.8112010  51.2799710
  87.1988570  12.9406100  49.9487640  86.3248410  13.2741210  49.7460570
  87.0899320  12.4679280  50.7739510  88.1060550  15.1476970  51.3329360
  87.7773910  14.3328730  50.9531090  89.0542850  15.1046780  51.2095050
  90.5595160  30.9189010  48.3066930  90.0998130  31.6704820  47.9324950
  89.9307620  30.1995480  48.2481730  77.3845780  27.0132250  50.6965650
  76.6579840  26.3937540  50.6291600  77.4454930  27.4072860  49.8263730
  80.9890880  29.2277250  47.4815060  81.5055900  28.6164610  46.9563320
  81.6388260  29.7306030  47.9726070  83.7286380  30.1185740  48.3084040
  84.0164190  29.8640040  47.4317050  84.2409600  29.5663100  48.8989610
  84.9463390  13.8575940  48.8880550  84.1635180  14.3321440  49.1677310
  84.6526320  12.9530770  48.7793730  89.4984460  14.5599040  46.9329640
  89.9392550  14.5044140  46.0851240  89.2292050  15.4757050  47.0039820
  75.6675780  30.3306640  43.9062410  75.4997820  29.6977320  44.6044300
  74.8010290  30.5366040  43.5556600  76.2903800  14.1623420  41.4094270
  77.0483160  14.2752300  40.8358300  75.8280970  14.9992620  41.3637700
  82.8317610  16.2762690  44.3996580  82.0192120  15.9019580  44.0592460
  83.3359250  15.5207770  44.7017770  87.3342590  12.9405140  45.6379650
  87.9371960  13.5125350  46.1128170  86.5935580  13.5044580  45.4153550
  90.4777190  13.3426700  40.9119930  90.6727820  14.2410150  41.1787360
  89.6907060  13.1113780  41.4052880  77.2738480  29.0239870  41.3512550
  76.7486100  29.4047900  40.6474510  77.1983060  29.6490640  42.0722260
  78.6628950  14.6887470  39.9496240  79.1921710  13.9017270  39.8204190
  79.2957270  15.3678660  40.1831770  80.8566790  14.4262610  43.0041630
  80.2269530  13.7249920  43.1711760  80.3171930  15.1866740  42.7874790
  83.7958740  31.0401840  55.6752240  84.7226050  30.8046110  55.7188200
  83.7809170  31.8673840  55.1938270  80.9822350  13.7046590  55.4394120
  80.7006620  14.2080190  54.6754940  81.3642050  12.9068340  55.0736250
  79.8731450  30.9722250  40.2261800  80.6050270  30.6881530  39.6785690
  80.1325120  30.7335530  41.1161180  79.0346240  27.0886980  40.2308130
  78.4055120  27.5572080  40.7793960  79.1494070  26.2436200  40.6654320
  87.5837810  13.1200170  56.0174590  87.4703260  13.4394780  56.9126110
  88.4007550  13.5212680  55.7211870  86.4895960  21.1392640  26.3809330
  86.4090010  20.2247250  26.1101040  86.0760380  21.6359710  25.6749040
  84.6214000  22.9171660  28.2618600  83.8456100  22.4372100  28.5517170
  85.2726930  22.2377310  28.0874760  78.6379830  23.2291470  29.1394360
  77.8064710  22.9740180  29.5390870  79.2460810  23.3002240  29.8752280
  88.6421430  27.3231850  27.0417730  88.1802960  26.5519090  27.3704900
  89.4546980  27.3497920  27.5470180  78.6181090  27.2631560  29.3352380
  78.9209130  26.3729300  29.1562600  79.3624680  27.8201780  29.1074630
  77.0471780  18.1893360  22.9236750  76.1588480  18.5309330  22.8216630
  77.3312970  17.9893680  22.0317580  75.0104790  20.7899010  28.8076450
  75.5820900  20.0221210  28.8080090  75.0106330  21.0887770  27.8983060
  84.8684740  29.6089860  26.6621720  84.2496180  30.0647360  26.0916160
  85.7236520  29.7641320  26.2611420  84.0622990  25.5928850  28.2688760
  83.9931270  24.6518790  28.1077890  84.8242850  25.6830260  28.8411330
  76.2529660  16.1983370  30.5945380  76.0732500  15.3009120  30.8748140
  75.8509740  16.7455240  31.2692330  85.0928160  18.3999230  28.4957690
  85.4692980  17.5271110  28.3831360  84.9947670  18.7357930  27.6048130
  79.2233170  16.7724860  23.9575130  79.3299920  17.6728590  24.2643890
  78.3125530  16.7242830  23.6669780  88.8752280  15.8949670  25.4286030
  89.6961900  15.4046240  25.4711510  88.9086360  16.4847330  26.1817870
  76.8716330  18.6943870  29.2027720  77.5526440  18.9582240  29.8215120
  76.5564380  17.8544740  29.5365730  81.0640900  19.7411230  28.2900310
  81.5719120  20.2392200  28.9305330  81.5954140  18.9646430  28.1139670
  79.3477000  14.3809790  32.5563730  79.3495440  14.8982180  31.7509630
  78.5181310  13.9039970  32.5333660  85.7348090  24.4929100  24.0553630
  85.1165360  24.9578550  23.4916350  86.2471340  25.1856580  24.4723140
  80.5979850  24.0204970  30.7337230  80.2649230  24.6473890  31.3758300
  80.7746530  24.5466850  29.9538900  89.1113760  17.8350050  28.2013570
  88.4069330  18.1234940  28.7816680  89.4725920  18.6450160  27.8413130
  79.0292330  16.0919750  30.5634180  79.3709140  16.9361800  30.2688050
  78.0908140  16.2403490  30.6799520  79.8098950  25.9885770  32.5486410
  80.4272950  26.6636850  32.2670860  78.9492070  26.3973750  32.4573910
  75.1031290  25.1785630  21.4293260  74.7259270  25.6672730  20.6978160
  75.3604360  25.8510910  22.0599790  82.7120220  13.5802020  26.8878770
  83.0195200  13.0248910  26.1714270  81.7820920  13.7146480  26.7051760
  88.2635280  29.2969310  29.1786230  88.2762440  28.8931600  28.3108490
  87.7110500  30.0716600  29.0747660  89.5580700  26.0185530  24.2676400
  89.4477030  25.0759860  24.3925820  89.5548950  26.3801170  25.1539160
  87.6620720  24.1999150  30.5068840  88.0789510  23.9859260  29.6722300
  88.3860540  24.4571940  31.0777460  85.1000980  21.6450850  23.6238890
  84.1730260  21.5788230  23.8527360  85.2525800  22.5830980  23.5094130
  85.0870060  17.9167850  20.6206050  84.1473730  18.0781810  20.7058510
  85.4053320  18.6353530  20.0742040  89.1298270  23.2071150  24.1274140
  88.5110690  22.8690700  23.4800440  89.1122720  22.5630910  24.8353330
  88.5724830  19.3855690  31.5439950  88.1596010  20.2109400  31.7979940
  87.8400780  18.8000730  31.3516310  80.7057620  22.1715590  26.4058620
  80.3014620  21.4592840  25.9104520  80.7920740  21.8268830  27.2946660
  81.1739320  25.8583150  28.5697830  80.8767610  25.2528620  27.8905610
  82.1239140  25.8960460  28.4587190  79.4186240  18.9458800  30.1857660
  79.9700830  19.0554140  29.4110910  79.9329750  19.3196400  30.9012890
  89.2624930  29.4315020  32.2320930  88.7855490  30.2387210  32.0393540
  88.5786720  28.7793350  32.3847140  80.2657750  25.5964840  35.2205630
  79.3686280  25.8204810  35.4679030  80.2910620  25.7199780  34.2717030
  87.3062970  22.4457960  21.1346890  87.7456250  21.6080390  20.9884710
  88.0191390  23.0787360  21.2211030  79.0928970  22.4678160  33.7963000
  78.9536740  23.3400960  34.1650400  78.2110330  22.1250970  33.6510940
  85.4158350  27.3854030  25.1028130  85.8554260  28.1278360  24.6883520
  85.3545240  27.6280600  26.0267090  80.8909320  28.4099860  36.0048150
  80.8624750  28.8142810  35.1376580  80.7274290  27.4810220  35.8419750
  77.4062250  21.0660570  23.9065270  77.2859850  21.7922660  23.2946540
  77.0963140  20.2963480  23.4293180  75.0447620  24.2375710  29.7133910
  75.1228040  24.3724480  28.7689630  75.6589300  23.5291600  29.9062030
  76.2895250  25.9375900  26.1240090  75.8823330  26.0790490  25.2693690
  77.1808260  25.6536060  25.9211300  86.1074130  30.0867810  33.0307140
  86.6218800  29.9975820  33.8329570  85.2643210  30.4327510  33.3235050
  88.0828530  30.3723150  22.4591140  87.9229670  30.0826090  23.3572970
  87.9175240  29.5963280  21.9236370  80.5616910  30.1521680  24.2362760
  80.3859390  29.2357220  24.0230560  79.7072650  30.5108970  24.4760560
  87.7854660  27.8810710  21.0189140  87.0919820  27.8788000  20.3591420
  88.5277520  27.4570030  20.5883310  87.3504590  29.5073420  25.0937630
  87.8061540  28.7262800  25.4076250  87.6897110  30.2180240  25.6378810
  75.1007140  25.2789880  32.2528370  75.2638180  24.8095240  31.4347740
  75.5659590  24.7713440  32.9177210  79.8725910  14.4095640  27.2888940
  79.4294060  15.1905180  26.9573460  80.4310900  14.7325530  27.9959880
  84.1595720  17.2764160  32.8924260  83.6975090  17.4847180  33.7044200
  83.7573830  16.4623510  32.5894930  89.1600230  18.4973110  34.0220920
  88.3093820  18.1978860  34.3429990  89.0002020  18.7415120  33.1104740
  86.2549940  19.9974860  36.1219710  86.5803350  19.1638610  35.7821940
  87.0430270  20.5203380  36.2698040  82.9884730  14.0306340  22.1694770
  82.3638910  14.0266210  22.8948080  82.9014850  13.1637300  21.7730740
  81.9101810  14.9542970  29.1478540  82.2074140  15.8605800  29.0670560
  82.4587370  14.4661750  28.5338110  79.6640130  19.5329210  25.0170190
  79.4381050  19.3166380  25.9216810  78.8832660  19.9657670  24.6716160
  86.8937890  19.5392580  23.6160840  86.2946780  20.2628380  23.4324460
  87.4417500  19.4769360  22.8337290  82.1039340  20.4314790  35.6830460
  82.0082940  19.4909520  35.5330860  82.9471320  20.6529860  35.2878530
  85.5002760  18.1756120  25.6464120  85.8932330  18.4928320  24.8332810
  85.8619610  17.2968000  25.7608640  77.2349880  16.8428460  33.8364240
  76.8413270  17.6903670  34.0437020  76.5468280  16.2054830  34.0272880
  83.8094930  16.9263430  36.9060980  83.1193250  16.7335630  37.5407070
  84.5527230  17.2098070  37.4385280  74.5366930  14.7656920  27.8694320
  74.2479980  15.3359780  28.5819300  75.2812690  14.2861370  28.2325550
  74.7237160  18.7077040  19.0797040  74.6411830  19.6507800  19.2212030
  74.3720220  18.5651950  18.2009390  86.0857900  20.7661870  29.7414900
  85.3539020  21.2748680  30.0905000  85.6882240  19.9491850  29.4403680
  82.5235290  17.4416070  28.1467390  82.5271350  17.0006020  27.2971930
  83.4186410  17.7633400  28.2539210  78.3737670  17.3242560  27.1061600
  78.0337720  17.8017790  27.8628650  77.6114990  16.8707680  26.7462700
  82.5855440  18.4428150  21.1374150  82.7068260  18.4014630  22.0859970
  82.2003950  19.3052300  20.9820880  86.5483810  16.2195550  29.1537840
  86.5656550  16.6704200  29.9979690  86.2999390  15.3201190  29.3671280
  81.5976940  20.7529290  20.5357450  81.0293840  20.3047540  19.9093360
  82.3065940  21.1122070  20.0022600  89.9754560  13.6327730  34.9924220
  90.3000330  12.9017390  35.5182200  90.0111070  13.3141370  34.0905210
  76.6746120  24.6541310  34.4124180  76.2900910  24.0134980  35.0107140
  76.9858310  25.3577430  34.9818910  82.8243260  21.5017850  29.8932800
  83.1913390  21.0276420  30.6394140  82.6348320  22.3759420  30.2341140
  75.6883750  16.2461540  26.0226270  75.4030670  15.8817210  26.8604890
  75.6262610  15.5142000  25.4089410  80.6142630  20.5426490  32.2117010
  80.3099700  21.4218470  32.4367370  81.5689090  20.6026280  32.2474450
  79.1424420  24.7487480  22.8083860  78.3686680  24.2085100  22.6482580
  79.8719050  24.2294090  22.4701620  89.9012400  23.7452840  28.6010250
  90.6211520  24.2408130  28.2106360  89.6994220  23.0670730  27.9564120
  85.3622340  15.1390800  22.7439640  84.5486950  14.6403970  22.6684950
  85.1684290  15.9789050  22.3275990  85.2831200  23.8161900  34.4879250
  85.2168510  22.8957570  34.2336840  84.6536340  23.9137340  35.2023890
  88.0770730  19.5110450  21.0401800  88.9650350  19.8227680  20.8653140
  88.0475820  18.6382700  20.6482380  79.1861820  24.4167860  26.4462670
  79.7040490  23.6136120  26.3919560  78.7345840  24.3547000  27.2879500
  84.0731320  25.6834140  21.7189970  84.4147020  26.4276370  21.2233290
  83.2444030  25.9965260  22.0814800  76.6706360  21.3829230  33.3588370
  76.3121300  22.0483080  33.9461710  76.3760920  20.5512780  33.7300990
  79.8719480  21.8413470  36.2427920  79.5719620  21.9870650  35.3455740
  80.6430720  21.2818760  36.1501310  85.2147930  26.6382470  34.2383050
  85.2292470  25.7063430  34.0201960  84.5073030  26.7242230  34.8772820
  86.9558730  25.0049980  27.0835480  87.3082550  24.4078110  26.4236850
  86.0721060  24.6794210  27.2543730  83.0422010  25.7647670  24.4905890
  83.7293140  26.3116880  24.8713480  82.2554430  26.3088400  24.5255500
  75.1814410  21.3820490  19.9822970  76.0509260  21.6645290  20.2658890
  74.6904730  22.1956360  19.8671780  82.3449220  22.7693700  24.1031250
  82.8012000  23.5798950  24.3291440  81.9937430  22.4516840  24.9349740
  84.6481830  28.2800040  31.3323550  85.2924050  28.4859420  32.0096970
  85.0111270  27.5188440  30.8794400  78.2461000  13.1131350  24.5753770
  78.1175630  13.1049250  25.5238690  77.4223020  13.4514440  24.2244780
  85.9213910  26.2832390  30.0501000  86.5636140  25.5825550  30.1633170
  86.4463260  27.0630830  29.8697890  89.7669630  26.5681010  19.7740140
  89.5407210  25.8511450  20.3664780  89.3765830  26.3193450  18.9361890
  87.6951530  27.0827290  33.2537060  88.0307770  27.6693980  33.9314980
  86.7751870  26.9520000  33.4834850  75.5485660  30.5947870  20.5484600
  75.9083300  31.1937210  19.8941870  75.4078000  31.1407760  21.3219630
  75.2454930  14.8722470  34.0360470  74.5313450  15.0719390  34.6413080
  75.6649970  14.0962040  34.4075270  89.3485880  24.4852950  21.4354300
  89.0607580  24.9465640  22.2232180  90.1438050  24.0250720  21.7038520
  75.5327520  28.8602730  35.0227000  75.6418640  27.9197470  34.8822390
  74.8808080  29.1257480  34.3740730  83.5240110  27.1318620  36.4225120
  83.2036980  26.4127860  36.9670810  82.8498470  27.8073690  36.4961180
  81.5654280  27.9779070  21.3658270  81.5564380  28.7108760  20.7502780
  80.6452640  27.7310650  21.4585230  77.1660920  23.1993960  22.1105030
  76.5588870  23.9392860  22.1200330  77.6410270  23.2893320  21.2843230
  86.7393710  17.3644780  31.7861920  87.1074530  16.5439990  32.1141490
  85.8791910  17.4246670  32.2017570  90.1055740  16.3201720  22.5949480
  89.4768900  16.4247390  21.8807710  89.6107660  16.5398500  23.3843360
  84.5513880  28.0407310  20.0283460  84.6525860  27.8371300  19.0985440
  83.6515620  27.7865590  20.2331240  82.0739770  18.5987670  24.0107360
  81.3655920  19.0674010  24.4520970  82.3584250  17.9409680  24.6452550
  83.6995700  20.0184370  32.0099890  84.1980950  20.4930190  32.6751740
  83.8418650  19.0947890  32.2169920  86.1055200  15.3238330  25.4503150
  85.9822980  15.3424460  24.5012660  87.0539760  15.3717270  25.5701550
  83.1931990  30.5593630  24.7231130  83.4473490  30.5215020  23.8010500
  82.2444470  30.4326960  24.7159380  80.2774790  16.9072750  21.3858070
  81.1265320  17.3442900  21.3198260  79.9106060  17.2193010  22.2130130
  89.1984570  21.4785510  26.2989640  88.2574710  21.4935740  26.4737330
  89.5128640  20.6921470  26.7449940  79.1766210  23.1605110  19.8593600
  79.9429480  23.0486470  20.4219030  79.2540900  22.4643080  19.2070370
  77.8712970  20.5930180  20.5426490  77.9516560  19.6457690  20.6543890
  78.7632720  20.9237060  20.6487150  78.6727680  30.7425570  27.6461030
  79.4090160  30.1941030  27.9169600  79.0568600  31.6081580  27.5067020
  75.5573160  26.8099140  23.5202540  74.6312940  27.0520280  23.5107950
  76.0229590  27.6373400  23.3987290  77.6785960  29.9271640  36.8346610
  78.4798690  30.2483690  37.2482010  77.1637780  29.5667220  37.5566520
  81.7829990  29.9155880  19.4686600  82.5758600  30.2044710  19.0168390
  81.2634340  29.4848050  18.7899080  86.5150590  26.0351510  36.7822020
  85.9088750  26.0583110  36.0417770  86.2104700  25.3034550  37.3189270
  87.9450960  29.7631800  35.3931430  88.8972710  29.6789820  35.3431670
  87.7979180  30.4273510  36.0665220  90.8360160  29.1426010  20.8923340
  90.5501670  28.7291150  20.0777520  90.6379710  30.0713720  20.7723860
  75.3983770  22.4145100  35.7782660  75.9022790  21.8352380  36.3498890
  74.6591190  22.6985330  36.3159030  82.3007390  25.1359290  19.3328950
  82.1958030  24.5211640  20.0590330  82.1331610  24.6125180  18.5491960
  82.4521710  23.8216090  35.3118180  81.6867380  24.3901090  35.2272850
  82.6337670  23.5292300  34.4186410  85.5410120  24.1979320  19.9370940
  84.9920220  24.6448620  20.5813680  86.1629380  23.6928570  20.4608610
  89.5945060  25.5521420  35.8693200  90.3354530  25.8897180  35.3660660
  88.8317740  25.7213480  35.3162970  77.4306850  20.5574690  36.6732730
  77.4712190  20.2588560  37.5817960  78.2852350  20.9582300  36.5140250
  81.2085240  23.1570240  21.8336240  81.6301660  22.9910110  22.6767630
  81.3336080  22.3470470  21.3391380  79.3712660  19.1366790  34.6407220
  78.8409120  18.6457740  34.0130560  80.0400730  19.5650990  34.1065150
  83.7212880  22.1807850  19.0813340  84.2418540  21.4656870  18.7154490
  84.3681280  22.8193720  19.3813850  88.2690720  23.6036250  34.4048410
  88.6831740  23.7581330  35.2538830  87.3341720  23.7291470  34.5674190
  88.7412890  20.9432410  36.4087560  89.3233660  20.1884730  36.3208040
  88.9174660  21.4739850  35.6319040  79.8584960  16.1029160  34.7204510
  79.7641830  15.4849910  33.9955380  79.2782350  16.8295450  34.4934420
  82.6246400  14.6602400  31.7531900  82.1763700  14.6826660  30.9077450
  81.9911600  14.2621420  32.3502200  83.0305950  23.5556730  32.3744340
  83.4494060  24.3989460  32.2020580  82.1114580  23.6928770  32.1451120
  85.3669850  21.2872910  33.7582180  85.4866060  20.6914050  34.4977020
  86.2263850  21.3242600  33.3383480  87.7057750  21.8410100  32.3344690
  87.1792970  22.3652720  31.7309830  88.0489090  22.4737490  32.9654420
  80.1044140  19.2303470  18.7794400  79.9033200  18.3670830  19.1407740
  79.9336190  19.1436830  17.8416000  80.8813370  29.8609740  33.4902070
  80.3434460  30.5855800  33.1710770  81.1347330  29.3840080  32.6999410
  82.1338620  17.8294260  35.0158000  82.7238310  17.5210110  35.7035820
  81.3158860  17.3574010  35.1717900  86.9532050  17.4460070  35.2491020
  86.2647570  16.7841610  35.1841010  87.6738070  16.9998340  35.6939480
  87.5832450  14.0411700  21.3081280  87.8634740  13.1979600  21.6640700
  86.8098180  14.2734810  21.8220030  78.9026940  16.3304090  18.7672280
  79.2052840  16.3371520  17.8591430  79.6421530  15.9801950  19.2639940
  83.7375580  31.0960950  33.7488720  83.6634280  31.9996090  34.0561090
  82.8354420  30.7772850  33.7210790  82.1211870  15.2738710  19.7528480
  81.7733870  14.5962700  19.1730930  82.3224640  14.8128220  20.5671870
  84.2860910  30.2619460  21.3715080  85.1811700  30.6004430  21.3933840
  84.3178540  29.5398870  20.7439360  77.9257070  25.6346510  19.6002080
  78.3631940  26.1776180  20.2559660  78.4104800  24.8093460  19.6098420
  75.1402870  28.4235540  27.0522340  75.4705880  27.5556600  26.8200980
  75.5693870  28.6294060  27.8827300  79.7364790  26.7544550  24.7124310
  79.4360330  26.6309520  25.6128220  79.6302280  25.8953140  24.3040040
  75.6293080  29.2906130  29.7903970  75.1924070  29.4706930  30.6228120
  76.1970760  30.0480750  29.6485690  75.4617510  21.8026360  26.1492850
  74.8066350  21.5338000  25.5052550  76.2995460  21.6930840  25.6994830
  89.9506900  25.5175110  32.1757440  89.1366740  25.9472270  32.4383230
  90.3581100  26.1293520  31.5626490  88.4107950  16.5967650  20.3711340
  88.8292830  16.4098630  19.5308000  88.1044010  15.7446700  20.6814270
  76.4993440  22.1878930  30.6896190  76.8666480  22.1006330  31.5692210
  75.9304260  21.4245480  30.5903050  76.0509440  19.0988020  34.5954610
  75.1565490  19.0654780  34.9348320  76.5906990  19.2974810  35.3605860
  89.7385370  15.8819740  36.4806360  90.6155550  15.8903140  36.8640360
  89.7506210  15.1450580  35.8698710  74.6755590  19.0125290  22.0918180
  73.7719670  19.2755490  21.9169840  75.1596210  19.2836460  21.3118140
  77.2182800  18.0690830  20.0012560  77.9274500  17.6474050  19.5159840
  76.5022740  18.1366060  19.3695910  76.8656960  14.1230160  19.0415210
  77.5885090  14.6639100  19.3596430  77.1381480  13.8493580  18.1656750
  76.5549150  13.3736350  28.9437830  77.2025340  12.8233730  28.5032990
  76.9750990  13.6279500  29.7653640  90.0082950  30.2693710  25.7025710
  90.6042020  29.9478280  25.0260130  90.2661100  29.7965530  26.4938980
  76.3081150  13.5292020  31.6863150  75.9595970  13.9855840  32.4521330
  75.9768850  12.6349150  31.7685580  77.9145520  26.7011620  35.8516340
  77.8715150  26.3304530  36.7330800  78.0456530  27.6389190  35.9918160
  81.6151550  28.2571210  31.4526060  81.3742910  28.5245770  30.5656580
  82.5554190  28.4276940  31.5076920  83.8205970  14.7203900  35.2082570
  83.7594860  15.3125730  35.9577980  84.7606350  14.6129860  35.0632830
  86.4580530  14.3773960  34.8474860  87.0720940  14.6953250  34.1855940
  87.0030090  13.8922550  35.4670720  76.9801790  13.0568220  34.9613920
  77.5284780  12.8756270  34.1980030  77.0457100  12.2662330  35.4970230
  77.7533550  29.6473870  32.9714120  77.1593870  29.5158570  33.7104160
  77.7457390  28.8112010  32.5056220  87.1988570  12.9406100  31.1744150
  86.3248410  13.2741210  30.9717080  87.0899320  12.4679280  31.9996020
  88.1060550  15.1476970  32.5585870  87.7773910  14.3328730  32.1787600
  89.0542850  15.1046780  32.4351560  90.5595160  30.9189010  29.5323440
  90.0998130  31.6704820  29.1581460  89.9307620  30.1995480  29.4738240
  77.3845780  27.0132250  31.9222160  76.6579840  26.3937540  31.8548110
  77.4454930  27.4072860  31.0520240  80.9890880  29.2277250  28.7071570
  81.5055900  28.6164610  28.1819830  81.6388260  29.7306030  29.1982580
  83.7286380  30.1185740  29.5340550  84.0164190  29.8640040  28.6573560
  84.2409600  29.5663100  30.1246120  84.9463390  13.8575940  30.1137060
  84.1635180  14.3321440  30.3933820  84.6526320  12.9530770  30.0050240
  89.4984460  14.5599040  28.1586150  89.9392550  14.5044140  27.3107750
  89.2292050  15.4757050  28.2296330  75.6675780  30.3306640  25.1318920
  75.4997820  29.6977320  25.8300810  74.8010290  30.5366040  24.7813110
  76.2903800  14.1623420  22.6350780  77.0483160  14.2752300  22.0614810
  75.8280970  14.9992620  22.5894210  82.8317610  16.2762690  25.6253090
  82.0192120  15.9019580  25.2848970  83.3359250  15.5207770  25.9274280
  87.3342590  12.9405140  26.8636160  87.9371960  13.5125350  27.3384680
  86.5935580  13.5044580  26.6410060  90.4777190  13.3426700  22.1376440
  90.6727820  14.2410150  22.4043870  89.6907060  13.1113780  22.6309390
  77.2738480  29.0239870  22.5769060  76.7486100  29.4047900  21.8731020
  77.1983060  29.6490640  23.2978770  78.6628950  14.6887470  21.1752750
  79.1921710  13.9017270  21.0460700  79.2957270  15.3678660  21.4088280
  80.8566790  14.4262610  24.2298140  80.2269530  13.7249920  24.3968270
  80.3171930  15.1866740  24.0131300  83.7958740  31.0401840  36.9008750
  84.7226050  30.8046110  36.9444710  83.7809170  31.8673840  36.4194780
  80.9822350  13.7046590  36.6650630  80.7006620  14.2080190  35.9011450
  81.3642050  12.9068340  36.2992760  79.8731450  30.9722250  21.4518310
  80.6050270  30.6881530  20.9042200  80.1325120  30.7335530  22.3417690
  79.0346240  27.0886980  21.4564640  78.4055120  27.5572080  22.0050470
  79.1494070  26.2436200  21.8910830  87.5837810  13.1200170  37.2431100
  87.4703260  13.4394780  38.1382620  88.4007550  13.5212680  36.9468380
  86.4895960  21.1392640   7.6065840  86.4090010  20.2247250   7.3357550
  86.0760380  21.6359710   6.9005550  84.6214000  22.9171660   9.4875110
  83.8456100  22.4372100   9.7773680  85.2726930  22.2377310   9.3131270
  78.6379830  23.2291470  10.3650870  77.8064710  22.9740180  10.7647380
  79.2460810  23.3002240  11.1008790  88.6421430  27.3231850   8.2674240
  88.1802960  26.5519090   8.5961410  89.4546980  27.3497920   8.7726690
  78.6181090  27.2631560  10.5608890  78.9209130  26.3729300  10.3819110
  79.3624680  27.8201780  10.3331140  77.0471780  18.1893360   4.1493260
  76.1588480  18.5309330   4.0473140  77.3312970  17.9893680   3.2574090
  75.0104790  20.7899010  10.0332960  75.5820900  20.0221210  10.0336600
  75.0106330  21.0887770   9.1239570  84.8684740  29.6089860   7.8878230
  84.2496180  30.0647360   7.3172670  85.7236520  29.7641320   7.4867930
  84.0622990  25.5928850   9.4945270  83.9931270  24.6518790   9.3334400
  84.8242850  25.6830260  10.0667840  76.2529660  16.1983370  11.8201890
  76.0732500  15.3009120  12.1004650  75.8509740  16.7455240  12.4948840
  85.0928160  18.3999230   9.7214200  85.4692980  17.5271110   9.6087870
  84.9947670  18.7357930   8.8304640  79.2233170  16.7724860   5.1831640
  79.3299920  17.6728590   5.4900400  78.3125530  16.7242830   4.8926290
  88.8752280  15.8949670   6.6542540  89.6961900  15.4046240   6.6968020
  88.9086360  16.4847330   7.4074380  76.8716330  18.6943870  10.4284230
  77.5526440  18.9582240  11.0471630  76.5564380  17.8544740  10.7622240
  81.0640900  19.7411230   9.5156820  81.5719120  20.2392200  10.1561840
  81.5954140  18.9646430   9.3396180  79.3477000  14.3809790  13.7820240
  79.3495440  14.8982180  12.9766140  78.5181310  13.9039970  13.7590170
  85.7348090  24.4929100   5.2810140  85.1165360  24.9578550   4.7172860
  86.2471340  25.1856580   5.6979650  80.5979850  24.0204970  11.9593740
  80.2649230  24.6473890  12.6014810  80.7746530  24.5466850  11.1795410
  89.1113760  17.8350050   9.4270080  88.4069330  18.1234940  10.0073190
  89.4725920  18.6450160   9.0669640  79.0292330  16.0919750  11.7890690
  79.3709140  16.9361800  11.4944560  78.0908140  16.2403490  11.9056030
  79.8098950  25.9885770  13.7742920  80.4272950  26.6636850  13.4927370
  78.9492070  26.3973750  13.6830420  75.1031290  25.1785630   2.6549770
  74.7259270  25.6672730   1.9234670  75.3604360  25.8510910   3.2856300
  82.7120220  13.5802020   8.1135280  83.0195200  13.0248910   7.3970780
  81.7820920  13.7146480   7.9308270  88.2635280  29.2969310  10.4042740
  88.2762440  28.8931600   9.5365000  87.7110500  30.0716600  10.3004170
  89.5580700  26.0185530   5.4932910  89.4477030  25.0759860   5.6182330
  89.5548950  26.3801170   6.3795670  87.6620720  24.1999150  11.7325350
  88.0789510  23.9859260  10.8978810  88.3860540  24.4571940  12.3033970
  85.1000980  21.6450850   4.8495400  84.1730260  21.5788230   5.0783870
  85.2525800  22.5830980   4.7350640  89.1298270  23.2071150   5.3530650
  88.5110690  22.8690700   4.7056950  89.1122720  22.5630910   6.0609840
  88.5724830  19.3855690  12.7696460  88.1596010  20.2109400  13.0236450
  87.8400780  18.8000730  12.5772820  80.7057620  22.1715590   7.6315130
  80.3014620  21.4592840   7.1361030  80.7920740  21.8268830   8.5203170
  81.1739320  25.8583150   9.7954340  80.8767610  25.2528620   9.1162120
  82.1239140  25.8960460   9.6843700  79.4186240  18.9458800  11.4114170
  79.9700830  19.0554140  10.6367420  79.9329750  19.3196400  12.1269400
  89.2624930  29.4315020  13.4577440  88.7855490  30.2387210  13.2650050
  88.5786720  28.7793350  13.6103650  80.2657750  25.5964840  16.4462140
  79.3686280  25.8204810  16.6935540  80.2910620  25.7199780  15.4973540
  87.3062970  22.4457960   2.3603400  87.7456250  21.6080390   2.2141220
  88.0191390  23.0787360   2.4467540  79.0928970  22.4678160  15.0219510
  78.9536740  23.3400960  15.3906910  78.2110330  22.1250970  14.8767450
  85.4158350  27.3854030   6.3284640  85.8554260  28.1278360   5.9140030
  85.3545240  27.6280600   7.2523600  80.8909320  28.4099860  17.2304660
  80.8624750  28.8142810  16.3633090  80.7274290  27.4810220  17.0676260
  77.4062250  21.0660570   5.1321780  77.2859850  21.7922660   4.5203050
  77.0963140  20.2963480   4.6549690  75.0447620  24.2375710  10.9390420
  75.1228040  24.3724480   9.9946140  75.6589300  23.5291600  11.1318540
  76.2895250  25.9375900   7.3496600  75.8823330  26.0790490   6.4950200
  77.1808260  25.6536060   7.1467810  86.1074130  30.0867810  14.2563650
  86.6218800  29.9975820  15.0586080  85.2643210  30.4327510  14.5491560
  88.0828530  30.3723150   3.6847650  87.9229670  30.0826090   4.5829480
  87.9175240  29.5963280   3.1492880  80.5616910  30.1521680   5.4619270
  80.3859390  29.2357220   5.2487070  79.7072650  30.5108970   5.7017070
  87.3504590  29.5073420   6.3194140  87.8061540  28.7262800   6.6332760
  87.6897110  30.2180240   6.8635320  75.1007140  25.2789880  13.4784880
  75.2638180  24.8095240  12.6604250  75.5659590  24.7713440  14.1433720
  79.8725910  14.4095640   8.5145450  79.4294060  15.1905180   8.1829970
  80.4310900  14.7325530   9.2216390  84.1595720  17.2764160  14.1180770
  83.6975090  17.4847180  14.9300710  83.7573830  16.4623510  13.8151440
  89.1600230  18.4973110  15.2477430  88.3093820  18.1978860  15.5686500
  89.0002020  18.7415120  14.3361250  86.2549940  19.9974860  17.3476220
  86.5803350  19.1638610  17.0078450  87.0430270  20.5203380  17.4954550
  82.9884730  14.0306340   3.3951280  82.3638910  14.0266210   4.1204590
  82.9014850  13.1637300   2.9987250  81.9101810  14.9542970  10.3735050
  82.2074140  15.8605800  10.2927070  82.4587370  14.4661750   9.7594620
  79.6640130  19.5329210   6.2426700  79.4381050  19.3166380   7.1473320
  78.8832660  19.9657670   5.8972670  86.8937890  19.5392580   4.8417350
  86.2946780  20.2628380   4.6580970  87.4417500  19.4769360   4.0593800
  82.1039340  20.4314790  16.9086970  82.0082940  19.4909520  16.7587370
  82.9471320  20.6529860  16.5135040  85.5002760  18.1756120   6.8720630
  85.8932330  18.4928320   6.0589320  85.8619610  17.2968000   6.9865150
  77.2349880  16.8428460  15.0620750  76.8413270  17.6903670  15.2693530
  76.5468280  16.2054830  15.2529390  83.8094930  16.9263430  18.1317490
  83.1193250  16.7335630  18.7663580  84.5527230  17.2098070  18.6641790
  74.5366930  14.7656920   9.0950830  74.2479980  15.3359780   9.8075810
  75.2812690  14.2861370   9.4582060  86.0857900  20.7661870  10.9671410
  85.3539020  21.2748680  11.3161510  85.6882240  19.9491850  10.6660190
  82.5235290  17.4416070   9.3723900  82.5271350  17.0006020   8.5228440
  83.4186410  17.7633400   9.4795720  78.3737670  17.3242560   8.3318110
  78.0337720  17.8017790   9.0885160  77.6114990  16.8707680   7.9719210
  82.5855440  18.4428150   2.3630660  82.7068260  18.4014630   3.3116480
  82.2003950  19.3052300   2.2077390  86.5483810  16.2195550  10.3794350
  86.5656550  16.6704200  11.2236200  86.2999390  15.3201190  10.5927790
  89.9754560  13.6327730  16.2180730  90.3000330  12.9017390  16.7438710
  90.0111070  13.3141370  15.3161720  76.6746120  24.6541310  15.6380690
  76.2900910  24.0134980  16.2363650  76.9858310  25.3577430  16.2075420
  82.8243260  21.5017850  11.1189310  83.1913390  21.0276420  11.8650650
  82.6348320  22.3759420  11.4597650  75.6883750  16.2461540   7.2482780
  75.4030670  15.8817210   8.0861400  75.6262610  15.5142000   6.6345920
  80.6142630  20.5426490  13.4373520  80.3099700  21.4218470  13.6623880
  81.5689090  20.6026280  13.4730960  79.1424420  24.7487480   4.0340370
  78.3686680  24.2085100   3.8739090  79.8719050  24.2294090   3.6958130
  89.9012400  23.7452840   9.8266760  90.6211520  24.2408130   9.4362870
  89.6994220  23.0670730   9.1820630  85.3622340  15.1390800   3.9696150
  84.5486950  14.6403970   3.8941460  85.1684290  15.9789050   3.5532500
  85.2831200  23.8161900  15.7135760  85.2168510  22.8957570  15.4593350
  84.6536340  23.9137340  16.4280400  88.0770730  19.5110450   2.2658310
  88.9650350  19.8227680   2.0909650  88.0475820  18.6382700   1.8738890
  79.1861820  24.4167860   7.6719180  79.7040490  23.6136120   7.6176070
  78.7345840  24.3547000   8.5136010  84.0731320  25.6834140   2.9446480
  84.4147020  26.4276370   2.4489800  83.2444030  25.9965260   3.3071310
  76.6706360  21.3829230  14.5844880  76.3121300  22.0483080  15.1718220
  76.3760920  20.5512780  14.9557500  79.8719480  21.8413470  17.4684430
  79.5719620  21.9870650  16.5712250  80.6430720  21.2818760  17.3757820
  85.2147930  26.6382470  15.4639560  85.2292470  25.7063430  15.2458470
  84.5073030  26.7242230  16.1029330  86.9558730  25.0049980   8.3091990
  87.3082550  24.4078110   7.6493360  86.0721060  24.6794210   8.4800240
  83.0422010  25.7647670   5.7162400  83.7293140  26.3116880   6.0969990
  82.2554430  26.3088400   5.7512010  82.3449220  22.7693700   5.3287760
  82.8012000  23.5798950   5.5547950  81.9937430  22.4516840   6.1606250
  84.6481830  28.2800040  12.5580060  85.2924050  28.4859420  13.2353480
  85.0111270  27.5188440  12.1050910  78.2461000  13.1131350   5.8010280
  78.1175630  13.1049250   6.7495200  77.4223020  13.4514440   5.4501290
  85.9213910  26.2832390  11.2757510  86.5636140  25.5825550  11.3889680
  86.4463260  27.0630830  11.0954400  87.6951530  27.0827290  14.4793570
  88.0307770  27.6693980  15.1571490  86.7751870  26.9520000  14.7091360
  75.2454930  14.8722470  15.2616980  74.5313450  15.0719390  15.8669590
  75.6649970  14.0962040  15.6331780  89.3485880  24.4852950   2.6610810
  89.0607580  24.9465640   3.4488690  90.1438050  24.0250720   2.9295030
  75.5327520  28.8602730  16.2483510  75.6418640  27.9197470  16.1078900
  74.8808080  29.1257480  15.5997240  83.5240110  27.1318620  17.6481630
  83.2036980  26.4127860  18.1927320  82.8498470  27.8073690  17.7217690
  81.5654280  27.9779070   2.5914780  81.5564380  28.7108760   1.9759290
  80.6452640  27.7310650   2.6841740  77.1660920  23.1993960   3.3361540
  76.5588870  23.9392860   3.3456840  77.6410270  23.2893320   2.5099740
  86.7393710  17.3644780  13.0118430  87.1074530  16.5439990  13.3398000
  85.8791910  17.4246670  13.4274080  90.1055740  16.3201720   3.8205990
  89.4768900  16.4247390   3.1064220  89.6107660  16.5398500   4.6099870
  82.0739770  18.5987670   5.2363870  81.3655920  19.0674010   5.6777480
  82.3584250  17.9409680   5.8709060  83.6995700  20.0184370  13.2356400
  84.1980950  20.4930190  13.9008250  83.8418650  19.0947890  13.4426430
  86.1055200  15.3238330   6.6759660  85.9822980  15.3424460   5.7269170
  87.0539760  15.3717270   6.7958060  83.1931990  30.5593630   5.9487640
  83.4473490  30.5215020   5.0267010  82.2444470  30.4326960   5.9415890
  80.2774790  16.9072750   2.6114580  81.1265320  17.3442900   2.5454770
  79.9106060  17.2193010   3.4386640  89.1984570  21.4785510   7.5246150
  88.2574710  21.4935740   7.6993840  89.5128640  20.6921470   7.9706450
  77.8712970  20.5930180   1.7683000  77.9516560  19.6457690   1.8800400
  78.7632720  20.9237060   1.8743660  78.6727680  30.7425570   8.8717540
  79.4090160  30.1941030   9.1426110  79.0568600  31.6081580   8.7323530
  75.5573160  26.8099140   4.7459050  74.6312940  27.0520280   4.7364460
  76.0229590  27.6373400   4.6243800  77.6785960  29.9271640  18.0603120
  78.4798690  30.2483690  18.4738520  77.1637780  29.5667220  18.7823030
  86.5150590  26.0351510  18.0078530  85.9088750  26.0583110  17.2674280
  86.2104700  25.3034550  18.5445780  87.9450960  29.7631800  16.6187940
  88.8972710  29.6789820  16.5688180  87.7979180  30.4273510  17.2921730
  75.3983770  22.4145100  17.0039170  75.9022790  21.8352380  17.5755400
  74.6591190  22.6985330  17.5415540  82.4521710  23.8216090  16.5374690
  81.6867380  24.3901090  16.4529360  82.6337670  23.5292300  15.6442920
  89.5945060  25.5521420  17.0949710  90.3354530  25.8897180  16.5917170
  88.8317740  25.7213480  16.5419480  77.4306850  20.5574690  17.8989240
  77.4712190  20.2588560  18.8074470  78.2852350  20.9582300  17.7396760
  81.2085240  23.1570240   3.0592750  81.6301660  22.9910110   3.9024140
  81.3336080  22.3470470   2.5647890  79.3712660  19.1366790  15.8663730
  78.8409120  18.6457740  15.2387070  80.0400730  19.5650990  15.3321660
  88.2690720  23.6036250  15.6304920  88.6831740  23.7581330  16.4795340
  87.3341720  23.7291470  15.7930700  88.7412890  20.9432410  17.6344070
  89.3233660  20.1884730  17.5464550  88.9174660  21.4739850  16.8575550
  79.8584960  16.1029160  15.9461020  79.7641830  15.4849910  15.2211890
  79.2782350  16.8295450  15.7190930  82.6246400  14.6602400  12.9788410
  82.1763700  14.6826660  12.1333960  81.9911600  14.2621420  13.5758710
  83.0305950  23.5556730  13.6000850  83.4494060  24.3989460  13.4277090
  82.1114580  23.6928770  13.3707630  85.3669850  21.2872910  14.9838690
  85.4866060  20.6914050  15.7233530  86.2263850  21.3242600  14.5639990
  87.7057750  21.8410100  13.5601200  87.1792970  22.3652720  12.9566340
  88.0489090  22.4737490  14.1910930  80.8813370  29.8609740  14.7158580
  80.3434460  30.5855800  14.3967280  81.1347330  29.3840080  13.9255920
  82.1338620  17.8294260  16.2414510  82.7238310  17.5210110  16.9292330
  81.3158860  17.3574010  16.3974410  86.9532050  17.4460070  16.4747530
  86.2647570  16.7841610  16.4097520  87.6738070  16.9998340  16.9195990
  87.5832450  14.0411700   2.5337790  87.8634740  13.1979600   2.8897210
  86.8098180  14.2734810   3.0476540  83.7375580  31.0960950  14.9745230
  83.6634280  31.9996090  15.2817600  82.8354420  30.7772850  14.9467300
  84.2860910  30.2619460   2.5971590  85.1811700  30.6004430   2.6190350
  84.3178540  29.5398870   1.9695870  75.1402870  28.4235540   8.2778850
  75.4705880  27.5556600   8.0457490  75.5693870  28.6294060   9.1083810
  79.7364790  26.7544550   5.9380820  79.4360330  26.6309520   6.8384730
  79.6302280  25.8953140   5.5296550  75.6293080  29.2906130  11.0160480
  75.1924070  29.4706930  11.8484630  76.1970760  30.0480750  10.8742200
  75.4617510  21.8026360   7.3749360  74.8066350  21.5338000   6.7309060
  76.2995460  21.6930840   6.9251340  89.9506900  25.5175110  13.4013950
  89.1366740  25.9472270  13.6639740  90.3581100  26.1293520  12.7883000
  76.4993440  22.1878930  11.9152700  76.8666480  22.1006330  12.7948720
  75.9304260  21.4245480  11.8159560  76.0509440  19.0988020  15.8211120
  75.1565490  19.0654780  16.1604830  76.5906990  19.2974810  16.5862370
  89.7385370  15.8819740  17.7062870  90.6155550  15.8903140  18.0896870
  89.7506210  15.1450580  17.0955220  74.6755590  19.0125290   3.3174690
  73.7719670  19.2755490   3.1426350  75.1596210  19.2836460   2.5374650
  76.5549150  13.3736350  10.1694340  77.2025340  12.8233730   9.7289500
  76.9750990  13.6279500  10.9910150  90.0082950  30.2693710   6.9282220
  90.6042020  29.9478280   6.2516640  90.2661100  29.7965530   7.7195490
  76.3081150  13.5292020  12.9119660  75.9595970  13.9855840  13.6777840
  75.9768850  12.6349150  12.9942090  77.9145520  26.7011620  17.0772850
  77.8715150  26.3304530  17.9587310  78.0456530  27.6389190  17.2174670
  81.6151550  28.2571210  12.6782570  81.3742910  28.5245770  11.7913090
  82.5554190  28.4276940  12.7333430  83.8205970  14.7203900  16.4339080
  83.7594860  15.3125730  17.1834490  84.7606350  14.6129860  16.2889340
  86.4580530  14.3773960  16.0731370  87.0720940  14.6953250  15.4112450
  87.0030090  13.8922550  16.6927230  76.9801790  13.0568220  16.1870430
  77.5284780  12.8756270  15.4236540  77.0457100  12.2662330  16.7226740
  77.7533550  29.6473870  14.1970630  77.1593870  29.5158570  14.9360670
  77.7457390  28.8112010  13.7312730  87.1988570  12.9406100  12.4000660
  86.3248410  13.2741210  12.1973590  87.0899320  12.4679280  13.2252530
  88.1060550  15.1476970  13.7842380  87.7773910  14.3328730  13.4044110
  89.0542850  15.1046780  13.6608070  90.5595160  30.9189010  10.7579950
  90.0998130  31.6704820  10.3837970  89.9307620  30.1995480  10.6994750
  77.3845780  27.0132250  13.1478670  76.6579840  26.3937540  13.0804620
  77.4454930  27.4072860  12.2776750  80.9890880  29.2277250   9.9328080
  81.5055900  28.6164610   9.4076340  81.6388260  29.7306030  10.4239090
  83.7286380  30.1185740  10.7597060  84.0164190  29.8640040   9.8830070
  84.2409600  29.5663100  11.3502630  84.9463390  13.8575940  11.3393570
  84.1635180  14.3321440  11.6190330  84.6526320  12.9530770  11.2306750
  89.4984460  14.5599040   9.3842660  89.9392550  14.5044140   8.5364260
  89.2292050  15.4757050   9.4552840  75.6675780  30.3306640   6.3575430
  75.4997820  29.6977320   7.0557320  74.8010290  30.5366040   6.0069620
  76.2903800  14.1623420   3.8607290  77.0483160  14.2752300   3.2871320
  75.8280970  14.9992620   3.8150720  82.8317610  16.2762690   6.8509600
  82.0192120  15.9019580   6.5105480  83.3359250  15.5207770   7.1530790
  87.3342590  12.9405140   8.0892670  87.9371960  13.5125350   8.5641190
  86.5935580  13.5044580   7.8666570  90.4777190  13.3426700   3.3632950
  90.6727820  14.2410150   3.6300380  89.6907060  13.1113780   3.8565900
  77.2738480  29.0239870   3.8025570  76.7486100  29.4047900   3.0987530
  77.1983060  29.6490640   4.5235280  78.6628950  14.6887470   2.4009260
  79.1921710  13.9017270   2.2717210  79.2957270  15.3678660   2.6344790
  80.8566790  14.4262610   5.4554650  80.2269530  13.7249920   5.6224780
  80.3171930  15.1866740   5.2387810  83.7958740  31.0401840  18.1265260
  84.7226050  30.8046110  18.1701220  83.7809170  31.8673840  17.6451290
  80.9822350  13.7046590  17.8907140  80.7006620  14.2080190  17.1267960
  81.3642050  12.9068340  17.5249270  79.8731450  30.9722250   2.6774820
  80.6050270  30.6881530   2.1298710  80.1325120  30.7335530   3.5674200
  79.0346240  27.0886980   2.6821150  78.4055120  27.5572080   3.2306980
  79.1494070  26.2436200   3.1167340  87.5837810  13.1200170  18.4687610
  87.4703260  13.4394780  19.3639130  88.4007550  13.5212680  18.1724890
  84.6214000   4.1428170  65.8105580  83.8456100   3.6628610  66.1004150
  85.2726930   3.4633820  65.6361740  78.6379830   4.4547980  66.6881340
  77.8064710   4.1996690  67.0877850  79.2460810   4.5258750  67.4239260
  88.6421430   8.5488360  64.5904710  88.1802960   7.7775600  64.9191880
  89.4546980   8.5754430  65.0957160  78.6181090   8.4888070  66.8839360
  78.9209130   7.5985810  66.7049580  79.3624680   9.0458290  66.6561610
  84.8684740  10.8346370  64.2108700  84.2496180  11.2903870  63.6403140
  85.7236520  10.9897830  63.8098400  84.0622990   6.8185360  65.8175740
  83.9931270   5.8775300  65.6564870  84.8242850   6.9086770  66.3898310
  85.7348090   5.7185610  61.6040610  85.1165360   6.1835060  61.0403330
  86.2471340   6.4113090  62.0210120  80.5979850   5.2461480  68.2824210
  80.2649230   5.8730400  68.9245280  80.7746530   5.7723360  67.5025880
  79.8098950   7.2142280  70.0973390  80.4272950   7.8893360  69.8157840
  78.9492070   7.6230260  70.0060890  75.1031290   6.4042140  58.9780240
  74.7259270   6.8929240  58.2465140  75.3604360   7.0767420  59.6086770
  88.2635280  10.5225820  66.7273210  88.2762440  10.1188110  65.8595470
  87.7110500  11.2973110  66.6234640  89.5580700   7.2442040  61.8163380
  89.4477030   6.3016370  61.9412800  89.5548950   7.6057680  62.7026140
  87.6620720   5.4255660  68.0555820  88.0789510   5.2115770  67.2209280
  88.3860540   5.6828450  68.6264440  85.1000980   2.8707360  61.1725870
  84.1730260   2.8044740  61.4014340  85.2525800   3.8087490  61.0581110
  89.1298270   4.4327660  61.6761120  88.5110690   4.0947210  61.0287420
  89.1122720   3.7887420  62.3840310  80.7057620   3.3972100  63.9545600
  80.3014620   2.6849350  63.4591500  80.7920740   3.0525340  64.8433640
  81.1739320   7.0839660  66.1184810  80.8767610   6.4785130  65.4392590
  82.1239140   7.1216970  66.0074170  89.2624930  10.6571530  69.7807910
  88.7855490  11.4643720  69.5880520  88.5786720  10.0049860  69.9334120
  87.3062970   3.6714470  58.6833870  87.7456250   2.8336900  58.5371690
  88.0191390   4.3043870  58.7698010  79.0928970   3.6934670  71.3449980
  78.9536740   4.5657470  71.7137380  78.2110330   3.3507480  71.1997920
  85.4158350   8.6110540  62.6515110  85.8554260   9.3534870  62.2370500
  85.3545240   8.8537110  63.5754070  77.4062250   2.2917080  61.4552250
  77.2859850   3.0179170  60.8433520  77.0963140   1.5219990  60.9780160
  75.0447620   5.4632220  67.2620890  75.1228040   5.5980990  66.3176610
  75.6589300   4.7548110  67.4549010  76.2895250   7.1632410  63.6727070
  75.8823330   7.3047000  62.8180670  77.1808260   6.8792570  63.4698280
  86.1074130  11.3124320  70.5794120  86.6218800  11.2232330  71.3816550
  85.2643210  11.6584020  70.8722030  88.0828530  11.5979660  60.0078120
  87.9229670  11.3082600  60.9059950  87.9175240  10.8219790  59.4723350
  80.5616910  11.3778190  61.7849740  80.3859390  10.4613730  61.5717540
  79.7072650  11.7365480  62.0247540  87.7854660   9.1067220  58.5676120
  87.0919820   9.1044510  57.9078400  88.5277520   8.6826540  58.1370290
  87.3504590  10.7329930  62.6424610  87.8061540   9.9519310  62.9563230
  87.6897110  11.4436750  63.1865790  75.1007140   6.5046390  69.8015350
  75.2638180   6.0351750  68.9834720  75.5659590   5.9969950  70.4664190
  81.5976940   1.9785800  58.0844430  81.0293840   1.5304050  57.4580340
  82.3065940   2.3378580  57.5509580  76.6746120   5.8797820  71.9611160
  76.2900910   5.2391490  72.5594120  76.9858310   6.5833940  72.5305890
  82.8243260   2.7274360  67.4419780  83.1913390   2.2532930  68.1881120
  82.6348320   3.6015930  67.7828120  80.6142630   1.7683000  69.7603990
  80.3099700   2.6474980  69.9854350  81.5689090   1.8282790  69.7961430
  79.1424420   5.9743990  60.3570840  78.3686680   5.4341610  60.1969560
  79.8719050   5.4550600  60.0188600  89.9012400   4.9709350  66.1497230
  90.6211520   5.4664640  65.7593340  89.6994220   4.2927240  65.5051100
  85.2831200   5.0418410  72.0366230  85.2168510   4.1214080  71.7823820
  84.6536340   5.1393850  72.7510870  79.1861820   5.6424370  63.9949650
  79.7040490   4.8392630  63.9406540  78.7345840   5.5803510  64.8366480
  84.0731320   6.9090650  59.2676950  84.4147020   7.6532880  58.7720270
  83.2444030   7.2221770  59.6301780  76.6706360   2.6085740  70.9075350
  76.3121300   3.2739590  71.4948690  76.3760920   1.7769290  71.2787970
  85.2147930   7.8638980  71.7870030  85.2292470   6.9319940  71.5688940
  84.5073030   7.9498740  72.4259800  86.9558730   6.2306490  64.6322460
  87.3082550   5.6334620  63.9723830  86.0721060   5.9050720  64.8030710
  83.0422010   6.9904180  62.0392870  83.7293140   7.5373390  62.4200460
  82.2554430   7.5344910  62.0742480  75.1814410   2.6077000  57.5309950
  76.0509260   2.8901800  57.8145870  74.6904730   3.4212870  57.4158760
  82.3449220   3.9950210  61.6518230  82.8012000   4.8055460  61.8778420
  81.9937430   3.6773350  62.4836720  84.6481830   9.5056550  68.8810530
  85.2924050   9.7115930  69.5583950  85.0111270   8.7444950  68.4281380
  85.9213910   7.5088900  67.5987980  86.5636140   6.8082060  67.7120150
  86.4463260   8.2887340  67.4184870  89.7669630   7.7937520  57.3227120
  89.5407210   7.0767960  57.9151760  89.3765830   7.5449960  56.4848870
  87.6951530   8.3083800  70.8024040  88.0307770   8.8950490  71.4801960
  86.7751870   8.1776510  71.0321830  75.5485660  11.8204380  58.0971580
  75.9083300  12.4193720  57.4428850  75.4078000  12.3664270  58.8706610
  89.3485880   5.7109460  58.9841280  89.0607580   6.1722150  59.7719160
  90.1438050   5.2507230  59.2525500  75.5327520  10.0859240  72.5713980
  75.6418640   9.1453980  72.4309370  74.8808080  10.3513990  71.9227710
  81.5654280   9.2035580  58.9145250  81.5564380   9.9365270  58.2989760
  80.6452640   8.9567160  59.0072210  77.1660920   4.4250470  59.6592010
  76.5588870   5.1649370  59.6687310  77.6410270   4.5149830  58.8330210
  84.5513880   9.2663820  57.5770440  84.6525860   9.0627810  56.6472420
  83.6515620   9.0122100  57.7818220  83.1931990  11.7850140  62.2718110
  83.4473490  11.7471530  61.3497480  82.2444470  11.6583470  62.2646360
  89.1984570   2.7042020  63.8476620  88.2574710   2.7192250  64.0224310
  89.5128640   1.9177980  64.2936920  79.1766210   4.3861620  57.4080580
  79.9429480   4.2742980  57.9706010  79.2540900   3.6899590  56.7557350
  78.6727680  11.9682080  65.1948010  79.4090160  11.4197540  65.4656580
  79.0568600  12.8338090  65.0554000  75.5573160   8.0355650  61.0689520
  74.6312940   8.2776790  61.0594930  76.0229590   8.8629910  60.9474270
  81.7829990  11.1412390  57.0173580  82.5758600  11.4301220  56.5655370
  81.2634340  10.7104560  56.3386060  90.8360160  10.3682520  58.4410320
  90.5501670   9.9547660  57.6264500  90.6379710  11.2970230  58.3210840
  82.3007390   6.3615800  56.8815930  82.1958030   5.7468150  57.6077310
  82.1331610   5.8381690  56.0978940  82.4521710   5.0472600  72.8605160
  81.6867380   5.6157600  72.7759830  82.6337670   4.7548810  71.9673390
  85.5410120   5.4235830  57.4857920  84.9920220   5.8705130  58.1300660
  86.1629380   4.9185080  58.0095590  81.2085240   4.3826750  59.3823220
  81.6301660   4.2166620  60.2254610  81.3336080   3.5726980  58.8878360
  83.7212880   3.4064360  56.6300320  84.2418540   2.6913380  56.2641470
  84.3681280   4.0450230  56.9300830  88.2690720   4.8292760  71.9535390
  88.6831740   4.9837840  72.8025810  87.3341720   4.9547980  72.1161170
  83.0305950   4.7813240  69.9231320  83.4494060   5.6245970  69.7507560
  82.1114580   4.9185280  69.6938100  85.3669850   2.5129420  71.3069160
  85.4866060   1.9170560  72.0464000  86.2263850   2.5499110  70.8870460
  87.7057750   3.0666610  69.8831670  87.1792970   3.5909230  69.2796810
  88.0489090   3.6994000  70.5141400  80.8813370  11.0866250  71.0389050
  80.3434460  11.8112310  70.7197750  81.1347330  10.6096590  70.2486390
  83.7375580  12.3217460  71.2975700  83.6634280  13.2252600  71.6048070
  82.8354420  12.0029360  71.2697770  84.2860910  11.4875970  58.9202060
  85.1811700  11.8260940  58.9420820  84.3178540  10.7655380  58.2926340
  77.9257070   6.8603020  57.1489060  78.3631940   7.4032690  57.8046640
  78.4104800   6.0349970  57.1585400  75.1402870   9.6492050  64.6009320
  75.4705880   8.7813110  64.3687960  75.5693870   9.8550570  65.4314280
  79.7364790   7.9801060  62.2611290  79.4360330   7.8566030  63.1615200
  79.6302280   7.1209650  61.8527020  75.6293080  10.5162640  67.3390950
  75.1924070  10.6963440  68.1715100  76.1970760  11.2737260  67.1972670
  75.4617510   3.0282870  63.6979830  74.8066350   2.7594510  63.0539530
  76.2995460   2.9187350  63.2481810  89.9506900   6.7431620  69.7244420
  89.1366740   7.1728780  69.9870210  90.3581100   7.3550030  69.1113470
  76.4993440   3.4135440  68.2383170  76.8666480   3.3262840  69.1179190
  75.9304260   2.6501990  68.1390030  90.0082950  11.4950220  63.2512690
  90.6042020  11.1734790  62.5747110  90.2661100  11.0222040  64.0425960
  81.6151550   9.4827720  69.0013040  81.3742910   9.7502280  68.1143560
  82.5554190   9.6533450  69.0563900  77.7533550  10.8730380  70.5201100
  77.1593870  10.7415080  71.2591140  77.7457390  10.0368520  70.0543200
  90.5595160  12.1445520  67.0810420  90.0998130  12.8961330  66.7068440
  89.9307620  11.4251990  67.0225220  77.3845780   8.2388760  69.4709140
  76.6579840   7.6194050  69.4035090  77.4454930   8.6329370  68.6007220
  80.9890880  10.4533760  66.2558550  81.5055900   9.8421120  65.7306810
  81.6388260  10.9562540  66.7469560  83.7286380  11.3442250  67.0827530
  84.0164190  11.0896550  66.2060540  84.2409600  10.7919610  67.6733100
  75.6675780  11.5563150  62.6805900  75.4997820  10.9233830  63.3787790
  74.8010290  11.7622550  62.3300090  77.2738480  10.2496380  60.1256040
  76.7486100  10.6304410  59.4218000  77.1983060  10.8747150  60.8465750
  79.8731450  12.1978760  59.0005290  80.6050270  11.9138040  58.4529180
  80.1325120  11.9592040  59.8904670  79.0346240   8.3143490  59.0051620
  78.4055120   8.7828590  59.5537450  79.1494070   7.4692710  59.4397810
  84.6214000   4.1428170  47.0362090  83.8456100   3.6628610  47.3260660
  85.2726930   3.4633820  46.8618250  78.6379830   4.4547980  47.9137850
  77.8064710   4.1996690  48.3134360  79.2460810   4.5258750  48.6495770
  88.6421430   8.5488360  45.8161220  88.1802960   7.7775600  46.1448390
  89.4546980   8.5754430  46.3213670  78.6181090   8.4888070  48.1095870
  78.9209130   7.5985810  47.9306090  79.3624680   9.0458290  47.8818120
  84.8684740  10.8346370  45.4365210  84.2496180  11.2903870  44.8659650
  85.7236520  10.9897830  45.0354910  84.0622990   6.8185360  47.0432250
  83.9931270   5.8775300  46.8821380  84.8242850   6.9086770  47.6154820
  85.7348090   5.7185610  42.8297120  85.1165360   6.1835060  42.2659840
  86.2471340   6.4113090  43.2466630  80.5979850   5.2461480  49.5080720
  80.2649230   5.8730400  50.1501790  80.7746530   5.7723360  48.7282390
  79.8098950   7.2142280  51.3229900  80.4272950   7.8893360  51.0414350
  78.9492070   7.6230260  51.2317400  75.1031290   6.4042140  40.2036750
  74.7259270   6.8929240  39.4721650  75.3604360   7.0767420  40.8343280
  88.2635280  10.5225820  47.9529720  88.2762440  10.1188110  47.0851980
  87.7110500  11.2973110  47.8491150  89.5580700   7.2442040  43.0419890
  89.4477030   6.3016370  43.1669310  89.5548950   7.6057680  43.9282650
  87.6620720   5.4255660  49.2812330  88.0789510   5.2115770  48.4465790
  88.3860540   5.6828450  49.8520950  85.1000980   2.8707360  42.3982380
  84.1730260   2.8044740  42.6270850  85.2525800   3.8087490  42.2837620
  89.1298270   4.4327660  42.9017630  88.5110690   4.0947210  42.2543930
  89.1122720   3.7887420  43.6096820  80.7057620   3.3972100  45.1802110
  80.3014620   2.6849350  44.6848010  80.7920740   3.0525340  46.0690150
  81.1739320   7.0839660  47.3441320  80.8767610   6.4785130  46.6649100
  82.1239140   7.1216970  47.2330680  89.2624930  10.6571530  51.0064420
  88.7855490  11.4643720  50.8137030  88.5786720  10.0049860  51.1590630
  80.2657750   6.8221350  53.9949120  79.3686280   7.0461320  54.2422520
  80.2910620   6.9456290  53.0460520  87.3062970   3.6714470  39.9090380
  87.7456250   2.8336900  39.7628200  88.0191390   4.3043870  39.9954520
  79.0928970   3.6934670  52.5706490  78.9536740   4.5657470  52.9393890
  78.2110330   3.3507480  52.4254430  85.4158350   8.6110540  43.8771620
  85.8554260   9.3534870  43.4627010  85.3545240   8.8537110  44.8010580
  80.8909320   9.6356370  54.7791640  80.8624750  10.0399320  53.9120070
  80.7274290   8.7066730  54.6163240  77.4062250   2.2917080  42.6808760
  77.2859850   3.0179170  42.0690030  77.0963140   1.5219990  42.2036670
  75.0447620   5.4632220  48.4877400  75.1228040   5.5980990  47.5433120
  75.6589300   4.7548110  48.6805520  76.2895250   7.1632410  44.8983580
  75.8823330   7.3047000  44.0437180  77.1808260   6.8792570  44.6954790
  86.1074130  11.3124320  51.8050630  86.6218800  11.2232330  52.6073060
  85.2643210  11.6584020  52.0978540  88.0828530  11.5979660  41.2334630
  87.9229670  11.3082600  42.1316460  87.9175240  10.8219790  40.6979860
  80.5616910  11.3778190  43.0106250  80.3859390  10.4613730  42.7974050
  79.7072650  11.7365480  43.2504050  87.7854660   9.1067220  39.7932630
  87.0919820   9.1044510  39.1334910  88.5277520   8.6826540  39.3626800
  87.3504590  10.7329930  43.8681120  87.8061540   9.9519310  44.1819740
  87.6897110  11.4436750  44.4122300  75.1007140   6.5046390  51.0271860
  75.2638180   6.0351750  50.2091230  75.5659590   5.9969950  51.6920700
  81.5976940   1.9785800  39.3100940  81.0293840   1.5304050  38.6836850
  82.3065940   2.3378580  38.7766090  76.6746120   5.8797820  53.1867670
  76.2900910   5.2391490  53.7850630  76.9858310   6.5833940  53.7562400
  82.8243260   2.7274360  48.6676290  83.1913390   2.2532930  49.4137630
  82.6348320   3.6015930  49.0084630  80.6142630   1.7683000  50.9860500
  80.3099700   2.6474980  51.2110860  81.5689090   1.8282790  51.0217940
  79.1424420   5.9743990  41.5827350  78.3686680   5.4341610  41.4226070
  79.8719050   5.4550600  41.2445110  89.9012400   4.9709350  47.3753740
  90.6211520   5.4664640  46.9849850  89.6994220   4.2927240  46.7307610
  85.2831200   5.0418410  53.2622740  85.2168510   4.1214080  53.0080330
  84.6536340   5.1393850  53.9767380  79.1861820   5.6424370  45.2206160
  79.7040490   4.8392630  45.1663050  78.7345840   5.5803510  46.0622990
  84.0731320   6.9090650  40.4933460  84.4147020   7.6532880  39.9976780
  83.2444030   7.2221770  40.8558290  76.6706360   2.6085740  52.1331860
  76.3121300   3.2739590  52.7205200  76.3760920   1.7769290  52.5044480
  79.8719480   3.0669980  55.0171410  79.5719620   3.2127160  54.1199230
  80.6430720   2.5075270  54.9244800  85.2147930   7.8638980  53.0126540
  85.2292470   6.9319940  52.7945450  84.5073030   7.9498740  53.6516310
  86.9558730   6.2306490  45.8578970  87.3082550   5.6334620  45.1980340
  86.0721060   5.9050720  46.0287220  83.0422010   6.9904180  43.2649380
  83.7293140   7.5373390  43.6456970  82.2554430   7.5344910  43.2998990
  75.1814410   2.6077000  38.7566460  76.0509260   2.8901800  39.0402380
  74.6904730   3.4212870  38.6415270  82.3449220   3.9950210  42.8774740
  82.8012000   4.8055460  43.1034930  81.9937430   3.6773350  43.7093230
  84.6481830   9.5056550  50.1067040  85.2924050   9.7115930  50.7840460
  85.0111270   8.7444950  49.6537890  85.9213910   7.5088900  48.8244490
  86.5636140   6.8082060  48.9376660  86.4463260   8.2887340  48.6441380
  89.7669630   7.7937520  38.5483630  89.5407210   7.0767960  39.1408270
  89.3765830   7.5449960  37.7105380  87.6951530   8.3083800  52.0280550
  88.0307770   8.8950490  52.7058470  86.7751870   8.1776510  52.2578340
  75.5485660  11.8204380  39.3228090  75.9083300  12.4193720  38.6685360
  75.4078000  12.3664270  40.0963120  89.3485880   5.7109460  40.2097790
  89.0607580   6.1722150  40.9975670  90.1438050   5.2507230  40.4782010
  75.5327520  10.0859240  53.7970490  75.6418640   9.1453980  53.6565880
  74.8808080  10.3513990  53.1484220  83.5240110   8.3575130  55.1968610
  83.2036980   7.6384370  55.7414300  82.8498470   9.0330200  55.2704670
  81.5654280   9.2035580  40.1401760  81.5564380   9.9365270  39.5246270
  80.6452640   8.9567160  40.2328720  77.1660920   4.4250470  40.8848520
  76.5588870   5.1649370  40.8943820  77.6410270   4.5149830  40.0586720
  84.5513880   9.2663820  38.8026950  84.6525860   9.0627810  37.8728930
  83.6515620   9.0122100  39.0074730  83.1931990  11.7850140  43.4974620
  83.4473490  11.7471530  42.5753990  82.2444470  11.6583470  43.4902870
  89.1984570   2.7042020  45.0733130  88.2574710   2.7192250  45.2480820
  89.5128640   1.9177980  45.5193430  79.1766210   4.3861620  38.6337090
  79.9429480   4.2742980  39.1962520  79.2540900   3.6899590  37.9813860
  78.6727680  11.9682080  46.4204520  79.4090160  11.4197540  46.6913090
  79.0568600  12.8338090  46.2810510  75.5573160   8.0355650  42.2946030
  74.6312940   8.2776790  42.2851440  76.0229590   8.8629910  42.1730780
  77.6785960  11.1528150  55.6090100  78.4798690  11.4740200  56.0225500
  77.1637780  10.7923730  56.3310010  81.7829990  11.1412390  38.2430090
  82.5758600  11.4301220  37.7911880  81.2634340  10.7104560  37.5642570
  86.5150590   7.2608020  55.5565510  85.9088750   7.2839620  54.8161260
  86.2104700   6.5291060  56.0932760  87.9450960  10.9888310  54.1674920
  88.8972710  10.9046330  54.1175160  87.7979180  11.6530020  54.8408710
  90.8360160  10.3682520  39.6666830  90.5501670   9.9547660  38.8521010
  90.6379710  11.2970230  39.5467350  75.3983770   3.6401610  54.5526150
  75.9022790   3.0608890  55.1242380  74.6591190   3.9241840  55.0902520
  82.3007390   6.3615800  38.1072440  82.1958030   5.7468150  38.8333820
  82.1331610   5.8381690  37.3235450  82.4521710   5.0472600  54.0861670
  81.6867380   5.6157600  54.0016340  82.6337670   4.7548810  53.1929900
  85.5410120   5.4235830  38.7114430  84.9920220   5.8705130  39.3557170
  86.1629380   4.9185080  39.2352100  89.5945060   6.7777930  54.6436690
  90.3354530   7.1153690  54.1404150  88.8317740   6.9469990  54.0906460
  77.4306850   1.7831200  55.4476220  77.4712190   1.4845070  56.3561450
  78.2852350   2.1838810  55.2883740  81.2085240   4.3826750  40.6079730
  81.6301660   4.2166620  41.4511120  81.3336080   3.5726980  40.1134870
  83.7212880   3.4064360  37.8556830  84.2418540   2.6913380  37.4897980
  84.3681280   4.0450230  38.1557340  88.2690720   4.8292760  53.1791900
  88.6831740   4.9837840  54.0282320  87.3341720   4.9547980  53.3417680
  83.0305950   4.7813240  51.1487830  83.4494060   5.6245970  50.9764070
  82.1114580   4.9185280  50.9194610  85.3669850   2.5129420  52.5325670
  85.4866060   1.9170560  53.2720510  86.2263850   2.5499110  52.1126970
  87.7057750   3.0666610  51.1088180  87.1792970   3.5909230  50.5053320
  88.0489090   3.6994000  51.7397910  80.8813370  11.0866250  52.2645560
  80.3434460  11.8112310  51.9454260  81.1347330  10.6096590  51.4742900
  83.7375580  12.3217460  52.5232210  83.6634280  13.2252600  52.8304580
  82.8354420  12.0029360  52.4954280  84.2860910  11.4875970  40.1458570
  85.1811700  11.8260940  40.1677330  84.3178540  10.7655380  39.5182850
  77.9257070   6.8603020  38.3745570  78.3631940   7.4032690  39.0303150
  78.4104800   6.0349970  38.3841910  75.1402870   9.6492050  45.8265830
  75.4705880   8.7813110  45.5944470  75.5693870   9.8550570  46.6570790
  79.7364790   7.9801060  43.4867800  79.4360330   7.8566030  44.3871710
  79.6302280   7.1209650  43.0783530  75.6293080  10.5162640  48.5647460
  75.1924070  10.6963440  49.3971610  76.1970760  11.2737260  48.4229180
  75.4617510   3.0282870  44.9236340  74.8066350   2.7594510  44.2796040
  76.2995460   2.9187350  44.4738320  89.9506900   6.7431620  50.9500930
  89.1366740   7.1728780  51.2126720  90.3581100   7.3550030  50.3369980
  76.4993440   3.4135440  49.4639680  76.8666480   3.3262840  50.3435700
  75.9304260   2.6501990  49.3646540  90.0082950  11.4950220  44.4769200
  90.6042020  11.1734790  43.8003620  90.2661100  11.0222040  45.2682470
  77.9145520   7.9268130  54.6259830  77.8715150   7.5561040  55.5074290
  78.0456530   8.8645700  54.7661650  81.6151550   9.4827720  50.2269550
  81.3742910   9.7502280  49.3400070  82.5554190   9.6533450  50.2820410
  77.7533550  10.8730380  51.7457610  77.1593870  10.7415080  52.4847650
  77.7457390  10.0368520  51.2799710  90.5595160  12.1445520  48.3066930
  90.0998130  12.8961330  47.9324950  89.9307620  11.4251990  48.2481730
  77.3845780   8.2388760  50.6965650  76.6579840   7.6194050  50.6291600
  77.4454930   8.6329370  49.8263730  80.9890880  10.4533760  47.4815060
  81.5055900   9.8421120  46.9563320  81.6388260  10.9562540  47.9726070
  83.7286380  11.3442250  48.3084040  84.0164190  11.0896550  47.4317050
  84.2409600  10.7919610  48.8989610  75.6675780  11.5563150  43.9062410
  75.4997820  10.9233830  44.6044300  74.8010290  11.7622550  43.5556600
  77.2738480  10.2496380  41.3512550  76.7486100  10.6304410  40.6474510
  77.1983060  10.8747150  42.0722260  83.7958740  12.2658350  55.6752240
  84.7226050  12.0302620  55.7188200  83.7809170  13.0930350  55.1938270
  79.8731450  12.1978760  40.2261800  80.6050270  11.9138040  39.6785690
  80.1325120  11.9592040  41.1161180  79.0346240   8.3143490  40.2308130
  78.4055120   8.7828590  40.7793960  79.1494070   7.4692710  40.6654320
  84.6214000   4.1428170  28.2618600  83.8456100   3.6628610  28.5517170
  85.2726930   3.4633820  28.0874760  78.6379830   4.4547980  29.1394360
  77.8064710   4.1996690  29.5390870  79.2460810   4.5258750  29.8752280
  88.6421430   8.5488360  27.0417730  88.1802960   7.7775600  27.3704900
  89.4546980   8.5754430  27.5470180  78.6181090   8.4888070  29.3352380
  78.9209130   7.5985810  29.1562600  79.3624680   9.0458290  29.1074630
  84.8684740  10.8346370  26.6621720  84.2496180  11.2903870  26.0916160
  85.7236520  10.9897830  26.2611420  84.0622990   6.8185360  28.2688760
  83.9931270   5.8775300  28.1077890  84.8242850   6.9086770  28.8411330
  85.7348090   5.7185610  24.0553630  85.1165360   6.1835060  23.4916350
  86.2471340   6.4113090  24.4723140  80.5979850   5.2461480  30.7337230
  80.2649230   5.8730400  31.3758300  80.7746530   5.7723360  29.9538900
  79.8098950   7.2142280  32.5486410  80.4272950   7.8893360  32.2670860
  78.9492070   7.6230260  32.4573910  75.1031290   6.4042140  21.4293260
  74.7259270   6.8929240  20.6978160  75.3604360   7.0767420  22.0599790
  88.2635280  10.5225820  29.1786230  88.2762440  10.1188110  28.3108490
  87.7110500  11.2973110  29.0747660  89.5580700   7.2442040  24.2676400
  89.4477030   6.3016370  24.3925820  89.5548950   7.6057680  25.1539160
  87.6620720   5.4255660  30.5068840  88.0789510   5.2115770  29.6722300
  88.3860540   5.6828450  31.0777460  85.1000980   2.8707360  23.6238890
  84.1730260   2.8044740  23.8527360  85.2525800   3.8087490  23.5094130
  89.1298270   4.4327660  24.1274140  88.5110690   4.0947210  23.4800440
  89.1122720   3.7887420  24.8353330  80.7057620   3.3972100  26.4058620
  80.3014620   2.6849350  25.9104520  80.7920740   3.0525340  27.2946660
  81.1739320   7.0839660  28.5697830  80.8767610   6.4785130  27.8905610
  82.1239140   7.1216970  28.4587190  89.2624930  10.6571530  32.2320930
  88.7855490  11.4643720  32.0393540  88.5786720  10.0049860  32.3847140
  80.2657750   6.8221350  35.2205630  79.3686280   7.0461320  35.4679030
  80.2910620   6.9456290  34.2717030  87.3062970   3.6714470  21.1346890
  87.7456250   2.8336900  20.9884710  88.0191390   4.3043870  21.2211030
  79.0928970   3.6934670  33.7963000  78.9536740   4.5657470  34.1650400
  78.2110330   3.3507480  33.6510940  85.4158350   8.6110540  25.1028130
  85.8554260   9.3534870  24.6883520  85.3545240   8.8537110  26.0267090
  80.8909320   9.6356370  36.0048150  80.8624750  10.0399320  35.1376580
  80.7274290   8.7066730  35.8419750  77.4062250   2.2917080  23.9065270
  77.2859850   3.0179170  23.2946540  77.0963140   1.5219990  23.4293180
  75.0447620   5.4632220  29.7133910  75.1228040   5.5980990  28.7689630
  75.6589300   4.7548110  29.9062030  76.2895250   7.1632410  26.1240090
  75.8823330   7.3047000  25.2693690  77.1808260   6.8792570  25.9211300
  86.1074130  11.3124320  33.0307140  86.6218800  11.2232330  33.8329570
  85.2643210  11.6584020  33.3235050  88.0828530  11.5979660  22.4591140
  87.9229670  11.3082600  23.3572970  87.9175240  10.8219790  21.9236370
  80.5616910  11.3778190  24.2362760  80.3859390  10.4613730  24.0230560
  79.7072650  11.7365480  24.4760560  87.7854660   9.1067220  21.0189140
  87.0919820   9.1044510  20.3591420  88.5277520   8.6826540  20.5883310
  87.3504590  10.7329930  25.0937630  87.8061540   9.9519310  25.4076250
  87.6897110  11.4436750  25.6378810  75.1007140   6.5046390  32.2528370
  75.2638180   6.0351750  31.4347740  75.5659590   5.9969950  32.9177210
  81.5976940   1.9785800  20.5357450  81.0293840   1.5304050  19.9093360
  82.3065940   2.3378580  20.0022600  76.6746120   5.8797820  34.4124180
  76.2900910   5.2391490  35.0107140  76.9858310   6.5833940  34.9818910
  82.8243260   2.7274360  29.8932800  83.1913390   2.2532930  30.6394140
  82.6348320   3.6015930  30.2341140  80.6142630   1.7683000  32.2117010
  80.3099700   2.6474980  32.4367370  81.5689090   1.8282790  32.2474450
  79.1424420   5.9743990  22.8083860  78.3686680   5.4341610  22.6482580
  79.8719050   5.4550600  22.4701620  89.9012400   4.9709350  28.6010250
  90.6211520   5.4664640  28.2106360  89.6994220   4.2927240  27.9564120
  85.2831200   5.0418410  34.4879250  85.2168510   4.1214080  34.2336840
  84.6536340   5.1393850  35.2023890  79.1861820   5.6424370  26.4462670
  79.7040490   4.8392630  26.3919560  78.7345840   5.5803510  27.2879500
  84.0731320   6.9090650  21.7189970  84.4147020   7.6532880  21.2233290
  83.2444030   7.2221770  22.0814800  76.6706360   2.6085740  33.3588370
  76.3121300   3.2739590  33.9461710  76.3760920   1.7769290  33.7300990
  79.8719480   3.0669980  36.2427920  79.5719620   3.2127160  35.3455740
  80.6430720   2.5075270  36.1501310  85.2147930   7.8638980  34.2383050
  85.2292470   6.9319940  34.0201960  84.5073030   7.9498740  34.8772820
  86.9558730   6.2306490  27.0835480  87.3082550   5.6334620  26.4236850
  86.0721060   5.9050720  27.2543730  83.0422010   6.9904180  24.4905890
  83.7293140   7.5373390  24.8713480  82.2554430   7.5344910  24.5255500
  75.1814410   2.6077000  19.9822970  76.0509260   2.8901800  20.2658890
  74.6904730   3.4212870  19.8671780  82.3449220   3.9950210  24.1031250
  82.8012000   4.8055460  24.3291440  81.9937430   3.6773350  24.9349740
  84.6481830   9.5056550  31.3323550  85.2924050   9.7115930  32.0096970
  85.0111270   8.7444950  30.8794400  85.9213910   7.5088900  30.0501000
  86.5636140   6.8082060  30.1633170  86.4463260   8.2887340  29.8697890
  89.7669630   7.7937520  19.7740140  89.5407210   7.0767960  20.3664780
  89.3765830   7.5449960  18.9361890  87.6951530   8.3083800  33.2537060
  88.0307770   8.8950490  33.9314980  86.7751870   8.1776510  33.4834850
  75.5485660  11.8204380  20.5484600  75.9083300  12.4193720  19.8941870
  75.4078000  12.3664270  21.3219630  89.3485880   5.7109460  21.4354300
  89.0607580   6.1722150  22.2232180  90.1438050   5.2507230  21.7038520
  75.5327520  10.0859240  35.0227000  75.6418640   9.1453980  34.8822390
  74.8808080  10.3513990  34.3740730  83.5240110   8.3575130  36.4225120
  83.2036980   7.6384370  36.9670810  82.8498470   9.0330200  36.4961180
  81.5654280   9.2035580  21.3658270  81.5564380   9.9365270  20.7502780
  80.6452640   8.9567160  21.4585230  77.1660920   4.4250470  22.1105030
  76.5588870   5.1649370  22.1200330  77.6410270   4.5149830  21.2843230
  84.5513880   9.2663820  20.0283460  84.6525860   9.0627810  19.0985440
  83.6515620   9.0122100  20.2331240  83.1931990  11.7850140  24.7231130
  83.4473490  11.7471530  23.8010500  82.2444470  11.6583470  24.7159380
  89.1984570   2.7042020  26.2989640  88.2574710   2.7192250  26.4737330
  89.5128640   1.9177980  26.7449940  79.1766210   4.3861620  19.8593600
  79.9429480   4.2742980  20.4219030  79.2540900   3.6899590  19.2070370
  78.6727680  11.9682080  27.6461030  79.4090160  11.4197540  27.9169600
  79.0568600  12.8338090  27.5067020  75.5573160   8.0355650  23.5202540
  74.6312940   8.2776790  23.5107950  76.0229590   8.8629910  23.3987290
  77.6785960  11.1528150  36.8346610  78.4798690  11.4740200  37.2482010
  77.1637780  10.7923730  37.5566520  81.7829990  11.1412390  19.4686600
  82.5758600  11.4301220  19.0168390  81.2634340  10.7104560  18.7899080
  86.5150590   7.2608020  36.7822020  85.9088750   7.2839620  36.0417770
  86.2104700   6.5291060  37.3189270  87.9450960  10.9888310  35.3931430
  88.8972710  10.9046330  35.3431670  87.7979180  11.6530020  36.0665220
  90.8360160  10.3682520  20.8923340  90.5501670   9.9547660  20.0777520
  90.6379710  11.2970230  20.7723860  75.3983770   3.6401610  35.7782660
  75.9022790   3.0608890  36.3498890  74.6591190   3.9241840  36.3159030
  82.3007390   6.3615800  19.3328950  82.1958030   5.7468150  20.0590330
  82.1331610   5.8381690  18.5491960  82.4521710   5.0472600  35.3118180
  81.6867380   5.6157600  35.2272850  82.6337670   4.7548810  34.4186410
  85.5410120   5.4235830  19.9370940  84.9920220   5.8705130  20.5813680
  86.1629380   4.9185080  20.4608610  89.5945060   6.7777930  35.8693200
  90.3354530   7.1153690  35.3660660  88.8317740   6.9469990  35.3162970
  77.4306850   1.7831200  36.6732730  77.4712190   1.4845070  37.5817960
  78.2852350   2.1838810  36.5140250  81.2085240   4.3826750  21.8336240
  81.6301660   4.2166620  22.6767630  81.3336080   3.5726980  21.3391380
  83.7212880   3.4064360  19.0813340  84.2418540   2.6913380  18.7154490
  84.3681280   4.0450230  19.3813850  88.2690720   4.8292760  34.4048410
  88.6831740   4.9837840  35.2538830  87.3341720   4.9547980  34.5674190
  83.0305950   4.7813240  32.3744340  83.4494060   5.6245970  32.2020580
  82.1114580   4.9185280  32.1451120  85.3669850   2.5129420  33.7582180
  85.4866060   1.9170560  34.4977020  86.2263850   2.5499110  33.3383480
  87.7057750   3.0666610  32.3344690  87.1792970   3.5909230  31.7309830
  88.0489090   3.6994000  32.9654420  80.8813370  11.0866250  33.4902070
  80.3434460  11.8112310  33.1710770  81.1347330  10.6096590  32.6999410
  83.7375580  12.3217460  33.7488720  83.6634280  13.2252600  34.0561090
  82.8354420  12.0029360  33.7210790  84.2860910  11.4875970  21.3715080
  85.1811700  11.8260940  21.3933840  84.3178540  10.7655380  20.7439360
  77.9257070   6.8603020  19.6002080  78.3631940   7.4032690  20.2559660
  78.4104800   6.0349970  19.6098420  75.1402870   9.6492050  27.0522340
  75.4705880   8.7813110  26.8200980  75.5693870   9.8550570  27.8827300
  79.7364790   7.9801060  24.7124310  79.4360330   7.8566030  25.6128220
  79.6302280   7.1209650  24.3040040  75.6293080  10.5162640  29.7903970
  75.1924070  10.6963440  30.6228120  76.1970760  11.2737260  29.6485690
  75.4617510   3.0282870  26.1492850  74.8066350   2.7594510  25.5052550
  76.2995460   2.9187350  25.6994830  89.9506900   6.7431620  32.1757440
  89.1366740   7.1728780  32.4383230  90.3581100   7.3550030  31.5626490
  76.4993440   3.4135440  30.6896190  76.8666480   3.3262840  31.5692210
  75.9304260   2.6501990  30.5903050  90.0082950  11.4950220  25.7025710
  90.6042020  11.1734790  25.0260130  90.2661100  11.0222040  26.4938980
  77.9145520   7.9268130  35.8516340  77.8715150   7.5561040  36.7330800
  78.0456530   8.8645700  35.9918160  81.6151550   9.4827720  31.4526060
  81.3742910   9.7502280  30.5656580  82.5554190   9.6533450  31.5076920
  77.7533550  10.8730380  32.9714120  77.1593870  10.7415080  33.7104160
  77.7457390  10.0368520  32.5056220  90.5595160  12.1445520  29.5323440
  90.0998130  12.8961330  29.1581460  89.9307620  11.4251990  29.4738240
  77.3845780   8.2388760  31.9222160  76.6579840   7.6194050  31.8548110
  77.4454930   8.6329370  31.0520240  80.9890880  10.4533760  28.7071570
  81.5055900   9.8421120  28.1819830  81.6388260  10.9562540  29.1982580
  83.7286380  11.3442250  29.5340550  84.0164190  11.0896550  28.6573560
  84.2409600  10.7919610  30.1246120  75.6675780  11.5563150  25.1318920
  75.4997820  10.9233830  25.8300810  74.8010290  11.7622550  24.7813110
  77.2738480  10.2496380  22.5769060  76.7486100  10.6304410  21.8731020
  77.1983060  10.8747150  23.2978770  83.7958740  12.2658350  36.9008750
  84.7226050  12.0302620  36.9444710  83.7809170  13.0930350  36.4194780
  79.8731450  12.1978760  21.4518310  80.6050270  11.9138040  20.9042200
  80.1325120  11.9592040  22.3417690  79.0346240   8.3143490  21.4564640
  78.4055120   8.7828590  22.0050470  79.1494070   7.4692710  21.8910830
  84.6214000   4.1428170   9.4875110  83.8456100   3.6628610   9.7773680
  85.2726930   3.4633820   9.3131270  78.6379830   4.4547980  10.3650870
  77.8064710   4.1996690  10.7647380  79.2460810   4.5258750  11.1008790
  88.6421430   8.5488360   8.2674240  88.1802960   7.7775600   8.5961410
  89.4546980   8.5754430   8.7726690  78.6181090   8.4888070  10.5608890
  78.9209130   7.5985810  10.3819110  79.3624680   9.0458290  10.3331140
  84.8684740  10.8346370   7.8878230  84.2496180  11.2903870   7.3172670
  85.7236520  10.9897830   7.4867930  84.0622990   6.8185360   9.4945270
  83.9931270   5.8775300   9.3334400  84.8242850   6.9086770  10.0667840
  85.7348090   5.7185610   5.2810140  85.1165360   6.1835060   4.7172860
  86.2471340   6.4113090   5.6979650  80.5979850   5.2461480  11.9593740
  80.2649230   5.8730400  12.6014810  80.7746530   5.7723360  11.1795410
  79.8098950   7.2142280  13.7742920  80.4272950   7.8893360  13.4927370
  78.9492070   7.6230260  13.6830420  75.1031290   6.4042140   2.6549770
  74.7259270   6.8929240   1.9234670  75.3604360   7.0767420   3.2856300
  88.2635280  10.5225820  10.4042740  88.2762440  10.1188110   9.5365000
  87.7110500  11.2973110  10.3004170  89.5580700   7.2442040   5.4932910
  89.4477030   6.3016370   5.6182330  89.5548950   7.6057680   6.3795670
  87.6620720   5.4255660  11.7325350  88.0789510   5.2115770  10.8978810
  88.3860540   5.6828450  12.3033970  85.1000980   2.8707360   4.8495400
  84.1730260   2.8044740   5.0783870  85.2525800   3.8087490   4.7350640
  89.1298270   4.4327660   5.3530650  88.5110690   4.0947210   4.7056950
  89.1122720   3.7887420   6.0609840  80.7057620   3.3972100   7.6315130
  80.3014620   2.6849350   7.1361030  80.7920740   3.0525340   8.5203170
  81.1739320   7.0839660   9.7954340  80.8767610   6.4785130   9.1162120
  82.1239140   7.1216970   9.6843700  89.2624930  10.6571530  13.4577440
  88.7855490  11.4643720  13.2650050  88.5786720  10.0049860  13.6103650
  80.2657750   6.8221350  16.4462140  79.3686280   7.0461320  16.6935540
  80.2910620   6.9456290  15.4973540  87.3062970   3.6714470   2.3603400
  87.7456250   2.8336900   2.2141220  88.0191390   4.3043870   2.4467540
  79.0928970   3.6934670  15.0219510  78.9536740   4.5657470  15.3906910
  78.2110330   3.3507480  14.8767450  85.4158350   8.6110540   6.3284640
  85.8554260   9.3534870   5.9140030  85.3545240   8.8537110   7.2523600
  80.8909320   9.6356370  17.2304660  80.8624750  10.0399320  16.3633090
  80.7274290   8.7066730  17.0676260  77.4062250   2.2917080   5.1321780
  77.2859850   3.0179170   4.5203050  77.0963140   1.5219990   4.6549690
  75.0447620   5.4632220  10.9390420  75.1228040   5.5980990   9.9946140
  75.6589300   4.7548110  11.1318540  76.2895250   7.1632410   7.3496600
  75.8823330   7.3047000   6.4950200  77.1808260   6.8792570   7.1467810
  86.1074130  11.3124320  14.2563650  86.6218800  11.2232330  15.0586080
  85.2643210  11.6584020  14.5491560  88.0828530  11.5979660   3.6847650
  87.9229670  11.3082600   4.5829480  87.9175240  10.8219790   3.1492880
  80.5616910  11.3778190   5.4619270  80.3859390  10.4613730   5.2487070
  79.7072650  11.7365480   5.7017070  87.3504590  10.7329930   6.3194140
  87.8061540   9.9519310   6.6332760  87.6897110  11.4436750   6.8635320
  75.1007140   6.5046390  13.4784880  75.2638180   6.0351750  12.6604250
  75.5659590   5.9969950  14.1433720  76.6746120   5.8797820  15.6380690
  76.2900910   5.2391490  16.2363650  76.9858310   6.5833940  16.2075420
  82.8243260   2.7274360  11.1189310  83.1913390   2.2532930  11.8650650
  82.6348320   3.6015930  11.4597650  80.6142630   1.7683000  13.4373520
  80.3099700   2.6474980  13.6623880  81.5689090   1.8282790  13.4730960
  79.1424420   5.9743990   4.0340370  78.3686680   5.4341610   3.8739090
  79.8719050   5.4550600   3.6958130  89.9012400   4.9709350   9.8266760
  90.6211520   5.4664640   9.4362870  89.6994220   4.2927240   9.1820630
  85.2831200   5.0418410  15.7135760  85.2168510   4.1214080  15.4593350
  84.6536340   5.1393850  16.4280400  79.1861820   5.6424370   7.6719180
  79.7040490   4.8392630   7.6176070  78.7345840   5.5803510   8.5136010
  84.0731320   6.9090650   2.9446480  84.4147020   7.6532880   2.4489800
  83.2444030   7.2221770   3.3071310  76.6706360   2.6085740  14.5844880
  76.3121300   3.2739590  15.1718220  76.3760920   1.7769290  14.9557500
  79.8719480   3.0669980  17.4684430  79.5719620   3.2127160  16.5712250
  80.6430720   2.5075270  17.3757820  85.2147930   7.8638980  15.4639560
  85.2292470   6.9319940  15.2458470  84.5073030   7.9498740  16.1029330
  86.9558730   6.2306490   8.3091990  87.3082550   5.6334620   7.6493360
  86.0721060   5.9050720   8.4800240  83.0422010   6.9904180   5.7162400
  83.7293140   7.5373390   6.0969990  82.2554430   7.5344910   5.7512010
  82.3449220   3.9950210   5.3287760  82.8012000   4.8055460   5.5547950
  81.9937430   3.6773350   6.1606250  84.6481830   9.5056550  12.5580060
  85.2924050   9.7115930  13.2353480  85.0111270   8.7444950  12.1050910
  85.9213910   7.5088900  11.2757510  86.5636140   6.8082060  11.3889680
  86.4463260   8.2887340  11.0954400  87.6951530   8.3083800  14.4793570
  88.0307770   8.8950490  15.1571490  86.7751870   8.1776510  14.7091360
  89.3485880   5.7109460   2.6610810  89.0607580   6.1722150   3.4488690
  90.1438050   5.2507230   2.9295030  75.5327520  10.0859240  16.2483510
  75.6418640   9.1453980  16.1078900  74.8808080  10.3513990  15.5997240
  83.5240110   8.3575130  17.6481630  83.2036980   7.6384370  18.1927320
  82.8498470   9.0330200  17.7217690  81.5654280   9.2035580   2.5914780
  81.5564380   9.9365270   1.9759290  80.6452640   8.9567160   2.6841740
  77.1660920   4.4250470   3.3361540  76.5588870   5.1649370   3.3456840
  77.6410270   4.5149830   2.5099740  83.1931990  11.7850140   5.9487640
  83.4473490  11.7471530   5.0267010  82.2444470  11.6583470   5.9415890
  89.1984570   2.7042020   7.5246150  88.2574710   2.7192250   7.6993840
  89.5128640   1.9177980   7.9706450  78.6727680  11.9682080   8.8717540
  79.4090160  11.4197540   9.1426110  79.0568600  12.8338090   8.7323530
  75.5573160   8.0355650   4.7459050  74.6312940   8.2776790   4.7364460
  76.0229590   8.8629910   4.6243800  77.6785960  11.1528150  18.0603120
  78.4798690  11.4740200  18.4738520  77.1637780  10.7923730  18.7823030
  86.5150590   7.2608020  18.0078530  85.9088750   7.2839620  17.2674280
  86.2104700   6.5291060  18.5445780  87.9450960  10.9888310  16.6187940
  88.8972710  10.9046330  16.5688180  87.7979180  11.6530020  17.2921730
  75.3983770   3.6401610  17.0039170  75.9022790   3.0608890  17.5755400
  74.6591190   3.9241840  17.5415540  82.4521710   5.0472600  16.5374690
  81.6867380   5.6157600  16.4529360  82.6337670   4.7548810  15.6442920
  89.5945060   6.7777930  17.0949710  90.3354530   7.1153690  16.5917170
  88.8317740   6.9469990  16.5419480  77.4306850   1.7831200  17.8989240
  77.4712190   1.4845070  18.8074470  78.2852350   2.1838810  17.7396760
  81.2085240   4.3826750   3.0592750  81.6301660   4.2166620   3.9024140
  81.3336080   3.5726980   2.5647890  88.2690720   4.8292760  15.6304920
  88.6831740   4.9837840  16.4795340  87.3341720   4.9547980  15.7930700
  83.0305950   4.7813240  13.6000850  83.4494060   5.6245970  13.4277090
  82.1114580   4.9185280  13.3707630  85.3669850   2.5129420  14.9838690
  85.4866060   1.9170560  15.7233530  86.2263850   2.5499110  14.5639990
  87.7057750   3.0666610  13.5601200  87.1792970   3.5909230  12.9566340
  88.0489090   3.6994000  14.1910930  80.8813370  11.0866250  14.7158580
  80.3434460  11.8112310  14.3967280  81.1347330  10.6096590  13.9255920
  83.7375580  12.3217460  14.9745230  83.6634280  13.2252600  15.2817600
  82.8354420  12.0029360  14.9467300  84.2860910  11.4875970   2.5971590
  85.1811700  11.8260940   2.6190350  84.3178540  10.7655380   1.9695870
  75.1402870   9.6492050   8.2778850  75.4705880   8.7813110   8.0457490
  75.5693870   9.8550570   9.1083810  79.7364790   7.9801060   5.9380820
  79.4360330   7.8566030   6.8384730  79.6302280   7.1209650   5.5296550
  75.6293080  10.5162640  11.0160480  75.1924070  10.6963440  11.8484630
  76.1970760  11.2737260  10.8742200  75.4617510   3.0282870   7.3749360
  74.8066350   2.7594510   6.7309060  76.2995460   2.9187350   6.9251340
  89.9506900   6.7431620  13.4013950  89.1366740   7.1728780  13.6639740
  90.3581100   7.3550030  12.7883000  76.4993440   3.4135440  11.9152700
  76.8666480   3.3262840  12.7948720  75.9304260   2.6501990  11.8159560
  90.0082950  11.4950220   6.9282220  90.6042020  11.1734790   6.2516640
  90.2661100  11.0222040   7.7195490  77.9145520   7.9268130  17.0772850
  77.8715150   7.5561040  17.9587310  78.0456530   8.8645700  17.2174670
  81.6151550   9.4827720  12.6782570  81.3742910   9.7502280  11.7913090
  82.5554190   9.6533450  12.7333430  77.7533550  10.8730380  14.1970630
  77.1593870  10.7415080  14.9360670  77.7457390  10.0368520  13.7312730
  90.5595160  12.1445520  10.7579950  90.0998130  12.8961330  10.3837970
  89.9307620  11.4251990  10.6994750  77.3845780   8.2388760  13.1478670
  76.6579840   7.6194050  13.0804620  77.4454930   8.6329370  12.2776750
  80.9890880  10.4533760   9.9328080  81.5055900   9.8421120   9.4076340
  81.6388260  10.9562540  10.4239090  83.7286380  11.3442250  10.7597060
  84.0164190  11.0896550   9.8830070  84.2409600  10.7919610  11.3502630
  75.6675780  11.5563150   6.3575430  75.4997820  10.9233830   7.0557320
  74.8010290  11.7622550   6.0069620  77.2738480  10.2496380   3.8025570
  76.7486100  10.6304410   3.0987530  77.1983060  10.8747150   4.5235280
  83.7958740  12.2658350  18.1265260  84.7226050  12.0302620  18.1701220
  83.7809170  13.0930350  17.6451290  79.8731450  12.1978760   2.6774820
  80.6050270  11.9138040   2.1298710  80.1325120  11.9592040   3.5674200
  79.0346240   8.3143490   2.6821150  78.4055120   8.7828590   3.2306980
  79.1494070   7.4692710   3.1167340  67.7152470  96.2366600  63.9296310
  67.6346520  95.3221210  63.6588020  67.3016890  96.7333670  63.2236020
  65.8470510  98.0145620  65.8105580  65.0712610  97.5346060  66.1004150
  66.4983440  97.3351270  65.6361740  59.8636340  98.3265430  66.6881340
  59.0321220  98.0714140  67.0877850  60.4717320  98.3976200  67.4239260
  58.2728290  93.2867320  60.4723730  57.3844990  93.6283290  60.3703610
  58.5569480  93.0867640  59.5804560  56.2361300  95.8872970  66.3563430
  56.8077410  95.1195170  66.3567070  56.2362840  96.1861730  65.4470040
  57.4786170  91.2957330  68.1432360  57.2989010  90.3983080  68.4235120
  57.0766250  91.8429200  68.8179310  66.3184670  93.4973190  66.0444670
  66.6949490  92.6245070  65.9318340  66.2204180  93.8331890  65.1535110
  60.4489680  91.8698820  61.5062110  60.5556430  92.7702550  61.8130870
  59.5382040  91.8216790  61.2156760  70.1008790  90.9923630  62.9773010
  70.9218410  90.5020200  63.0198490  70.1342870  91.5821290  63.7304850
  58.0972840  93.7917830  66.7514700  58.7782950  94.0556200  67.3702100
  57.7820890  92.9518700  67.0852710  62.2897410  94.8385190  65.8387290
  62.7975630  95.3366160  66.4792310  62.8210650  94.0620390  65.6626650
  74.3908340  93.0090380  69.5416640  73.6860510  93.3972090  69.0231750
  74.6566260  93.7040670  70.1437570  60.5733510  89.4783750  70.1050710
  60.5751950  89.9956140  69.2996610  59.7437820  89.0013930  70.0820640
  70.3370270  92.9324010  65.7500550  69.6325840  93.2208900  66.3303660
  70.6982430  93.7424120  65.3900110  60.2548840  91.1893710  68.1121160
  60.5965650  92.0335760  67.8175030  59.3164650  91.3377450  68.2286500
  73.4057190  92.3778800  66.1409760  72.4582100  92.4117780  66.2725190
  73.7307180  93.1917750  66.5259120  63.9376730  88.6775980  64.4365750
  64.2451710  88.1222870  63.7201250  63.0077430  88.8120440  64.2538740
  66.3257490  96.7424810  61.1725870  65.3986770  96.6762190  61.4014340
  66.4782310  97.6804940  61.0581110  66.3126570  93.0141810  58.1693030
  65.3730240  93.1755770  58.2545490  66.6309830  93.7327490  57.6229020
  72.8339330  97.6960330  68.1472060  72.0057960  97.7653420  67.6722190
  73.4289810  98.2814640  67.6787890  70.3554780  98.3045110  61.6761120
  69.7367200  97.9664660  61.0287420  70.3379230  97.6604870  62.3840310
  69.7981340  94.4829650  69.0926930  69.3852520  95.3083360  69.3466920
  69.0657290  93.8974690  68.9003290  61.9314130  97.2689550  63.9545600
  61.5271130  96.5566800  63.4591500  62.0177250  96.9242790  64.8433640
  60.6442750  94.0432760  67.7344640  61.1957340  94.1528100  66.9597890
  61.1586260  94.4170360  68.4499870  68.5319480  97.5431920  58.6833870
  68.9712760  96.7054350  58.5371690  69.2447900  98.1761320  58.7698010
  60.3185480  97.5652120  71.3449980  60.1793250  98.4374920  71.7137380
  59.4366840  97.2224930  71.1997920  72.1136620  88.7974730  56.9974910
  71.8009280  88.8901560  57.8973980  72.8749090  89.3755760  56.9472340
  58.6318760  96.1634530  61.4552250  58.5116360  96.8896620  60.8433520
  58.3219650  95.3937440  60.9780160  73.3237910  93.5346230  72.9749050
  72.7082180  94.0425900  72.4464510  73.0034330  92.6344560  72.9174990
  61.0982420  89.5069600  64.8375920  60.6550570  90.2879140  64.5060440
  61.6567410  89.8299490  65.5446860  65.3852230  92.3738120  70.4411240
  64.9231600  92.5821140  71.2531180  64.9830340  91.5597470  70.1381910
  70.3856740  93.5947070  71.5707900  69.5350330  93.2952820  71.8916970
  70.2258530  93.8389080  70.6591720  64.2141240  89.1280300  59.7181750
  63.5895420  89.1240170  60.4435060  64.1271360  88.2611260  59.3217720
  63.1358320  90.0516930  66.6965520  63.4330650  90.9579760  66.6157540
  63.6843880  89.5635710  66.0825090  60.8896640  94.6303170  62.5657170
  60.6637560  94.4140340  63.4703790  60.1089170  95.0631630  62.2203140
  68.1194400  94.6366540  61.1647820  67.5203290  95.3602340  60.9811440
  68.6674010  94.5743320  60.3824270  66.7259270  93.2730080  63.1951100
  67.1188840  93.5902280  62.3819790  67.0876120  92.3941960  63.3095620
  58.4606390  91.9402420  71.3851220  58.0669780  92.7877630  71.5924000
  57.7724790  91.3028790  71.5759860  55.7623440  89.8630880  65.4181300
  55.4736490  90.4333740  66.1306280  56.5069200  89.3835330  65.7812530
  55.9493670  93.8051000  56.6284020  55.8668340  94.7481760  56.7699010
  55.5976730  93.6625910  55.7496370  67.3114410  95.8635830  67.2901880
  66.5795530  96.3722640  67.6391980  66.9138750  95.0465810  66.9890660
  63.7491800  92.5390030  65.6954370  63.7527860  92.0979980  64.8458910
  64.6442920  92.8607360  65.8026190  59.5994180  92.4216520  64.6548580
  59.2594230  92.8991750  65.4115630  58.8371500  91.9681640  64.2949680
  63.8111950  93.5402110  58.6861130  63.9324770  93.4988590  59.6346950
  63.4260460  94.4026260  58.5307860  67.7740320  91.3169510  66.7024820
  67.7913060  91.7678160  67.5466670  67.5255900  90.4175150  66.9158260
  62.8233450  95.8503250  58.0844430  62.2550350  95.4021500  57.4580340
  63.5322450  96.2096030  57.5509580  64.0499770  96.5991810  67.4419780
  64.4169900  96.1250380  68.1881120  63.8604830  97.4733380  67.7828120
  56.9140260  91.3435500  63.5713250  56.6287180  90.9791170  64.4091870
  56.8519120  90.6115960  62.9576390  61.8399140  95.6400450  69.7603990
  61.5356210  96.5192430  69.9854350  62.7945600  95.7000240  69.7961430
  66.5878850  90.2364760  60.2926620  65.7743460  89.7377930  60.2171930
  66.3940800  91.0763010  59.8762970  69.3027240  94.6084410  58.5888780
  70.1906860  94.9201640  58.4140120  69.2732330  93.7356660  58.1969360
  57.8962870  96.4803190  70.9075350  57.5377810  97.1457040  71.4948690
  57.6017430  95.6486740  71.2787970  71.5741510  95.9196250  58.0568640
  71.4905230  96.3510470  57.2065080  72.2935700  96.3794600  58.4895460
  56.4070920  96.4794450  57.5309950  57.2765770  96.7619250  57.8145870
  55.9161240  97.2930320  57.4158760  63.5705730  97.8667660  61.6518230
  64.0268510  98.6772910  61.8778420  63.2193940  97.5490800  62.4836720
  59.4717510  88.2105310  62.1240750  59.3432140  88.2023210  63.0725670
  58.6479530  88.5488400  61.7731760  56.4711440  89.9696430  71.5847450
  55.7569960  90.1693350  72.1900060  56.8906480  89.1936000  71.9562250
  67.9650220  92.4618740  69.3348900  68.3331040  91.6413950  69.6628470
  67.1048420  92.5220630  69.7504550  71.3312250  91.4175680  60.1436460
  70.7025410  91.5221350  59.4294690  70.8364170  91.6372460  60.9330340
  63.2996280  93.6961630  61.5594340  62.5912430  94.1647970  62.0007950
  63.5840760  93.0383640  62.1939530  64.9252210  95.1158330  69.5586870
  65.4237460  95.5904150  70.2238720  65.0675160  94.1921850  69.7656900
  67.3311710  90.4212290  62.9990130  67.2079490  90.4398420  62.0499640
  68.2796270  90.4691230  63.1188530  61.5031300  92.0046710  58.9345050
  62.3521830  92.4416860  58.8685240  61.1362570  92.3166970  59.7617110
  72.1319070  91.3326290  70.4015260  71.6292670  92.0731690  70.7409070
  72.9475730  91.7210290  70.0852050  70.4241080  96.5759470  63.8476620
  69.4831220  96.5909700  64.0224310  70.7385150  95.7895430  64.2936920
  60.4022720  98.2579070  57.4080580  61.1685990  98.1460430  57.9706010
  60.4797410  97.5617040  56.7557350  59.0969480  95.6904140  58.0913470
  59.1773070  94.7431650  58.2030870  59.9889230  96.0211020  58.1974130
  62.4341750  98.2544200  59.3823220  62.8558170  98.0884070  60.2254610
  62.5592590  97.4444430  58.8878360  60.5969170  94.2340750  72.1894200
  60.0665630  93.7431700  71.5617540  61.2657240  94.6624950  71.6552130
  64.9469390  97.2781810  56.6300320  65.4675050  96.5630830  56.2641470
  65.5937790  97.9167680  56.9300830  61.0841470  91.2003120  72.2691490
  60.9898340  90.5823870  71.5442360  60.5038860  91.9269410  72.0421400
  63.8502910  89.7576360  69.3018880  63.4020210  89.7800620  68.4564430
  63.2168110  89.3595380  69.8989180  66.5926360  96.3846870  71.3069160
  66.7122570  95.7888010  72.0464000  67.4520360  96.4216560  70.8870460
  68.9314260  96.9384060  69.8831670  68.4049480  97.4626680  69.2796810
  69.2745600  97.5711450  70.5141400  61.3300650  94.3277430  56.3281380
  61.1289710  93.4644790  56.6894720  61.1592700  94.2410790  55.3902980
  68.8088960  89.1385660  58.8568260  69.0891250  88.2953560  59.2127680
  68.0354690  89.3708770  59.3707010  60.1283450  91.4278050  56.3159260
  60.4309350  91.4345480  55.4078410  60.8678040  91.0775910  56.8126920
  63.3468380  90.3712670  57.3015460  62.9990380  89.6936660  56.7217910
  63.5481150  89.9102180  58.1158850  56.6874020  96.9000320  63.6979830
  56.0322860  96.6311960  63.0539530  57.5251970  96.7904800  63.2481810
  69.6364460  91.6941610  57.9198320  70.0549340  91.5072590  57.0794980
  69.3300520  90.8420660  58.2301250  73.1354190  96.6065750  61.6174120
  72.7597790  95.8393680  61.1855410  72.4057310  96.9888450  62.1049050
  57.7249950  97.2852890  68.2383170  58.0922990  97.1980290  69.1179190
  57.1560770  96.5219440  68.1390030  72.5253810  95.7537270  71.2513640
  72.2939900  95.5250020  70.3511590  72.7858360  96.6736820  71.2058530
  57.2765950  94.1961980  72.1441590  56.3822000  94.1628740  72.4835300
  57.8163500  94.3948770  72.9092840  55.9012100  94.1099250  59.6405160
  54.9976180  94.3729450  59.4656820  56.3852720  94.3810420  58.8605120
  72.4105150  94.8323240  64.9181360  72.9342630  94.3385890  64.2871530
  72.9964570  94.9673600  65.6628930  72.5894870  94.9163110  68.4400910
  71.6397580  94.8826650  68.5545900  72.7707880  95.8263220  68.2050680
  58.4439310  93.1664790  57.5499540  59.1531010  92.7448010  57.0646820
  57.7279250  93.2340020  56.9182890  58.0913470  89.2204120  56.5902190
  58.8141600  89.7613060  56.9083410  58.3637990  88.9467540  55.7143730
  71.9005120  94.0896590  60.8573770  72.3964240  93.8567460  61.6422650
  71.7021190  93.2508430  60.4411410  57.7805660  88.4710310  66.4924810
  58.4281850  87.9207690  66.0519970  58.2007500  88.7253460  67.3140620
  73.3292280  92.7257540  63.3911450  73.2191560  92.5713580  64.3293720
  74.0899870  92.1978480  63.1486860  71.6758000  88.6651670  69.8494450
  72.3130220  89.2785810  70.2153640  71.8232890  88.7012330  68.9043680
  74.2182550  90.5565460  56.6317590  75.1431860  90.4246640  56.4235880
  74.1958340  90.6358280  57.5854040  74.2921040  91.3276120  59.2574300
  73.4972540  91.2621240  59.7867210  74.4964320  92.2626760  59.2459650
  57.5337660  88.6265980  69.2350130  57.1852480  89.0829800  70.0008310
  57.2025360  87.7323110  69.3172560  68.4245080  88.0380060  68.7231130
  67.5504920  88.3715170  68.5204060  68.3155830  87.5653240  69.5483000
  69.3317060  90.2450930  70.1072850  69.0030420  89.4302690  69.7274580
  70.2799360  90.2020740  69.9838540  66.1719900  88.9549900  67.6624040
  65.3891690  89.4295400  67.9420800  65.8782830  88.0504730  67.5537220
  70.7240970  89.6573000  65.7073130  71.1649060  89.6018100  64.8594730
  70.4548560  90.5731010  65.7783310  72.5879540  89.2888240  63.7181950
  72.5267940  88.3449460  63.5712970  73.3671570  89.3968330  64.2635410
  57.5160310  89.2597380  60.1837760  58.2739670  89.3726260  59.6101790
  57.0537480  90.0966580  60.1381190  64.0574120  91.3736650  63.1740070
  63.2448630  90.9993540  62.8335950  64.5615760  90.6181730  63.4761260
  68.5599100  88.0379100  64.4123140  69.1628470  88.6099310  64.8871660
  67.8192090  88.6018540  64.1897040  71.7033700  88.4400660  59.6863420
  71.8984330  89.3384110  59.9530850  70.9163570  88.2087740  60.1796370
  59.8885460  89.7861430  58.7239730  60.4178220  88.9991230  58.5947680
  60.5213780  90.4652620  58.9575260  62.0823300  89.5236570  61.7785120
  61.4526040  88.8223880  61.9455250  61.5428440  90.2840700  61.5618280
  67.7152470  96.2366600  45.1552820  67.6346520  95.3221210  44.8844530
  67.3016890  96.7333670  44.4492530  65.8470510  98.0145620  47.0362090
  65.0712610  97.5346060  47.3260660  66.4983440  97.3351270  46.8618250
  59.8636340  98.3265430  47.9137850  59.0321220  98.0714140  48.3134360
  60.4717320  98.3976200  48.6495770  58.2728290  93.2867320  41.6980240
  57.3844990  93.6283290  41.5960120  58.5569480  93.0867640  40.8061070
  56.2361300  95.8872970  47.5819940  56.8077410  95.1195170  47.5823580
  56.2362840  96.1861730  46.6726550  57.4786170  91.2957330  49.3688870
  57.2989010  90.3983080  49.6491630  57.0766250  91.8429200  50.0435820
  66.3184670  93.4973190  47.2701180  66.6949490  92.6245070  47.1574850
  66.2204180  93.8331890  46.3791620  60.4489680  91.8698820  42.7318620
  60.5556430  92.7702550  43.0387380  59.5382040  91.8216790  42.4413270
  70.1008790  90.9923630  44.2029520  70.9218410  90.5020200  44.2455000
  70.1342870  91.5821290  44.9561360  58.0972840  93.7917830  47.9771210
  58.7782950  94.0556200  48.5958610  57.7820890  92.9518700  48.3109220
  62.2897410  94.8385190  47.0643800  62.7975630  95.3366160  47.7048820
  62.8210650  94.0620390  46.8883160  74.3908340  93.0090380  50.7673150
  73.6860510  93.3972090  50.2488260  74.6566260  93.7040670  51.3694080
  60.5733510  89.4783750  51.3307220  60.5751950  89.9956140  50.5253120
  59.7437820  89.0013930  51.3077150  70.3370270  92.9324010  46.9757060
  69.6325840  93.2208900  47.5560170  70.6982430  93.7424120  46.6156620
  60.2548840  91.1893710  49.3377670  60.5965650  92.0335760  49.0431540
  59.3164650  91.3377450  49.4543010  73.4057190  92.3778800  47.3666270
  72.4582100  92.4117780  47.4981700  73.7307180  93.1917750  47.7515630
  63.9376730  88.6775980  45.6622260  64.2451710  88.1222870  44.9457760
  63.0077430  88.8120440  45.4795250  66.3257490  96.7424810  42.3982380
  65.3986770  96.6762190  42.6270850  66.4782310  97.6804940  42.2837620
  66.3126570  93.0141810  39.3949540  65.3730240  93.1755770  39.4802000
  66.6309830  93.7327490  38.8485530  72.8339330  97.6960330  49.3728570
  72.0057960  97.7653420  48.8978700  73.4289810  98.2814640  48.9044400
  70.3554780  98.3045110  42.9017630  69.7367200  97.9664660  42.2543930
  70.3379230  97.6604870  43.6096820  69.7981340  94.4829650  50.3183440
  69.3852520  95.3083360  50.5723430  69.0657290  93.8974690  50.1259800
  61.9314130  97.2689550  45.1802110  61.5271130  96.5566800  44.6848010
  62.0177250  96.9242790  46.0690150  60.6442750  94.0432760  48.9601150
  61.1957340  94.1528100  48.1854400  61.1586260  94.4170360  49.6756380
  68.5319480  97.5431920  39.9090380  68.9712760  96.7054350  39.7628200
  69.2447900  98.1761320  39.9954520  60.3185480  97.5652120  52.5706490
  60.1793250  98.4374920  52.9393890  59.4366840  97.2224930  52.4254430
  72.1136620  88.7974730  38.2231420  71.8009280  88.8901560  39.1230490
  72.8749090  89.3755760  38.1728850  58.6318760  96.1634530  42.6808760
  58.5116360  96.8896620  42.0690030  58.3219650  95.3937440  42.2036670
  73.3237910  93.5346230  54.2005560  72.7082180  94.0425900  53.6721020
  73.0034330  92.6344560  54.1431500  61.0982420  89.5069600  46.0632430
  60.6550570  90.2879140  45.7316950  61.6567410  89.8299490  46.7703370
  65.3852230  92.3738120  51.6667750  64.9231600  92.5821140  52.4787690
  64.9830340  91.5597470  51.3638420  70.3856740  93.5947070  52.7964410
  69.5350330  93.2952820  53.1173480  70.2258530  93.8389080  51.8848230
  67.4806450  95.0948820  54.8963200  67.8059860  94.2612570  54.5565430
  68.2686780  95.6177340  55.0441530  64.2141240  89.1280300  40.9438260
  63.5895420  89.1240170  41.6691570  64.1271360  88.2611260  40.5474230
  63.1358320  90.0516930  47.9222030  63.4330650  90.9579760  47.8414050
  63.6843880  89.5635710  47.3081600  60.8896640  94.6303170  43.7913680
  60.6637560  94.4140340  44.6960300  60.1089170  95.0631630  43.4459650
  68.1194400  94.6366540  42.3904330  67.5203290  95.3602340  42.2067950
  68.6674010  94.5743320  41.6080780  63.3295850  95.5288750  54.4573950
  63.2339450  94.5883480  54.3074350  64.1727830  95.7503820  54.0622020
  66.7259270  93.2730080  44.4207610  67.1188840  93.5902280  43.6076300
  67.0876120  92.3941960  44.5352130  58.4606390  91.9402420  52.6107730
  58.0669780  92.7877630  52.8180510  57.7724790  91.3028790  52.8016370
  65.0351440  92.0237390  55.6804470  64.3449760  91.8309590  56.3150560
  65.7783740  92.3072030  56.2128770  55.7623440  89.8630880  46.6437810
  55.4736490  90.4333740  47.3562790  56.5069200  89.3835330  47.0069040
  55.9493670  93.8051000  37.8540530  55.8668340  94.7481760  37.9955520
  55.5976730  93.6625910  36.9752880  67.3114410  95.8635830  48.5158390
  66.5795530  96.3722640  48.8648490  66.9138750  95.0465810  48.2147170
  63.7491800  92.5390030  46.9210880  63.7527860  92.0979980  46.0715420
  64.6442920  92.8607360  47.0282700  59.5994180  92.4216520  45.8805090
  59.2594230  92.8991750  46.6372140  58.8371500  91.9681640  45.5206190
  63.8111950  93.5402110  39.9117640  63.9324770  93.4988590  40.8603460
  63.4260460  94.4026260  39.7564370  67.7740320  91.3169510  47.9281330
  67.7913060  91.7678160  48.7723180  67.5255900  90.4175150  48.1414770
  62.8233450  95.8503250  39.3100940  62.2550350  95.4021500  38.6836850
  63.5322450  96.2096030  38.7766090  71.2011070  88.7301690  53.7667710
  71.5256840  87.9991350  54.2925690  71.2367580  88.4115330  52.8648700
  64.0499770  96.5991810  48.6676290  64.4169900  96.1250380  49.4137630
  63.8604830  97.4733380  49.0084630  56.9140260  91.3435500  44.7969760
  56.6287180  90.9791170  45.6348380  56.8519120  90.6115960  44.1832900
  61.8399140  95.6400450  50.9860500  61.5356210  96.5192430  51.2110860
  62.7945600  95.7000240  51.0217940  66.5878850  90.2364760  41.5183130
  65.7743460  89.7377930  41.4428440  66.3940800  91.0763010  41.1019480
  69.3027240  94.6084410  39.8145290  70.1906860  94.9201640  39.6396630
  69.2732330  93.7356660  39.4225870  57.8962870  96.4803190  52.1331860
  57.5377810  97.1457040  52.7205200  57.6017430  95.6486740  52.5044480
  61.0975990  96.9387430  55.0171410  60.7976130  97.0844610  54.1199230
  61.8687230  96.3792720  54.9244800  71.5741510  95.9196250  39.2825150
  71.4905230  96.3510470  38.4321590  72.2935700  96.3794600  39.7151970
  56.4070920  96.4794450  38.7566460  57.2765770  96.7619250  39.0402380
  55.9161240  97.2930320  38.6415270  63.5705730  97.8667660  42.8774740
  64.0268510  98.6772910  43.1034930  63.2193940  97.5490800  43.7093230
  59.4717510  88.2105310  43.3497260  59.3432140  88.2023210  44.2982180
  58.6479530  88.5488400  42.9988270  56.4711440  89.9696430  52.8103960
  55.7569960  90.1693350  53.4156570  56.8906480  89.1936000  53.1818760
  67.9650220  92.4618740  50.5605410  68.3331040  91.6413950  50.8884980
  67.1048420  92.5220630  50.9761060  71.3312250  91.4175680  41.3692970
  70.7025410  91.5221350  40.6551200  70.8364170  91.6372460  42.1586850
  63.2996280  93.6961630  42.7850850  62.5912430  94.1647970  43.2264460
  63.5840760  93.0383640  43.4196040  64.9252210  95.1158330  50.7843380
  65.4237460  95.5904150  51.4495230  65.0675160  94.1921850  50.9913410
  67.3311710  90.4212290  44.2246640  67.2079490  90.4398420  43.2756150
  68.2796270  90.4691230  44.3445040  61.5031300  92.0046710  40.1601560
  62.3521830  92.4416860  40.0941750  61.1362570  92.3166970  40.9873620
  72.1319070  91.3326290  51.6271770  71.6292670  92.0731690  51.9665580
  72.9475730  91.7210290  51.3108560  70.4241080  96.5759470  45.0733130
  69.4831220  96.5909700  45.2480820  70.7385150  95.7895430  45.5193430
  60.4022720  98.2579070  38.6337090  61.1685990  98.1460430  39.1962520
  60.4797410  97.5617040  37.9813860  59.0969480  95.6904140  39.3169980
  59.1773070  94.7431650  39.4287380  59.9889230  96.0211020  39.4230640
  56.6240280  97.5119060  54.5526150  57.1279300  96.9326340  55.1242380
  55.8847700  97.7959290  55.0902520  58.6563360  95.6548650  55.4476220
  58.6968700  95.3562520  56.3561450  59.5108860  96.0556260  55.2883740
  62.4341750  98.2544200  40.6079730  62.8558170  98.0884070  41.4511120
  62.5592590  97.4444430  40.1134870  60.5969170  94.2340750  53.4150710
  60.0665630  93.7431700  52.7874050  61.2657240  94.6624950  52.8808640
  64.9469390  97.2781810  37.8556830  65.4675050  96.5630830  37.4897980
  65.5937790  97.9167680  38.1557340  69.9669400  96.0406370  55.1831050
  70.5490170  95.2858690  55.0951530  70.1431170  96.5713810  54.4062530
  61.0841470  91.2003120  53.4948000  60.9898340  90.5823870  52.7698870
  60.5038860  91.9269410  53.2677910  63.8502910  89.7576360  50.5275390
  63.4020210  89.7800620  49.6820940  63.2168110  89.3595380  51.1245690
  66.5926360  96.3846870  52.5325670  66.7122570  95.7888010  53.2720510
  67.4520360  96.4216560  52.1126970  68.9314260  96.9384060  51.1088180
  68.4049480  97.4626680  50.5053320  69.2745600  97.5711450  51.7397910
  61.3300650  94.3277430  37.5537890  61.1289710  93.4644790  37.9151230
  61.1592700  94.2410790  36.6159490  63.3595130  92.9268220  53.7901490
  63.9494820  92.6184070  54.4779310  62.5415370  92.4547970  53.9461390
  68.1788560  92.5434030  54.0234510  67.4904080  91.8815570  53.9584500
  68.8994580  92.0972300  54.4682970  68.8088960  89.1385660  40.0824770
  69.0891250  88.2953560  40.4384190  68.0354690  89.3708770  40.5963520
  60.1283450  91.4278050  37.5415770  60.4309350  91.4345480  36.6334920
  60.8678040  91.0775910  38.0383430  63.3468380  90.3712670  38.5271970
  62.9990380  89.6936660  37.9474420  63.5481150  89.9102180  39.3415360
  56.6874020  96.9000320  44.9236340  56.0322860  96.6311960  44.2796040
  57.5251970  96.7904800  44.4738320  69.6364460  91.6941610  39.1454830
  70.0549340  91.5072590  38.3051490  69.3300520  90.8420660  39.4557760
  73.1354190  96.6065750  42.8430630  72.7597790  95.8393680  42.4111920
  72.4057310  96.9888450  43.3305560  57.7249950  97.2852890  49.4639680
  58.0922990  97.1980290  50.3435700  57.1560770  96.5219440  49.3646540
  72.5253810  95.7537270  52.4770150  72.2939900  95.5250020  51.5768100
  72.7858360  96.6736820  52.4315040  57.2765950  94.1961980  53.3698100
  56.3822000  94.1628740  53.7091810  57.8163500  94.3948770  54.1349350
  70.9641880  90.9793700  55.2549850  71.8412060  90.9877100  55.6383850
  70.9762720  90.2424540  54.6442200  55.9012100  94.1099250  40.8661670
  54.9976180  94.3729450  40.6913330  56.3852720  94.3810420  40.0861630
  72.4105150  94.8323240  46.1437870  72.9342630  94.3385890  45.5128040
  72.9964570  94.9673600  46.8885440  72.5894870  94.9163110  49.6657420
  71.6397580  94.8826650  49.7802410  72.7707880  95.8263220  49.4307190
  58.4439310  93.1664790  38.7756050  59.1531010  92.7448010  38.2903330
  57.7279250  93.2340020  38.1439400  58.0913470  89.2204120  37.8158700
  58.8141600  89.7613060  38.1339920  58.3637990  88.9467540  36.9400240
  71.9005120  94.0896590  42.0830280  72.3964240  93.8567460  42.8679160
  71.7021190  93.2508430  41.6667920  57.7805660  88.4710310  47.7181320
  58.4281850  87.9207690  47.2776480  58.2007500  88.7253460  48.5397130
  73.3292280  92.7257540  44.6167960  73.2191560  92.5713580  45.5550230
  74.0899870  92.1978480  44.3743370  71.6758000  88.6651670  51.0750960
  72.3130220  89.2785810  51.4410150  71.8232890  88.7012330  50.1300190
  74.2182550  90.5565460  37.8574100  75.1431860  90.4246640  37.6492390
  74.1958340  90.6358280  38.8110550  74.2921040  91.3276120  40.4830810
  73.4972540  91.2621240  41.0123720  74.4964320  92.2626760  40.4716160
  57.5337660  88.6265980  50.4606640  57.1852480  89.0829800  51.2264820
  57.2025360  87.7323110  50.5429070  65.0462480  89.8177860  53.9826060
  64.9851370  90.4099690  54.7321470  65.9862860  89.7103820  53.8376320
  67.6837040  89.4747920  53.6218350  68.2977450  89.7927210  52.9599430
  68.2286600  88.9896510  54.2414210  58.2058300  88.1542180  53.7357410
  58.7541290  87.9730230  52.9723520  58.2713610  87.3636290  54.2713720
  68.4245080  88.0380060  49.9487640  67.5504920  88.3715170  49.7460570
  68.3155830  87.5653240  50.7739510  69.3317060  90.2450930  51.3329360
  69.0030420  89.4302690  50.9531090  70.2799360  90.2020740  51.2095050
  66.1719900  88.9549900  48.8880550  65.3891690  89.4295400  49.1677310
  65.8782830  88.0504730  48.7793730  70.7240970  89.6573000  46.9329640
  71.1649060  89.6018100  46.0851240  70.4548560  90.5731010  47.0039820
  72.5879540  89.2888240  44.9438460  72.5267940  88.3449460  44.7969480
  73.3671570  89.3968330  45.4891920  57.5160310  89.2597380  41.4094270
  58.2739670  89.3726260  40.8358300  57.0537480  90.0966580  41.3637700
  64.0574120  91.3736650  44.3996580  63.2448630  90.9993540  44.0592460
  64.5615760  90.6181730  44.7017770  68.5599100  88.0379100  45.6379650
  69.1628470  88.6099310  46.1128170  67.8192090  88.6018540  45.4153550
  71.7033700  88.4400660  40.9119930  71.8984330  89.3384110  41.1787360
  70.9163570  88.2087740  41.4052880  59.8885460  89.7861430  39.9496240
  60.4178220  88.9991230  39.8204190  60.5213780  90.4652620  40.1831770
  62.0823300  89.5236570  43.0041630  61.4526040  88.8223880  43.1711760
  61.5428440  90.2840700  42.7874790  62.2078860  88.8020550  55.4394120
  61.9263130  89.3054150  54.6754940  62.5898560  88.0042300  55.0736250
  68.8094320  88.2174130  56.0174590  68.6959770  88.5368740  56.9126110
  69.6264060  88.6186640  55.7211870  67.7152470  96.2366600  26.3809330
  67.6346520  95.3221210  26.1101040  67.3016890  96.7333670  25.6749040
  65.8470510  98.0145620  28.2618600  65.0712610  97.5346060  28.5517170
  66.4983440  97.3351270  28.0874760  59.8636340  98.3265430  29.1394360
  59.0321220  98.0714140  29.5390870  60.4717320  98.3976200  29.8752280
  58.2728290  93.2867320  22.9236750  57.3844990  93.6283290  22.8216630
  58.5569480  93.0867640  22.0317580  56.2361300  95.8872970  28.8076450
  56.8077410  95.1195170  28.8080090  56.2362840  96.1861730  27.8983060
  57.4786170  91.2957330  30.5945380  57.2989010  90.3983080  30.8748140
  57.0766250  91.8429200  31.2692330  66.3184670  93.4973190  28.4957690
  66.6949490  92.6245070  28.3831360  66.2204180  93.8331890  27.6048130
  60.4489680  91.8698820  23.9575130  60.5556430  92.7702550  24.2643890
  59.5382040  91.8216790  23.6669780  70.1008790  90.9923630  25.4286030
  70.9218410  90.5020200  25.4711510  70.1342870  91.5821290  26.1817870
  58.0972840  93.7917830  29.2027720  58.7782950  94.0556200  29.8215120
  57.7820890  92.9518700  29.5365730  62.2897410  94.8385190  28.2900310
  62.7975630  95.3366160  28.9305330  62.8210650  94.0620390  28.1139670
  74.3908340  93.0090380  31.9929660  73.6860510  93.3972090  31.4744770
  74.6566260  93.7040670  32.5950590  60.5733510  89.4783750  32.5563730
  60.5751950  89.9956140  31.7509630  59.7437820  89.0013930  32.5333660
  70.3370270  92.9324010  28.2013570  69.6325840  93.2208900  28.7816680
  70.6982430  93.7424120  27.8413130  60.2548840  91.1893710  30.5634180
  60.5965650  92.0335760  30.2688050  59.3164650  91.3377450  30.6799520
  73.4057190  92.3778800  28.5922780  72.4582100  92.4117780  28.7238210
  73.7307180  93.1917750  28.9772140  63.9376730  88.6775980  26.8878770
  64.2451710  88.1222870  26.1714270  63.0077430  88.8120440  26.7051760
  66.3257490  96.7424810  23.6238890  65.3986770  96.6762190  23.8527360
  66.4782310  97.6804940  23.5094130  66.3126570  93.0141810  20.6206050
  65.3730240  93.1755770  20.7058510  66.6309830  93.7327490  20.0742040
  72.8339330  97.6960330  30.5985080  72.0057960  97.7653420  30.1235210
  73.4289810  98.2814640  30.1300910  70.3554780  98.3045110  24.1274140
  69.7367200  97.9664660  23.4800440  70.3379230  97.6604870  24.8353330
  69.7981340  94.4829650  31.5439950  69.3852520  95.3083360  31.7979940
  69.0657290  93.8974690  31.3516310  61.9314130  97.2689550  26.4058620
  61.5271130  96.5566800  25.9104520  62.0177250  96.9242790  27.2946660
  60.6442750  94.0432760  30.1857660  61.1957340  94.1528100  29.4110910
  61.1586260  94.4170360  30.9012890  68.5319480  97.5431920  21.1346890
  68.9712760  96.7054350  20.9884710  69.2447900  98.1761320  21.2211030
  60.3185480  97.5652120  33.7963000  60.1793250  98.4374920  34.1650400
  59.4366840  97.2224930  33.6510940  72.1136620  88.7974730  19.4487930
  71.8009280  88.8901560  20.3487000  72.8749090  89.3755760  19.3985360
  58.6318760  96.1634530  23.9065270  58.5116360  96.8896620  23.2946540
  58.3219650  95.3937440  23.4293180  73.3237910  93.5346230  35.4262070
  72.7082180  94.0425900  34.8977530  73.0034330  92.6344560  35.3688010
  61.0982420  89.5069600  27.2888940  60.6550570  90.2879140  26.9573460
  61.6567410  89.8299490  27.9959880  65.3852230  92.3738120  32.8924260
  64.9231600  92.5821140  33.7044200  64.9830340  91.5597470  32.5894930
  70.3856740  93.5947070  34.0220920  69.5350330  93.2952820  34.3429990
  70.2258530  93.8389080  33.1104740  67.4806450  95.0948820  36.1219710
  67.8059860  94.2612570  35.7821940  68.2686780  95.6177340  36.2698040
  64.2141240  89.1280300  22.1694770  63.5895420  89.1240170  22.8948080
  64.1271360  88.2611260  21.7730740  63.1358320  90.0516930  29.1478540
  63.4330650  90.9579760  29.0670560  63.6843880  89.5635710  28.5338110
  60.8896640  94.6303170  25.0170190  60.6637560  94.4140340  25.9216810
  60.1089170  95.0631630  24.6716160  68.1194400  94.6366540  23.6160840
  67.5203290  95.3602340  23.4324460  68.6674010  94.5743320  22.8337290
  63.3295850  95.5288750  35.6830460  63.2339450  94.5883480  35.5330860
  64.1727830  95.7503820  35.2878530  66.7259270  93.2730080  25.6464120
  67.1188840  93.5902280  24.8332810  67.0876120  92.3941960  25.7608640
  58.4606390  91.9402420  33.8364240  58.0669780  92.7877630  34.0437020
  57.7724790  91.3028790  34.0272880  65.0351440  92.0237390  36.9060980
  64.3449760  91.8309590  37.5407070  65.7783740  92.3072030  37.4385280
  55.7623440  89.8630880  27.8694320  55.4736490  90.4333740  28.5819300
  56.5069200  89.3835330  28.2325550  55.9493670  93.8051000  19.0797040
  55.8668340  94.7481760  19.2212030  55.5976730  93.6625910  18.2009390
  67.3114410  95.8635830  29.7414900  66.5795530  96.3722640  30.0905000
  66.9138750  95.0465810  29.4403680  63.7491800  92.5390030  28.1467390
  63.7527860  92.0979980  27.2971930  64.6442920  92.8607360  28.2539210
  59.5994180  92.4216520  27.1061600  59.2594230  92.8991750  27.8628650
  58.8371500  91.9681640  26.7462700  63.8111950  93.5402110  21.1374150
  63.9324770  93.4988590  22.0859970  63.4260460  94.4026260  20.9820880
  67.7740320  91.3169510  29.1537840  67.7913060  91.7678160  29.9979690
  67.5255900  90.4175150  29.3671280  62.8233450  95.8503250  20.5357450
  62.2550350  95.4021500  19.9093360  63.5322450  96.2096030  20.0022600
  71.2011070  88.7301690  34.9924220  71.5256840  87.9991350  35.5182200
  71.2367580  88.4115330  34.0905210  64.0499770  96.5991810  29.8932800
  64.4169900  96.1250380  30.6394140  63.8604830  97.4733380  30.2341140
  56.9140260  91.3435500  26.0226270  56.6287180  90.9791170  26.8604890
  56.8519120  90.6115960  25.4089410  61.8399140  95.6400450  32.2117010
  61.5356210  96.5192430  32.4367370  62.7945600  95.7000240  32.2474450
  66.5878850  90.2364760  22.7439640  65.7743460  89.7377930  22.6684950
  66.3940800  91.0763010  22.3275990  69.3027240  94.6084410  21.0401800
  70.1906860  94.9201640  20.8653140  69.2732330  93.7356660  20.6482380
  57.8962870  96.4803190  33.3588370  57.5377810  97.1457040  33.9461710
  57.6017430  95.6486740  33.7300990  61.0975990  96.9387430  36.2427920
  60.7976130  97.0844610  35.3455740  61.8687230  96.3792720  36.1501310
  71.5741510  95.9196250  20.5081660  71.4905230  96.3510470  19.6578100
  72.2935700  96.3794600  20.9408480  56.4070920  96.4794450  19.9822970
  57.2765770  96.7619250  20.2658890  55.9161240  97.2930320  19.8671780
  63.5705730  97.8667660  24.1031250  64.0268510  98.6772910  24.3291440
  63.2193940  97.5490800  24.9349740  59.4717510  88.2105310  24.5753770
  59.3432140  88.2023210  25.5238690  58.6479530  88.5488400  24.2244780
  56.4711440  89.9696430  34.0360470  55.7569960  90.1693350  34.6413080
  56.8906480  89.1936000  34.4075270  67.9650220  92.4618740  31.7861920
  68.3331040  91.6413950  32.1141490  67.1048420  92.5220630  32.2017570
  71.3312250  91.4175680  22.5949480  70.7025410  91.5221350  21.8807710
  70.8364170  91.6372460  23.3843360  63.2996280  93.6961630  24.0107360
  62.5912430  94.1647970  24.4520970  63.5840760  93.0383640  24.6452550
  64.9252210  95.1158330  32.0099890  65.4237460  95.5904150  32.6751740
  65.0675160  94.1921850  32.2169920  67.3311710  90.4212290  25.4503150
  67.2079490  90.4398420  24.5012660  68.2796270  90.4691230  25.5701550
  61.5031300  92.0046710  21.3858070  62.3521830  92.4416860  21.3198260
  61.1362570  92.3166970  22.2130130  72.1319070  91.3326290  32.8528280
  71.6292670  92.0731690  33.1922090  72.9475730  91.7210290  32.5365070
  70.4241080  96.5759470  26.2989640  69.4831220  96.5909700  26.4737330
  70.7385150  95.7895430  26.7449940  60.4022720  98.2579070  19.8593600
  61.1685990  98.1460430  20.4219030  60.4797410  97.5617040  19.2070370
  59.0969480  95.6904140  20.5426490  59.1773070  94.7431650  20.6543890
  59.9889230  96.0211020  20.6487150  56.6240280  97.5119060  35.7782660
  57.1279300  96.9326340  36.3498890  55.8847700  97.7959290  36.3159030
  58.6563360  95.6548650  36.6732730  58.6968700  95.3562520  37.5817960
  59.5108860  96.0556260  36.5140250  62.4341750  98.2544200  21.8336240
  62.8558170  98.0884070  22.6767630  62.5592590  97.4444430  21.3391380
  60.5969170  94.2340750  34.6407220  60.0665630  93.7431700  34.0130560
  61.2657240  94.6624950  34.1065150  64.9469390  97.2781810  19.0813340
  65.4675050  96.5630830  18.7154490  65.5937790  97.9167680  19.3813850
  69.9669400  96.0406370  36.4087560  70.5490170  95.2858690  36.3208040
  70.1431170  96.5713810  35.6319040  61.0841470  91.2003120  34.7204510
  60.9898340  90.5823870  33.9955380  60.5038860  91.9269410  34.4934420
  63.8502910  89.7576360  31.7531900  63.4020210  89.7800620  30.9077450
  63.2168110  89.3595380  32.3502200  66.5926360  96.3846870  33.7582180
  66.7122570  95.7888010  34.4977020  67.4520360  96.4216560  33.3383480
  68.9314260  96.9384060  32.3344690  68.4049480  97.4626680  31.7309830
  69.2745600  97.5711450  32.9654420  61.3300650  94.3277430  18.7794400
  61.1289710  93.4644790  19.1407740  61.1592700  94.2410790  17.8416000
  63.3595130  92.9268220  35.0158000  63.9494820  92.6184070  35.7035820
  62.5415370  92.4547970  35.1717900  68.1788560  92.5434030  35.2491020
  67.4904080  91.8815570  35.1841010  68.8994580  92.0972300  35.6939480
  68.8088960  89.1385660  21.3081280  69.0891250  88.2953560  21.6640700
  68.0354690  89.3708770  21.8220030  60.1283450  91.4278050  18.7672280
  60.4309350  91.4345480  17.8591430  60.8678040  91.0775910  19.2639940
  63.3468380  90.3712670  19.7528480  62.9990380  89.6936660  19.1730930
  63.5481150  89.9102180  20.5671870  56.6874020  96.9000320  26.1492850
  56.0322860  96.6311960  25.5052550  57.5251970  96.7904800  25.6994830
  69.6364460  91.6941610  20.3711340  70.0549340  91.5072590  19.5308000
  69.3300520  90.8420660  20.6814270  73.1354190  96.6065750  24.0687140
  72.7597790  95.8393680  23.6368430  72.4057310  96.9888450  24.5562070
  57.7249950  97.2852890  30.6896190  58.0922990  97.1980290  31.5692210
  57.1560770  96.5219440  30.5903050  72.5253810  95.7537270  33.7026660
  72.2939900  95.5250020  32.8024610  72.7858360  96.6736820  33.6571550
  57.2765950  94.1961980  34.5954610  56.3822000  94.1628740  34.9348320
  57.8163500  94.3948770  35.3605860  70.9641880  90.9793700  36.4806360
  71.8412060  90.9877100  36.8640360  70.9762720  90.2424540  35.8698710
  55.9012100  94.1099250  22.0918180  54.9976180  94.3729450  21.9169840
  56.3852720  94.3810420  21.3118140  72.4105150  94.8323240  27.3694380
  72.9342630  94.3385890  26.7384550  72.9964570  94.9673600  28.1141950
  72.5894870  94.9163110  30.8913930  71.6397580  94.8826650  31.0058920
  72.7707880  95.8263220  30.6563700  58.4439310  93.1664790  20.0012560
  59.1531010  92.7448010  19.5159840  57.7279250  93.2340020  19.3695910
  58.0913470  89.2204120  19.0415210  58.8141600  89.7613060  19.3596430
  58.3637990  88.9467540  18.1656750  71.9005120  94.0896590  23.3086790
  72.3964240  93.8567460  24.0935670  71.7021190  93.2508430  22.8924430
  57.7805660  88.4710310  28.9437830  58.4281850  87.9207690  28.5032990
  58.2007500  88.7253460  29.7653640  73.3292280  92.7257540  25.8424470
  73.2191560  92.5713580  26.7806740  74.0899870  92.1978480  25.5999880
  71.6758000  88.6651670  32.3007470  72.3130220  89.2785810  32.6666660
  71.8232890  88.7012330  31.3556700  74.2182550  90.5565460  19.0830610
  75.1431860  90.4246640  18.8748900  74.1958340  90.6358280  20.0367060
  74.2921040  91.3276120  21.7087320  73.4972540  91.2621240  22.2380230
  74.4964320  92.2626760  21.6972670  57.5337660  88.6265980  31.6863150
  57.1852480  89.0829800  32.4521330  57.2025360  87.7323110  31.7685580
  65.0462480  89.8177860  35.2082570  64.9851370  90.4099690  35.9577980
  65.9862860  89.7103820  35.0632830  67.6837040  89.4747920  34.8474860
  68.2977450  89.7927210  34.1855940  68.2286600  88.9896510  35.4670720
  58.2058300  88.1542180  34.9613920  58.7541290  87.9730230  34.1980030
  58.2713610  87.3636290  35.4970230  68.4245080  88.0380060  31.1744150
  67.5504920  88.3715170  30.9717080  68.3155830  87.5653240  31.9996020
  69.3317060  90.2450930  32.5585870  69.0030420  89.4302690  32.1787600
  70.2799360  90.2020740  32.4351560  66.1719900  88.9549900  30.1137060
  65.3891690  89.4295400  30.3933820  65.8782830  88.0504730  30.0050240
  70.7240970  89.6573000  28.1586150  71.1649060  89.6018100  27.3107750
  70.4548560  90.5731010  28.2296330  72.5879540  89.2888240  26.1694970
  72.5267940  88.3449460  26.0225990  73.3671570  89.3968330  26.7148430
  57.5160310  89.2597380  22.6350780  58.2739670  89.3726260  22.0614810
  57.0537480  90.0966580  22.5894210  64.0574120  91.3736650  25.6253090
  63.2448630  90.9993540  25.2848970  64.5615760  90.6181730  25.9274280
  68.5599100  88.0379100  26.8636160  69.1628470  88.6099310  27.3384680
  67.8192090  88.6018540  26.6410060  71.7033700  88.4400660  22.1376440
  71.8984330  89.3384110  22.4043870  70.9163570  88.2087740  22.6309390
  59.8885460  89.7861430  21.1752750  60.4178220  88.9991230  21.0460700
  60.5213780  90.4652620  21.4088280  62.0823300  89.5236570  24.2298140
  61.4526040  88.8223880  24.3968270  61.5428440  90.2840700  24.0131300
  62.2078860  88.8020550  36.6650630  61.9263130  89.3054150  35.9011450
  62.5898560  88.0042300  36.2992760  68.8094320  88.2174130  37.2431100
  68.6959770  88.5368740  38.1382620  69.6264060  88.6186640  36.9468380
  67.7152470  96.2366600   7.6065840  67.6346520  95.3221210   7.3357550
  67.3016890  96.7333670   6.9005550  65.8470510  98.0145620   9.4875110
  65.0712610  97.5346060   9.7773680  66.4983440  97.3351270   9.3131270
  59.8636340  98.3265430  10.3650870  59.0321220  98.0714140  10.7647380
  60.4717320  98.3976200  11.1008790  58.2728290  93.2867320   4.1493260
  57.3844990  93.6283290   4.0473140  58.5569480  93.0867640   3.2574090
  56.2361300  95.8872970  10.0332960  56.8077410  95.1195170  10.0336600
  56.2362840  96.1861730   9.1239570  57.4786170  91.2957330  11.8201890
  57.2989010  90.3983080  12.1004650  57.0766250  91.8429200  12.4948840
  66.3184670  93.4973190   9.7214200  66.6949490  92.6245070   9.6087870
  66.2204180  93.8331890   8.8304640  60.4489680  91.8698820   5.1831640
  60.5556430  92.7702550   5.4900400  59.5382040  91.8216790   4.8926290
  70.1008790  90.9923630   6.6542540  70.9218410  90.5020200   6.6968020
  70.1342870  91.5821290   7.4074380  58.0972840  93.7917830  10.4284230
  58.7782950  94.0556200  11.0471630  57.7820890  92.9518700  10.7622240
  62.2897410  94.8385190   9.5156820  62.7975630  95.3366160  10.1561840
  62.8210650  94.0620390   9.3396180  74.3908340  93.0090380  13.2186170
  73.6860510  93.3972090  12.7001280  74.6566260  93.7040670  13.8207100
  60.5733510  89.4783750  13.7820240  60.5751950  89.9956140  12.9766140
  59.7437820  89.0013930  13.7590170  70.3370270  92.9324010   9.4270080
  69.6325840  93.2208900  10.0073190  70.6982430  93.7424120   9.0669640
  60.2548840  91.1893710  11.7890690  60.5965650  92.0335760  11.4944560
  59.3164650  91.3377450  11.9056030  73.4057190  92.3778800   9.8179290
  72.4582100  92.4117780   9.9494720  73.7307180  93.1917750  10.2028650
  63.9376730  88.6775980   8.1135280  64.2451710  88.1222870   7.3970780
  63.0077430  88.8120440   7.9308270  66.3257490  96.7424810   4.8495400
  65.3986770  96.6762190   5.0783870  66.4782310  97.6804940   4.7350640
  72.8339330  97.6960330  11.8241590  72.0057960  97.7653420  11.3491720
  73.4289810  98.2814640  11.3557420  70.3554780  98.3045110   5.3530650
  69.7367200  97.9664660   4.7056950  70.3379230  97.6604870   6.0609840
  69.7981340  94.4829650  12.7696460  69.3852520  95.3083360  13.0236450
  69.0657290  93.8974690  12.5772820  61.9314130  97.2689550   7.6315130
  61.5271130  96.5566800   7.1361030  62.0177250  96.9242790   8.5203170
  60.6442750  94.0432760  11.4114170  61.1957340  94.1528100  10.6367420
  61.1586260  94.4170360  12.1269400  68.5319480  97.5431920   2.3603400
  68.9712760  96.7054350   2.2141220  69.2447900  98.1761320   2.4467540
  60.3185480  97.5652120  15.0219510  60.1793250  98.4374920  15.3906910
  59.4366840  97.2224930  14.8767450  58.6318760  96.1634530   5.1321780
  58.5116360  96.8896620   4.5203050  58.3219650  95.3937440   4.6549690
  73.3237910  93.5346230  16.6518580  72.7082180  94.0425900  16.1234040
  73.0034330  92.6344560  16.5944520  61.0982420  89.5069600   8.5145450
  60.6550570  90.2879140   8.1829970  61.6567410  89.8299490   9.2216390
  65.3852230  92.3738120  14.1180770  64.9231600  92.5821140  14.9300710
  64.9830340  91.5597470  13.8151440  70.3856740  93.5947070  15.2477430
  69.5350330  93.2952820  15.5686500  70.2258530  93.8389080  14.3361250
  67.4806450  95.0948820  17.3476220  67.8059860  94.2612570  17.0078450
  68.2686780  95.6177340  17.4954550  64.2141240  89.1280300   3.3951280
  63.5895420  89.1240170   4.1204590  64.1271360  88.2611260   2.9987250
  63.1358320  90.0516930  10.3735050  63.4330650  90.9579760  10.2927070
  63.6843880  89.5635710   9.7594620  60.8896640  94.6303170   6.2426700
  60.6637560  94.4140340   7.1473320  60.1089170  95.0631630   5.8972670
  68.1194400  94.6366540   4.8417350  67.5203290  95.3602340   4.6580970
  68.6674010  94.5743320   4.0593800  63.3295850  95.5288750  16.9086970
  63.2339450  94.5883480  16.7587370  64.1727830  95.7503820  16.5135040
  66.7259270  93.2730080   6.8720630  67.1188840  93.5902280   6.0589320
  67.0876120  92.3941960   6.9865150  58.4606390  91.9402420  15.0620750
  58.0669780  92.7877630  15.2693530  57.7724790  91.3028790  15.2529390
  65.0351440  92.0237390  18.1317490  64.3449760  91.8309590  18.7663580
  65.7783740  92.3072030  18.6641790  55.7623440  89.8630880   9.0950830
  55.4736490  90.4333740   9.8075810  56.5069200  89.3835330   9.4582060
  67.3114410  95.8635830  10.9671410  66.5795530  96.3722640  11.3161510
  66.9138750  95.0465810  10.6660190  63.7491800  92.5390030   9.3723900
  63.7527860  92.0979980   8.5228440  64.6442920  92.8607360   9.4795720
  59.5994180  92.4216520   8.3318110  59.2594230  92.8991750   9.0885160
  58.8371500  91.9681640   7.9719210  63.8111950  93.5402110   2.3630660
  63.9324770  93.4988590   3.3116480  63.4260460  94.4026260   2.2077390
  67.7740320  91.3169510  10.3794350  67.7913060  91.7678160  11.2236200
  67.5255900  90.4175150  10.5927790  71.2011070  88.7301690  16.2180730
  71.5256840  87.9991350  16.7438710  71.2367580  88.4115330  15.3161720
  64.0499770  96.5991810  11.1189310  64.4169900  96.1250380  11.8650650
  63.8604830  97.4733380  11.4597650  56.9140260  91.3435500   7.2482780
  56.6287180  90.9791170   8.0861400  56.8519120  90.6115960   6.6345920
  61.8399140  95.6400450  13.4373520  61.5356210  96.5192430  13.6623880
  62.7945600  95.7000240  13.4730960  66.5878850  90.2364760   3.9696150
  65.7743460  89.7377930   3.8941460  66.3940800  91.0763010   3.5532500
  69.3027240  94.6084410   2.2658310  70.1906860  94.9201640   2.0909650
  69.2732330  93.7356660   1.8738890  57.8962870  96.4803190  14.5844880
  57.5377810  97.1457040  15.1718220  57.6017430  95.6486740  14.9557500
  61.0975990  96.9387430  17.4684430  60.7976130  97.0844610  16.5712250
  61.8687230  96.3792720  17.3757820  63.5705730  97.8667660   5.3287760
  64.0268510  98.6772910   5.5547950  63.2193940  97.5490800   6.1606250
  59.4717510  88.2105310   5.8010280  59.3432140  88.2023210   6.7495200
  58.6479530  88.5488400   5.4501290  56.4711440  89.9696430  15.2616980
  55.7569960  90.1693350  15.8669590  56.8906480  89.1936000  15.6331780
  67.9650220  92.4618740  13.0118430  68.3331040  91.6413950  13.3398000
  67.1048420  92.5220630  13.4274080  71.3312250  91.4175680   3.8205990
  70.7025410  91.5221350   3.1064220  70.8364170  91.6372460   4.6099870
  63.2996280  93.6961630   5.2363870  62.5912430  94.1647970   5.6777480
  63.5840760  93.0383640   5.8709060  64.9252210  95.1158330  13.2356400
  65.4237460  95.5904150  13.9008250  65.0675160  94.1921850  13.4426430
  67.3311710  90.4212290   6.6759660  67.2079490  90.4398420   5.7269170
  68.2796270  90.4691230   6.7958060  61.5031300  92.0046710   2.6114580
  62.3521830  92.4416860   2.5454770  61.1362570  92.3166970   3.4386640
  72.1319070  91.3326290  14.0784790  71.6292670  92.0731690  14.4178600
  72.9475730  91.7210290  13.7621580  70.4241080  96.5759470   7.5246150
  69.4831220  96.5909700   7.6993840  70.7385150  95.7895430   7.9706450
  59.0969480  95.6904140   1.7683000  59.1773070  94.7431650   1.8800400
  59.9889230  96.0211020   1.8743660  56.6240280  97.5119060  17.0039170
  57.1279300  96.9326340  17.5755400  55.8847700  97.7959290  17.5415540
  58.6563360  95.6548650  17.8989240  58.6968700  95.3562520  18.8074470
  59.5108860  96.0556260  17.7396760  62.4341750  98.2544200   3.0592750
  62.8558170  98.0884070   3.9024140  62.5592590  97.4444430   2.5647890
  60.5969170  94.2340750  15.8663730  60.0665630  93.7431700  15.2387070
  61.2657240  94.6624950  15.3321660  69.9669400  96.0406370  17.6344070
  70.5490170  95.2858690  17.5464550  70.1431170  96.5713810  16.8575550
  61.0841470  91.2003120  15.9461020  60.9898340  90.5823870  15.2211890
  60.5038860  91.9269410  15.7190930  63.8502910  89.7576360  12.9788410
  63.4020210  89.7800620  12.1333960  63.2168110  89.3595380  13.5758710
  66.5926360  96.3846870  14.9838690  66.7122570  95.7888010  15.7233530
  67.4520360  96.4216560  14.5639990  68.9314260  96.9384060  13.5601200
  68.4049480  97.4626680  12.9566340  69.2745600  97.5711450  14.1910930
  63.3595130  92.9268220  16.2414510  63.9494820  92.6184070  16.9292330
  62.5415370  92.4547970  16.3974410  68.1788560  92.5434030  16.4747530
  67.4904080  91.8815570  16.4097520  68.8994580  92.0972300  16.9195990
  68.8088960  89.1385660   2.5337790  69.0891250  88.2953560   2.8897210
  68.0354690  89.3708770   3.0476540  56.6874020  96.9000320   7.3749360
  56.0322860  96.6311960   6.7309060  57.5251970  96.7904800   6.9251340
  73.1354190  96.6065750   5.2943650  72.7597790  95.8393680   4.8624940
  72.4057310  96.9888450   5.7818580  57.7249950  97.2852890  11.9152700
  58.0922990  97.1980290  12.7948720  57.1560770  96.5219440  11.8159560
  72.5253810  95.7537270  14.9283170  72.2939900  95.5250020  14.0281120
  72.7858360  96.6736820  14.8828060  57.2765950  94.1961980  15.8211120
  56.3822000  94.1628740  16.1604830  57.8163500  94.3948770  16.5862370
  70.9641880  90.9793700  17.7062870  71.8412060  90.9877100  18.0896870
  70.9762720  90.2424540  17.0955220  55.9012100  94.1099250   3.3174690
  54.9976180  94.3729450   3.1426350  56.3852720  94.3810420   2.5374650
  72.4105150  94.8323240   8.5950890  72.9342630  94.3385890   7.9641060
  72.9964570  94.9673600   9.3398460  72.5894870  94.9163110  12.1170440
  71.6397580  94.8826650  12.2315430  72.7707880  95.8263220  11.8820210
  71.9005120  94.0896590   4.5343300  72.3964240  93.8567460   5.3192180
  71.7021190  93.2508430   4.1180940  57.7805660  88.4710310  10.1694340
  58.4281850  87.9207690   9.7289500  58.2007500  88.7253460  10.9910150
  73.3292280  92.7257540   7.0680980  73.2191560  92.5713580   8.0063250
  74.0899870  92.1978480   6.8256390  71.6758000  88.6651670  13.5263980
  72.3130220  89.2785810  13.8923170  71.8232890  88.7012330  12.5813210
  74.2921040  91.3276120   2.9343830  73.4972540  91.2621240   3.4636740
  74.4964320  92.2626760   2.9229180  57.5337660  88.6265980  12.9119660
  57.1852480  89.0829800  13.6777840  57.2025360  87.7323110  12.9942090
  65.0462480  89.8177860  16.4339080  64.9851370  90.4099690  17.1834490
  65.9862860  89.7103820  16.2889340  67.6837040  89.4747920  16.0731370
  68.2977450  89.7927210  15.4112450  68.2286600  88.9896510  16.6927230
  58.2058300  88.1542180  16.1870430  58.7541290  87.9730230  15.4236540
  58.2713610  87.3636290  16.7226740  68.4245080  88.0380060  12.4000660
  67.5504920  88.3715170  12.1973590  68.3155830  87.5653240  13.2252530
  69.3317060  90.2450930  13.7842380  69.0030420  89.4302690  13.4044110
  70.2799360  90.2020740  13.6608070  66.1719900  88.9549900  11.3393570
  65.3891690  89.4295400  11.6190330  65.8782830  88.0504730  11.2306750
  70.7240970  89.6573000   9.3842660  71.1649060  89.6018100   8.5364260
  70.4548560  90.5731010   9.4552840  72.5879540  89.2888240   7.3951480
  72.5267940  88.3449460   7.2482500  73.3671570  89.3968330   7.9404940
  57.5160310  89.2597380   3.8607290  58.2739670  89.3726260   3.2871320
  57.0537480  90.0966580   3.8150720  64.0574120  91.3736650   6.8509600
  63.2448630  90.9993540   6.5105480  64.5615760  90.6181730   7.1530790
  68.5599100  88.0379100   8.0892670  69.1628470  88.6099310   8.5641190
  67.8192090  88.6018540   7.8666570  71.7033700  88.4400660   3.3632950
  71.8984330  89.3384110   3.6300380  70.9163570  88.2087740   3.8565900
  59.8885460  89.7861430   2.4009260  60.4178220  88.9991230   2.2717210
  60.5213780  90.4652620   2.6344790  62.0823300  89.5236570   5.4554650
  61.4526040  88.8223880   5.6224780  61.5428440  90.2840700   5.2387810
  62.2078860  88.8020550  17.8907140  61.9263130  89.3054150  17.1267960
  62.5898560  88.0042300  17.5249270  68.8094320  88.2174130  18.4687610
  68.6959770  88.5368740  19.3639130  69.6264060  88.6186640  18.1724890
  67.7152470  77.4623110  63.9296310  67.6346520  76.5477720  63.6588020
  67.3016890  77.9590180  63.2236020  65.8470510  79.2402130  65.8105580
  65.0712610  78.7602570  66.1004150  66.4983440  78.5607780  65.6361740
  59.8636340  79.5521940  66.6881340  59.0321220  79.2970650  67.0877850
  60.4717320  79.6232710  67.4239260  69.8677940  83.6462320  64.5904710
  69.4059470  82.8749560  64.9191880  70.6803490  83.6728390  65.0957160
  59.8437600  83.5862030  66.8839360  60.1465640  82.6959770  66.7049580
  60.5881190  84.1432250  66.6561610  58.2728290  74.5123830  60.4723730
  57.3844990  74.8539800  60.3703610  58.5569480  74.3124150  59.5804560
  56.2361300  77.1129480  66.3563430  56.8077410  76.3451680  66.3567070
  56.2362840  77.4118240  65.4470040  66.0941250  85.9320330  64.2108700
  65.4752690  86.3877830  63.6403140  66.9493030  86.0871790  63.8098400
  65.2879500  81.9159320  65.8175740  65.2187780  80.9749260  65.6564870
  66.0499360  82.0060730  66.3898310  57.4786170  72.5213840  68.1432360
  57.2989010  71.6239590  68.4235120  57.0766250  73.0685710  68.8179310
  66.3184670  74.7229700  66.0444670  66.6949490  73.8501580  65.9318340
  66.2204180  75.0588400  65.1535110  60.4489680  73.0955330  61.5062110
  60.5556430  73.9959060  61.8130870  59.5382040  73.0473300  61.2156760
  70.1008790  72.2180140  62.9773010  70.9218410  71.7276710  63.0198490
  70.1342870  72.8077800  63.7304850  58.0972840  75.0174340  66.7514700
  58.7782950  75.2812710  67.3702100  57.7820890  74.1775210  67.0852710
  62.2897410  76.0641700  65.8387290  62.7975630  76.5622670  66.4792310
  62.8210650  75.2876900  65.6626650  74.3908340  74.2346890  69.5416640
  73.6860510  74.6228600  69.0231750  74.6566260  74.9297180  70.1437570
  60.5733510  70.7040260  70.1050710  60.5751950  71.2212650  69.2996610
  59.7437820  70.2270440  70.0820640  66.9604600  80.8159570  61.6040610
  66.3421870  81.2809020  61.0403330  67.4727850  81.5087050  62.0210120
  61.8236360  80.3435440  68.2824210  61.4905740  80.9704360  68.9245280
  62.0003040  80.8697320  67.5025880  70.3370270  74.1580520  65.7500550
  69.6325840  74.4465410  66.3303660  70.6982430  74.9680630  65.3900110
  60.2548840  72.4150220  68.1121160  60.5965650  73.2592270  67.8175030
  59.3164650  72.5633960  68.2286500  61.0355460  82.3116240  70.0973390
  61.6529460  82.9867320  69.8157840  60.1748580  82.7204220  70.0060890
  56.3287800  81.5016100  58.9780240  55.9515780  81.9903200  58.2465140
  56.5860870  82.1741380  59.6086770  71.9533050  83.7755650  68.0128030
  71.2696570  84.4454760  68.0044700  72.4927340  83.9736300  67.2472890
  73.4057190  73.6035310  66.1409760  72.4582100  73.6374290  66.2725190
  73.7307180  74.4174260  66.5259120  63.9376730  69.9032490  64.4365750
  64.2451710  69.3479380  63.7201250  63.0077430  70.0376950  64.2538740
  69.4891790  85.6199780  66.7273210  69.5018950  85.2162070  65.8595470
  68.9367010  86.3947070  66.6234640  70.7837210  82.3416000  61.8163380
  70.6733540  81.3990330  61.9412800  70.7805460  82.7031640  62.7026140
  68.8877230  80.5229620  68.0555820  69.3046020  80.3089730  67.2209280
  69.6117050  80.7802410  68.6264440  66.3257490  77.9681320  61.1725870
  65.3986770  77.9018700  61.4014340  66.4782310  78.9061450  61.0581110
  66.3126570  74.2398320  58.1693030  65.3730240  74.4012280  58.2545490
  66.6309830  74.9584000  57.6229020  72.8339330  78.9216840  68.1472060
  72.0057960  78.9909930  67.6722190  73.4289810  79.5071150  67.6787890
  70.3554780  79.5301620  61.6761120  69.7367200  79.1921170  61.0287420
  70.3379230  78.8861380  62.3840310  69.7981340  75.7086160  69.0926930
  69.3852520  76.5339870  69.3466920  69.0657290  75.1231200  68.9003290
  61.9314130  78.4946060  63.9545600  61.5271130  77.7823310  63.4591500
  62.0177250  78.1499300  64.8433640  62.3995830  82.1813620  66.1184810
  62.1024120  81.5759090  65.4392590  63.3495650  82.2190930  66.0074170
  60.6442750  75.2689270  67.7344640  61.1957340  75.3784610  66.9597890
  61.1586260  75.6426870  68.4499870  70.4881440  85.7545490  69.7807910
  70.0112000  86.5617680  69.5880520  69.8043230  85.1023820  69.9334120
  68.5319480  78.7688430  58.6833870  68.9712760  77.9310860  58.5371690
  69.2447900  79.4017830  58.7698010  60.3185480  78.7908630  71.3449980
  60.1793250  79.6631430  71.7137380  59.4366840  78.4481440  71.1997920
  66.6414860  83.7084500  62.6515110  67.0810770  84.4508830  62.2370500
  66.5801750  83.9511070  63.5754070  72.1136620  70.0231240  56.9974910
  71.8009280  70.1158070  57.8973980  72.8749090  70.6012270  56.9472340
  58.6318760  77.3891040  61.4552250  58.5116360  78.1153130  60.8433520
  58.3219650  76.6193950  60.9780160  56.2704130  80.5606180  67.2620890
  56.3484550  80.6954950  66.3176610  56.8845810  79.8522070  67.4549010
  57.5151760  82.2606370  63.6727070  57.1079840  82.4020960  62.8180670
  58.4064770  81.9766530  63.4698280  73.4713900  82.7070280  72.0099310
  73.5976960  82.4682160  71.0916490  73.5135280  81.8754820  72.4821390
  67.3330640  86.4098280  70.5794120  67.8475310  86.3206290  71.3816550
  66.4899720  86.7557980  70.8722030  69.3085040  86.6953620  60.0078120
  69.1486180  86.4056560  60.9059950  69.1431750  85.9193750  59.4723350
  61.7873420  86.4752150  61.7849740  61.6115900  85.5587690  61.5717540
  60.9329160  86.8339440  62.0247540  69.0111170  84.2041180  58.5676120
  68.3176330  84.2018470  57.9078400  69.7534030  83.7800500  58.1370290
  68.5761100  85.8303890  62.6424610  69.0318050  85.0493270  62.9563230
  68.9153620  86.5410710  63.1865790  73.3237910  74.7602740  72.9749050
  72.7082180  75.2682410  72.4464510  73.0034330  73.8601070  72.9174990
  56.3263650  81.6020350  69.8015350  56.4894690  81.1325710  68.9834720
  56.7916100  81.0943910  70.4664190  61.0982420  70.7326110  64.8375920
  60.6550570  71.5135650  64.5060440  61.6567410  71.0556000  65.5446860
  65.3852230  73.5994630  70.4411240  64.9231600  73.8077650  71.2531180
  64.9830340  72.7853980  70.1381910  70.3856740  74.8203580  71.5707900
  69.5350330  74.5209330  71.8916970  70.2258530  75.0645590  70.6591720
  64.2141240  70.3536810  59.7181750  63.5895420  70.3496680  60.4435060
  64.1271360  69.4867770  59.3217720  63.1358320  71.2773440  66.6965520
  63.4330650  72.1836270  66.6157540  63.6843880  70.7892220  66.0825090
  60.8896640  75.8559680  62.5657170  60.6637560  75.6396850  63.4703790
  60.1089170  76.2888140  62.2203140  68.1194400  75.8623050  61.1647820
  67.5203290  76.5858850  60.9811440  68.6674010  75.7999830  60.3824270
  66.7259270  74.4986590  63.1951100  67.1188840  74.8158790  62.3819790
  67.0876120  73.6198470  63.3095620  58.4606390  73.1658930  71.3851220
  58.0669780  74.0134140  71.5924000  57.7724790  72.5285300  71.5759860
  55.7623440  71.0887390  65.4181300  55.4736490  71.6590250  66.1306280
  56.5069200  70.6091840  65.7812530  55.9493670  75.0307510  56.6284020
  55.8668340  75.9738270  56.7699010  55.5976730  74.8882420  55.7496370
  67.3114410  77.0892340  67.2901880  66.5795530  77.5979150  67.6391980
  66.9138750  76.2722320  66.9890660  63.7491800  73.7646540  65.6954370
  63.7527860  73.3236490  64.8458910  64.6442920  74.0863870  65.8026190
  59.5994180  73.6473030  64.6548580  59.2594230  74.1248260  65.4115630
  58.8371500  73.1938150  64.2949680  63.8111950  74.7658620  58.6861130
  63.9324770  74.7245100  59.6346950  63.4260460  75.6282770  58.5307860
  67.7740320  72.5426020  66.7024820  67.7913060  72.9934670  67.5466670
  67.5255900  71.6431660  66.9158260  62.8233450  77.0759760  58.0844430
  62.2550350  76.6278010  57.4580340  63.5322450  77.4352540  57.5509580
  57.9002630  80.9771780  71.9611160  57.5157420  80.3365450  72.5594120
  58.2114820  81.6807900  72.5305890  64.0499770  77.8248320  67.4419780
  64.4169900  77.3506890  68.1881120  63.8604830  78.6989890  67.7828120
  56.9140260  72.5692010  63.5713250  56.6287180  72.2047680  64.4091870
  56.8519120  71.8372470  62.9576390  61.8399140  76.8656960  69.7603990
  61.5356210  77.7448940  69.9854350  62.7945600  76.9256750  69.7961430
  60.3680930  81.0717950  60.3570840  59.5943190  80.5315570  60.1969560
  61.0975560  80.5524560  60.0188600  71.1268910  80.0683310  66.1497230
  71.8468030  80.5638600  65.7593340  70.9250730  79.3901200  65.5051100
  66.5878850  71.4621270  60.2926620  65.7743460  70.9634440  60.2171930
  66.3940800  72.3019520  59.8762970  66.5087710  80.1392370  72.0366230
  66.4425020  79.2188040  71.7823820  65.8792850  80.2367810  72.7510870
  69.3027240  75.8340920  58.5888780  70.1906860  76.1458150  58.4140120
  69.2732330  74.9613170  58.1969360  60.4118330  80.7398330  63.9949650
  60.9297000  79.9366590  63.9406540  59.9602350  80.6777470  64.8366480
  65.2987830  82.0064610  59.2676950  65.6403530  82.7506840  58.7720270
  64.4700540  82.3195730  59.6301780  57.8962870  77.7059700  70.9075350
  57.5377810  78.3713550  71.4948690  57.6017430  76.8743250  71.2787970
  66.4404440  82.9612940  71.7870030  66.4548980  82.0293900  71.5688940
  65.7329540  83.0472700  72.4259800  71.5741510  77.1452760  58.0568640
  71.4905230  77.5766980  57.2065080  72.2935700  77.6051110  58.4895460
  72.6515650  79.6020280  71.1338610  71.9263840  80.1949060  70.9368000
  73.1791110  79.5943820  70.3351980  72.6028760  83.9995020  60.7850770
  71.9604920  83.3450640  61.0594490  72.2159420  84.4050110  60.0091440
  68.1815240  81.3280450  64.6322460  68.5339060  80.7308580  63.9723830
  67.2977570  81.0024680  64.8030710  64.2678520  82.0878140  62.0392870
  64.9549650  82.6347350  62.4200460  63.4810940  82.6318870  62.0742480
  56.4070920  77.7050960  57.5309950  57.2765770  77.9875760  57.8145870
  55.9161240  78.5186830  57.4158760  63.5705730  79.0924170  61.6518230
  64.0268510  79.9029420  61.8778420  63.2193940  78.7747310  62.4836720
  65.8738340  84.6030510  68.8810530  66.5180560  84.8089890  69.5583950
  66.2367780  83.8418910  68.4281380  59.4717510  69.4361820  62.1240750
  59.3432140  69.4279720  63.0725670  58.6479530  69.7744910  61.7731760
  67.1470420  82.6062860  67.5987980  67.7892650  81.9056020  67.7120150
  67.6719770  83.3861300  67.4184870  70.9926140  82.8911480  57.3227120
  70.7663720  82.1741920  57.9151760  70.6022340  82.6423920  56.4848870
  68.9208040  83.4057760  70.8024040  69.2564280  83.9924450  71.4801960
  68.0008380  83.2750470  71.0321830  56.7742170  86.9178340  58.0971580
  57.1339810  87.5167680  57.4428850  56.6334510  87.4638230  58.8706610
  56.4711440  71.1952940  71.5847450  55.7569960  71.3949860  72.1900060
  56.8906480  70.4192510  71.9562250  70.5742390  80.8083420  58.9841280
  70.2864090  81.2696110  59.7719160  71.3694560  80.3481190  59.2525500
  56.7584030  85.1833200  72.5713980  56.8675150  84.2427940  72.4309370
  56.1064590  85.4487950  71.9227710  62.7910790  84.3009540  58.9145250
  62.7820890  85.0339230  58.2989760  61.8709150  84.0541120  59.0072210
  58.3917430  79.5224430  59.6592010  57.7845380  80.2623330  59.6687310
  58.8666780  79.6123790  58.8330210  67.9650220  73.6875250  69.3348900
  68.3331040  72.8670460  69.6628470  67.1048420  73.7477140  69.7504550
  71.3312250  72.6432190  60.1436460  70.7025410  72.7477860  59.4294690
  70.8364170  72.8628970  60.9330340  65.7770390  84.3637780  57.5770440
  65.8782370  84.1601770  56.6472420  64.8772130  84.1096060  57.7818220
  63.2996280  74.9218140  61.5594340  62.5912430  75.3904480  62.0007950
  63.5840760  74.2640150  62.1939530  64.9252210  76.3414840  69.5586870
  65.4237460  76.8160660  70.2238720  65.0675160  75.4178360  69.7656900
  67.3311710  71.6468800  62.9990130  67.2079490  71.6654930  62.0499640
  68.2796270  71.6947740  63.1188530  64.4188500  86.8824100  62.2718110
  64.6730000  86.8445490  61.3497480  63.4700980  86.7557430  62.2646360
  61.5031300  73.2303220  58.9345050  62.3521830  73.6673370  58.8685240
  61.1362570  73.5423480  59.7617110  72.1319070  72.5582800  70.4015260
  71.6292670  73.2988200  70.7409070  72.9475730  72.9466800  70.0852050
  70.4241080  77.8015980  63.8476620  69.4831220  77.8166210  64.0224310
  70.7385150  77.0151940  64.2936920  60.4022720  79.4835580  57.4080580
  61.1685990  79.3716940  57.9706010  60.4797410  78.7873550  56.7557350
  59.0969480  76.9160650  58.0913470  59.1773070  75.9688160  58.2030870
  59.9889230  77.2467530  58.1974130  72.4266660  84.9724830  65.5230880
  72.5514080  85.7956000  65.9954690  73.2932220  84.7615560  65.1755030
  59.8984190  87.0656040  65.1948010  60.6346670  86.5171500  65.4656580
  60.2825110  87.9312050  65.0554000  56.7829670  83.1329610  61.0689520
  55.8569450  83.3750750  61.0594930  57.2486100  83.9603870  60.9474270
  63.0086500  86.2386350  57.0173580  63.8015110  86.5275180  56.5655370
  62.4890850  85.8078520  56.3386060  72.0616670  85.4656480  58.4410320
  71.7758180  85.0521620  57.6264500  71.8636220  86.3944190  58.3210840
  63.5263900  81.4589760  56.8815930  63.4214540  80.8442110  57.6077310
  63.3588120  80.9355650  56.0978940  63.6778220  80.1446560  72.8605160
  62.9123890  80.7131560  72.7759830  63.8594180  79.8522770  71.9673390
  66.7666630  80.5209790  57.4857920  66.2176730  80.9679090  58.1300660
  67.3885890  80.0159040  58.0095590  62.4341750  79.4800710  59.3823220
  62.8558170  79.3140580  60.2254610  62.5592590  78.6700940  58.8878360
  60.5969170  75.4597260  72.1894200  60.0665630  74.9688210  71.5617540
  61.2657240  75.8881460  71.6552130  64.9469390  78.5038320  56.6300320
  65.4675050  77.7887340  56.2641470  65.5937790  79.1424190  56.9300830
  69.4947230  79.9266720  71.9535390  69.9088250  80.0811800  72.8025810
  68.5598230  80.0521940  72.1161170  61.0841470  72.4259630  72.2691490
  60.9898340  71.8080380  71.5442360  60.5038860  73.1525920  72.0421400
  63.8502910  70.9832870  69.3018880  63.4020210  71.0057130  68.4564430
  63.2168110  70.5851890  69.8989180  64.2562460  79.8787200  69.9231320
  64.6750570  80.7219930  69.7507560  63.3371090  80.0159240  69.6938100
  66.5926360  77.6103380  71.3069160  66.7122570  77.0144520  72.0464000
  67.4520360  77.6473070  70.8870460  68.9314260  78.1640570  69.8831670
  68.4049480  78.6883190  69.2796810  69.2745600  78.7967960  70.5141400
  61.3300650  75.5533940  56.3281380  61.1289710  74.6901300  56.6894720
  61.1592700  75.4667300  55.3902980  62.1069880  86.1840210  71.0389050
  61.5690970  86.9086270  70.7197750  62.3603840  85.7070550  70.2486390
  68.8088960  70.3642170  58.8568260  69.0891250  69.5210070  59.2127680
  68.0354690  70.5965280  59.3707010  60.1283450  72.6534560  56.3159260
  60.4309350  72.6601990  55.4078410  60.8678040  72.3032420  56.8126920
  64.9632090  87.4191420  71.2975700  64.8890790  88.3226560  71.6048070
  64.0610930  87.1003320  71.2697770  63.3468380  71.5969180  57.3015460
  62.9990380  70.9193170  56.7217910  63.5481150  71.1358690  58.1158850
  65.5117420  86.5849930  58.9202060  66.4068210  86.9234900  58.9420820
  65.5435050  85.8629340  58.2926340  59.1513580  81.9576980  57.1489060
  59.5888450  82.5006650  57.8046640  59.6361310  81.1323930  57.1585400
  56.3659380  84.7466010  64.6009320  56.6962390  83.8787070  64.3687960
  56.7950380  84.9524530  65.4314280  60.9621300  83.0775020  62.2611290
  60.6616840  82.9539990  63.1615200  60.8558790  82.2183610  61.8527020
  56.8549590  85.6136600  67.3390950  56.4180580  85.7937400  68.1715100
  57.4227270  86.3711220  67.1972670  72.4911770  85.1153600  71.6268260
  71.8913760  85.1746160  70.8832180  72.6205670  84.1758580  71.7565110
  73.7313220  82.8571420  56.9637970  72.9006180  82.9248070  57.4345200
  73.9085050  83.7475540  56.6604830  73.1869680  79.6018900  59.4672170
  73.9488590  80.1715550  59.5731860  73.2024050  79.0346100  60.2380480
  56.6874020  78.1256830  63.6979830  56.0322860  77.8568470  63.0539530
  57.5251970  78.0161310  63.2481810  74.1929650  80.4569000  64.3114100
  74.5638480  79.6736320  63.9050070  74.8331580  81.1458100  64.1331400
  71.1763410  81.8405580  69.7244420  70.3623250  82.2702740  69.9870210
  71.5837610  82.4523990  69.1113470  73.2388850  79.8953270  56.6244690
  73.5137690  80.8032150  56.4963910  73.0499590  79.8315800  57.5606680
  69.6364460  72.9198120  57.9198320  70.0549340  72.7329100  57.0794980
  69.3300520  72.0677170  58.2301250  73.1354190  77.8322260  61.6174120
  72.7597790  77.0650190  61.1855410  72.4057310  78.2144960  62.1049050
  57.7249950  78.5109400  68.2383170  58.0922990  78.4236800  69.1179190
  57.1560770  77.7475950  68.1390030  72.5253810  76.9793780  71.2513640
  72.2939900  76.7506530  70.3511590  72.7858360  77.8993330  71.2058530
  57.2765950  75.4218490  72.1441590  56.3822000  75.3885250  72.4835300
  57.8163500  75.6205280  72.9092840  55.9012100  75.3355760  59.6405160
  54.9976180  75.5985960  59.4656820  56.3852720  75.6066930  58.8605120
  72.4105150  76.0579750  64.9181360  72.9342630  75.5642400  64.2871530
  72.9964570  76.1930110  65.6628930  72.5894870  76.1419620  68.4400910
  71.6397580  76.1083160  68.5545900  72.7707880  77.0519730  68.2050680
  58.4439310  74.3921300  57.5499540  59.1531010  73.9704520  57.0646820
  57.7279250  74.4596530  56.9182890  58.0913470  70.4460630  56.5902190
  58.8141600  70.9869570  56.9083410  58.3637990  70.1724050  55.7143730
  71.9005120  75.3153100  60.8573770  72.3964240  75.0823970  61.6422650
  71.7021190  74.4764940  60.4411410  57.7805660  69.6966820  66.4924810
  58.4281850  69.1464200  66.0519970  58.2007500  69.9509970  67.3140620
  73.3292280  73.9514050  63.3911450  73.2191560  73.7970090  64.3293720
  74.0899870  73.4234990  63.1486860  71.6758000  69.8908180  69.8494450
  72.3130220  70.5042320  70.2153640  71.8232890  69.9268840  68.9043680
  74.2182550  71.7821970  56.6317590  75.1431860  71.6503150  56.4235880
  74.1958340  71.8614790  57.5854040  74.2921040  72.5532630  59.2574300
  73.4972540  72.4877750  59.7867210  74.4964320  73.4883270  59.2459650
  71.2339460  86.5924180  63.2512690  71.8298530  86.2708750  62.5747110
  71.4917610  86.1196000  64.0425960  57.5337660  69.8522490  69.2350130
  57.1852480  70.3086310  70.0008310  57.2025360  68.9579620  69.3172560
  62.8408060  84.5801680  69.0013040  62.5999420  84.8476240  68.1143560
  63.7810700  84.7507410  69.0563900  74.1012220  86.5996060  69.8023680
  73.6070500  86.9964930  69.0850810  73.4925510  85.9745270  70.1960960
  58.9790060  85.9704340  70.5201100  58.3850380  85.8389040  71.2591140
  58.9713900  85.1342480  70.0543200  68.4245080  69.2636570  68.7231130
  67.5504920  69.5971680  68.5204060  68.3155830  68.7909750  69.5483000
  69.3317060  71.4707440  70.1072850  69.0030420  70.6559200  69.7274580
  70.2799360  71.4277250  69.9838540  71.7851670  87.2419480  67.0810420
  71.3254640  87.9935290  66.7068440  71.1564130  86.5225950  67.0225220
  58.6102290  83.3362720  69.4709140  57.8836350  82.7168010  69.4035090
  58.6711440  83.7303330  68.6007220  62.2147390  85.5507720  66.2558550
  62.7312410  84.9395080  65.7306810  62.8644770  86.0536500  66.7469560
  64.9542890  86.4416210  67.0827530  65.2420700  86.1870510  66.2060540
  65.4666110  85.8893570  67.6733100  66.1719900  70.1806410  67.6624040
  65.3891690  70.6551910  67.9420800  65.8782830  69.2761240  67.5537220
  70.7240970  70.8829510  65.7073130  71.1649060  70.8274610  64.8594730
  70.4548560  71.7987520  65.7783310  72.5879540  70.5144750  63.7181950
  72.5267940  69.5705970  63.5712970  73.3671570  70.6224840  64.2635410
  56.8932290  86.6537110  62.6805900  56.7254330  86.0207790  63.3787790
  56.0266800  86.8596510  62.3300090  57.5160310  70.4853890  60.1837760
  58.2739670  70.5982770  59.6101790  57.0537480  71.3223090  60.1381190
  64.0574120  72.5993160  63.1740070  63.2448630  72.2250050  62.8335950
  64.5615760  71.8438240  63.4761260  68.5599100  69.2635610  64.4123140
  69.1628470  69.8355820  64.8871660  67.8192090  69.8275050  64.1897040
  71.7033700  69.6657170  59.6863420  71.8984330  70.5640620  59.9530850
  70.9163570  69.4344250  60.1796370  58.4994990  85.3470340  60.1256040
  57.9742610  85.7278370  59.4218000  58.4239570  85.9721110  60.8465750
  59.8885460  71.0117940  58.7239730  60.4178220  70.2247740  58.5947680
  60.5213780  71.6909130  58.9575260  62.0823300  70.7493080  61.7785120
  61.4526040  70.0480390  61.9455250  61.5428440  71.5097210  61.5618280
  73.2560310  86.9057880  61.4469980  73.4312500  86.2195620  60.8030900
  72.5581880  87.4304930  61.0546650  61.0987960  87.2952720  59.0005290
  61.8306780  87.0112000  58.4529180  61.3581630  87.0566000  59.8904670
  60.2602750  83.4117450  59.0051620  59.6311630  83.8802550  59.5537450
  60.3750580  82.5666670  59.4397810  67.7152470  77.4623110  45.1552820
  67.6346520  76.5477720  44.8844530  67.3016890  77.9590180  44.4492530
  65.8470510  79.2402130  47.0362090  65.0712610  78.7602570  47.3260660
  66.4983440  78.5607780  46.8618250  59.8636340  79.5521940  47.9137850
  59.0321220  79.2970650  48.3134360  60.4717320  79.6232710  48.6495770
  69.8677940  83.6462320  45.8161220  69.4059470  82.8749560  46.1448390
  70.6803490  83.6728390  46.3213670  59.8437600  83.5862030  48.1095870
  60.1465640  82.6959770  47.9306090  60.5881190  84.1432250  47.8818120
  66.0941250  85.9320330  45.4365210  65.4752690  86.3877830  44.8659650
  66.9493030  86.0871790  45.0354910  65.2879500  81.9159320  47.0432250
  65.2187780  80.9749260  46.8821380  66.0499360  82.0060730  47.6154820
  70.1008790  72.2180140  44.2029520  70.9218410  71.7276710  44.2455000
  70.1342870  72.8077800  44.9561360  74.3908340  74.2346890  50.7673150
  73.6860510  74.6228600  50.2488260  74.6566260  74.9297180  51.3694080
  66.9604600  80.8159570  42.8297120  66.3421870  81.2809020  42.2659840
  67.4727850  81.5087050  43.2466630  61.8236360  80.3435440  49.5080720
  61.4905740  80.9704360  50.1501790  62.0003040  80.8697320  48.7282390
  70.3370270  74.1580520  46.9757060  69.6325840  74.4465410  47.5560170
  70.6982430  74.9680630  46.6156620  61.0355460  82.3116240  51.3229900
  61.6529460  82.9867320  51.0414350  60.1748580  82.7204220  51.2317400
  56.3287800  81.5016100  40.2036750  55.9515780  81.9903200  39.4721650
  56.5860870  82.1741380  40.8343280  71.9533050  83.7755650  49.2384540
  71.2696570  84.4454760  49.2301210  72.4927340  83.9736300  48.4729400
  73.4057190  73.6035310  47.3666270  72.4582100  73.6374290  47.4981700
  73.7307180  74.4174260  47.7515630  69.4891790  85.6199780  47.9529720
  69.5018950  85.2162070  47.0851980  68.9367010  86.3947070  47.8491150
  70.7837210  82.3416000  43.0419890  70.6733540  81.3990330  43.1669310
  70.7805460  82.7031640  43.9282650  68.8877230  80.5229620  49.2812330
  69.3046020  80.3089730  48.4465790  69.6117050  80.7802410  49.8520950
  66.3257490  77.9681320  42.3982380  65.3986770  77.9018700  42.6270850
  66.4782310  78.9061450  42.2837620  72.8339330  78.9216840  49.3728570
  72.0057960  78.9909930  48.8978700  73.4289810  79.5071150  48.9044400
  70.3554780  79.5301620  42.9017630  69.7367200  79.1921170  42.2543930
  70.3379230  78.8861380  43.6096820  69.7981340  75.7086160  50.3183440
  69.3852520  76.5339870  50.5723430  69.0657290  75.1231200  50.1259800
  62.3995830  82.1813620  47.3441320  62.1024120  81.5759090  46.6649100
  63.3495650  82.2190930  47.2330680  70.4881440  85.7545490  51.0064420
  70.0112000  86.5617680  50.8137030  69.8043230  85.1023820  51.1590630
  61.4914260  81.9195310  53.9949120  60.5942790  82.1435280  54.2422520
  61.5167130  82.0430250  53.0460520  68.5319480  78.7688430  39.9090380
  68.9712760  77.9310860  39.7628200  69.2447900  79.4017830  39.9954520
  60.3185480  78.7908630  52.5706490  60.1793250  79.6631430  52.9393890
  59.4366840  78.4481440  52.4254430  66.6414860  83.7084500  43.8771620
  67.0810770  84.4508830  43.4627010  66.5801750  83.9511070  44.8010580
  62.1165830  84.7330330  54.7791640  62.0881260  85.1373280  53.9120070
  61.9530800  83.8040690  54.6163240  72.1136620  70.0231240  38.2231420
  71.8009280  70.1158070  39.1230490  72.8749090  70.6012270  38.1728850
  74.0680650  85.5157430  56.0755810  74.5440370  85.9940320  56.7544890
  74.6887810  85.4474920  55.3501310  56.2704130  80.5606180  48.4877400
  56.3484550  80.6954950  47.5433120  56.8845810  79.8522070  48.6805520
  57.5151760  82.2606370  44.8983580  57.1079840  82.4020960  44.0437180
  58.4064770  81.9766530  44.6954790  73.4713900  82.7070280  53.2355820
  73.5976960  82.4682160  52.3173000  73.5135280  81.8754820  53.7077900
  67.3330640  86.4098280  51.8050630  67.8475310  86.3206290  52.6073060
  66.4899720  86.7557980  52.0978540  69.3085040  86.6953620  41.2334630
  69.1486180  86.4056560  42.1316460  69.1431750  85.9193750  40.6979860
  61.7873420  86.4752150  43.0106250  61.6115900  85.5587690  42.7974050
  60.9329160  86.8339440  43.2504050  69.0111170  84.2041180  39.7932630
  68.3176330  84.2018470  39.1334910  69.7534030  83.7800500  39.3626800
  68.5761100  85.8303890  43.8681120  69.0318050  85.0493270  44.1819740
  68.9153620  86.5410710  44.4122300  73.3237910  74.7602740  54.2005560
  72.7082180  75.2682410  53.6721020  73.0034330  73.8601070  54.1431500
  56.3263650  81.6020350  51.0271860  56.4894690  81.1325710  50.2091230
  56.7916100  81.0943910  51.6920700  70.3856740  74.8203580  52.7964410
  69.5350330  74.5209330  53.1173480  70.2258530  75.0645590  51.8848230
  67.4806450  76.3205330  54.8963200  67.8059860  75.4869080  54.5565430
  68.2686780  76.8433850  55.0441530  68.1194400  75.8623050  42.3904330
  67.5203290  76.5858850  42.2067950  68.6674010  75.7999830  41.6080780
  63.3295850  76.7545260  54.4573950  63.2339450  75.8139990  54.3074350
  64.1727830  76.9760330  54.0622020  66.7259270  74.4986590  44.4207610
  67.1188840  74.8158790  43.6076300  67.0876120  73.6198470  44.5352130
  58.4606390  73.1658930  52.6107730  58.0669780  74.0134140  52.8180510
  57.7724790  72.5285300  52.8016370  65.0351440  73.2493900  55.6804470
  64.3449760  73.0566100  56.3150560  65.7783740  73.5328540  56.2128770
  67.3114410  77.0892340  48.5158390  66.5795530  77.5979150  48.8648490
  66.9138750  76.2722320  48.2147170  71.2011070  69.9558200  53.7667710
  71.5256840  69.2247860  54.2925690  71.2367580  69.6371840  52.8648700
  57.9002630  80.9771780  53.1867670  57.5157420  80.3365450  53.7850630
  58.2114820  81.6807900  53.7562400  64.0499770  77.8248320  48.6676290
  64.4169900  77.3506890  49.4137630  63.8604830  78.6989890  49.0084630
  61.8399140  76.8656960  50.9860500  61.5356210  77.7448940  51.2110860
  62.7945600  76.9256750  51.0217940  60.3680930  81.0717950  41.5827350
  59.5943190  80.5315570  41.4226070  61.0975560  80.5524560  41.2445110
  71.1268910  80.0683310  47.3753740  71.8468030  80.5638600  46.9849850
  70.9250730  79.3901200  46.7307610  66.5087710  80.1392370  53.2622740
  66.4425020  79.2188040  53.0080330  65.8792850  80.2367810  53.9767380
  69.3027240  75.8340920  39.8145290  70.1906860  76.1458150  39.6396630
  69.2732330  74.9613170  39.4225870  60.4118330  80.7398330  45.2206160
  60.9297000  79.9366590  45.1663050  59.9602350  80.6777470  46.0622990
  65.2987830  82.0064610  40.4933460  65.6403530  82.7506840  39.9976780
  64.4700540  82.3195730  40.8558290  57.8962870  77.7059700  52.1331860
  57.5377810  78.3713550  52.7205200  57.6017430  76.8743250  52.5044480
  61.0975990  78.1643940  55.0171410  60.7976130  78.3101120  54.1199230
  61.8687230  77.6049230  54.9244800  66.4404440  82.9612940  53.0126540
  66.4548980  82.0293900  52.7945450  65.7329540  83.0472700  53.6516310
  71.5741510  77.1452760  39.2825150  71.4905230  77.5766980  38.4321590
  72.2935700  77.6051110  39.7151970  72.6515650  79.6020280  52.3595120
  71.9263840  80.1949060  52.1624510  73.1791110  79.5943820  51.5608490
  72.6028760  83.9995020  42.0107280  71.9604920  83.3450640  42.2851000
  72.2159420  84.4050110  41.2347950  68.1815240  81.3280450  45.8578970
  68.5339060  80.7308580  45.1980340  67.2977570  81.0024680  46.0287220
  64.2678520  82.0878140  43.2649380  64.9549650  82.6347350  43.6456970
  63.4810940  82.6318870  43.2998990  63.5705730  79.0924170  42.8774740
  64.0268510  79.9029420  43.1034930  63.2193940  78.7747310  43.7093230
  65.8738340  84.6030510  50.1067040  66.5180560  84.8089890  50.7840460
  66.2367780  83.8418910  49.6537890  67.1470420  82.6062860  48.8244490
  67.7892650  81.9056020  48.9376660  67.6719770  83.3861300  48.6441380
  70.9926140  82.8911480  38.5483630  70.7663720  82.1741920  39.1408270
  70.6022340  82.6423920  37.7105380  68.9208040  83.4057760  52.0280550
  69.2564280  83.9924450  52.7058470  68.0008380  83.2750470  52.2578340
  56.7742170  86.9178340  39.3228090  57.1339810  87.5167680  38.6685360
  56.6334510  87.4638230  40.0963120  56.4711440  71.1952940  52.8103960
  55.7569960  71.3949860  53.4156570  56.8906480  70.4192510  53.1818760
  70.5742390  80.8083420  40.2097790  70.2864090  81.2696110  40.9975670
  71.3694560  80.3481190  40.4782010  56.7584030  85.1833200  53.7970490
  56.8675150  84.2427940  53.6565880  56.1064590  85.4487950  53.1484220
  64.7496620  83.4549090  55.1968610  64.4293490  82.7358330  55.7414300
  64.0754980  84.1304160  55.2704670  62.7910790  84.3009540  40.1401760
  62.7820890  85.0339230  39.5246270  61.8709150  84.0541120  40.2328720
  58.3917430  79.5224430  40.8848520  57.7845380  80.2623330  40.8943820
  58.8666780  79.6123790  40.0586720  67.9650220  73.6875250  50.5605410
  68.3331040  72.8670460  50.8884980  67.1048420  73.7477140  50.9761060
  71.3312250  72.6432190  41.3692970  70.7025410  72.7477860  40.6551200
  70.8364170  72.8628970  42.1586850  65.7770390  84.3637780  38.8026950
  65.8782370  84.1601770  37.8728930  64.8772130  84.1096060  39.0074730
  64.9252210  76.3414840  50.7843380  65.4237460  76.8160660  51.4495230
  65.0675160  75.4178360  50.9913410  64.4188500  86.8824100  43.4974620
  64.6730000  86.8445490  42.5753990  63.4700980  86.7557430  43.4902870
  72.1319070  72.5582800  51.6271770  71.6292670  73.2988200  51.9665580
  72.9475730  72.9466800  51.3108560  70.4241080  77.8015980  45.0733130
  69.4831220  77.8166210  45.2480820  70.7385150  77.0151940  45.5193430
  60.4022720  79.4835580  38.6337090  61.1685990  79.3716940  39.1962520
  60.4797410  78.7873550  37.9813860  72.4266660  84.9724830  46.7487390
  72.5514080  85.7956000  47.2211200  73.2932220  84.7615560  46.4011540
  59.8984190  87.0656040  46.4204520  60.6346670  86.5171500  46.6913090
  60.2825110  87.9312050  46.2810510  56.7829670  83.1329610  42.2946030
  55.8569450  83.3750750  42.2851440  57.2486100  83.9603870  42.1730780
  58.9042470  86.2502110  55.6090100  59.7055200  86.5714160  56.0225500
  58.3894290  85.8897690  56.3310010  63.0086500  86.2386350  38.2430090
  63.8015110  86.5275180  37.7911880  62.4890850  85.8078520  37.5642570
  67.7407100  82.3581980  55.5565510  67.1345260  82.3813580  54.8161260
  67.4361210  81.6265020  56.0932760  69.1707470  86.0862270  54.1674920
  70.1229220  86.0020290  54.1175160  69.0235690  86.7503980  54.8408710
  72.0616670  85.4656480  39.6666830  71.7758180  85.0521620  38.8521010
  71.8636220  86.3944190  39.5467350  56.6240280  78.7375570  54.5526150
  57.1279300  78.1582850  55.1242380  55.8847700  79.0215800  55.0902520
  63.5263900  81.4589760  38.1072440  63.4214540  80.8442110  38.8333820
  63.3588120  80.9355650  37.3235450  63.6778220  80.1446560  54.0861670
  62.9123890  80.7131560  54.0016340  63.8594180  79.8522770  53.1929900
  66.7666630  80.5209790  38.7114430  66.2176730  80.9679090  39.3557170
  67.3885890  80.0159040  39.2352100  70.8201570  81.8751890  54.6436690
  71.5611040  82.2127650  54.1404150  70.0574250  82.0443950  54.0906460
  58.6563360  76.8805160  55.4476220  58.6968700  76.5819030  56.3561450
  59.5108860  77.2812770  55.2883740  62.4341750  79.4800710  40.6079730
  62.8558170  79.3140580  41.4511120  62.5592590  78.6700940  40.1134870
  60.5969170  75.4597260  53.4150710  60.0665630  74.9688210  52.7874050
  61.2657240  75.8881460  52.8808640  64.9469390  78.5038320  37.8556830
  65.4675050  77.7887340  37.4897980  65.5937790  79.1424190  38.1557340
  69.4947230  79.9266720  53.1791900  69.9088250  80.0811800  54.0282320
  68.5598230  80.0521940  53.3417680  69.9669400  77.2662880  55.1831050
  70.5490170  76.5115200  55.0951530  70.1431170  77.7970320  54.4062530
  61.0841470  72.4259630  53.4948000  60.9898340  71.8080380  52.7698870
  60.5038860  73.1525920  53.2677910  64.2562460  79.8787200  51.1487830
  64.6750570  80.7219930  50.9764070  63.3371090  80.0159240  50.9194610
  66.5926360  77.6103380  52.5325670  66.7122570  77.0144520  53.2720510
  67.4520360  77.6473070  52.1126970  68.9314260  78.1640570  51.1088180
  68.4049480  78.6883190  50.5053320  69.2745600  78.7967960  51.7397910
  62.1069880  86.1840210  52.2645560  61.5690970  86.9086270  51.9454260
  62.3603840  85.7070550  51.4742900  63.3595130  74.1524730  53.7901490
  63.9494820  73.8440580  54.4779310  62.5415370  73.6804480  53.9461390
  68.1788560  73.7690540  54.0234510  67.4904080  73.1072080  53.9584500
  68.8994580  73.3228810  54.4682970  64.9632090  87.4191420  52.5232210
  64.8890790  88.3226560  52.8304580  64.0610930  87.1003320  52.4954280
  65.5117420  86.5849930  40.1458570  66.4068210  86.9234900  40.1677330
  65.5435050  85.8629340  39.5182850  59.1513580  81.9576980  38.3745570
  59.5888450  82.5006650  39.0303150  59.6361310  81.1323930  38.3841910
  56.3659380  84.7466010  45.8265830  56.6962390  83.8787070  45.5944470
  56.7950380  84.9524530  46.6570790  60.9621300  83.0775020  43.4867800
  60.6616840  82.9539990  44.3871710  60.8558790  82.2183610  43.0783530
  56.8549590  85.6136600  48.5647460  56.4180580  85.7937400  49.3971610
  57.4227270  86.3711220  48.4229180  72.4911770  85.1153600  52.8524770
  71.8913760  85.1746160  52.1088690  72.6205670  84.1758580  52.9821620
  73.7313220  82.8571420  38.1894480  72.9006180  82.9248070  38.6601710
  73.9085050  83.7475540  37.8861340  73.1869680  79.6018900  40.6928680
  73.9488590  80.1715550  40.7988370  73.2024050  79.0346100  41.4636990
  74.1929650  80.4569000  45.5370610  74.5638480  79.6736320  45.1306580
  74.8331580  81.1458100  45.3587910  71.1763410  81.8405580  50.9500930
  70.3623250  82.2702740  51.2126720  71.5837610  82.4523990  50.3369980
  73.2388850  79.8953270  37.8501200  73.5137690  80.8032150  37.7220420
  73.0499590  79.8315800  38.7863190  69.6364460  72.9198120  39.1454830
  70.0549340  72.7329100  38.3051490  69.3300520  72.0677170  39.4557760
  73.1354190  77.8322260  42.8430630  72.7597790  77.0650190  42.4111920
  72.4057310  78.2144960  43.3305560  72.5253810  76.9793780  52.4770150
  72.2939900  76.7506530  51.5768100  72.7858360  77.8993330  52.4315040
  57.2765950  75.4218490  53.3698100  56.3822000  75.3885250  53.7091810
  57.8163500  75.6205280  54.1349350  70.9641880  72.2050210  55.2549850
  71.8412060  72.2133610  55.6383850  70.9762720  71.4681050  54.6442200
  72.4105150  76.0579750  46.1437870  72.9342630  75.5642400  45.5128040
  72.9964570  76.1930110  46.8885440  72.5894870  76.1419620  49.6657420
  71.6397580  76.1083160  49.7802410  72.7707880  77.0519730  49.4307190
  71.9005120  75.3153100  42.0830280  72.3964240  75.0823970  42.8679160
  71.7021190  74.4764940  41.6667920  73.3292280  73.9514050  44.6167960
  73.2191560  73.7970090  45.5550230  74.0899870  73.4234990  44.3743370
  71.6758000  69.8908180  51.0750960  72.3130220  70.5042320  51.4410150
  71.8232890  69.9268840  50.1300190  74.2182550  71.7821970  37.8574100
  75.1431860  71.6503150  37.6492390  74.1958340  71.8614790  38.8110550
  74.2921040  72.5532630  40.4830810  73.4972540  72.4877750  41.0123720
  74.4964320  73.4883270  40.4716160  71.2339460  86.5924180  44.4769200
  71.8298530  86.2708750  43.8003620  71.4917610  86.1196000  45.2682470
  59.1402030  83.0242090  54.6259830  59.0971660  82.6535000  55.5074290
  59.2713040  83.9619660  54.7661650  62.8408060  84.5801680  50.2269550
  62.5999420  84.8476240  49.3400070  63.7810700  84.7507410  50.2820410
  65.0462480  71.0434370  53.9826060  64.9851370  71.6356200  54.7321470
  65.9862860  70.9360330  53.8376320  67.6837040  70.7004430  53.6218350
  68.2977450  71.0183720  52.9599430  68.2286600  70.2153020  54.2414210
  74.1012220  86.5996060  51.0280190  73.6070500  86.9964930  50.3107320
  73.4925510  85.9745270  51.4217470  58.2058300  69.3798690  53.7357410
  58.7541290  69.1986740  52.9723520  58.2713610  68.5892800  54.2713720
  58.9790060  85.9704340  51.7457610  58.3850380  85.8389040  52.4847650
  58.9713900  85.1342480  51.2799710  69.3317060  71.4707440  51.3329360
  69.0030420  70.6559200  50.9531090  70.2799360  71.4277250  51.2095050
  71.7851670  87.2419480  48.3066930  71.3254640  87.9935290  47.9324950
  71.1564130  86.5225950  48.2481730  58.6102290  83.3362720  50.6965650
  57.8836350  82.7168010  50.6291600  58.6711440  83.7303330  49.8263730
  62.2147390  85.5507720  47.4815060  62.7312410  84.9395080  46.9563320
  62.8644770  86.0536500  47.9726070  64.9542890  86.4416210  48.3084040
  65.2420700  86.1870510  47.4317050  65.4666110  85.8893570  48.8989610
  72.5879540  70.5144750  44.9438460  72.5267940  69.5705970  44.7969480
  73.3671570  70.6224840  45.4891920  56.8932290  86.6537110  43.9062410
  56.7254330  86.0207790  44.6044300  56.0266800  86.8596510  43.5556600
  71.7033700  69.6657170  40.9119930  71.8984330  70.5640620  41.1787360
  70.9163570  69.4344250  41.4052880  58.4994990  85.3470340  41.3512550
  57.9742610  85.7278370  40.6474510  58.4239570  85.9721110  42.0722260
  65.0215250  87.3632310  55.6752240  65.9482560  87.1276580  55.7188200
  65.0065680  88.1904310  55.1938270  73.2560310  86.9057880  42.6726490
  73.4312500  86.2195620  42.0287410  72.5581880  87.4304930  42.2803160
  62.2078860  70.0277060  55.4394120  61.9263130  70.5310660  54.6754940
  62.5898560  69.2298810  55.0736250  61.0987960  87.2952720  40.2261800
  61.8306780  87.0112000  39.6785690  61.3581630  87.0566000  41.1161180
  60.2602750  83.4117450  40.2308130  59.6311630  83.8802550  40.7793960
  60.3750580  82.5666670  40.6654320  68.8094320  69.4430640  56.0174590
  68.6959770  69.7625250  56.9126110  69.6264060  69.8443150  55.7211870
  71.5892810  86.5902170  55.4993280  72.3818130  86.0951400  55.2919240
  71.8825960  87.2692310  56.1068890  67.7152470  77.4623110  26.3809330
  67.6346520  76.5477720  26.1101040  67.3016890  77.9590180  25.6749040
  65.8470510  79.2402130  28.2618600  65.0712610  78.7602570  28.5517170
  66.4983440  78.5607780  28.0874760  59.8636340  79.5521940  29.1394360
  59.0321220  79.2970650  29.5390870  60.4717320  79.6232710  29.8752280
  69.8677940  83.6462320  27.0417730  69.4059470  82.8749560  27.3704900
  70.6803490  83.6728390  27.5470180  59.8437600  83.5862030  29.3352380
  60.1465640  82.6959770  29.1562600  60.5881190  84.1432250  29.1074630
  58.2728290  74.5123830  22.9236750  57.3844990  74.8539800  22.8216630
  58.5569480  74.3124150  22.0317580  66.0941250  85.9320330  26.6621720
  65.4752690  86.3877830  26.0916160  66.9493030  86.0871790  26.2611420
  65.2879500  81.9159320  28.2688760  65.2187780  80.9749260  28.1077890
  66.0499360  82.0060730  28.8411330  60.4489680  73.0955330  23.9575130
  60.5556430  73.9959060  24.2643890  59.5382040  73.0473300  23.6669780
  70.1008790  72.2180140  25.4286030  70.9218410  71.7276710  25.4711510
  70.1342870  72.8077800  26.1817870  74.3908340  74.2346890  31.9929660
  73.6860510  74.6228600  31.4744770  74.6566260  74.9297180  32.5950590
  66.9604600  80.8159570  24.0553630  66.3421870  81.2809020  23.4916350
  67.4727850  81.5087050  24.4723140  61.8236360  80.3435440  30.7337230
  61.4905740  80.9704360  31.3758300  62.0003040  80.8697320  29.9538900
  70.3370270  74.1580520  28.2013570  69.6325840  74.4465410  28.7816680
  70.6982430  74.9680630  27.8413130  61.0355460  82.3116240  32.5486410
  61.6529460  82.9867320  32.2670860  60.1748580  82.7204220  32.4573910
  56.3287800  81.5016100  21.4293260  55.9515780  81.9903200  20.6978160
  56.5860870  82.1741380  22.0599790  71.9533050  83.7755650  30.4641050
  71.2696570  84.4454760  30.4557720  72.4927340  83.9736300  29.6985910
  73.4057190  73.6035310  28.5922780  72.4582100  73.6374290  28.7238210
  73.7307180  74.4174260  28.9772140  69.4891790  85.6199780  29.1786230
  69.5018950  85.2162070  28.3108490  68.9367010  86.3947070  29.0747660
  70.7837210  82.3416000  24.2676400  70.6733540  81.3990330  24.3925820
  70.7805460  82.7031640  25.1539160  68.8877230  80.5229620  30.5068840
  69.3046020  80.3089730  29.6722300  69.6117050  80.7802410  31.0777460
  66.3257490  77.9681320  23.6238890  65.3986770  77.9018700  23.8527360
  66.4782310  78.9061450  23.5094130  66.3126570  74.2398320  20.6206050
  65.3730240  74.4012280  20.7058510  66.6309830  74.9584000  20.0742040
  72.8339330  78.9216840  30.5985080  72.0057960  78.9909930  30.1235210
  73.4289810  79.5071150  30.1300910  70.3554780  79.5301620  24.1274140
  69.7367200  79.1921170  23.4800440  70.3379230  78.8861380  24.8353330
  69.7981340  75.7086160  31.5439950  69.3852520  76.5339870  31.7979940
  69.0657290  75.1231200  31.3516310  61.9314130  78.4946060  26.4058620
  61.5271130  77.7823310  25.9104520  62.0177250  78.1499300  27.2946660
  62.3995830  82.1813620  28.5697830  62.1024120  81.5759090  27.8905610
  63.3495650  82.2190930  28.4587190  70.4881440  85.7545490  32.2320930
  70.0112000  86.5617680  32.0393540  69.8043230  85.1023820  32.3847140
  61.4914260  81.9195310  35.2205630  60.5942790  82.1435280  35.4679030
  61.5167130  82.0430250  34.2717030  68.5319480  78.7688430  21.1346890
  68.9712760  77.9310860  20.9884710  69.2447900  79.4017830  21.2211030
  66.6414860  83.7084500  25.1028130  67.0810770  84.4508830  24.6883520
  66.5801750  83.9511070  26.0267090  62.1165830  84.7330330  36.0048150
  62.0881260  85.1373280  35.1376580  61.9530800  83.8040690  35.8419750
  72.1136620  70.0231240  19.4487930  71.8009280  70.1158070  20.3487000
  72.8749090  70.6012270  19.3985360  58.6318760  77.3891040  23.9065270
  58.5116360  78.1153130  23.2946540  58.3219650  76.6193950  23.4293180
  74.0680650  85.5157430  37.3012320  74.5440370  85.9940320  37.9801400
  74.6887810  85.4474920  36.5757820  56.2704130  80.5606180  29.7133910
  56.3484550  80.6954950  28.7689630  56.8845810  79.8522070  29.9062030
  57.5151760  82.2606370  26.1240090  57.1079840  82.4020960  25.2693690
  58.4064770  81.9766530  25.9211300  73.4713900  82.7070280  34.4612330
  73.5976960  82.4682160  33.5429510  73.5135280  81.8754820  34.9334410
  67.3330640  86.4098280  33.0307140  67.8475310  86.3206290  33.8329570
  66.4899720  86.7557980  33.3235050  69.3085040  86.6953620  22.4591140
  69.1486180  86.4056560  23.3572970  69.1431750  85.9193750  21.9236370
  61.7873420  86.4752150  24.2362760  61.6115900  85.5587690  24.0230560
  60.9329160  86.8339440  24.4760560  69.0111170  84.2041180  21.0189140
  68.3176330  84.2018470  20.3591420  69.7534030  83.7800500  20.5883310
  68.5761100  85.8303890  25.0937630  69.0318050  85.0493270  25.4076250
  68.9153620  86.5410710  25.6378810  73.3237910  74.7602740  35.4262070
  72.7082180  75.2682410  34.8977530  73.0034330  73.8601070  35.3688010
  56.3263650  81.6020350  32.2528370  56.4894690  81.1325710  31.4347740
  56.7916100  81.0943910  32.9177210  70.3856740  74.8203580  34.0220920
  69.5350330  74.5209330  34.3429990  70.2258530  75.0645590  33.1104740
  67.4806450  76.3205330  36.1219710  67.8059860  75.4869080  35.7821940
  68.2686780  76.8433850  36.2698040  64.2141240  70.3536810  22.1694770
  63.5895420  70.3496680  22.8948080  64.1271360  69.4867770  21.7730740
  68.1194400  75.8623050  23.6160840  67.5203290  76.5858850  23.4324460
  68.6674010  75.7999830  22.8337290  66.7259270  74.4986590  25.6464120
  67.1188840  74.8158790  24.8332810  67.0876120  73.6198470  25.7608640
  55.9493670  75.0307510  19.0797040  55.8668340  75.9738270  19.2212030
  55.5976730  74.8882420  18.2009390  67.3114410  77.0892340  29.7414900
  66.5795530  77.5979150  30.0905000  66.9138750  76.2722320  29.4403680
  63.8111950  74.7658620  21.1374150  63.9324770  74.7245100  22.0859970
  63.4260460  75.6282770  20.9820880  62.8233450  77.0759760  20.5357450
  62.2550350  76.6278010  19.9093360  63.5322450  77.4352540  20.0022600
  71.2011070  69.9558200  34.9924220  71.5256840  69.2247860  35.5182200
  71.2367580  69.6371840  34.0905210  57.9002630  80.9771780  34.4124180
  57.5157420  80.3365450  35.0107140  58.2114820  81.6807900  34.9818910
  64.0499770  77.8248320  29.8932800  64.4169900  77.3506890  30.6394140
  63.8604830  78.6989890  30.2341140  60.3680930  81.0717950  22.8083860
  59.5943190  80.5315570  22.6482580  61.0975560  80.5524560  22.4701620
  71.1268910  80.0683310  28.6010250  71.8468030  80.5638600  28.2106360
  70.9250730  79.3901200  27.9564120  66.5878850  71.4621270  22.7439640
  65.7743460  70.9634440  22.6684950  66.3940800  72.3019520  22.3275990
  66.5087710  80.1392370  34.4879250  66.4425020  79.2188040  34.2336840
  65.8792850  80.2367810  35.2023890  69.3027240  75.8340920  21.0401800
  70.1906860  76.1458150  20.8653140  69.2732330  74.9613170  20.6482380
  60.4118330  80.7398330  26.4462670  60.9297000  79.9366590  26.3919560
  59.9602350  80.6777470  27.2879500  65.2987830  82.0064610  21.7189970
  65.6403530  82.7506840  21.2233290  64.4700540  82.3195730  22.0814800
  66.4404440  82.9612940  34.2383050  66.4548980  82.0293900  34.0201960
  65.7329540  83.0472700  34.8772820  71.5741510  77.1452760  20.5081660
  71.4905230  77.5766980  19.6578100  72.2935700  77.6051110  20.9408480
  72.6515650  79.6020280  33.5851630  71.9263840  80.1949060  33.3881020
  73.1791110  79.5943820  32.7865000  72.6028760  83.9995020  23.2363790
  71.9604920  83.3450640  23.5107510  72.2159420  84.4050110  22.4604460
  68.1815240  81.3280450  27.0835480  68.5339060  80.7308580  26.4236850
  67.2977570  81.0024680  27.2543730  64.2678520  82.0878140  24.4905890
  64.9549650  82.6347350  24.8713480  63.4810940  82.6318870  24.5255500
  56.4070920  77.7050960  19.9822970  57.2765770  77.9875760  20.2658890
  55.9161240  78.5186830  19.8671780  63.5705730  79.0924170  24.1031250
  64.0268510  79.9029420  24.3291440  63.2193940  78.7747310  24.9349740
  65.8738340  84.6030510  31.3323550  66.5180560  84.8089890  32.0096970
  66.2367780  83.8418910  30.8794400  67.1470420  82.6062860  30.0501000
  67.7892650  81.9056020  30.1633170  67.6719770  83.3861300  29.8697890
  70.9926140  82.8911480  19.7740140  70.7663720  82.1741920  20.3664780
  70.6022340  82.6423920  18.9361890  68.9208040  83.4057760  33.2537060
  69.2564280  83.9924450  33.9314980  68.0008380  83.2750470  33.4834850
  56.7742170  86.9178340  20.5484600  57.1339810  87.5167680  19.8941870
  56.6334510  87.4638230  21.3219630  70.5742390  80.8083420  21.4354300
  70.2864090  81.2696110  22.2232180  71.3694560  80.3481190  21.7038520
  56.7584030  85.1833200  35.0227000  56.8675150  84.2427940  34.8822390
  56.1064590  85.4487950  34.3740730  64.7496620  83.4549090  36.4225120
  64.4293490  82.7358330  36.9670810  64.0754980  84.1304160  36.4961180
  62.7910790  84.3009540  21.3658270  62.7820890  85.0339230  20.7502780
  61.8709150  84.0541120  21.4585230  58.3917430  79.5224430  22.1105030
  57.7845380  80.2623330  22.1200330  58.8666780  79.6123790  21.2843230
  67.9650220  73.6875250  31.7861920  68.3331040  72.8670460  32.1141490
  67.1048420  73.7477140  32.2017570  71.3312250  72.6432190  22.5949480
  70.7025410  72.7477860  21.8807710  70.8364170  72.8628970  23.3843360
  65.7770390  84.3637780  20.0283460  65.8782370  84.1601770  19.0985440
  64.8772130  84.1096060  20.2331240  63.2996280  74.9218140  24.0107360
  62.5912430  75.3904480  24.4520970  63.5840760  74.2640150  24.6452550
  67.3311710  71.6468800  25.4503150  67.2079490  71.6654930  24.5012660
  68.2796270  71.6947740  25.5701550  64.4188500  86.8824100  24.7231130
  64.6730000  86.8445490  23.8010500  63.4700980  86.7557430  24.7159380
  61.5031300  73.2303220  21.3858070  62.3521830  73.6673370  21.3198260
  61.1362570  73.5423480  22.2130130  72.1319070  72.5582800  32.8528280
  71.6292670  73.2988200  33.1922090  72.9475730  72.9466800  32.5365070
  70.4241080  77.8015980  26.2989640  69.4831220  77.8166210  26.4737330
  70.7385150  77.0151940  26.7449940  60.4022720  79.4835580  19.8593600
  61.1685990  79.3716940  20.4219030  60.4797410  78.7873550  19.2070370
  59.0969480  76.9160650  20.5426490  59.1773070  75.9688160  20.6543890
  59.9889230  77.2467530  20.6487150  72.4266660  84.9724830  27.9743900
  72.5514080  85.7956000  28.4467710  73.2932220  84.7615560  27.6268050
  59.8984190  87.0656040  27.6461030  60.6346670  86.5171500  27.9169600
  60.2825110  87.9312050  27.5067020  56.7829670  83.1329610  23.5202540
  55.8569450  83.3750750  23.5107950  57.2486100  83.9603870  23.3987290
  58.9042470  86.2502110  36.8346610  59.7055200  86.5714160  37.2482010
  58.3894290  85.8897690  37.5566520  63.0086500  86.2386350  19.4686600
  63.8015110  86.5275180  19.0168390  62.4890850  85.8078520  18.7899080
  67.7407100  82.3581980  36.7822020  67.1345260  82.3813580  36.0417770
  67.4361210  81.6265020  37.3189270  69.1707470  86.0862270  35.3931430
  70.1229220  86.0020290  35.3431670  69.0235690  86.7503980  36.0665220
  72.0616670  85.4656480  20.8923340  71.7758180  85.0521620  20.0777520
  71.8636220  86.3944190  20.7723860  63.5263900  81.4589760  19.3328950
  63.4214540  80.8442110  20.0590330  63.3588120  80.9355650  18.5491960
  63.6778220  80.1446560  35.3118180  62.9123890  80.7131560  35.2272850
  63.8594180  79.8522770  34.4186410  66.7666630  80.5209790  19.9370940
  66.2176730  80.9679090  20.5813680  67.3885890  80.0159040  20.4608610
  70.8201570  81.8751890  35.8693200  71.5611040  82.2127650  35.3660660
  70.0574250  82.0443950  35.3162970  62.4341750  79.4800710  21.8336240
  62.8558170  79.3140580  22.6767630  62.5592590  78.6700940  21.3391380
  64.9469390  78.5038320  19.0813340  65.4675050  77.7887340  18.7154490
  65.5937790  79.1424190  19.3813850  69.4947230  79.9266720  34.4048410
  69.9088250  80.0811800  35.2538830  68.5598230  80.0521940  34.5674190
  69.9669400  77.2662880  36.4087560  70.5490170  76.5115200  36.3208040
  70.1431170  77.7970320  35.6319040  64.2562460  79.8787200  32.3744340
  64.6750570  80.7219930  32.2020580  63.3371090  80.0159240  32.1451120
  66.5926360  77.6103380  33.7582180  66.7122570  77.0144520  34.4977020
  67.4520360  77.6473070  33.3383480  68.9314260  78.1640570  32.3344690
  68.4049480  78.6883190  31.7309830  69.2745600  78.7967960  32.9654420
  61.3300650  75.5533940  18.7794400  61.1289710  74.6901300  19.1407740
  61.1592700  75.4667300  17.8416000  62.1069880  86.1840210  33.4902070
  61.5690970  86.9086270  33.1710770  62.3603840  85.7070550  32.6999410
  68.1788560  73.7690540  35.2491020  67.4904080  73.1072080  35.1841010
  68.8994580  73.3228810  35.6939480  68.8088960  70.3642170  21.3081280
  69.0891250  69.5210070  21.6640700  68.0354690  70.5965280  21.8220030
  60.1283450  72.6534560  18.7672280  60.4309350  72.6601990  17.8591430
  60.8678040  72.3032420  19.2639940  64.9632090  87.4191420  33.7488720
  64.8890790  88.3226560  34.0561090  64.0610930  87.1003320  33.7210790
  63.3468380  71.5969180  19.7528480  62.9990380  70.9193170  19.1730930
  63.5481150  71.1358690  20.5671870  65.5117420  86.5849930  21.3715080
  66.4068210  86.9234900  21.3933840  65.5435050  85.8629340  20.7439360
  59.1513580  81.9576980  19.6002080  59.5888450  82.5006650  20.2559660
  59.6361310  81.1323930  19.6098420  56.3659380  84.7466010  27.0522340
  56.6962390  83.8787070  26.8200980  56.7950380  84.9524530  27.8827300
  60.9621300  83.0775020  24.7124310  60.6616840  82.9539990  25.6128220
  60.8558790  82.2183610  24.3040040  56.8549590  85.6136600  29.7903970
  56.4180580  85.7937400  30.6228120  57.4227270  86.3711220  29.6485690
  72.4911770  85.1153600  34.0781280  71.8913760  85.1746160  33.3345200
  72.6205670  84.1758580  34.2078130  73.7313220  82.8571420  19.4150990
  72.9006180  82.9248070  19.8858220  73.9085050  83.7475540  19.1117850
  73.1869680  79.6018900  21.9185190  73.9488590  80.1715550  22.0244880
  73.2024050  79.0346100  22.6893500  74.1929650  80.4569000  26.7627120
  74.5638480  79.6736320  26.3563090  74.8331580  81.1458100  26.5844420
  71.1763410  81.8405580  32.1757440  70.3623250  82.2702740  32.4383230
  71.5837610  82.4523990  31.5626490  73.2388850  79.8953270  19.0757710
  73.5137690  80.8032150  18.9476930  73.0499590  79.8315800  20.0119700
  69.6364460  72.9198120  20.3711340  70.0549340  72.7329100  19.5308000
  69.3300520  72.0677170  20.6814270  73.1354190  77.8322260  24.0687140
  72.7597790  77.0650190  23.6368430  72.4057310  78.2144960  24.5562070
  72.5253810  76.9793780  33.7026660  72.2939900  76.7506530  32.8024610
  72.7858360  77.8993330  33.6571550  70.9641880  72.2050210  36.4806360
  71.8412060  72.2133610  36.8640360  70.9762720  71.4681050  35.8698710
  55.9012100  75.3355760  22.0918180  54.9976180  75.5985960  21.9169840
  56.3852720  75.6066930  21.3118140  72.4105150  76.0579750  27.3694380
  72.9342630  75.5642400  26.7384550  72.9964570  76.1930110  28.1141950
  72.5894870  76.1419620  30.8913930  71.6397580  76.1083160  31.0058920
  72.7707880  77.0519730  30.6563700  58.4439310  74.3921300  20.0012560
  59.1531010  73.9704520  19.5159840  57.7279250  74.4596530  19.3695910
  58.0913470  70.4460630  19.0415210  58.8141600  70.9869570  19.3596430
  58.3637990  70.1724050  18.1656750  71.9005120  75.3153100  23.3086790
  72.3964240  75.0823970  24.0935670  71.7021190  74.4764940  22.8924430
  73.3292280  73.9514050  25.8424470  73.2191560  73.7970090  26.7806740
  74.0899870  73.4234990  25.5999880  71.6758000  69.8908180  32.3007470
  72.3130220  70.5042320  32.6666660  71.8232890  69.9268840  31.3556700
  74.2182550  71.7821970  19.0830610  75.1431860  71.6503150  18.8748900
  74.1958340  71.8614790  20.0367060  74.2921040  72.5532630  21.7087320
  73.4972540  72.4877750  22.2380230  74.4964320  73.4883270  21.6972670
  71.2339460  86.5924180  25.7025710  71.8298530  86.2708750  25.0260130
  71.4917610  86.1196000  26.4938980  59.1402030  83.0242090  35.8516340
  59.0971660  82.6535000  36.7330800  59.2713040  83.9619660  35.9918160
  62.8408060  84.5801680  31.4526060  62.5999420  84.8476240  30.5656580
  63.7810700  84.7507410  31.5076920  74.1012220  86.5996060  32.2536700
  73.6070500  86.9964930  31.5363830  73.4925510  85.9745270  32.6473980
  58.9790060  85.9704340  32.9714120  58.3850380  85.8389040  33.7104160
  58.9713900  85.1342480  32.5056220  69.3317060  71.4707440  32.5585870
  69.0030420  70.6559200  32.1787600  70.2799360  71.4277250  32.4351560
  71.7851670  87.2419480  29.5323440  71.3254640  87.9935290  29.1581460
  71.1564130  86.5225950  29.4738240  58.6102290  83.3362720  31.9222160
  57.8836350  82.7168010  31.8548110  58.6711440  83.7303330  31.0520240
  62.2147390  85.5507720  28.7071570  62.7312410  84.9395080  28.1819830
  62.8644770  86.0536500  29.1982580  64.9542890  86.4416210  29.5340550
  65.2420700  86.1870510  28.6573560  65.4666110  85.8893570  30.1246120
  70.7240970  70.8829510  28.1586150  71.1649060  70.8274610  27.3107750
  70.4548560  71.7987520  28.2296330  72.5879540  70.5144750  26.1694970
  72.5267940  69.5705970  26.0225990  73.3671570  70.6224840  26.7148430
  56.8932290  86.6537110  25.1318920  56.7254330  86.0207790  25.8300810
  56.0266800  86.8596510  24.7813110  57.5160310  70.4853890  22.6350780
  58.2739670  70.5982770  22.0614810  57.0537480  71.3223090  22.5894210
  71.7033700  69.6657170  22.1376440  71.8984330  70.5640620  22.4043870
  70.9163570  69.4344250  22.6309390  58.4994990  85.3470340  22.5769060
  57.9742610  85.7278370  21.8731020  58.4239570  85.9721110  23.2978770
  59.8885460  71.0117940  21.1752750  60.4178220  70.2247740  21.0460700
  60.5213780  71.6909130  21.4088280  65.0215250  87.3632310  36.9008750
  65.9482560  87.1276580  36.9444710  65.0065680  88.1904310  36.4194780
  73.2560310  86.9057880  23.8983000  73.4312500  86.2195620  23.2543920
  72.5581880  87.4304930  23.5059670  61.0987960  87.2952720  21.4518310
  61.8306780  87.0112000  20.9042200  61.3581630  87.0566000  22.3417690
  60.2602750  83.4117450  21.4564640  59.6311630  83.8802550  22.0050470
  60.3750580  82.5666670  21.8910830  71.5892810  86.5902170  36.7249790
  72.3818130  86.0951400  36.5175750  71.8825960  87.2692310  37.3325400
  67.7152470  77.4623110   7.6065840  67.6346520  76.5477720   7.3357550
  67.3016890  77.9590180   6.9005550  65.8470510  79.2402130   9.4875110
  65.0712610  78.7602570   9.7773680  66.4983440  78.5607780   9.3131270
  59.8636340  79.5521940  10.3650870  59.0321220  79.2970650  10.7647380
  60.4717320  79.6232710  11.1008790  69.8677940  83.6462320   8.2674240
  69.4059470  82.8749560   8.5961410  70.6803490  83.6728390   8.7726690
  59.8437600  83.5862030  10.5608890  60.1465640  82.6959770  10.3819110
  60.5881190  84.1432250  10.3331140  58.2728290  74.5123830   4.1493260
  57.3844990  74.8539800   4.0473140  58.5569480  74.3124150   3.2574090
  56.2361300  77.1129480  10.0332960  56.8077410  76.3451680  10.0336600
  56.2362840  77.4118240   9.1239570  66.0941250  85.9320330   7.8878230
  65.4752690  86.3877830   7.3172670  66.9493030  86.0871790   7.4867930
  65.2879500  81.9159320   9.4945270  65.2187780  80.9749260   9.3334400
  66.0499360  82.0060730  10.0667840  57.4786170  72.5213840  11.8201890
  57.2989010  71.6239590  12.1004650  57.0766250  73.0685710  12.4948840
  66.3184670  74.7229700   9.7214200  66.6949490  73.8501580   9.6087870
  66.2204180  75.0588400   8.8304640  60.4489680  73.0955330   5.1831640
  60.5556430  73.9959060   5.4900400  59.5382040  73.0473300   4.8926290
  70.1008790  72.2180140   6.6542540  70.9218410  71.7276710   6.6968020
  70.1342870  72.8077800   7.4074380  58.0972840  75.0174340  10.4284230
  58.7782950  75.2812710  11.0471630  57.7820890  74.1775210  10.7622240
  62.2897410  76.0641700   9.5156820  62.7975630  76.5622670  10.1561840
  62.8210650  75.2876900   9.3396180  74.3908340  74.2346890  13.2186170
  73.6860510  74.6228600  12.7001280  74.6566260  74.9297180  13.8207100
  60.5733510  70.7040260  13.7820240  60.5751950  71.2212650  12.9766140
  59.7437820  70.2270440  13.7590170  66.9604600  80.8159570   5.2810140
  66.3421870  81.2809020   4.7172860  67.4727850  81.5087050   5.6979650
  61.8236360  80.3435440  11.9593740  61.4905740  80.9704360  12.6014810
  62.0003040  80.8697320  11.1795410  70.3370270  74.1580520   9.4270080
  69.6325840  74.4465410  10.0073190  70.6982430  74.9680630   9.0669640
  60.2548840  72.4150220  11.7890690  60.5965650  73.2592270  11.4944560
  59.3164650  72.5633960  11.9056030  61.0355460  82.3116240  13.7742920
  61.6529460  82.9867320  13.4927370  60.1748580  82.7204220  13.6830420
  56.3287800  81.5016100   2.6549770  55.9515780  81.9903200   1.9234670
  56.5860870  82.1741380   3.2856300  71.9533050  83.7755650  11.6897560
  71.2696570  84.4454760  11.6814230  72.4927340  83.9736300  10.9242420
  73.4057190  73.6035310   9.8179290  72.4582100  73.6374290   9.9494720
  73.7307180  74.4174260  10.2028650  63.9376730  69.9032490   8.1135280
  64.2451710  69.3479380   7.3970780  63.0077430  70.0376950   7.9308270
  69.4891790  85.6199780  10.4042740  69.5018950  85.2162070   9.5365000
  68.9367010  86.3947070  10.3004170  70.7837210  82.3416000   5.4932910
  70.6733540  81.3990330   5.6182330  70.7805460  82.7031640   6.3795670
  68.8877230  80.5229620  11.7325350  69.3046020  80.3089730  10.8978810
  69.6117050  80.7802410  12.3033970  66.3257490  77.9681320   4.8495400
  65.3986770  77.9018700   5.0783870  66.4782310  78.9061450   4.7350640
  72.8339330  78.9216840  11.8241590  72.0057960  78.9909930  11.3491720
  73.4289810  79.5071150  11.3557420  70.3554780  79.5301620   5.3530650
  69.7367200  79.1921170   4.7056950  70.3379230  78.8861380   6.0609840
  69.7981340  75.7086160  12.7696460  69.3852520  76.5339870  13.0236450
  69.0657290  75.1231200  12.5772820  61.9314130  78.4946060   7.6315130
  61.5271130  77.7823310   7.1361030  62.0177250  78.1499300   8.5203170
  62.3995830  82.1813620   9.7954340  62.1024120  81.5759090   9.1162120
  63.3495650  82.2190930   9.6843700  60.6442750  75.2689270  11.4114170
  61.1957340  75.3784610  10.6367420  61.1586260  75.6426870  12.1269400
  70.4881440  85.7545490  13.4577440  70.0112000  86.5617680  13.2650050
  69.8043230  85.1023820  13.6103650  61.4914260  81.9195310  16.4462140
  60.5942790  82.1435280  16.6935540  61.5167130  82.0430250  15.4973540
  68.5319480  78.7688430   2.3603400  68.9712760  77.9310860   2.2141220
  69.2447900  79.4017830   2.4467540  60.3185480  78.7908630  15.0219510
  60.1793250  79.6631430  15.3906910  59.4366840  78.4481440  14.8767450
  66.6414860  83.7084500   6.3284640  67.0810770  84.4508830   5.9140030
  66.5801750  83.9511070   7.2523600  62.1165830  84.7330330  17.2304660
  62.0881260  85.1373280  16.3633090  61.9530800  83.8040690  17.0676260
  58.6318760  77.3891040   5.1321780  58.5116360  78.1153130   4.5203050
  58.3219650  76.6193950   4.6549690  74.0680650  85.5157430  18.5268830
  74.5440370  85.9940320  19.2057910  74.6887810  85.4474920  17.8014330
  56.2704130  80.5606180  10.9390420  56.3484550  80.6954950   9.9946140
  56.8845810  79.8522070  11.1318540  57.5151760  82.2606370   7.3496600
  57.1079840  82.4020960   6.4950200  58.4064770  81.9766530   7.1467810
  73.4713900  82.7070280  15.6868840  73.5976960  82.4682160  14.7686020
  73.5135280  81.8754820  16.1590920  67.3330640  86.4098280  14.2563650
  67.8475310  86.3206290  15.0586080  66.4899720  86.7557980  14.5491560
  69.3085040  86.6953620   3.6847650  69.1486180  86.4056560   4.5829480
  69.1431750  85.9193750   3.1492880  61.7873420  86.4752150   5.4619270
  61.6115900  85.5587690   5.2487070  60.9329160  86.8339440   5.7017070
  68.5761100  85.8303890   6.3194140  69.0318050  85.0493270   6.6332760
  68.9153620  86.5410710   6.8635320  73.3237910  74.7602740  16.6518580
  72.7082180  75.2682410  16.1234040  73.0034330  73.8601070  16.5944520
  56.3263650  81.6020350  13.4784880  56.4894690  81.1325710  12.6604250
  56.7916100  81.0943910  14.1433720  61.0982420  70.7326110   8.5145450
  60.6550570  71.5135650   8.1829970  61.6567410  71.0556000   9.2216390
  65.3852230  73.5994630  14.1180770  64.9231600  73.8077650  14.9300710
  64.9830340  72.7853980  13.8151440  70.3856740  74.8203580  15.2477430
  69.5350330  74.5209330  15.5686500  70.2258530  75.0645590  14.3361250
  67.4806450  76.3205330  17.3476220  67.8059860  75.4869080  17.0078450
  68.2686780  76.8433850  17.4954550  64.2141240  70.3536810   3.3951280
  63.5895420  70.3496680   4.1204590  64.1271360  69.4867770   2.9987250
  63.1358320  71.2773440  10.3735050  63.4330650  72.1836270  10.2927070
  63.6843880  70.7892220   9.7594620  60.8896640  75.8559680   6.2426700
  60.6637560  75.6396850   7.1473320  60.1089170  76.2888140   5.8972670
  68.1194400  75.8623050   4.8417350  67.5203290  76.5858850   4.6580970
  68.6674010  75.7999830   4.0593800  63.3295850  76.7545260  16.9086970
  63.2339450  75.8139990  16.7587370  64.1727830  76.9760330  16.5135040
  66.7259270  74.4986590   6.8720630  67.1188840  74.8158790   6.0589320
  67.0876120  73.6198470   6.9865150  58.4606390  73.1658930  15.0620750
  58.0669780  74.0134140  15.2693530  57.7724790  72.5285300  15.2529390
  65.0351440  73.2493900  18.1317490  64.3449760  73.0566100  18.7663580
  65.7783740  73.5328540  18.6641790  55.7623440  71.0887390   9.0950830
  55.4736490  71.6590250   9.8075810  56.5069200  70.6091840   9.4582060
  67.3114410  77.0892340  10.9671410  66.5795530  77.5979150  11.3161510
  66.9138750  76.2722320  10.6660190  63.7491800  73.7646540   9.3723900
  63.7527860  73.3236490   8.5228440  64.6442920  74.0863870   9.4795720
  59.5994180  73.6473030   8.3318110  59.2594230  74.1248260   9.0885160
  58.8371500  73.1938150   7.9719210  63.8111950  74.7658620   2.3630660
  63.9324770  74.7245100   3.3116480  63.4260460  75.6282770   2.2077390
  67.7740320  72.5426020  10.3794350  67.7913060  72.9934670  11.2236200
  67.5255900  71.6431660  10.5927790  71.2011070  69.9558200  16.2180730
  71.5256840  69.2247860  16.7438710  71.2367580  69.6371840  15.3161720
  57.9002630  80.9771780  15.6380690  57.5157420  80.3365450  16.2363650
  58.2114820  81.6807900  16.2075420  64.0499770  77.8248320  11.1189310
  64.4169900  77.3506890  11.8650650  63.8604830  78.6989890  11.4597650
  56.9140260  72.5692010   7.2482780  56.6287180  72.2047680   8.0861400
  56.8519120  71.8372470   6.6345920  61.8399140  76.8656960  13.4373520
  61.5356210  77.7448940  13.6623880  62.7945600  76.9256750  13.4730960
  60.3680930  81.0717950   4.0340370  59.5943190  80.5315570   3.8739090
  61.0975560  80.5524560   3.6958130  71.1268910  80.0683310   9.8266760
  71.8468030  80.5638600   9.4362870  70.9250730  79.3901200   9.1820630
  66.5878850  71.4621270   3.9696150  65.7743460  70.9634440   3.8941460
  66.3940800  72.3019520   3.5532500  66.5087710  80.1392370  15.7135760
  66.4425020  79.2188040  15.4593350  65.8792850  80.2367810  16.4280400
  69.3027240  75.8340920   2.2658310  70.1906860  76.1458150   2.0909650
  69.2732330  74.9613170   1.8738890  60.4118330  80.7398330   7.6719180
  60.9297000  79.9366590   7.6176070  59.9602350  80.6777470   8.5136010
  65.2987830  82.0064610   2.9446480  65.6403530  82.7506840   2.4489800
  64.4700540  82.3195730   3.3071310  57.8962870  77.7059700  14.5844880
  57.5377810  78.3713550  15.1718220  57.6017430  76.8743250  14.9557500
  61.0975990  78.1643940  17.4684430  60.7976130  78.3101120  16.5712250
  61.8687230  77.6049230  17.3757820  66.4404440  82.9612940  15.4639560
  66.4548980  82.0293900  15.2458470  65.7329540  83.0472700  16.1029330
  72.6515650  79.6020280  14.8108140  71.9263840  80.1949060  14.6137530
  73.1791110  79.5943820  14.0121510  72.6028760  83.9995020   4.4620300
  71.9604920  83.3450640   4.7364020  72.2159420  84.4050110   3.6860970
  68.1815240  81.3280450   8.3091990  68.5339060  80.7308580   7.6493360
  67.2977570  81.0024680   8.4800240  64.2678520  82.0878140   5.7162400
  64.9549650  82.6347350   6.0969990  63.4810940  82.6318870   5.7512010
  63.5705730  79.0924170   5.3287760  64.0268510  79.9029420   5.5547950
  63.2193940  78.7747310   6.1606250  65.8738340  84.6030510  12.5580060
  66.5180560  84.8089890  13.2353480  66.2367780  83.8418910  12.1050910
  59.4717510  69.4361820   5.8010280  59.3432140  69.4279720   6.7495200
  58.6479530  69.7744910   5.4501290  67.1470420  82.6062860  11.2757510
  67.7892650  81.9056020  11.3889680  67.6719770  83.3861300  11.0954400
  68.9208040  83.4057760  14.4793570  69.2564280  83.9924450  15.1571490
  68.0008380  83.2750470  14.7091360  56.4711440  71.1952940  15.2616980
  55.7569960  71.3949860  15.8669590  56.8906480  70.4192510  15.6331780
  70.5742390  80.8083420   2.6610810  70.2864090  81.2696110   3.4488690
  71.3694560  80.3481190   2.9295030  56.7584030  85.1833200  16.2483510
  56.8675150  84.2427940  16.1078900  56.1064590  85.4487950  15.5997240
  64.7496620  83.4549090  17.6481630  64.4293490  82.7358330  18.1927320
  64.0754980  84.1304160  17.7217690  62.7910790  84.3009540   2.5914780
  62.7820890  85.0339230   1.9759290  61.8709150  84.0541120   2.6841740
  58.3917430  79.5224430   3.3361540  57.7845380  80.2623330   3.3456840
  58.8666780  79.6123790   2.5099740  67.9650220  73.6875250  13.0118430
  68.3331040  72.8670460  13.3398000  67.1048420  73.7477140  13.4274080
  71.3312250  72.6432190   3.8205990  70.7025410  72.7477860   3.1064220
  70.8364170  72.8628970   4.6099870  63.2996280  74.9218140   5.2363870
  62.5912430  75.3904480   5.6777480  63.5840760  74.2640150   5.8709060
  64.9252210  76.3414840  13.2356400  65.4237460  76.8160660  13.9008250
  65.0675160  75.4178360  13.4426430  67.3311710  71.6468800   6.6759660
  67.2079490  71.6654930   5.7269170  68.2796270  71.6947740   6.7958060
  64.4188500  86.8824100   5.9487640  64.6730000  86.8445490   5.0267010
  63.4700980  86.7557430   5.9415890  61.5031300  73.2303220   2.6114580
  62.3521830  73.6673370   2.5454770  61.1362570  73.5423480   3.4386640
  72.1319070  72.5582800  14.0784790  71.6292670  73.2988200  14.4178600
  72.9475730  72.9466800  13.7621580  70.4241080  77.8015980   7.5246150
  69.4831220  77.8166210   7.6993840  70.7385150  77.0151940   7.9706450
  59.0969480  76.9160650   1.7683000  59.1773070  75.9688160   1.8800400
  59.9889230  77.2467530   1.8743660  72.4266660  84.9724830   9.2000410
  72.5514080  85.7956000   9.6724220  73.2932220  84.7615560   8.8524560
  59.8984190  87.0656040   8.8717540  60.6346670  86.5171500   9.1426110
  60.2825110  87.9312050   8.7323530  56.7829670  83.1329610   4.7459050
  55.8569450  83.3750750   4.7364460  57.2486100  83.9603870   4.6243800
  58.9042470  86.2502110  18.0603120  59.7055200  86.5714160  18.4738520
  58.3894290  85.8897690  18.7823030  67.7407100  82.3581980  18.0078530
  67.1345260  82.3813580  17.2674280  67.4361210  81.6265020  18.5445780
  69.1707470  86.0862270  16.6187940  70.1229220  86.0020290  16.5688180
  69.0235690  86.7503980  17.2921730  56.6240280  78.7375570  17.0039170
  57.1279300  78.1582850  17.5755400  55.8847700  79.0215800  17.5415540
  63.6778220  80.1446560  16.5374690  62.9123890  80.7131560  16.4529360
  63.8594180  79.8522770  15.6442920  70.8201570  81.8751890  17.0949710
  71.5611040  82.2127650  16.5917170  70.0574250  82.0443950  16.5419480
  58.6563360  76.8805160  17.8989240  58.6968700  76.5819030  18.8074470
  59.5108860  77.2812770  17.7396760  62.4341750  79.4800710   3.0592750
  62.8558170  79.3140580   3.9024140  62.5592590  78.6700940   2.5647890
  60.5969170  75.4597260  15.8663730  60.0665630  74.9688210  15.2387070
  61.2657240  75.8881460  15.3321660  69.4947230  79.9266720  15.6304920
  69.9088250  80.0811800  16.4795340  68.5598230  80.0521940  15.7930700
  69.9669400  77.2662880  17.6344070  70.5490170  76.5115200  17.5464550
  70.1431170  77.7970320  16.8575550  61.0841470  72.4259630  15.9461020
  60.9898340  71.8080380  15.2211890  60.5038860  73.1525920  15.7190930
  63.8502910  70.9832870  12.9788410  63.4020210  71.0057130  12.1333960
  63.2168110  70.5851890  13.5758710  64.2562460  79.8787200  13.6000850
  64.6750570  80.7219930  13.4277090  63.3371090  80.0159240  13.3707630
  66.5926360  77.6103380  14.9838690  66.7122570  77.0144520  15.7233530
  67.4520360  77.6473070  14.5639990  68.9314260  78.1640570  13.5601200
  68.4049480  78.6883190  12.9566340  69.2745600  78.7967960  14.1910930
  62.1069880  86.1840210  14.7158580  61.5690970  86.9086270  14.3967280
  62.3603840  85.7070550  13.9255920  63.3595130  74.1524730  16.2414510
  63.9494820  73.8440580  16.9292330  62.5415370  73.6804480  16.3974410
  68.1788560  73.7690540  16.4747530  67.4904080  73.1072080  16.4097520
  68.8994580  73.3228810  16.9195990  68.8088960  70.3642170   2.5337790
  69.0891250  69.5210070   2.8897210  68.0354690  70.5965280   3.0476540
  64.9632090  87.4191420  14.9745230  64.8890790  88.3226560  15.2817600
  64.0610930  87.1003320  14.9467300  65.5117420  86.5849930   2.5971590
  66.4068210  86.9234900   2.6190350  65.5435050  85.8629340   1.9695870
  56.3659380  84.7466010   8.2778850  56.6962390  83.8787070   8.0457490
  56.7950380  84.9524530   9.1083810  60.9621300  83.0775020   5.9380820
  60.6616840  82.9539990   6.8384730  60.8558790  82.2183610   5.5296550
  56.8549590  85.6136600  11.0160480  56.4180580  85.7937400  11.8484630
  57.4227270  86.3711220  10.8742200  72.4911770  85.1153600  15.3037790
  71.8913760  85.1746160  14.5601710  72.6205670  84.1758580  15.4334640
  73.1869680  79.6018900   3.1441700  73.9488590  80.1715550   3.2501390
  73.2024050  79.0346100   3.9150010  56.6874020  78.1256830   7.3749360
  56.0322860  77.8568470   6.7309060  57.5251970  78.0161310   6.9251340
  74.1929650  80.4569000   7.9883630  74.5638480  79.6736320   7.5819600
  74.8331580  81.1458100   7.8100930  71.1763410  81.8405580  13.4013950
  70.3623250  82.2702740  13.6639740  71.5837610  82.4523990  12.7883000
  73.1354190  77.8322260   5.2943650  72.7597790  77.0650190   4.8624940
  72.4057310  78.2144960   5.7818580  57.7249950  78.5109400  11.9152700
  58.0922990  78.4236800  12.7948720  57.1560770  77.7475950  11.8159560
  72.5253810  76.9793780  14.9283170  72.2939900  76.7506530  14.0281120
  72.7858360  77.8993330  14.8828060  57.2765950  75.4218490  15.8211120
  56.3822000  75.3885250  16.1604830  57.8163500  75.6205280  16.5862370
  70.9641880  72.2050210  17.7062870  71.8412060  72.2133610  18.0896870
  70.9762720  71.4681050  17.0955220  55.9012100  75.3355760   3.3174690
  54.9976180  75.5985960   3.1426350  56.3852720  75.6066930   2.5374650
  72.4105150  76.0579750   8.5950890  72.9342630  75.5642400   7.9641060
  72.9964570  76.1930110   9.3398460  72.5894870  76.1419620  12.1170440
  71.6397580  76.1083160  12.2315430  72.7707880  77.0519730  11.8820210
  71.9005120  75.3153100   4.5343300  72.3964240  75.0823970   5.3192180
  71.7021190  74.4764940   4.1180940  57.7805660  69.6966820  10.1694340
  58.4281850  69.1464200   9.7289500  58.2007500  69.9509970  10.9910150
  73.3292280  73.9514050   7.0680980  73.2191560  73.7970090   8.0063250
  74.0899870  73.4234990   6.8256390  71.6758000  69.8908180  13.5263980
  72.3130220  70.5042320  13.8923170  71.8232890  69.9268840  12.5813210
  74.2921040  72.5532630   2.9343830  73.4972540  72.4877750   3.4636740
  74.4964320  73.4883270   2.9229180  71.2339460  86.5924180   6.9282220
  71.8298530  86.2708750   6.2516640  71.4917610  86.1196000   7.7195490
  57.5337660  69.8522490  12.9119660  57.1852480  70.3086310  13.6777840
  57.2025360  68.9579620  12.9942090  59.1402030  83.0242090  17.0772850
  59.0971660  82.6535000  17.9587310  59.2713040  83.9619660  17.2174670
  62.8408060  84.5801680  12.6782570  62.5999420  84.8476240  11.7913090
  63.7810700  84.7507410  12.7333430  65.0462480  71.0434370  16.4339080
  64.9851370  71.6356200  17.1834490  65.9862860  70.9360330  16.2889340
  67.6837040  70.7004430  16.0731370  68.2977450  71.0183720  15.4112450
  68.2286600  70.2153020  16.6927230  74.1012220  86.5996060  13.4793210
  73.6070500  86.9964930  12.7620340  73.4925510  85.9745270  13.8730490
  58.2058300  69.3798690  16.1870430  58.7541290  69.1986740  15.4236540
  58.2713610  68.5892800  16.7226740  58.9790060  85.9704340  14.1970630
  58.3850380  85.8389040  14.9360670  58.9713900  85.1342480  13.7312730
  68.4245080  69.2636570  12.4000660  67.5504920  69.5971680  12.1973590
  68.3155830  68.7909750  13.2252530  69.3317060  71.4707440  13.7842380
  69.0030420  70.6559200  13.4044110  70.2799360  71.4277250  13.6608070
  71.7851670  87.2419480  10.7579950  71.3254640  87.9935290  10.3837970
  71.1564130  86.5225950  10.6994750  58.6102290  83.3362720  13.1478670
  57.8836350  82.7168010  13.0804620  58.6711440  83.7303330  12.2776750
  62.2147390  85.5507720   9.9328080  62.7312410  84.9395080   9.4076340
  62.8644770  86.0536500  10.4239090  64.9542890  86.4416210  10.7597060
  65.2420700  86.1870510   9.8830070  65.4666110  85.8893570  11.3502630
  66.1719900  70.1806410  11.3393570  65.3891690  70.6551910  11.6190330
  65.8782830  69.2761240  11.2306750  70.7240970  70.8829510   9.3842660
  71.1649060  70.8274610   8.5364260  70.4548560  71.7987520   9.4552840
  72.5879540  70.5144750   7.3951480  72.5267940  69.5705970   7.2482500
  73.3671570  70.6224840   7.9404940  56.8932290  86.6537110   6.3575430
  56.7254330  86.0207790   7.0557320  56.0266800  86.8596510   6.0069620
  57.5160310  70.4853890   3.8607290  58.2739670  70.5982770   3.2871320
  57.0537480  71.3223090   3.8150720  64.0574120  72.5993160   6.8509600
  63.2448630  72.2250050   6.5105480  64.5615760  71.8438240   7.1530790
  68.5599100  69.2635610   8.0892670  69.1628470  69.8355820   8.5641190
  67.8192090  69.8275050   7.8666570  71.7033700  69.6657170   3.3632950
  71.8984330  70.5640620   3.6300380  70.9163570  69.4344250   3.8565900
  58.4994990  85.3470340   3.8025570  57.9742610  85.7278370   3.0987530
  58.4239570  85.9721110   4.5235280  59.8885460  71.0117940   2.4009260
  60.4178220  70.2247740   2.2717210  60.5213780  71.6909130   2.6344790
  62.0823300  70.7493080   5.4554650  61.4526040  70.0480390   5.6224780
  61.5428440  71.5097210   5.2387810  65.0215250  87.3632310  18.1265260
  65.9482560  87.1276580  18.1701220  65.0065680  88.1904310  17.6451290
  73.2560310  86.9057880   5.1239510  73.4312500  86.2195620   4.4800430
  72.5581880  87.4304930   4.7316180  62.2078860  70.0277060  17.8907140
  61.9263130  70.5310660  17.1267960  62.5898560  69.2298810  17.5249270
  61.0987960  87.2952720   2.6774820  61.8306780  87.0112000   2.1298710
  61.3581630  87.0566000   3.5674200  60.2602750  83.4117450   2.6821150
  59.6311630  83.8802550   3.2306980  60.3750580  82.5666670   3.1167340
  68.8094320  69.4430640  18.4687610  68.6959770  69.7625250  19.3639130
  69.6264060  69.8443150  18.1724890  71.5892810  86.5902170  17.9506300
  72.3818130  86.0951400  17.7432260  71.8825960  87.2692310  18.5581910
  67.7152470  58.6879620  63.9296310  67.6346520  57.7734230  63.6588020
  67.3016890  59.1846690  63.2236020  65.8470510  60.4658640  65.8105580
  65.0712610  59.9859080  66.1004150  66.4983440  59.7864290  65.6361740
  59.8636340  60.7778450  66.6881340  59.0321220  60.5227160  67.0877850
  60.4717320  60.8489220  67.4239260  69.8677940  64.8718830  64.5904710
  69.4059470  64.1006070  64.9191880  70.6803490  64.8984900  65.0957160
  59.8437600  64.8118540  66.8839360  60.1465640  63.9216280  66.7049580
  60.5881190  65.3688760  66.6561610  58.2728290  55.7380340  60.4723730
  57.3844990  56.0796310  60.3703610  58.5569480  55.5380660  59.5804560
  56.2361300  58.3385990  66.3563430  56.8077410  57.5708190  66.3567070
  56.2362840  58.6374750  65.4470040  66.0941250  67.1576840  64.2108700
  65.4752690  67.6134340  63.6403140  66.9493030  67.3128300  63.8098400
  65.2879500  63.1415830  65.8175740  65.2187780  62.2005770  65.6564870
  66.0499360  63.2317240  66.3898310  57.4786170  53.7470350  68.1432360
  57.2989010  52.8496100  68.4235120  57.0766250  54.2942220  68.8179310
  66.3184670  55.9486210  66.0444670  66.6949490  55.0758090  65.9318340
  66.2204180  56.2844910  65.1535110  60.4489680  54.3211840  61.5062110
  60.5556430  55.2215570  61.8130870  59.5382040  54.2729810  61.2156760
  70.1008790  53.4436650  62.9773010  70.9218410  52.9533220  63.0198490
  70.1342870  54.0334310  63.7304850  58.0972840  56.2430850  66.7514700
  58.7782950  56.5069220  67.3702100  57.7820890  55.4031720  67.0852710
  62.2897410  57.2898210  65.8387290  62.7975630  57.7879180  66.4792310
  62.8210650  56.5133410  65.6626650  74.3908340  55.4603400  69.5416640
  73.6860510  55.8485110  69.0231750  74.6566260  56.1553690  70.1437570
  60.5733510  51.9296770  70.1050710  60.5751950  52.4469160  69.2996610
  59.7437820  51.4526950  70.0820640  66.9604600  62.0416080  61.6040610
  66.3421870  62.5065530  61.0403330  67.4727850  62.7343560  62.0210120
  61.8236360  61.5691950  68.2824210  61.4905740  62.1960870  68.9245280
  62.0003040  62.0953830  67.5025880  70.3370270  55.3837030  65.7500550
  69.6325840  55.6721920  66.3303660  70.6982430  56.1937140  65.3900110
  60.2548840  53.6406730  68.1121160  60.5965650  54.4848780  67.8175030
  59.3164650  53.7890470  68.2286500  61.0355460  63.5372750  70.0973390
  61.6529460  64.2123830  69.8157840  60.1748580  63.9460730  70.0060890
  56.3287800  62.7272610  58.9780240  55.9515780  63.2159710  58.2465140
  56.5860870  63.3997890  59.6086770  71.9533050  65.0012160  68.0128030
  71.2696570  65.6711270  68.0044700  72.4927340  65.1992810  67.2472890
  73.4057190  54.8291820  66.1409760  72.4582100  54.8630800  66.2725190
  73.7307180  55.6430770  66.5259120  63.9376730  51.1289000  64.4365750
  64.2451710  50.5735890  63.7201250  63.0077430  51.2633460  64.2538740
  69.4891790  66.8456290  66.7273210  69.5018950  66.4418580  65.8595470
  68.9367010  67.6203580  66.6234640  70.7837210  63.5672510  61.8163380
  70.6733540  62.6246840  61.9412800  70.7805460  63.9288150  62.7026140
  68.8877230  61.7486130  68.0555820  69.3046020  61.5346240  67.2209280
  69.6117050  62.0058920  68.6264440  66.3257490  59.1937830  61.1725870
  65.3986770  59.1275210  61.4014340  66.4782310  60.1317960  61.0581110
  66.3126570  55.4654830  58.1693030  65.3730240  55.6268790  58.2545490
  66.6309830  56.1840510  57.6229020  72.8339330  60.1473350  68.1472060
  72.0057960  60.2166440  67.6722190  73.4289810  60.7327660  67.6787890
  70.3554780  60.7558130  61.6761120  69.7367200  60.4177680  61.0287420
  70.3379230  60.1117890  62.3840310  69.7981340  56.9342670  69.0926930
  69.3852520  57.7596380  69.3466920  69.0657290  56.3487710  68.9003290
  61.9314130  59.7202570  63.9545600  61.5271130  59.0079820  63.4591500
  62.0177250  59.3755810  64.8433640  62.3995830  63.4070130  66.1184810
  62.1024120  62.8015600  65.4392590  63.3495650  63.4447440  66.0074170
  60.6442750  56.4945780  67.7344640  61.1957340  56.6041120  66.9597890
  61.1586260  56.8683380  68.4499870  70.4881440  66.9802000  69.7807910
  70.0112000  67.7874190  69.5880520  69.8043230  66.3280330  69.9334120
  68.5319480  59.9944940  58.6833870  68.9712760  59.1567370  58.5371690
  69.2447900  60.6274340  58.7698010  60.3185480  60.0165140  71.3449980
  60.1793250  60.8887940  71.7137380  59.4366840  59.6737950  71.1997920
  66.6414860  64.9341010  62.6515110  67.0810770  65.6765340  62.2370500
  66.5801750  65.1767580  63.5754070  72.1136620  51.2487750  56.9974910
  71.8009280  51.3414580  57.8973980  72.8749090  51.8268780  56.9472340
  58.6318760  58.6147550  61.4552250  58.5116360  59.3409640  60.8433520
  58.3219650  57.8450460  60.9780160  56.2704130  61.7862690  67.2620890
  56.3484550  61.9211460  66.3176610  56.8845810  61.0778580  67.4549010
  57.5151760  63.4862880  63.6727070  57.1079840  63.6277470  62.8180670
  58.4064770  63.2023040  63.4698280  73.4713900  63.9326790  72.0099310
  73.5976960  63.6938670  71.0916490  73.5135280  63.1011330  72.4821390
  67.3330640  67.6354790  70.5794120  67.8475310  67.5462800  71.3816550
  66.4899720  67.9814490  70.8722030  69.3085040  67.9210130  60.0078120
  69.1486180  67.6313070  60.9059950  69.1431750  67.1450260  59.4723350
  61.7873420  67.7008660  61.7849740  61.6115900  66.7844200  61.5717540
  60.9329160  68.0595950  62.0247540  69.0111170  65.4297690  58.5676120
  68.3176330  65.4274980  57.9078400  69.7534030  65.0057010  58.1370290
  68.5761100  67.0560400  62.6424610  69.0318050  66.2749780  62.9563230
  68.9153620  67.7667220  63.1865790  73.3237910  55.9859250  72.9749050
  72.7082180  56.4938920  72.4464510  73.0034330  55.0857580  72.9174990
  56.3263650  62.8276860  69.8015350  56.4894690  62.3582220  68.9834720
  56.7916100  62.3200420  70.4664190  61.0982420  51.9582620  64.8375920
  60.6550570  52.7392160  64.5060440  61.6567410  52.2812510  65.5446860
  65.3852230  54.8251140  70.4411240  64.9231600  55.0334160  71.2531180
  64.9830340  54.0110490  70.1381910  70.3856740  56.0460090  71.5707900
  69.5350330  55.7465840  71.8916970  70.2258530  56.2902100  70.6591720
  64.2141240  51.5793320  59.7181750  63.5895420  51.5753190  60.4435060
  64.1271360  50.7124280  59.3217720  63.1358320  52.5029950  66.6965520
  63.4330650  53.4092780  66.6157540  63.6843880  52.0148730  66.0825090
  60.8896640  57.0816190  62.5657170  60.6637560  56.8653360  63.4703790
  60.1089170  57.5144650  62.2203140  68.1194400  57.0879560  61.1647820
  67.5203290  57.8115360  60.9811440  68.6674010  57.0256340  60.3824270
  66.7259270  55.7243100  63.1951100  67.1188840  56.0415300  62.3819790
  67.0876120  54.8454980  63.3095620  58.4606390  54.3915440  71.3851220
  58.0669780  55.2390650  71.5924000  57.7724790  53.7541810  71.5759860
  55.7623440  52.3143900  65.4181300  55.4736490  52.8846760  66.1306280
  56.5069200  51.8348350  65.7812530  55.9493670  56.2564020  56.6284020
  55.8668340  57.1994780  56.7699010  55.5976730  56.1138930  55.7496370
  67.3114410  58.3148850  67.2901880  66.5795530  58.8235660  67.6391980
  66.9138750  57.4978830  66.9890660  63.7491800  54.9903050  65.6954370
  63.7527860  54.5493000  64.8458910  64.6442920  55.3120380  65.8026190
  59.5994180  54.8729540  64.6548580  59.2594230  55.3504770  65.4115630
  58.8371500  54.4194660  64.2949680  63.8111950  55.9915130  58.6861130
  63.9324770  55.9501610  59.6346950  63.4260460  56.8539280  58.5307860
  67.7740320  53.7682530  66.7024820  67.7913060  54.2191180  67.5466670
  67.5255900  52.8688170  66.9158260  62.8233450  58.3016270  58.0844430
  62.2550350  57.8534520  57.4580340  63.5322450  58.6609050  57.5509580
  57.9002630  62.2028290  71.9611160  57.5157420  61.5621960  72.5594120
  58.2114820  62.9064410  72.5305890  64.0499770  59.0504830  67.4419780
  64.4169900  58.5763400  68.1881120  63.8604830  59.9246400  67.7828120
  56.9140260  53.7948520  63.5713250  56.6287180  53.4304190  64.4091870
  56.8519120  53.0628980  62.9576390  61.8399140  58.0913470  69.7603990
  61.5356210  58.9705450  69.9854350  62.7945600  58.1513260  69.7961430
  60.3680930  62.2974460  60.3570840  59.5943190  61.7572080  60.1969560
  61.0975560  61.7781070  60.0188600  71.1268910  61.2939820  66.1497230
  71.8468030  61.7895110  65.7593340  70.9250730  60.6157710  65.5051100
  66.5878850  52.6877780  60.2926620  65.7743460  52.1890950  60.2171930
  66.3940800  53.5276030  59.8762970  66.5087710  61.3648880  72.0366230
  66.4425020  60.4444550  71.7823820  65.8792850  61.4624320  72.7510870
  69.3027240  57.0597430  58.5888780  70.1906860  57.3714660  58.4140120
  69.2732330  56.1869680  58.1969360  60.4118330  61.9654840  63.9949650
  60.9297000  61.1623100  63.9406540  59.9602350  61.9033980  64.8366480
  65.2987830  63.2321120  59.2676950  65.6403530  63.9763350  58.7720270
  64.4700540  63.5452240  59.6301780  57.8962870  58.9316210  70.9075350
  57.5377810  59.5970060  71.4948690  57.6017430  58.0999760  71.2787970
  66.4404440  64.1869450  71.7870030  66.4548980  63.2550410  71.5688940
  65.7329540  64.2729210  72.4259800  71.5741510  58.3709270  58.0568640
  71.4905230  58.8023490  57.2065080  72.2935700  58.8307620  58.4895460
  72.6515650  60.8276790  71.1338610  71.9263840  61.4205570  70.9368000
  73.1791110  60.8200330  70.3351980  72.6028760  65.2251530  60.7850770
  71.9604920  64.5707150  61.0594490  72.2159420  65.6306620  60.0091440
  68.1815240  62.5536960  64.6322460  68.5339060  61.9565090  63.9723830
  67.2977570  62.2281190  64.8030710  64.2678520  63.3134650  62.0392870
  64.9549650  63.8603860  62.4200460  63.4810940  63.8575380  62.0742480
  56.4070920  58.9307470  57.5309950  57.2765770  59.2132270  57.8145870
  55.9161240  59.7443340  57.4158760  63.5705730  60.3180680  61.6518230
  64.0268510  61.1285930  61.8778420  63.2193940  60.0003820  62.4836720
  65.8738340  65.8287020  68.8810530  66.5180560  66.0346400  69.5583950
  66.2367780  65.0675420  68.4281380  59.4717510  50.6618330  62.1240750
  59.3432140  50.6536230  63.0725670  58.6479530  51.0001420  61.7731760
  67.1470420  63.8319370  67.5987980  67.7892650  63.1312530  67.7120150
  67.6719770  64.6117810  67.4184870  70.9926140  64.1167990  57.3227120
  70.7663720  63.3998430  57.9151760  70.6022340  63.8680430  56.4848870
  68.9208040  64.6314270  70.8024040  69.2564280  65.2180960  71.4801960
  68.0008380  64.5006980  71.0321830  56.7742170  68.1434850  58.0971580
  57.1339810  68.7424190  57.4428850  56.6334510  68.6894740  58.8706610
  56.4711440  52.4209450  71.5847450  55.7569960  52.6206370  72.1900060
  56.8906480  51.6449020  71.9562250  70.5742390  62.0339930  58.9841280
  70.2864090  62.4952620  59.7719160  71.3694560  61.5737700  59.2525500
  56.7584030  66.4089710  72.5713980  56.8675150  65.4684450  72.4309370
  56.1064590  66.6744460  71.9227710  62.7910790  65.5266050  58.9145250
  62.7820890  66.2595740  58.2989760  61.8709150  65.2797630  59.0072210
  58.3917430  60.7480940  59.6592010  57.7845380  61.4879840  59.6687310
  58.8666780  60.8380300  58.8330210  67.9650220  54.9131760  69.3348900
  68.3331040  54.0926970  69.6628470  67.1048420  54.9733650  69.7504550
  71.3312250  53.8688700  60.1436460  70.7025410  53.9734370  59.4294690
  70.8364170  54.0885480  60.9330340  65.7770390  65.5894290  57.5770440
  65.8782370  65.3858280  56.6472420  64.8772130  65.3352570  57.7818220
  63.2996280  56.1474650  61.5594340  62.5912430  56.6160990  62.0007950
  63.5840760  55.4896660  62.1939530  64.9252210  57.5671350  69.5586870
  65.4237460  58.0417170  70.2238720  65.0675160  56.6434870  69.7656900
  67.3311710  52.8725310  62.9990130  67.2079490  52.8911440  62.0499640
  68.2796270  52.9204250  63.1188530  64.4188500  68.1080610  62.2718110
  64.6730000  68.0702000  61.3497480  63.4700980  67.9813940  62.2646360
  61.5031300  54.4559730  58.9345050  62.3521830  54.8929880  58.8685240
  61.1362570  54.7679990  59.7617110  72.1319070  53.7839310  70.4015260
  71.6292670  54.5244710  70.7409070  72.9475730  54.1723310  70.0852050
  70.4241080  59.0272490  63.8476620  69.4831220  59.0422720  64.0224310
  70.7385150  58.2408450  64.2936920  60.4022720  60.7092090  57.4080580
  61.1685990  60.5973450  57.9706010  60.4797410  60.0130060  56.7557350
  59.0969480  58.1417160  58.0913470  59.1773070  57.1944670  58.2030870
  59.9889230  58.4724040  58.1974130  72.4266660  66.1981340  65.5230880
  72.5514080  67.0212510  65.9954690  73.2932220  65.9872070  65.1755030
  59.8984190  68.2912550  65.1948010  60.6346670  67.7428010  65.4656580
  60.2825110  69.1568560  65.0554000  56.7829670  64.3586120  61.0689520
  55.8569450  64.6007260  61.0594930  57.2486100  65.1860380  60.9474270
  63.0086500  67.4642860  57.0173580  63.8015110  67.7531690  56.5655370
  62.4890850  67.0335030  56.3386060  72.0616670  66.6912990  58.4410320
  71.7758180  66.2778130  57.6264500  71.8636220  67.6200700  58.3210840
  63.5263900  62.6846270  56.8815930  63.4214540  62.0698620  57.6077310
  63.3588120  62.1612160  56.0978940  63.6778220  61.3703070  72.8605160
  62.9123890  61.9388070  72.7759830  63.8594180  61.0779280  71.9673390
  66.7666630  61.7466300  57.4857920  66.2176730  62.1935600  58.1300660
  67.3885890  61.2415550  58.0095590  62.4341750  60.7057220  59.3823220
  62.8558170  60.5397090  60.2254610  62.5592590  59.8957450  58.8878360
  60.5969170  56.6853770  72.1894200  60.0665630  56.1944720  71.5617540
  61.2657240  57.1137970  71.6552130  64.9469390  59.7294830  56.6300320
  65.4675050  59.0143850  56.2641470  65.5937790  60.3680700  56.9300830
  69.4947230  61.1523230  71.9535390  69.9088250  61.3068310  72.8025810
  68.5598230  61.2778450  72.1161170  61.0841470  53.6516140  72.2691490
  60.9898340  53.0336890  71.5442360  60.5038860  54.3782430  72.0421400
  63.8502910  52.2089380  69.3018880  63.4020210  52.2313640  68.4564430
  63.2168110  51.8108400  69.8989180  64.2562460  61.1043710  69.9231320
  64.6750570  61.9476440  69.7507560  63.3371090  61.2415750  69.6938100
  66.5926360  58.8359890  71.3069160  66.7122570  58.2401030  72.0464000
  67.4520360  58.8729580  70.8870460  68.9314260  59.3897080  69.8831670
  68.4049480  59.9139700  69.2796810  69.2745600  60.0224470  70.5141400
  61.3300650  56.7790450  56.3281380  61.1289710  55.9157810  56.6894720
  61.1592700  56.6923810  55.3902980  62.1069880  67.4096720  71.0389050
  61.5690970  68.1342780  70.7197750  62.3603840  66.9327060  70.2486390
  68.8088960  51.5898680  58.8568260  69.0891250  50.7466580  59.2127680
  68.0354690  51.8221790  59.3707010  60.1283450  53.8791070  56.3159260
  60.4309350  53.8858500  55.4078410  60.8678040  53.5288930  56.8126920
  64.9632090  68.6447930  71.2975700  64.8890790  69.5483070  71.6048070
  64.0610930  68.3259830  71.2697770  63.3468380  52.8225690  57.3015460
  62.9990380  52.1449680  56.7217910  63.5481150  52.3615200  58.1158850
  65.5117420  67.8106440  58.9202060  66.4068210  68.1491410  58.9420820
  65.5435050  67.0885850  58.2926340  59.1513580  63.1833490  57.1489060
  59.5888450  63.7263160  57.8046640  59.6361310  62.3580440  57.1585400
  56.3659380  65.9722520  64.6009320  56.6962390  65.1043580  64.3687960
  56.7950380  66.1781040  65.4314280  60.9621300  64.3031530  62.2611290
  60.6616840  64.1796500  63.1615200  60.8558790  63.4440120  61.8527020
  56.8549590  66.8393110  67.3390950  56.4180580  67.0193910  68.1715100
  57.4227270  67.5967730  67.1972670  72.4911770  66.3410110  71.6268260
  71.8913760  66.4002670  70.8832180  72.6205670  65.4015090  71.7565110
  73.7313220  64.0827930  56.9637970  72.9006180  64.1504580  57.4345200
  73.9085050  64.9732050  56.6604830  73.1869680  60.8275410  59.4672170
  73.9488590  61.3972060  59.5731860  73.2024050  60.2602610  60.2380480
  56.6874020  59.3513340  63.6979830  56.0322860  59.0824980  63.0539530
  57.5251970  59.2417820  63.2481810  74.1929650  61.6825510  64.3114100
  74.5638480  60.8992830  63.9050070  74.8331580  62.3714610  64.1331400
  71.1763410  63.0662090  69.7244420  70.3623250  63.4959250  69.9870210
  71.5837610  63.6780500  69.1113470  73.2388850  61.1209780  56.6244690
  73.5137690  62.0288660  56.4963910  73.0499590  61.0572310  57.5606680
  69.6364460  54.1454630  57.9198320  70.0549340  53.9585610  57.0794980
  69.3300520  53.2933680  58.2301250  73.1354190  59.0578770  61.6174120
  72.7597790  58.2906700  61.1855410  72.4057310  59.4401470  62.1049050
  57.7249950  59.7365910  68.2383170  58.0922990  59.6493310  69.1179190
  57.1560770  58.9732460  68.1390030  72.5253810  58.2050290  71.2513640
  72.2939900  57.9763040  70.3511590  72.7858360  59.1249840  71.2058530
  57.2765950  56.6475000  72.1441590  56.3822000  56.6141760  72.4835300
  57.8163500  56.8461790  72.9092840  55.9012100  56.5612270  59.6405160
  54.9976180  56.8242470  59.4656820  56.3852720  56.8323440  58.8605120
  72.4105150  57.2836260  64.9181360  72.9342630  56.7898910  64.2871530
  72.9964570  57.4186620  65.6628930  72.5894870  57.3676130  68.4400910
  71.6397580  57.3339670  68.5545900  72.7707880  58.2776240  68.2050680
  58.4439310  55.6177810  57.5499540  59.1531010  55.1961030  57.0646820
  57.7279250  55.6853040  56.9182890  58.0913470  51.6717140  56.5902190
  58.8141600  52.2126080  56.9083410  58.3637990  51.3980560  55.7143730
  71.9005120  56.5409610  60.8573770  72.3964240  56.3080480  61.6422650
  71.7021190  55.7021450  60.4411410  57.7805660  50.9223330  66.4924810
  58.4281850  50.3720710  66.0519970  58.2007500  51.1766480  67.3140620
  73.3292280  55.1770560  63.3911450  73.2191560  55.0226600  64.3293720
  74.0899870  54.6491500  63.1486860  71.6758000  51.1164690  69.8494450
  72.3130220  51.7298830  70.2153640  71.8232890  51.1525350  68.9043680
  74.2182550  53.0078480  56.6317590  75.1431860  52.8759660  56.4235880
  74.1958340  53.0871300  57.5854040  74.2921040  53.7789140  59.2574300
  73.4972540  53.7134260  59.7867210  74.4964320  54.7139780  59.2459650
  71.2339460  67.8180690  63.2512690  71.8298530  67.4965260  62.5747110
  71.4917610  67.3452510  64.0425960  57.5337660  51.0779000  69.2350130
  57.1852480  51.5342820  70.0008310  57.2025360  50.1836130  69.3172560
  62.8408060  65.8058190  69.0013040  62.5999420  66.0732750  68.1143560
  63.7810700  65.9763920  69.0563900  74.1012220  67.8252570  69.8023680
  73.6070500  68.2221440  69.0850810  73.4925510  67.2001780  70.1960960
  58.9790060  67.1960850  70.5201100  58.3850380  67.0645550  71.2591140
  58.9713900  66.3598990  70.0543200  68.4245080  50.4893080  68.7231130
  67.5504920  50.8228190  68.5204060  68.3155830  50.0166260  69.5483000
  69.3317060  52.6963950  70.1072850  69.0030420  51.8815710  69.7274580
  70.2799360  52.6533760  69.9838540  71.7851670  68.4675990  67.0810420
  71.3254640  69.2191800  66.7068440  71.1564130  67.7482460  67.0225220
  58.6102290  64.5619230  69.4709140  57.8836350  63.9424520  69.4035090
  58.6711440  64.9559840  68.6007220  62.2147390  66.7764230  66.2558550
  62.7312410  66.1651590  65.7306810  62.8644770  67.2793010  66.7469560
  64.9542890  67.6672720  67.0827530  65.2420700  67.4127020  66.2060540
  65.4666110  67.1150080  67.6733100  66.1719900  51.4062920  67.6624040
  65.3891690  51.8808420  67.9420800  65.8782830  50.5017750  67.5537220
  70.7240970  52.1086020  65.7073130  71.1649060  52.0531120  64.8594730
  70.4548560  53.0244030  65.7783310  72.5879540  51.7401260  63.7181950
  72.5267940  50.7962480  63.5712970  73.3671570  51.8481350  64.2635410
  56.8932290  67.8793620  62.6805900  56.7254330  67.2464300  63.3787790
  56.0266800  68.0853020  62.3300090  57.5160310  51.7110400  60.1837760
  58.2739670  51.8239280  59.6101790  57.0537480  52.5479600  60.1381190
  64.0574120  53.8249670  63.1740070  63.2448630  53.4506560  62.8335950
  64.5615760  53.0694750  63.4761260  68.5599100  50.4892120  64.4123140
  69.1628470  51.0612330  64.8871660  67.8192090  51.0531560  64.1897040
  71.7033700  50.8913680  59.6863420  71.8984330  51.7897130  59.9530850
  70.9163570  50.6600760  60.1796370  58.4994990  66.5726850  60.1256040
  57.9742610  66.9534880  59.4218000  58.4239570  67.1977620  60.8465750
  59.8885460  52.2374450  58.7239730  60.4178220  51.4504250  58.5947680
  60.5213780  52.9165640  58.9575260  62.0823300  51.9749590  61.7785120
  61.4526040  51.2736900  61.9455250  61.5428440  52.7353720  61.5618280
  73.2560310  68.1314390  61.4469980  73.4312500  67.4452130  60.8030900
  72.5581880  68.6561440  61.0546650  61.0987960  68.5209230  59.0005290
  61.8306780  68.2368510  58.4529180  61.3581630  68.2822510  59.8904670
  60.2602750  64.6373960  59.0051620  59.6311630  65.1059060  59.5537450
  60.3750580  63.7923180  59.4397810  67.7152470  58.6879620  45.1552820
  67.6346520  57.7734230  44.8844530  67.3016890  59.1846690  44.4492530
  65.8470510  60.4658640  47.0362090  65.0712610  59.9859080  47.3260660
  66.4983440  59.7864290  46.8618250  58.2728290  55.7380340  41.6980240
  57.3844990  56.0796310  41.5960120  58.5569480  55.5380660  40.8061070
  56.2361300  58.3385990  47.5819940  56.8077410  57.5708190  47.5823580
  56.2362840  58.6374750  46.6726550  57.4786170  53.7470350  49.3688870
  57.2989010  52.8496100  49.6491630  57.0766250  54.2942220  50.0435820
  66.3184670  55.9486210  47.2701180  66.6949490  55.0758090  47.1574850
  66.2204180  56.2844910  46.3791620  60.4489680  54.3211840  42.7318620
  60.5556430  55.2215570  43.0387380  59.5382040  54.2729810  42.4413270
  70.1008790  53.4436650  44.2029520  70.9218410  52.9533220  44.2455000
  70.1342870  54.0334310  44.9561360  58.0972840  56.2430850  47.9771210
  58.7782950  56.5069220  48.5958610  57.7820890  55.4031720  48.3109220
  62.2897410  57.2898210  47.0643800  62.7975630  57.7879180  47.7048820
  62.8210650  56.5133410  46.8883160  74.3908340  55.4603400  50.7673150
  73.6860510  55.8485110  50.2488260  74.6566260  56.1553690  51.3694080
  60.5733510  51.9296770  51.3307220  60.5751950  52.4469160  50.5253120
  59.7437820  51.4526950  51.3077150  61.8236360  61.5691950  49.5080720
  61.4905740  62.1960870  50.1501790  62.0003040  62.0953830  48.7282390
  70.3370270  55.3837030  46.9757060  69.6325840  55.6721920  47.5560170
  70.6982430  56.1937140  46.6156620  60.2548840  53.6406730  49.3377670
  60.5965650  54.4848780  49.0431540  59.3164650  53.7890470  49.4543010
  61.0355460  63.5372750  51.3229900  61.6529460  64.2123830  51.0414350
  60.1748580  63.9460730  51.2317400  71.9533050  65.0012160  49.2384540
  71.2696570  65.6711270  49.2301210  72.4927340  65.1992810  48.4729400
  73.4057190  54.8291820  47.3666270  72.4582100  54.8630800  47.4981700
  73.7307180  55.6430770  47.7515630  63.9376730  51.1289000  45.6622260
  64.2451710  50.5735890  44.9457760  63.0077430  51.2633460  45.4795250
  70.7837210  63.5672510  43.0419890  70.6733540  62.6246840  43.1669310
  70.7805460  63.9288150  43.9282650  68.8877230  61.7486130  49.2812330
  69.3046020  61.5346240  48.4465790  69.6117050  62.0058920  49.8520950
  66.3257490  59.1937830  42.3982380  65.3986770  59.1275210  42.6270850
  66.4782310  60.1317960  42.2837620  66.3126570  55.4654830  39.3949540
  65.3730240  55.6268790  39.4802000  66.6309830  56.1840510  38.8485530
  72.8339330  60.1473350  49.3728570  72.0057960  60.2166440  48.8978700
  73.4289810  60.7327660  48.9044400  70.3554780  60.7558130  42.9017630
  69.7367200  60.4177680  42.2543930  70.3379230  60.1117890  43.6096820
  69.7981340  56.9342670  50.3183440  69.3852520  57.7596380  50.5723430
  69.0657290  56.3487710  50.1259800  61.9314130  59.7202570  45.1802110
  61.5271130  59.0079820  44.6848010  62.0177250  59.3755810  46.0690150
  60.6442750  56.4945780  48.9601150  61.1957340  56.6041120  48.1854400
  61.1586260  56.8683380  49.6756380  70.4881440  66.9802000  51.0064420
  70.0112000  67.7874190  50.8137030  69.8043230  66.3280330  51.1590630
  61.4914260  63.1451820  53.9949120  60.5942790  63.3691790  54.2422520
  61.5167130  63.2686760  53.0460520  68.5319480  59.9944940  39.9090380
  68.9712760  59.1567370  39.7628200  69.2447900  60.6274340  39.9954520
  60.3185480  60.0165140  52.5706490  60.1793250  60.8887940  52.9393890
  59.4366840  59.6737950  52.4254430  62.1165830  65.9586840  54.7791640
  62.0881260  66.3629790  53.9120070  61.9530800  65.0297200  54.6163240
  72.1136620  51.2487750  38.2231420  71.8009280  51.3414580  39.1230490
  72.8749090  51.8268780  38.1728850  74.0680650  66.7413940  56.0755810
  74.5440370  67.2196830  56.7544890  74.6887810  66.6731430  55.3501310
  73.4713900  63.9326790  53.2355820  73.5976960  63.6938670  52.3173000
  73.5135280  63.1011330  53.7077900  73.3237910  55.9859250  54.2005560
  72.7082180  56.4938920  53.6721020  73.0034330  55.0857580  54.1431500
  61.0982420  51.9582620  46.0632430  60.6550570  52.7392160  45.7316950
  61.6567410  52.2812510  46.7703370  65.3852230  54.8251140  51.6667750
  64.9231600  55.0334160  52.4787690  64.9830340  54.0110490  51.3638420
  70.3856740  56.0460090  52.7964410  69.5350330  55.7465840  53.1173480
  70.2258530  56.2902100  51.8848230  67.4806450  57.5461840  54.8963200
  67.8059860  56.7125590  54.5565430  68.2686780  58.0690360  55.0441530
  64.2141240  51.5793320  40.9438260  63.5895420  51.5753190  41.6691570
  64.1271360  50.7124280  40.5474230  63.1358320  52.5029950  47.9222030
  63.4330650  53.4092780  47.8414050  63.6843880  52.0148730  47.3081600
  60.8896640  57.0816190  43.7913680  60.6637560  56.8653360  44.6960300
  60.1089170  57.5144650  43.4459650  68.1194400  57.0879560  42.3904330
  67.5203290  57.8115360  42.2067950  68.6674010  57.0256340  41.6080780
  63.3295850  57.9801770  54.4573950  63.2339450  57.0396500  54.3074350
  64.1727830  58.2016840  54.0622020  66.7259270  55.7243100  44.4207610
  67.1188840  56.0415300  43.6076300  67.0876120  54.8454980  44.5352130
  58.4606390  54.3915440  52.6107730  58.0669780  55.2390650  52.8180510
  57.7724790  53.7541810  52.8016370  65.0351440  54.4750410  55.6804470
  64.3449760  54.2822610  56.3150560  65.7783740  54.7585050  56.2128770
  55.7623440  52.3143900  46.6437810  55.4736490  52.8846760  47.3562790
  56.5069200  51.8348350  47.0069040  55.9493670  56.2564020  37.8540530
  55.8668340  57.1994780  37.9955520  55.5976730  56.1138930  36.9752880
  67.3114410  58.3148850  48.5158390  66.5795530  58.8235660  48.8648490
  66.9138750  57.4978830  48.2147170  63.7491800  54.9903050  46.9210880
  63.7527860  54.5493000  46.0715420  64.6442920  55.3120380  47.0282700
  59.5994180  54.8729540  45.8805090  59.2594230  55.3504770  46.6372140
  58.8371500  54.4194660  45.5206190  63.8111950  55.9915130  39.9117640
  63.9324770  55.9501610  40.8603460  63.4260460  56.8539280  39.7564370
  67.7740320  53.7682530  47.9281330  67.7913060  54.2191180  48.7723180
  67.5255900  52.8688170  48.1414770  62.8233450  58.3016270  39.3100940
  62.2550350  57.8534520  38.6836850  63.5322450  58.6609050  38.7766090
  71.2011070  51.1814710  53.7667710  71.5256840  50.4504370  54.2925690
  71.2367580  50.8628350  52.8648700  57.9002630  62.2028290  53.1867670
  57.5157420  61.5621960  53.7850630  58.2114820  62.9064410  53.7562400
  64.0499770  59.0504830  48.6676290  64.4169900  58.5763400  49.4137630
  63.8604830  59.9246400  49.0084630  56.9140260  53.7948520  44.7969760
  56.6287180  53.4304190  45.6348380  56.8519120  53.0628980  44.1832900
  61.8399140  58.0913470  50.9860500  61.5356210  58.9705450  51.2110860
  62.7945600  58.1513260  51.0217940  71.1268910  61.2939820  47.3753740
  71.8468030  61.7895110  46.9849850  70.9250730  60.6157710  46.7307610
  66.5878850  52.6877780  41.5183130  65.7743460  52.1890950  41.4428440
  66.3940800  53.5276030  41.1019480  66.5087710  61.3648880  53.2622740
  66.4425020  60.4444550  53.0080330  65.8792850  61.4624320  53.9767380
  69.3027240  57.0597430  39.8145290  70.1906860  57.3714660  39.6396630
  69.2732330  56.1869680  39.4225870  60.4118330  61.9654840  45.2206160
  60.9297000  61.1623100  45.1663050  59.9602350  61.9033980  46.0622990
  57.8962870  58.9316210  52.1331860  57.5377810  59.5970060  52.7205200
  57.6017430  58.0999760  52.5044480  61.0975990  59.3900450  55.0171410
  60.7976130  59.5357630  54.1199230  61.8687230  58.8305740  54.9244800
  66.4404440  64.1869450  53.0126540  66.4548980  63.2550410  52.7945450
  65.7329540  64.2729210  53.6516310  71.5741510  58.3709270  39.2825150
  71.4905230  58.8023490  38.4321590  72.2935700  58.8307620  39.7151970
  72.6515650  60.8276790  52.3595120  71.9263840  61.4205570  52.1624510
  73.1791110  60.8200330  51.5608490  72.6028760  65.2251530  42.0107280
  71.9604920  64.5707150  42.2851000  72.2159420  65.6306620  41.2347950
  68.1815240  62.5536960  45.8578970  68.5339060  61.9565090  45.1980340
  67.2977570  62.2281190  46.0287220  63.5705730  60.3180680  42.8774740
  64.0268510  61.1285930  43.1034930  63.2193940  60.0003820  43.7093230
  59.4717510  50.6618330  43.3497260  59.3432140  50.6536230  44.2982180
  58.6479530  51.0001420  42.9988270  68.9208040  64.6314270  52.0280550
  69.2564280  65.2180960  52.7058470  68.0008380  64.5006980  52.2578340
  56.4711440  52.4209450  52.8103960  55.7569960  52.6206370  53.4156570
  56.8906480  51.6449020  53.1818760  70.5742390  62.0339930  40.2097790
  70.2864090  62.4952620  40.9975670  71.3694560  61.5737700  40.4782010
  56.7584030  66.4089710  53.7970490  56.8675150  65.4684450  53.6565880
  56.1064590  66.6744460  53.1484220  64.7496620  64.6805600  55.1968610
  64.4293490  63.9614840  55.7414300  64.0754980  65.3560670  55.2704670
  67.9650220  54.9131760  50.5605410  68.3331040  54.0926970  50.8884980
  67.1048420  54.9733650  50.9761060  71.3312250  53.8688700  41.3692970
  70.7025410  53.9734370  40.6551200  70.8364170  54.0885480  42.1586850
  63.2996280  56.1474650  42.7850850  62.5912430  56.6160990  43.2264460
  63.5840760  55.4896660  43.4196040  64.9252210  57.5671350  50.7843380
  65.4237460  58.0417170  51.4495230  65.0675160  56.6434870  50.9913410
  67.3311710  52.8725310  44.2246640  67.2079490  52.8911440  43.2756150
  68.2796270  52.9204250  44.3445040  61.5031300  54.4559730  40.1601560
  62.3521830  54.8929880  40.0941750  61.1362570  54.7679990  40.9873620
  72.1319070  53.7839310  51.6271770  71.6292670  54.5244710  51.9665580
  72.9475730  54.1723310  51.3108560  70.4241080  59.0272490  45.0733130
  69.4831220  59.0422720  45.2480820  70.7385150  58.2408450  45.5193430
  59.0969480  58.1417160  39.3169980  59.1773070  57.1944670  39.4287380
  59.9889230  58.4724040  39.4230640  72.4266660  66.1981340  46.7487390
  72.5514080  67.0212510  47.2211200  73.2932220  65.9872070  46.4011540
  58.9042470  67.4758620  55.6090100  59.7055200  67.7970670  56.0225500
  58.3894290  67.1154200  56.3310010  67.7407100  63.5838490  55.5565510
  67.1345260  63.6070090  54.8161260  67.4361210  62.8521530  56.0932760
  69.1707470  67.3118780  54.1674920  70.1229220  67.2276800  54.1175160
  69.0235690  67.9760490  54.8408710  56.6240280  59.9632080  54.5526150
  57.1279300  59.3839360  55.1242380  55.8847700  60.2472310  55.0902520
  63.6778220  61.3703070  54.0861670  62.9123890  61.9388070  54.0016340
  63.8594180  61.0779280  53.1929900  70.8201570  63.1008400  54.6436690
  71.5611040  63.4384160  54.1404150  70.0574250  63.2700460  54.0906460
  58.6563360  58.1061670  55.4476220  58.6968700  57.8075540  56.3561450
  59.5108860  58.5069280  55.2883740  62.4341750  60.7057220  40.6079730
  62.8558170  60.5397090  41.4511120  62.5592590  59.8957450  40.1134870
  60.5969170  56.6853770  53.4150710  60.0665630  56.1944720  52.7874050
  61.2657240  57.1137970  52.8808640  64.9469390  59.7294830  37.8556830
  65.4675050  59.0143850  37.4897980  65.5937790  60.3680700  38.1557340
  69.4947230  61.1523230  53.1791900  69.9088250  61.3068310  54.0282320
  68.5598230  61.2778450  53.3417680  69.9669400  58.4919390  55.1831050
  70.5490170  57.7371710  55.0951530  70.1431170  59.0226830  54.4062530
  61.0841470  53.6516140  53.4948000  60.9898340  53.0336890  52.7698870
  60.5038860  54.3782430  53.2677910  63.8502910  52.2089380  50.5275390
  63.4020210  52.2313640  49.6820940  63.2168110  51.8108400  51.1245690
  64.2562460  61.1043710  51.1487830  64.6750570  61.9476440  50.9764070
  63.3371090  61.2415750  50.9194610  66.5926360  58.8359890  52.5325670
  66.7122570  58.2401030  53.2720510  67.4520360  58.8729580  52.1126970
  68.9314260  59.3897080  51.1088180  68.4049480  59.9139700  50.5053320
  69.2745600  60.0224470  51.7397910  61.3300650  56.7790450  37.5537890
  61.1289710  55.9157810  37.9151230  61.1592700  56.6923810  36.6159490
  62.1069880  67.4096720  52.2645560  61.5690970  68.1342780  51.9454260
  62.3603840  66.9327060  51.4742900  63.3595130  55.3781240  53.7901490
  63.9494820  55.0697090  54.4779310  62.5415370  54.9060990  53.9461390
  68.1788560  54.9947050  54.0234510  67.4904080  54.3328590  53.9584500
  68.8994580  54.5485320  54.4682970  68.8088960  51.5898680  40.0824770
  69.0891250  50.7466580  40.4384190  68.0354690  51.8221790  40.5963520
  60.1283450  53.8791070  37.5415770  60.4309350  53.8858500  36.6334920
  60.8678040  53.5288930  38.0383430  64.9632090  68.6447930  52.5232210
  64.8890790  69.5483070  52.8304580  64.0610930  68.3259830  52.4954280
  63.3468380  52.8225690  38.5271970  62.9990380  52.1449680  37.9474420
  63.5481150  52.3615200  39.3415360  72.4911770  66.3410110  52.8524770
  71.8913760  66.4002670  52.1088690  72.6205670  65.4015090  52.9821620
  73.7313220  64.0827930  38.1894480  72.9006180  64.1504580  38.6601710
  73.9085050  64.9732050  37.8861340  73.1869680  60.8275410  40.6928680
  73.9488590  61.3972060  40.7988370  73.2024050  60.2602610  41.4636990
  74.1929650  61.6825510  45.5370610  74.5638480  60.8992830  45.1306580
  74.8331580  62.3714610  45.3587910  71.1763410  63.0662090  50.9500930
  70.3623250  63.4959250  51.2126720  71.5837610  63.6780500  50.3369980
  73.2388850  61.1209780  37.8501200  73.5137690  62.0288660  37.7220420
  73.0499590  61.0572310  38.7863190  69.6364460  54.1454630  39.1454830
  70.0549340  53.9585610  38.3051490  69.3300520  53.2933680  39.4557760
  73.1354190  59.0578770  42.8430630  72.7597790  58.2906700  42.4111920
  72.4057310  59.4401470  43.3305560  72.5253810  58.2050290  52.4770150
  72.2939900  57.9763040  51.5768100  72.7858360  59.1249840  52.4315040
  57.2765950  56.6475000  53.3698100  56.3822000  56.6141760  53.7091810
  57.8163500  56.8461790  54.1349350  70.9641880  53.4306720  55.2549850
  71.8412060  53.4390120  55.6383850  70.9762720  52.6937560  54.6442200
  55.9012100  56.5612270  40.8661670  54.9976180  56.8242470  40.6913330
  56.3852720  56.8323440  40.0861630  72.4105150  57.2836260  46.1437870
  72.9342630  56.7898910  45.5128040  72.9964570  57.4186620  46.8885440
  72.5894870  57.3676130  49.6657420  71.6397580  57.3339670  49.7802410
  72.7707880  58.2776240  49.4307190  58.4439310  55.6177810  38.7756050
  59.1531010  55.1961030  38.2903330  57.7279250  55.6853040  38.1439400
  58.0913470  51.6717140  37.8158700  58.8141600  52.2126080  38.1339920
  58.3637990  51.3980560  36.9400240  71.9005120  56.5409610  42.0830280
  72.3964240  56.3080480  42.8679160  71.7021190  55.7021450  41.6667920
  57.7805660  50.9223330  47.7181320  58.4281850  50.3720710  47.2776480
  58.2007500  51.1766480  48.5397130  73.3292280  55.1770560  44.6167960
  73.2191560  55.0226600  45.5550230  74.0899870  54.6491500  44.3743370
  71.6758000  51.1164690  51.0750960  72.3130220  51.7298830  51.4410150
  71.8232890  51.1525350  50.1300190  74.2182550  53.0078480  37.8574100
  75.1431860  52.8759660  37.6492390  74.1958340  53.0871300  38.8110550
  74.2921040  53.7789140  40.4830810  73.4972540  53.7134260  41.0123720
  74.4964320  54.7139780  40.4716160  57.5337660  51.0779000  50.4606640
  57.1852480  51.5342820  51.2264820  57.2025360  50.1836130  50.5429070
  59.1402030  64.2498600  54.6259830  59.0971660  63.8791510  55.5074290
  59.2713040  65.1876170  54.7661650  65.0462480  52.2690880  53.9826060
  64.9851370  52.8612710  54.7321470  65.9862860  52.1616840  53.8376320
  67.6837040  51.9260940  53.6218350  68.2977450  52.2440230  52.9599430
  68.2286600  51.4409530  54.2414210  74.1012220  67.8252570  51.0280190
  73.6070500  68.2221440  50.3107320  73.4925510  67.2001780  51.4217470
  58.2058300  50.6055200  53.7357410  58.7541290  50.4243250  52.9723520
  58.2713610  49.8149310  54.2713720  68.4245080  50.4893080  49.9487640
  67.5504920  50.8228190  49.7460570  68.3155830  50.0166260  50.7739510
  69.3317060  52.6963950  51.3329360  69.0030420  51.8815710  50.9531090
  70.2799360  52.6533760  51.2095050  66.1719900  51.4062920  48.8880550
  65.3891690  51.8808420  49.1677310  65.8782830  50.5017750  48.7793730
  70.7240970  52.1086020  46.9329640  71.1649060  52.0531120  46.0851240
  70.4548560  53.0244030  47.0039820  72.5879540  51.7401260  44.9438460
  72.5267940  50.7962480  44.7969480  73.3671570  51.8481350  45.4891920
  57.5160310  51.7110400  41.4094270  58.2739670  51.8239280  40.8358300
  57.0537480  52.5479600  41.3637700  64.0574120  53.8249670  44.3996580
  63.2448630  53.4506560  44.0592460  64.5615760  53.0694750  44.7017770
  68.5599100  50.4892120  45.6379650  69.1628470  51.0612330  46.1128170
  67.8192090  51.0531560  45.4153550  71.7033700  50.8913680  40.9119930
  71.8984330  51.7897130  41.1787360  70.9163570  50.6600760  41.4052880
  59.8885460  52.2374450  39.9496240  60.4178220  51.4504250  39.8204190
  60.5213780  52.9165640  40.1831770  62.0823300  51.9749590  43.0041630
  61.4526040  51.2736900  43.1711760  61.5428440  52.7353720  42.7874790
  65.0215250  68.5888820  55.6752240  65.9482560  68.3533090  55.7188200
  65.0065680  69.4160820  55.1938270  73.2560310  68.1314390  42.6726490
  73.4312500  67.4452130  42.0287410  72.5581880  68.6561440  42.2803160
  62.2078860  51.2533570  55.4394120  61.9263130  51.7567170  54.6754940
  62.5898560  50.4555320  55.0736250  68.8094320  50.6687150  56.0174590
  68.6959770  50.9881760  56.9126110  69.6264060  51.0699660  55.7211870
  71.5892810  67.8158680  55.4993280  72.3818130  67.3207910  55.2919240
  71.8825960  68.4948820  56.1068890  67.7152470  58.6879620  26.3809330
  67.6346520  57.7734230  26.1101040  67.3016890  59.1846690  25.6749040
  58.2728290  55.7380340  22.9236750  57.3844990  56.0796310  22.8216630
  58.5569480  55.5380660  22.0317580  57.4786170  53.7470350  30.5945380
  57.2989010  52.8496100  30.8748140  57.0766250  54.2942220  31.2692330
  66.3184670  55.9486210  28.4957690  66.6949490  55.0758090  28.3831360
  66.2204180  56.2844910  27.6048130  60.4489680  54.3211840  23.9575130
  60.5556430  55.2215570  24.2643890  59.5382040  54.2729810  23.6669780
  70.1008790  53.4436650  25.4286030  70.9218410  52.9533220  25.4711510
  70.1342870  54.0334310  26.1817870  58.0972840  56.2430850  29.2027720
  58.7782950  56.5069220  29.8215120  57.7820890  55.4031720  29.5365730
  62.2897410  57.2898210  28.2900310  62.7975630  57.7879180  28.9305330
  62.8210650  56.5133410  28.1139670  74.3908340  55.4603400  31.9929660
  73.6860510  55.8485110  31.4744770  74.6566260  56.1553690  32.5950590
  60.5733510  51.9296770  32.5563730  60.5751950  52.4469160  31.7509630
  59.7437820  51.4526950  32.5333660  66.9604600  62.0416080  24.0553630
  66.3421870  62.5065530  23.4916350  67.4727850  62.7343560  24.4723140
  61.8236360  61.5691950  30.7337230  61.4905740  62.1960870  31.3758300
  62.0003040  62.0953830  29.9538900  70.3370270  55.3837030  28.2013570
  69.6325840  55.6721920  28.7816680  70.6982430  56.1937140  27.8413130
  60.2548840  53.6406730  30.5634180  60.5965650  54.4848780  30.2688050
  59.3164650  53.7890470  30.6799520  56.3287800  62.7272610  21.4293260
  55.9515780  63.2159710  20.6978160  56.5860870  63.3997890  22.0599790
  73.4057190  54.8291820  28.5922780  72.4582100  54.8630800  28.7238210
  73.7307180  55.6430770  28.9772140  63.9376730  51.1289000  26.8878770
  64.2451710  50.5735890  26.1714270  63.0077430  51.2633460  26.7051760
  70.7837210  63.5672510  24.2676400  70.6733540  62.6246840  24.3925820
  70.7805460  63.9288150  25.1539160  68.8877230  61.7486130  30.5068840
  69.3046020  61.5346240  29.6722300  69.6117050  62.0058920  31.0777460
  66.3257490  59.1937830  23.6238890  65.3986770  59.1275210  23.8527360
  66.4782310  60.1317960  23.5094130  66.3126570  55.4654830  20.6206050
  65.3730240  55.6268790  20.7058510  66.6309830  56.1840510  20.0742040
  72.8339330  60.1473350  30.5985080  72.0057960  60.2166440  30.1235210
  73.4289810  60.7327660  30.1300910  70.3554780  60.7558130  24.1274140
  69.7367200  60.4177680  23.4800440  70.3379230  60.1117890  24.8353330
  69.7981340  56.9342670  31.5439950  69.3852520  57.7596380  31.7979940
  69.0657290  56.3487710  31.3516310  61.9314130  59.7202570  26.4058620
  61.5271130  59.0079820  25.9104520  62.0177250  59.3755810  27.2946660
  60.6442750  56.4945780  30.1857660  61.1957340  56.6041120  29.4110910
  61.1586260  56.8683380  30.9012890  68.5319480  59.9944940  21.1346890
  68.9712760  59.1567370  20.9884710  69.2447900  60.6274340  21.2211030
  72.1136620  51.2487750  19.4487930  71.8009280  51.3414580  20.3487000
  72.8749090  51.8268780  19.3985360  58.6318760  58.6147550  23.9065270
  58.5116360  59.3409640  23.2946540  58.3219650  57.8450460  23.4293180
  74.0680650  66.7413940  37.3012320  74.5440370  67.2196830  37.9801400
  74.6887810  66.6731430  36.5757820  73.4713900  63.9326790  34.4612330
  73.5976960  63.6938670  33.5429510  73.5135280  63.1011330  34.9334410
  69.3085040  67.9210130  22.4591140  69.1486180  67.6313070  23.3572970
  69.1431750  67.1450260  21.9236370  61.7873420  67.7008660  24.2362760
  61.6115900  66.7844200  24.0230560  60.9329160  68.0595950  24.4760560
  69.0111170  65.4297690  21.0189140  68.3176330  65.4274980  20.3591420
  69.7534030  65.0057010  20.5883310  73.3237910  55.9859250  35.4262070
  72.7082180  56.4938920  34.8977530  73.0034330  55.0857580  35.3688010
  61.0982420  51.9582620  27.2888940  60.6550570  52.7392160  26.9573460
  61.6567410  52.2812510  27.9959880  65.3852230  54.8251140  32.8924260
  64.9231600  55.0334160  33.7044200  64.9830340  54.0110490  32.5894930
  70.3856740  56.0460090  34.0220920  69.5350330  55.7465840  34.3429990
  70.2258530  56.2902100  33.1104740  67.4806450  57.5461840  36.1219710
  67.8059860  56.7125590  35.7821940  68.2686780  58.0690360  36.2698040
  64.2141240  51.5793320  22.1694770  63.5895420  51.5753190  22.8948080
  64.1271360  50.7124280  21.7730740  63.1358320  52.5029950  29.1478540
  63.4330650  53.4092780  29.0670560  63.6843880  52.0148730  28.5338110
  60.8896640  57.0816190  25.0170190  60.6637560  56.8653360  25.9216810
  60.1089170  57.5144650  24.6716160  68.1194400  57.0879560  23.6160840
  67.5203290  57.8115360  23.4324460  68.6674010  57.0256340  22.8337290
  63.3295850  57.9801770  35.6830460  63.2339450  57.0396500  35.5330860
  64.1727830  58.2016840  35.2878530  66.7259270  55.7243100  25.6464120
  67.1188840  56.0415300  24.8332810  67.0876120  54.8454980  25.7608640
  58.4606390  54.3915440  33.8364240  58.0669780  55.2390650  34.0437020
  57.7724790  53.7541810  34.0272880  65.0351440  54.4750410  36.9060980
  64.3449760  54.2822610  37.5407070  65.7783740  54.7585050  37.4385280
  55.7623440  52.3143900  27.8694320  55.4736490  52.8846760  28.5819300
  56.5069200  51.8348350  28.2325550  55.9493670  56.2564020  19.0797040
  55.8668340  57.1994780  19.2212030  55.5976730  56.1138930  18.2009390
  67.3114410  58.3148850  29.7414900  66.5795530  58.8235660  30.0905000
  66.9138750  57.4978830  29.4403680  63.7491800  54.9903050  28.1467390
  63.7527860  54.5493000  27.2971930  64.6442920  55.3120380  28.2539210
  59.5994180  54.8729540  27.1061600  59.2594230  55.3504770  27.8628650
  58.8371500  54.4194660  26.7462700  63.8111950  55.9915130  21.1374150
  63.9324770  55.9501610  22.0859970  63.4260460  56.8539280  20.9820880
  67.7740320  53.7682530  29.1537840  67.7913060  54.2191180  29.9979690
  67.5255900  52.8688170  29.3671280  62.8233450  58.3016270  20.5357450
  62.2550350  57.8534520  19.9093360  63.5322450  58.6609050  20.0022600
  71.2011070  51.1814710  34.9924220  71.5256840  50.4504370  35.5182200
  71.2367580  50.8628350  34.0905210  64.0499770  59.0504830  29.8932800
  64.4169900  58.5763400  30.6394140  63.8604830  59.9246400  30.2341140
  56.9140260  53.7948520  26.0226270  56.6287180  53.4304190  26.8604890
  56.8519120  53.0628980  25.4089410  61.8399140  58.0913470  32.2117010
  61.5356210  58.9705450  32.4367370  62.7945600  58.1513260  32.2474450
  60.3680930  62.2974460  22.8083860  59.5943190  61.7572080  22.6482580
  61.0975560  61.7781070  22.4701620  71.1268910  61.2939820  28.6010250
  71.8468030  61.7895110  28.2106360  70.9250730  60.6157710  27.9564120
  66.5878850  52.6877780  22.7439640  65.7743460  52.1890950  22.6684950
  66.3940800  53.5276030  22.3275990  69.3027240  57.0597430  21.0401800
  70.1906860  57.3714660  20.8653140  69.2732330  56.1869680  20.6482380
  60.4118330  61.9654840  26.4462670  60.9297000  61.1623100  26.3919560
  59.9602350  61.9033980  27.2879500  65.2987830  63.2321120  21.7189970
  65.6403530  63.9763350  21.2233290  64.4700540  63.5452240  22.0814800
  61.0975990  59.3900450  36.2427920  60.7976130  59.5357630  35.3455740
  61.8687230  58.8305740  36.1501310  71.5741510  58.3709270  20.5081660
  71.4905230  58.8023490  19.6578100  72.2935700  58.8307620  20.9408480
  72.6515650  60.8276790  33.5851630  71.9263840  61.4205570  33.3881020
  73.1791110  60.8200330  32.7865000  72.6028760  65.2251530  23.2363790
  71.9604920  64.5707150  23.5107510  72.2159420  65.6306620  22.4604460
  64.2678520  63.3134650  24.4905890  64.9549650  63.8603860  24.8713480
  63.4810940  63.8575380  24.5255500  56.4070920  58.9307470  19.9822970
  57.2765770  59.2132270  20.2658890  55.9161240  59.7443340  19.8671780
  63.5705730  60.3180680  24.1031250  64.0268510  61.1285930  24.3291440
  63.2193940  60.0003820  24.9349740  59.4717510  50.6618330  24.5753770
  59.3432140  50.6536230  25.5238690  58.6479530  51.0001420  24.2244780
  70.9926140  64.1167990  19.7740140  70.7663720  63.3998430  20.3664780
  70.6022340  63.8680430  18.9361890  56.7742170  68.1434850  20.5484600
  57.1339810  68.7424190  19.8941870  56.6334510  68.6894740  21.3219630
  56.4711440  52.4209450  34.0360470  55.7569960  52.6206370  34.6413080
  56.8906480  51.6449020  34.4075270  70.5742390  62.0339930  21.4354300
  70.2864090  62.4952620  22.2232180  71.3694560  61.5737700  21.7038520
  62.7910790  65.5266050  21.3658270  62.7820890  66.2595740  20.7502780
  61.8709150  65.2797630  21.4585230  58.3917430  60.7480940  22.1105030
  57.7845380  61.4879840  22.1200330  58.8666780  60.8380300  21.2843230
  67.9650220  54.9131760  31.7861920  68.3331040  54.0926970  32.1141490
  67.1048420  54.9733650  32.2017570  71.3312250  53.8688700  22.5949480
  70.7025410  53.9734370  21.8807710  70.8364170  54.0885480  23.3843360
  65.7770390  65.5894290  20.0283460  65.8782370  65.3858280  19.0985440
  64.8772130  65.3352570  20.2331240  63.2996280  56.1474650  24.0107360
  62.5912430  56.6160990  24.4520970  63.5840760  55.4896660  24.6452550
  64.9252210  57.5671350  32.0099890  65.4237460  58.0417170  32.6751740
  65.0675160  56.6434870  32.2169920  67.3311710  52.8725310  25.4503150
  67.2079490  52.8911440  24.5012660  68.2796270  52.9204250  25.5701550
  64.4188500  68.1080610  24.7231130  64.6730000  68.0702000  23.8010500
  63.4700980  67.9813940  24.7159380  61.5031300  54.4559730  21.3858070
  62.3521830  54.8929880  21.3198260  61.1362570  54.7679990  22.2130130
  72.1319070  53.7839310  32.8528280  71.6292670  54.5244710  33.1922090
  72.9475730  54.1723310  32.5365070  70.4241080  59.0272490  26.2989640
  69.4831220  59.0422720  26.4737330  70.7385150  58.2408450  26.7449940
  60.4022720  60.7092090  19.8593600  61.1685990  60.5973450  20.4219030
  60.4797410  60.0130060  19.2070370  59.0969480  58.1417160  20.5426490
  59.1773070  57.1944670  20.6543890  59.9889230  58.4724040  20.6487150
  56.7829670  64.3586120  23.5202540  55.8569450  64.6007260  23.5107950
  57.2486100  65.1860380  23.3987290  63.0086500  67.4642860  19.4686600
  63.8015110  67.7531690  19.0168390  62.4890850  67.0335030  18.7899080
  72.0616670  66.6912990  20.8923340  71.7758180  66.2778130  20.0777520
  71.8636220  67.6200700  20.7723860  63.5263900  62.6846270  19.3328950
  63.4214540  62.0698620  20.0590330  63.3588120  62.1612160  18.5491960
  66.7666630  61.7466300  19.9370940  66.2176730  62.1935600  20.5813680
  67.3885890  61.2415550  20.4608610  70.8201570  63.1008400  35.8693200
  71.5611040  63.4384160  35.3660660  70.0574250  63.2700460  35.3162970
  58.6563360  58.1061670  36.6732730  58.6968700  57.8075540  37.5817960
  59.5108860  58.5069280  36.5140250  62.4341750  60.7057220  21.8336240
  62.8558170  60.5397090  22.6767630  62.5592590  59.8957450  21.3391380
  60.5969170  56.6853770  34.6407220  60.0665630  56.1944720  34.0130560
  61.2657240  57.1137970  34.1065150  64.9469390  59.7294830  19.0813340
  65.4675050  59.0143850  18.7154490  65.5937790  60.3680700  19.3813850
  69.4947230  61.1523230  34.4048410  69.9088250  61.3068310  35.2538830
  68.5598230  61.2778450  34.5674190  69.9669400  58.4919390  36.4087560
  70.5490170  57.7371710  36.3208040  70.1431170  59.0226830  35.6319040
  61.0841470  53.6516140  34.7204510  60.9898340  53.0336890  33.9955380
  60.5038860  54.3782430  34.4934420  63.8502910  52.2089380  31.7531900
  63.4020210  52.2313640  30.9077450  63.2168110  51.8108400  32.3502200
  66.5926360  58.8359890  33.7582180  66.7122570  58.2401030  34.4977020
  67.4520360  58.8729580  33.3383480  68.9314260  59.3897080  32.3344690
  68.4049480  59.9139700  31.7309830  69.2745600  60.0224470  32.9654420
  61.3300650  56.7790450  18.7794400  61.1289710  55.9157810  19.1407740
  61.1592700  56.6923810  17.8416000  63.3595130  55.3781240  35.0158000
  63.9494820  55.0697090  35.7035820  62.5415370  54.9060990  35.1717900
  68.1788560  54.9947050  35.2491020  67.4904080  54.3328590  35.1841010
  68.8994580  54.5485320  35.6939480  68.8088960  51.5898680  21.3081280
  69.0891250  50.7466580  21.6640700  68.0354690  51.8221790  21.8220030
  60.1283450  53.8791070  18.7672280  60.4309350  53.8858500  17.8591430
  60.8678040  53.5288930  19.2639940  63.3468380  52.8225690  19.7528480
  62.9990380  52.1449680  19.1730930  63.5481150  52.3615200  20.5671870
  65.5117420  67.8106440  21.3715080  66.4068210  68.1491410  21.3933840
  65.5435050  67.0885850  20.7439360  59.1513580  63.1833490  19.6002080
  59.5888450  63.7263160  20.2559660  59.6361310  62.3580440  19.6098420
  60.9621300  64.3031530  24.7124310  60.6616840  64.1796500  25.6128220
  60.8558790  63.4440120  24.3040040  72.4911770  66.3410110  34.0781280
  71.8913760  66.4002670  33.3345200  72.6205670  65.4015090  34.2078130
  73.7313220  64.0827930  19.4150990  72.9006180  64.1504580  19.8858220
  73.9085050  64.9732050  19.1117850  73.1869680  60.8275410  21.9185190
  73.9488590  61.3972060  22.0244880  73.2024050  60.2602610  22.6893500
  74.1929650  61.6825510  26.7627120  74.5638480  60.8992830  26.3563090
  74.8331580  62.3714610  26.5844420  71.1763410  63.0662090  32.1757440
  70.3623250  63.4959250  32.4383230  71.5837610  63.6780500  31.5626490
  73.2388850  61.1209780  19.0757710  73.5137690  62.0288660  18.9476930
  73.0499590  61.0572310  20.0119700  69.6364460  54.1454630  20.3711340
  70.0549340  53.9585610  19.5308000  69.3300520  53.2933680  20.6814270
  73.1354190  59.0578770  24.0687140  72.7597790  58.2906700  23.6368430
  72.4057310  59.4401470  24.5562070  72.5253810  58.2050290  33.7026660
  72.2939900  57.9763040  32.8024610  72.7858360  59.1249840  33.6571550
  57.2765950  56.6475000  34.5954610  56.3822000  56.6141760  34.9348320
  57.8163500  56.8461790  35.3605860  70.9641880  53.4306720  36.4806360
  71.8412060  53.4390120  36.8640360  70.9762720  52.6937560  35.8698710
  55.9012100  56.5612270  22.0918180  54.9976180  56.8242470  21.9169840
  56.3852720  56.8323440  21.3118140  72.4105150  57.2836260  27.3694380
  72.9342630  56.7898910  26.7384550  72.9964570  57.4186620  28.1141950
  72.5894870  57.3676130  30.8913930  71.6397580  57.3339670  31.0058920
  72.7707880  58.2776240  30.6563700  58.4439310  55.6177810  20.0012560
  59.1531010  55.1961030  19.5159840  57.7279250  55.6853040  19.3695910
  58.0913470  51.6717140  19.0415210  58.8141600  52.2126080  19.3596430
  58.3637990  51.3980560  18.1656750  71.9005120  56.5409610  23.3086790
  72.3964240  56.3080480  24.0935670  71.7021190  55.7021450  22.8924430
  57.7805660  50.9223330  28.9437830  58.4281850  50.3720710  28.5032990
  58.2007500  51.1766480  29.7653640  73.3292280  55.1770560  25.8424470
  73.2191560  55.0226600  26.7806740  74.0899870  54.6491500  25.5999880
  71.6758000  51.1164690  32.3007470  72.3130220  51.7298830  32.6666660
  71.8232890  51.1525350  31.3556700  74.2182550  53.0078480  19.0830610
  75.1431860  52.8759660  18.8748900  74.1958340  53.0871300  20.0367060
  74.2921040  53.7789140  21.7087320  73.4972540  53.7134260  22.2380230
  74.4964320  54.7139780  21.6972670  71.2339460  67.8180690  25.7025710
  71.8298530  67.4965260  25.0260130  71.4917610  67.3452510  26.4938980
  57.5337660  51.0779000  31.6863150  57.1852480  51.5342820  32.4521330
  57.2025360  50.1836130  31.7685580  65.0462480  52.2690880  35.2082570
  64.9851370  52.8612710  35.9577980  65.9862860  52.1616840  35.0632830
  67.6837040  51.9260940  34.8474860  68.2977450  52.2440230  34.1855940
  68.2286600  51.4409530  35.4670720  74.1012220  67.8252570  32.2536700
  73.6070500  68.2221440  31.5363830  73.4925510  67.2001780  32.6473980
  58.2058300  50.6055200  34.9613920  58.7541290  50.4243250  34.1980030
  58.2713610  49.8149310  35.4970230  68.4245080  50.4893080  31.1744150
  67.5504920  50.8228190  30.9717080  68.3155830  50.0166260  31.9996020
  69.3317060  52.6963950  32.5585870  69.0030420  51.8815710  32.1787600
  70.2799360  52.6533760  32.4351560  66.1719900  51.4062920  30.1137060
  65.3891690  51.8808420  30.3933820  65.8782830  50.5017750  30.0050240
  70.7240970  52.1086020  28.1586150  71.1649060  52.0531120  27.3107750
  70.4548560  53.0244030  28.2296330  72.5879540  51.7401260  26.1694970
  72.5267940  50.7962480  26.0225990  73.3671570  51.8481350  26.7148430
  57.5160310  51.7110400  22.6350780  58.2739670  51.8239280  22.0614810
  57.0537480  52.5479600  22.5894210  64.0574120  53.8249670  25.6253090
  63.2448630  53.4506560  25.2848970  64.5615760  53.0694750  25.9274280
  68.5599100  50.4892120  26.8636160  69.1628470  51.0612330  27.3384680
  67.8192090  51.0531560  26.6410060  71.7033700  50.8913680  22.1376440
  71.8984330  51.7897130  22.4043870  70.9163570  50.6600760  22.6309390
  58.4994990  66.5726850  22.5769060  57.9742610  66.9534880  21.8731020
  58.4239570  67.1977620  23.2978770  59.8885460  52.2374450  21.1752750
  60.4178220  51.4504250  21.0460700  60.5213780  52.9165640  21.4088280
  62.0823300  51.9749590  24.2298140  61.4526040  51.2736900  24.3968270
  61.5428440  52.7353720  24.0131300  73.2560310  68.1314390  23.8983000
  73.4312500  67.4452130  23.2543920  72.5581880  68.6561440  23.5059670
  62.2078860  51.2533570  36.6650630  61.9263130  51.7567170  35.9011450
  62.5898560  50.4555320  36.2992760  61.0987960  68.5209230  21.4518310
  61.8306780  68.2368510  20.9042200  61.3581630  68.2822510  22.3417690
  60.2602750  64.6373960  21.4564640  59.6311630  65.1059060  22.0050470
  60.3750580  63.7923180  21.8910830  68.8094320  50.6687150  37.2431100
  68.6959770  50.9881760  38.1382620  69.6264060  51.0699660  36.9468380
  67.7152470  58.6879620   7.6065840  67.6346520  57.7734230   7.3357550
  67.3016890  59.1846690   6.9005550  65.8470510  60.4658640   9.4875110
  65.0712610  59.9859080   9.7773680  66.4983440  59.7864290   9.3131270
  59.8636340  60.7778450  10.3650870  59.0321220  60.5227160  10.7647380
  60.4717320  60.8489220  11.1008790  69.8677940  64.8718830   8.2674240
  69.4059470  64.1006070   8.5961410  70.6803490  64.8984900   8.7726690
  59.8437600  64.8118540  10.5608890  60.1465640  63.9216280  10.3819110
  60.5881190  65.3688760  10.3331140  58.2728290  55.7380340   4.1493260
  57.3844990  56.0796310   4.0473140  58.5569480  55.5380660   3.2574090
  56.2361300  58.3385990  10.0332960  56.8077410  57.5708190  10.0336600
  56.2362840  58.6374750   9.1239570  66.0941250  67.1576840   7.8878230
  65.4752690  67.6134340   7.3172670  66.9493030  67.3128300   7.4867930
  65.2879500  63.1415830   9.4945270  65.2187780  62.2005770   9.3334400
  66.0499360  63.2317240  10.0667840  57.4786170  53.7470350  11.8201890
  57.2989010  52.8496100  12.1004650  57.0766250  54.2942220  12.4948840
  66.3184670  55.9486210   9.7214200  66.6949490  55.0758090   9.6087870
  66.2204180  56.2844910   8.8304640  60.4489680  54.3211840   5.1831640
  60.5556430  55.2215570   5.4900400  59.5382040  54.2729810   4.8926290
  70.1008790  53.4436650   6.6542540  70.9218410  52.9533220   6.6968020
  70.1342870  54.0334310   7.4074380  58.0972840  56.2430850  10.4284230
  58.7782950  56.5069220  11.0471630  57.7820890  55.4031720  10.7622240
  62.2897410  57.2898210   9.5156820  62.7975630  57.7879180  10.1561840
  62.8210650  56.5133410   9.3396180  74.3908340  55.4603400  13.2186170
  73.6860510  55.8485110  12.7001280  74.6566260  56.1553690  13.8207100
  60.5733510  51.9296770  13.7820240  60.5751950  52.4469160  12.9766140
  59.7437820  51.4526950  13.7590170  66.9604600  62.0416080   5.2810140
  66.3421870  62.5065530   4.7172860  67.4727850  62.7343560   5.6979650
  61.8236360  61.5691950  11.9593740  61.4905740  62.1960870  12.6014810
  62.0003040  62.0953830  11.1795410  70.3370270  55.3837030   9.4270080
  69.6325840  55.6721920  10.0073190  70.6982430  56.1937140   9.0669640
  60.2548840  53.6406730  11.7890690  60.5965650  54.4848780  11.4944560
  59.3164650  53.7890470  11.9056030  61.0355460  63.5372750  13.7742920
  61.6529460  64.2123830  13.4927370  60.1748580  63.9460730  13.6830420
  56.3287800  62.7272610   2.6549770  55.9515780  63.2159710   1.9234670
  56.5860870  63.3997890   3.2856300  71.9533050  65.0012160  11.6897560
  71.2696570  65.6711270  11.6814230  72.4927340  65.1992810  10.9242420
  73.4057190  54.8291820   9.8179290  72.4582100  54.8630800   9.9494720
  73.7307180  55.6430770  10.2028650  63.9376730  51.1289000   8.1135280
  64.2451710  50.5735890   7.3970780  63.0077430  51.2633460   7.9308270
  69.4891790  66.8456290  10.4042740  69.5018950  66.4418580   9.5365000
  68.9367010  67.6203580  10.3004170  70.7837210  63.5672510   5.4932910
  70.6733540  62.6246840   5.6182330  70.7805460  63.9288150   6.3795670
  68.8877230  61.7486130  11.7325350  69.3046020  61.5346240  10.8978810
  69.6117050  62.0058920  12.3033970  66.3257490  59.1937830   4.8495400
  65.3986770  59.1275210   5.0783870  66.4782310  60.1317960   4.7350640
  72.8339330  60.1473350  11.8241590  72.0057960  60.2166440  11.3491720
  73.4289810  60.7327660  11.3557420  70.3554780  60.7558130   5.3530650
  69.7367200  60.4177680   4.7056950  70.3379230  60.1117890   6.0609840
  69.7981340  56.9342670  12.7696460  69.3852520  57.7596380  13.0236450
  69.0657290  56.3487710  12.5772820  61.9314130  59.7202570   7.6315130
  61.5271130  59.0079820   7.1361030  62.0177250  59.3755810   8.5203170
  62.3995830  63.4070130   9.7954340  62.1024120  62.8015600   9.1162120
  63.3495650  63.4447440   9.6843700  60.6442750  56.4945780  11.4114170
  61.1957340  56.6041120  10.6367420  61.1586260  56.8683380  12.1269400
  70.4881440  66.9802000  13.4577440  70.0112000  67.7874190  13.2650050
  69.8043230  66.3280330  13.6103650  61.4914260  63.1451820  16.4462140
  60.5942790  63.3691790  16.6935540  61.5167130  63.2686760  15.4973540
  68.5319480  59.9944940   2.3603400  68.9712760  59.1567370   2.2141220
  69.2447900  60.6274340   2.4467540  60.3185480  60.0165140  15.0219510
  60.1793250  60.8887940  15.3906910  59.4366840  59.6737950  14.8767450
  66.6414860  64.9341010   6.3284640  67.0810770  65.6765340   5.9140030
  66.5801750  65.1767580   7.2523600  62.1165830  65.9586840  17.2304660
  62.0881260  66.3629790  16.3633090  61.9530800  65.0297200  17.0676260
  58.6318760  58.6147550   5.1321780  58.5116360  59.3409640   4.5203050
  58.3219650  57.8450460   4.6549690  74.0680650  66.7413940  18.5268830
  74.5440370  67.2196830  19.2057910  74.6887810  66.6731430  17.8014330
  56.2704130  61.7862690  10.9390420  56.3484550  61.9211460   9.9946140
  56.8845810  61.0778580  11.1318540  57.5151760  63.4862880   7.3496600
  57.1079840  63.6277470   6.4950200  58.4064770  63.2023040   7.1467810
  73.4713900  63.9326790  15.6868840  73.5976960  63.6938670  14.7686020
  73.5135280  63.1011330  16.1590920  67.3330640  67.6354790  14.2563650
  67.8475310  67.5462800  15.0586080  66.4899720  67.9814490  14.5491560
  69.3085040  67.9210130   3.6847650  69.1486180  67.6313070   4.5829480
  69.1431750  67.1450260   3.1492880  61.7873420  67.7008660   5.4619270
  61.6115900  66.7844200   5.2487070  60.9329160  68.0595950   5.7017070
  68.5761100  67.0560400   6.3194140  69.0318050  66.2749780   6.6332760
  68.9153620  67.7667220   6.8635320  73.3237910  55.9859250  16.6518580
  72.7082180  56.4938920  16.1234040  73.0034330  55.0857580  16.5944520
  56.3263650  62.8276860  13.4784880  56.4894690  62.3582220  12.6604250
  56.7916100  62.3200420  14.1433720  61.0982420  51.9582620   8.5145450
  60.6550570  52.7392160   8.1829970  61.6567410  52.2812510   9.2216390
  65.3852230  54.8251140  14.1180770  64.9231600  55.0334160  14.9300710
  64.9830340  54.0110490  13.8151440  70.3856740  56.0460090  15.2477430
  69.5350330  55.7465840  15.5686500  70.2258530  56.2902100  14.3361250
  67.4806450  57.5461840  17.3476220  67.8059860  56.7125590  17.0078450
  68.2686780  58.0690360  17.4954550  64.2141240  51.5793320   3.3951280
  63.5895420  51.5753190   4.1204590  64.1271360  50.7124280   2.9987250
  63.1358320  52.5029950  10.3735050  63.4330650  53.4092780  10.2927070
  63.6843880  52.0148730   9.7594620  60.8896640  57.0816190   6.2426700
  60.6637560  56.8653360   7.1473320  60.1089170  57.5144650   5.8972670
  68.1194400  57.0879560   4.8417350  67.5203290  57.8115360   4.6580970
  68.6674010  57.0256340   4.0593800  63.3295850  57.9801770  16.9086970
  63.2339450  57.0396500  16.7587370  64.1727830  58.2016840  16.5135040
  66.7259270  55.7243100   6.8720630  67.1188840  56.0415300   6.0589320
  67.0876120  54.8454980   6.9865150  58.4606390  54.3915440  15.0620750
  58.0669780  55.2390650  15.2693530  57.7724790  53.7541810  15.2529390
  65.0351440  54.4750410  18.1317490  64.3449760  54.2822610  18.7663580
  65.7783740  54.7585050  18.6641790  55.7623440  52.3143900   9.0950830
  55.4736490  52.8846760   9.8075810  56.5069200  51.8348350   9.4582060
  67.3114410  58.3148850  10.9671410  66.5795530  58.8235660  11.3161510
  66.9138750  57.4978830  10.6660190  63.7491800  54.9903050   9.3723900
  63.7527860  54.5493000   8.5228440  64.6442920  55.3120380   9.4795720
  59.5994180  54.8729540   8.3318110  59.2594230  55.3504770   9.0885160
  58.8371500  54.4194660   7.9719210  63.8111950  55.9915130   2.3630660
  63.9324770  55.9501610   3.3116480  63.4260460  56.8539280   2.2077390
  67.7740320  53.7682530  10.3794350  67.7913060  54.2191180  11.2236200
  67.5255900  52.8688170  10.5927790  71.2011070  51.1814710  16.2180730
  71.5256840  50.4504370  16.7438710  71.2367580  50.8628350  15.3161720
  57.9002630  62.2028290  15.6380690  57.5157420  61.5621960  16.2363650
  58.2114820  62.9064410  16.2075420  64.0499770  59.0504830  11.1189310
  64.4169900  58.5763400  11.8650650  63.8604830  59.9246400  11.4597650
  56.9140260  53.7948520   7.2482780  56.6287180  53.4304190   8.0861400
  56.8519120  53.0628980   6.6345920  61.8399140  58.0913470  13.4373520
  61.5356210  58.9705450  13.6623880  62.7945600  58.1513260  13.4730960
  60.3680930  62.2974460   4.0340370  59.5943190  61.7572080   3.8739090
  61.0975560  61.7781070   3.6958130  71.1268910  61.2939820   9.8266760
  71.8468030  61.7895110   9.4362870  70.9250730  60.6157710   9.1820630
  66.5878850  52.6877780   3.9696150  65.7743460  52.1890950   3.8941460
  66.3940800  53.5276030   3.5532500  66.5087710  61.3648880  15.7135760
  66.4425020  60.4444550  15.4593350  65.8792850  61.4624320  16.4280400
  69.3027240  57.0597430   2.2658310  70.1906860  57.3714660   2.0909650
  69.2732330  56.1869680   1.8738890  60.4118330  61.9654840   7.6719180
  60.9297000  61.1623100   7.6176070  59.9602350  61.9033980   8.5136010
  65.2987830  63.2321120   2.9446480  65.6403530  63.9763350   2.4489800
  64.4700540  63.5452240   3.3071310  57.8962870  58.9316210  14.5844880
  57.5377810  59.5970060  15.1718220  57.6017430  58.0999760  14.9557500
  61.0975990  59.3900450  17.4684430  60.7976130  59.5357630  16.5712250
  61.8687230  58.8305740  17.3757820  66.4404440  64.1869450  15.4639560
  66.4548980  63.2550410  15.2458470  65.7329540  64.2729210  16.1029330
  72.6515650  60.8276790  14.8108140  71.9263840  61.4205570  14.6137530
  73.1791110  60.8200330  14.0121510  72.6028760  65.2251530   4.4620300
  71.9604920  64.5707150   4.7364020  72.2159420  65.6306620   3.6860970
  68.1815240  62.5536960   8.3091990  68.5339060  61.9565090   7.6493360
  67.2977570  62.2281190   8.4800240  64.2678520  63.3134650   5.7162400
  64.9549650  63.8603860   6.0969990  63.4810940  63.8575380   5.7512010
  63.5705730  60.3180680   5.3287760  64.0268510  61.1285930   5.5547950
  63.2193940  60.0003820   6.1606250  65.8738340  65.8287020  12.5580060
  66.5180560  66.0346400  13.2353480  66.2367780  65.0675420  12.1050910
  59.4717510  50.6618330   5.8010280  59.3432140  50.6536230   6.7495200
  58.6479530  51.0001420   5.4501290  67.1470420  63.8319370  11.2757510
  67.7892650  63.1312530  11.3889680  67.6719770  64.6117810  11.0954400
  68.9208040  64.6314270  14.4793570  69.2564280  65.2180960  15.1571490
  68.0008380  64.5006980  14.7091360  56.4711440  52.4209450  15.2616980
  55.7569960  52.6206370  15.8669590  56.8906480  51.6449020  15.6331780
  70.5742390  62.0339930   2.6610810  70.2864090  62.4952620   3.4488690
  71.3694560  61.5737700   2.9295030  56.7584030  66.4089710  16.2483510
  56.8675150  65.4684450  16.1078900  56.1064590  66.6744460  15.5997240
  64.7496620  64.6805600  17.6481630  64.4293490  63.9614840  18.1927320
  64.0754980  65.3560670  17.7217690  62.7910790  65.5266050   2.5914780
  62.7820890  66.2595740   1.9759290  61.8709150  65.2797630   2.6841740
  58.3917430  60.7480940   3.3361540  57.7845380  61.4879840   3.3456840
  58.8666780  60.8380300   2.5099740  67.9650220  54.9131760  13.0118430
  68.3331040  54.0926970  13.3398000  67.1048420  54.9733650  13.4274080
  71.3312250  53.8688700   3.8205990  70.7025410  53.9734370   3.1064220
  70.8364170  54.0885480   4.6099870  63.2996280  56.1474650   5.2363870
  62.5912430  56.6160990   5.6777480  63.5840760  55.4896660   5.8709060
  64.9252210  57.5671350  13.2356400  65.4237460  58.0417170  13.9008250
  65.0675160  56.6434870  13.4426430  67.3311710  52.8725310   6.6759660
  67.2079490  52.8911440   5.7269170  68.2796270  52.9204250   6.7958060
  64.4188500  68.1080610   5.9487640  64.6730000  68.0702000   5.0267010
  63.4700980  67.9813940   5.9415890  61.5031300  54.4559730   2.6114580
  62.3521830  54.8929880   2.5454770  61.1362570  54.7679990   3.4386640
  72.1319070  53.7839310  14.0784790  71.6292670  54.5244710  14.4178600
  72.9475730  54.1723310  13.7621580  70.4241080  59.0272490   7.5246150
  69.4831220  59.0422720   7.6993840  70.7385150  58.2408450   7.9706450
  59.0969480  58.1417160   1.7683000  59.1773070  57.1944670   1.8800400
  59.9889230  58.4724040   1.8743660  72.4266660  66.1981340   9.2000410
  72.5514080  67.0212510   9.6724220  73.2932220  65.9872070   8.8524560
  59.8984190  68.2912550   8.8717540  60.6346670  67.7428010   9.1426110
  60.2825110  69.1568560   8.7323530  56.7829670  64.3586120   4.7459050
  55.8569450  64.6007260   4.7364460  57.2486100  65.1860380   4.6243800
  58.9042470  67.4758620  18.0603120  59.7055200  67.7970670  18.4738520
  58.3894290  67.1154200  18.7823030  67.7407100  63.5838490  18.0078530
  67.1345260  63.6070090  17.2674280  67.4361210  62.8521530  18.5445780
  69.1707470  67.3118780  16.6187940  70.1229220  67.2276800  16.5688180
  69.0235690  67.9760490  17.2921730  56.6240280  59.9632080  17.0039170
  57.1279300  59.3839360  17.5755400  55.8847700  60.2472310  17.5415540
  63.6778220  61.3703070  16.5374690  62.9123890  61.9388070  16.4529360
  63.8594180  61.0779280  15.6442920  70.8201570  63.1008400  17.0949710
  71.5611040  63.4384160  16.5917170  70.0574250  63.2700460  16.5419480
  58.6563360  58.1061670  17.8989240  58.6968700  57.8075540  18.8074470
  59.5108860  58.5069280  17.7396760  62.4341750  60.7057220   3.0592750
  62.8558170  60.5397090   3.9024140  62.5592590  59.8957450   2.5647890
  60.5969170  56.6853770  15.8663730  60.0665630  56.1944720  15.2387070
  61.2657240  57.1137970  15.3321660  69.4947230  61.1523230  15.6304920
  69.9088250  61.3068310  16.4795340  68.5598230  61.2778450  15.7930700
  69.9669400  58.4919390  17.6344070  70.5490170  57.7371710  17.5464550
  70.1431170  59.0226830  16.8575550  61.0841470  53.6516140  15.9461020
  60.9898340  53.0336890  15.2211890  60.5038860  54.3782430  15.7190930
  63.8502910  52.2089380  12.9788410  63.4020210  52.2313640  12.1333960
  63.2168110  51.8108400  13.5758710  64.2562460  61.1043710  13.6000850
  64.6750570  61.9476440  13.4277090  63.3371090  61.2415750  13.3707630
  66.5926360  58.8359890  14.9838690  66.7122570  58.2401030  15.7233530
  67.4520360  58.8729580  14.5639990  68.9314260  59.3897080  13.5601200
  68.4049480  59.9139700  12.9566340  69.2745600  60.0224470  14.1910930
  62.1069880  67.4096720  14.7158580  61.5690970  68.1342780  14.3967280
  62.3603840  66.9327060  13.9255920  63.3595130  55.3781240  16.2414510
  63.9494820  55.0697090  16.9292330  62.5415370  54.9060990  16.3974410
  68.1788560  54.9947050  16.4747530  67.4904080  54.3328590  16.4097520
  68.8994580  54.5485320  16.9195990  68.8088960  51.5898680   2.5337790
  69.0891250  50.7466580   2.8897210  68.0354690  51.8221790   3.0476540
  64.9632090  68.6447930  14.9745230  64.8890790  69.5483070  15.2817600
  64.0610930  68.3259830  14.9467300  65.5117420  67.8106440   2.5971590
  66.4068210  68.1491410   2.6190350  65.5435050  67.0885850   1.9695870
  56.3659380  65.9722520   8.2778850  56.6962390  65.1043580   8.0457490
  56.7950380  66.1781040   9.1083810  60.9621300  64.3031530   5.9380820
  60.6616840  64.1796500   6.8384730  60.8558790  63.4440120   5.5296550
  56.8549590  66.8393110  11.0160480  56.4180580  67.0193910  11.8484630
  57.4227270  67.5967730  10.8742200  72.4911770  66.3410110  15.3037790
  71.8913760  66.4002670  14.5601710  72.6205670  65.4015090  15.4334640
  73.1869680  60.8275410   3.1441700  73.9488590  61.3972060   3.2501390
  73.2024050  60.2602610   3.9150010  56.6874020  59.3513340   7.3749360
  56.0322860  59.0824980   6.7309060  57.5251970  59.2417820   6.9251340
  74.1929650  61.6825510   7.9883630  74.5638480  60.8992830   7.5819600
  74.8331580  62.3714610   7.8100930  71.1763410  63.0662090  13.4013950
  70.3623250  63.4959250  13.6639740  71.5837610  63.6780500  12.7883000
  73.1354190  59.0578770   5.2943650  72.7597790  58.2906700   4.8624940
  72.4057310  59.4401470   5.7818580  57.7249950  59.7365910  11.9152700
  58.0922990  59.6493310  12.7948720  57.1560770  58.9732460  11.8159560
  72.5253810  58.2050290  14.9283170  72.2939900  57.9763040  14.0281120
  72.7858360  59.1249840  14.8828060  57.2765950  56.6475000  15.8211120
  56.3822000  56.6141760  16.1604830  57.8163500  56.8461790  16.5862370
  70.9641880  53.4306720  17.7062870  71.8412060  53.4390120  18.0896870
  70.9762720  52.6937560  17.0955220  55.9012100  56.5612270   3.3174690
  54.9976180  56.8242470   3.1426350  56.3852720  56.8323440   2.5374650
  72.4105150  57.2836260   8.5950890  72.9342630  56.7898910   7.9641060
  72.9964570  57.4186620   9.3398460  72.5894870  57.3676130  12.1170440
  71.6397580  57.3339670  12.2315430  72.7707880  58.2776240  11.8820210
  71.9005120  56.5409610   4.5343300  72.3964240  56.3080480   5.3192180
  71.7021190  55.7021450   4.1180940  57.7805660  50.9223330  10.1694340
  58.4281850  50.3720710   9.7289500  58.2007500  51.1766480  10.9910150
  73.3292280  55.1770560   7.0680980  73.2191560  55.0226600   8.0063250
  74.0899870  54.6491500   6.8256390  71.6758000  51.1164690  13.5263980
  72.3130220  51.7298830  13.8923170  71.8232890  51.1525350  12.5813210
  74.2921040  53.7789140   2.9343830  73.4972540  53.7134260   3.4636740
  74.4964320  54.7139780   2.9229180  71.2339460  67.8180690   6.9282220
  71.8298530  67.4965260   6.2516640  71.4917610  67.3452510   7.7195490
  57.5337660  51.0779000  12.9119660  57.1852480  51.5342820  13.6777840
  57.2025360  50.1836130  12.9942090  59.1402030  64.2498600  17.0772850
  59.0971660  63.8791510  17.9587310  59.2713040  65.1876170  17.2174670
  62.8408060  65.8058190  12.6782570  62.5999420  66.0732750  11.7913090
  63.7810700  65.9763920  12.7333430  65.0462480  52.2690880  16.4339080
  64.9851370  52.8612710  17.1834490  65.9862860  52.1616840  16.2889340
  67.6837040  51.9260940  16.0731370  68.2977450  52.2440230  15.4112450
  68.2286600  51.4409530  16.6927230  74.1012220  67.8252570  13.4793210
  73.6070500  68.2221440  12.7620340  73.4925510  67.2001780  13.8730490
  58.2058300  50.6055200  16.1870430  58.7541290  50.4243250  15.4236540
  58.2713610  49.8149310  16.7226740  58.9790060  67.1960850  14.1970630
  58.3850380  67.0645550  14.9360670  58.9713900  66.3598990  13.7312730
  68.4245080  50.4893080  12.4000660  67.5504920  50.8228190  12.1973590
  68.3155830  50.0166260  13.2252530  69.3317060  52.6963950  13.7842380
  69.0030420  51.8815710  13.4044110  70.2799360  52.6533760  13.6608070
  71.7851670  68.4675990  10.7579950  71.3254640  69.2191800  10.3837970
  71.1564130  67.7482460  10.6994750  58.6102290  64.5619230  13.1478670
  57.8836350  63.9424520  13.0804620  58.6711440  64.9559840  12.2776750
  62.2147390  66.7764230   9.9328080  62.7312410  66.1651590   9.4076340
  62.8644770  67.2793010  10.4239090  64.9542890  67.6672720  10.7597060
  65.2420700  67.4127020   9.8830070  65.4666110  67.1150080  11.3502630
  66.1719900  51.4062920  11.3393570  65.3891690  51.8808420  11.6190330
  65.8782830  50.5017750  11.2306750  70.7240970  52.1086020   9.3842660
  71.1649060  52.0531120   8.5364260  70.4548560  53.0244030   9.4552840
  72.5879540  51.7401260   7.3951480  72.5267940  50.7962480   7.2482500
  73.3671570  51.8481350   7.9404940  56.8932290  67.8793620   6.3575430
  56.7254330  67.2464300   7.0557320  56.0266800  68.0853020   6.0069620
  57.5160310  51.7110400   3.8607290  58.2739670  51.8239280   3.2871320
  57.0537480  52.5479600   3.8150720  64.0574120  53.8249670   6.8509600
  63.2448630  53.4506560   6.5105480  64.5615760  53.0694750   7.1530790
  68.5599100  50.4892120   8.0892670  69.1628470  51.0612330   8.5641190
  67.8192090  51.0531560   7.8666570  71.7033700  50.8913680   3.3632950
  71.8984330  51.7897130   3.6300380  70.9163570  50.6600760   3.8565900
  58.4994990  66.5726850   3.8025570  57.9742610  66.9534880   3.0987530
  58.4239570  67.1977620   4.5235280  59.8885460  52.2374450   2.4009260
  60.4178220  51.4504250   2.2717210  60.5213780  52.9165640   2.6344790
  62.0823300  51.9749590   5.4554650  61.4526040  51.2736900   5.6224780
  61.5428440  52.7353720   5.2387810  65.0215250  68.5888820  18.1265260
  65.9482560  68.3533090  18.1701220  65.0065680  69.4160820  17.6451290
  73.2560310  68.1314390   5.1239510  73.4312500  67.4452130   4.4800430
  72.5581880  68.6561440   4.7316180  62.2078860  51.2533570  17.8907140
  61.9263130  51.7567170  17.1267960  62.5898560  50.4555320  17.5249270
  61.0987960  68.5209230   2.6774820  61.8306780  68.2368510   2.1298710
  61.3581630  68.2822510   3.5674200  60.2602750  64.6373960   2.6821150
  59.6311630  65.1059060   3.2306980  60.3750580  63.7923180   3.1167340
  68.8094320  50.6687150  18.4687610  68.6959770  50.9881760  19.3639130
  69.6264060  51.0699660  18.1724890  71.5892810  67.8158680  17.9506300
  72.3818130  67.3207910  17.7432260  71.8825960  68.4948820  18.5581910
  67.7152470  39.9136130  63.9296310  67.6346520  38.9990740  63.6588020
  67.3016890  40.4103200  63.2236020  65.8470510  41.6915150  65.8105580
  65.0712610  41.2115590  66.1004150  66.4983440  41.0120800  65.6361740
  59.8636340  42.0034960  66.6881340  59.0321220  41.7483670  67.0877850
  60.4717320  42.0745730  67.4239260  69.8677940  46.0975340  64.5904710
  69.4059470  45.3262580  64.9191880  70.6803490  46.1241410  65.0957160
  59.8437600  46.0375050  66.8839360  60.1465640  45.1472790  66.7049580
  60.5881190  46.5945270  66.6561610  58.2728290  36.9636850  60.4723730
  57.3844990  37.3052820  60.3703610  58.5569480  36.7637170  59.5804560
  56.2361300  39.5642500  66.3563430  56.8077410  38.7964700  66.3567070
  56.2362840  39.8631260  65.4470040  66.0941250  48.3833350  64.2108700
  65.4752690  48.8390850  63.6403140  66.9493030  48.5384810  63.8098400
  65.2879500  44.3672340  65.8175740  65.2187780  43.4262280  65.6564870
  66.0499360  44.4573750  66.3898310  57.4786170  34.9726860  68.1432360
  57.2989010  34.0752610  68.4235120  57.0766250  35.5198730  68.8179310
  66.3184670  37.1742720  66.0444670  66.6949490  36.3014600  65.9318340
  66.2204180  37.5101420  65.1535110  60.4489680  35.5468350  61.5062110
  60.5556430  36.4472080  61.8130870  59.5382040  35.4986320  61.2156760
  70.1008790  34.6693160  62.9773010  70.9218410  34.1789730  63.0198490
  70.1342870  35.2590820  63.7304850  58.0972840  37.4687360  66.7514700
  58.7782950  37.7325730  67.3702100  57.7820890  36.6288230  67.0852710
  62.2897410  38.5154720  65.8387290  62.7975630  39.0135690  66.4792310
  62.8210650  37.7389920  65.6626650  74.3908340  36.6859910  69.5416640
  73.6860510  37.0741620  69.0231750  74.6566260  37.3810200  70.1437570
  60.5733510  33.1553280  70.1050710  60.5751950  33.6725670  69.2996610
  59.7437820  32.6783460  70.0820640  66.9604600  43.2672590  61.6040610
  66.3421870  43.7322040  61.0403330  67.4727850  43.9600070  62.0210120
  61.8236360  42.7948460  68.2824210  61.4905740  43.4217380  68.9245280
  62.0003040  43.3210340  67.5025880  70.3370270  36.6093540  65.7500550
  69.6325840  36.8978430  66.3303660  70.6982430  37.4193650  65.3900110
  60.2548840  34.8663240  68.1121160  60.5965650  35.7105290  67.8175030
  59.3164650  35.0146980  68.2286500  61.0355460  44.7629260  70.0973390
  61.6529460  45.4380340  69.8157840  60.1748580  45.1717240  70.0060890
  56.3287800  43.9529120  58.9780240  55.9515780  44.4416220  58.2465140
  56.5860870  44.6254400  59.6086770  71.9533050  46.2268670  68.0128030
  71.2696570  46.8967780  68.0044700  72.4927340  46.4249320  67.2472890
  73.4057190  36.0548330  66.1409760  72.4582100  36.0887310  66.2725190
  73.7307180  36.8687280  66.5259120  63.9376730  32.3545510  64.4365750
  64.2451710  31.7992400  63.7201250  63.0077430  32.4889970  64.2538740
  69.4891790  48.0712800  66.7273210  69.5018950  47.6675090  65.8595470
  68.9367010  48.8460090  66.6234640  70.7837210  44.7929020  61.8163380
  70.6733540  43.8503350  61.9412800  70.7805460  45.1544660  62.7026140
  68.8877230  42.9742640  68.0555820  69.3046020  42.7602750  67.2209280
  69.6117050  43.2315430  68.6264440  66.3257490  40.4194340  61.1725870
  65.3986770  40.3531720  61.4014340  66.4782310  41.3574470  61.0581110
  66.3126570  36.6911340  58.1693030  65.3730240  36.8525300  58.2545490
  66.6309830  37.4097020  57.6229020  72.8339330  41.3729860  68.1472060
  72.0057960  41.4422950  67.6722190  73.4289810  41.9584170  67.6787890
  70.3554780  41.9814640  61.6761120  69.7367200  41.6434190  61.0287420
  70.3379230  41.3374400  62.3840310  69.7981340  38.1599180  69.0926930
  69.3852520  38.9852890  69.3466920  69.0657290  37.5744220  68.9003290
  61.9314130  40.9459080  63.9545600  61.5271130  40.2336330  63.4591500
  62.0177250  40.6012320  64.8433640  62.3995830  44.6326640  66.1184810
  62.1024120  44.0272110  65.4392590  63.3495650  44.6703950  66.0074170
  60.6442750  37.7202290  67.7344640  61.1957340  37.8297630  66.9597890
  61.1586260  38.0939890  68.4499870  70.4881440  48.2058510  69.7807910
  70.0112000  49.0130700  69.5880520  69.8043230  47.5536840  69.9334120
  68.5319480  41.2201450  58.6833870  68.9712760  40.3823880  58.5371690
  69.2447900  41.8530850  58.7698010  60.3185480  41.2421650  71.3449980
  60.1793250  42.1144450  71.7137380  59.4366840  40.8994460  71.1997920
  66.6414860  46.1597520  62.6515110  67.0810770  46.9021850  62.2370500
  66.5801750  46.4024090  63.5754070  72.1136620  32.4744260  56.9974910
  71.8009280  32.5671090  57.8973980  72.8749090  33.0525290  56.9472340
  58.6318760  39.8404060  61.4552250  58.5116360  40.5666150  60.8433520
  58.3219650  39.0706970  60.9780160  56.2704130  43.0119200  67.2620890
  56.3484550  43.1467970  66.3176610  56.8845810  42.3035090  67.4549010
  57.5151760  44.7119390  63.6727070  57.1079840  44.8533980  62.8180670
  58.4064770  44.4279550  63.4698280  73.4713900  45.1583300  72.0099310
  73.5976960  44.9195180  71.0916490  73.5135280  44.3267840  72.4821390
  67.3330640  48.8611300  70.5794120  67.8475310  48.7719310  71.3816550
  66.4899720  49.2071000  70.8722030  69.3085040  49.1466640  60.0078120
  69.1486180  48.8569580  60.9059950  69.1431750  48.3706770  59.4723350
  61.7873420  48.9265170  61.7849740  61.6115900  48.0100710  61.5717540
  60.9329160  49.2852460  62.0247540  69.0111170  46.6554200  58.5676120
  68.3176330  46.6531490  57.9078400  69.7534030  46.2313520  58.1370290
  68.5761100  48.2816910  62.6424610  69.0318050  47.5006290  62.9563230
  68.9153620  48.9923730  63.1865790  73.3237910  37.2115760  72.9749050
  72.7082180  37.7195430  72.4464510  73.0034330  36.3114090  72.9174990
  56.3263650  44.0533370  69.8015350  56.4894690  43.5838730  68.9834720
  56.7916100  43.5456930  70.4664190  61.0982420  33.1839130  64.8375920
  60.6550570  33.9648670  64.5060440  61.6567410  33.5069020  65.5446860
  65.3852230  36.0507650  70.4411240  64.9231600  36.2590670  71.2531180
  64.9830340  35.2367000  70.1381910  70.3856740  37.2716600  71.5707900
  69.5350330  36.9722350  71.8916970  70.2258530  37.5158610  70.6591720
  64.2141240  32.8049830  59.7181750  63.5895420  32.8009700  60.4435060
  64.1271360  31.9380790  59.3217720  63.1358320  33.7286460  66.6965520
  63.4330650  34.6349290  66.6157540  63.6843880  33.2405240  66.0825090
  60.8896640  38.3072700  62.5657170  60.6637560  38.0909870  63.4703790
  60.1089170  38.7401160  62.2203140  68.1194400  38.3136070  61.1647820
  67.5203290  39.0371870  60.9811440  68.6674010  38.2512850  60.3824270
  66.7259270  36.9499610  63.1951100  67.1188840  37.2671810  62.3819790
  67.0876120  36.0711490  63.3095620  58.4606390  35.6171950  71.3851220
  58.0669780  36.4647160  71.5924000  57.7724790  34.9798320  71.5759860
  55.7623440  33.5400410  65.4181300  55.4736490  34.1103270  66.1306280
  56.5069200  33.0604860  65.7812530  55.9493670  37.4820530  56.6284020
  55.8668340  38.4251290  56.7699010  55.5976730  37.3395440  55.7496370
  67.3114410  39.5405360  67.2901880  66.5795530  40.0492170  67.6391980
  66.9138750  38.7235340  66.9890660  63.7491800  36.2159560  65.6954370
  63.7527860  35.7749510  64.8458910  64.6442920  36.5376890  65.8026190
  59.5994180  36.0986050  64.6548580  59.2594230  36.5761280  65.4115630
  58.8371500  35.6451170  64.2949680  63.8111950  37.2171640  58.6861130
  63.9324770  37.1758120  59.6346950  63.4260460  38.0795790  58.5307860
  67.7740320  34.9939040  66.7024820  67.7913060  35.4447690  67.5466670
  67.5255900  34.0944680  66.9158260  62.8233450  39.5272780  58.0844430
  62.2550350  39.0791030  57.4580340  63.5322450  39.8865560  57.5509580
  57.9002630  43.4284800  71.9611160  57.5157420  42.7878470  72.5594120
  58.2114820  44.1320920  72.5305890  64.0499770  40.2761340  67.4419780
  64.4169900  39.8019910  68.1881120  63.8604830  41.1502910  67.7828120
  56.9140260  35.0205030  63.5713250  56.6287180  34.6560700  64.4091870
  56.8519120  34.2885490  62.9576390  61.8399140  39.3169980  69.7603990
  61.5356210  40.1961960  69.9854350  62.7945600  39.3769770  69.7961430
  60.3680930  43.5230970  60.3570840  59.5943190  42.9828590  60.1969560
  61.0975560  43.0037580  60.0188600  71.1268910  42.5196330  66.1497230
  71.8468030  43.0151620  65.7593340  70.9250730  41.8414220  65.5051100
  66.5878850  33.9134290  60.2926620  65.7743460  33.4147460  60.2171930
  66.3940800  34.7532540  59.8762970  66.5087710  42.5905390  72.0366230
  66.4425020  41.6701060  71.7823820  65.8792850  42.6880830  72.7510870
  69.3027240  38.2853940  58.5888780  70.1906860  38.5971170  58.4140120
  69.2732330  37.4126190  58.1969360  60.4118330  43.1911350  63.9949650
  60.9297000  42.3879610  63.9406540  59.9602350  43.1290490  64.8366480
  65.2987830  44.4577630  59.2676950  65.6403530  45.2019860  58.7720270
  64.4700540  44.7708750  59.6301780  57.8962870  40.1572720  70.9075350
  57.5377810  40.8226570  71.4948690  57.6017430  39.3256270  71.2787970
  66.4404440  45.4125960  71.7870030  66.4548980  44.4806920  71.5688940
  65.7329540  45.4985720  72.4259800  71.5741510  39.5965780  58.0568640
  71.4905230  40.0280000  57.2065080  72.2935700  40.0564130  58.4895460
  72.6515650  42.0533300  71.1338610  71.9263840  42.6462080  70.9368000
  73.1791110  42.0456840  70.3351980  72.6028760  46.4508040  60.7850770
  71.9604920  45.7963660  61.0594490  72.2159420  46.8563130  60.0091440
  68.1815240  43.7793470  64.6322460  68.5339060  43.1821600  63.9723830
  67.2977570  43.4537700  64.8030710  64.2678520  44.5391160  62.0392870
  64.9549650  45.0860370  62.4200460  63.4810940  45.0831890  62.0742480
  56.4070920  40.1563980  57.5309950  57.2765770  40.4388780  57.8145870
  55.9161240  40.9699850  57.4158760  63.5705730  41.5437190  61.6518230
  64.0268510  42.3542440  61.8778420  63.2193940  41.2260330  62.4836720
  65.8738340  47.0543530  68.8810530  66.5180560  47.2602910  69.5583950
  66.2367780  46.2931930  68.4281380  59.4717510  31.8874840  62.1240750
  59.3432140  31.8792740  63.0725670  58.6479530  32.2257930  61.7731760
  67.1470420  45.0575880  67.5987980  67.7892650  44.3569040  67.7120150
  67.6719770  45.8374320  67.4184870  70.9926140  45.3424500  57.3227120
  70.7663720  44.6254940  57.9151760  70.6022340  45.0936940  56.4848870
  68.9208040  45.8570780  70.8024040  69.2564280  46.4437470  71.4801960
  68.0008380  45.7263490  71.0321830  56.7742170  49.3691360  58.0971580
  57.1339810  49.9680700  57.4428850  56.6334510  49.9151250  58.8706610
  56.4711440  33.6465960  71.5847450  55.7569960  33.8462880  72.1900060
  56.8906480  32.8705530  71.9562250  70.5742390  43.2596440  58.9841280
  70.2864090  43.7209130  59.7719160  71.3694560  42.7994210  59.2525500
  56.7584030  47.6346220  72.5713980  56.8675150  46.6940960  72.4309370
  56.1064590  47.9000970  71.9227710  62.7910790  46.7522560  58.9145250
  62.7820890  47.4852250  58.2989760  61.8709150  46.5054140  59.0072210
  58.3917430  41.9737450  59.6592010  57.7845380  42.7136350  59.6687310
  58.8666780  42.0636810  58.8330210  67.9650220  36.1388270  69.3348900
  68.3331040  35.3183480  69.6628470  67.1048420  36.1990160  69.7504550
  71.3312250  35.0945210  60.1436460  70.7025410  35.1990880  59.4294690
  70.8364170  35.3141990  60.9330340  65.7770390  46.8150800  57.5770440
  65.8782370  46.6114790  56.6472420  64.8772130  46.5609080  57.7818220
  63.2996280  37.3731160  61.5594340  62.5912430  37.8417500  62.0007950
  63.5840760  36.7153170  62.1939530  64.9252210  38.7927860  69.5586870
  65.4237460  39.2673680  70.2238720  65.0675160  37.8691380  69.7656900
  67.3311710  34.0981820  62.9990130  67.2079490  34.1167950  62.0499640
  68.2796270  34.1460760  63.1188530  64.4188500  49.3337120  62.2718110
  64.6730000  49.2958510  61.3497480  63.4700980  49.2070450  62.2646360
  61.5031300  35.6816240  58.9345050  62.3521830  36.1186390  58.8685240
  61.1362570  35.9936500  59.7617110  72.1319070  35.0095820  70.4015260
  71.6292670  35.7501220  70.7409070  72.9475730  35.3979820  70.0852050
  70.4241080  40.2529000  63.8476620  69.4831220  40.2679230  64.0224310
  70.7385150  39.4664960  64.2936920  60.4022720  41.9348600  57.4080580
  61.1685990  41.8229960  57.9706010  60.4797410  41.2386570  56.7557350
  59.0969480  39.3673670  58.0913470  59.1773070  38.4201180  58.2030870
  59.9889230  39.6980550  58.1974130  72.4266660  47.4237850  65.5230880
  72.5514080  48.2469020  65.9954690  73.2932220  47.2128580  65.1755030
  59.8984190  49.5169060  65.1948010  60.6346670  48.9684520  65.4656580
  60.2825110  50.3825070  65.0554000  56.7829670  45.5842630  61.0689520
  55.8569450  45.8263770  61.0594930  57.2486100  46.4116890  60.9474270
  63.0086500  48.6899370  57.0173580  63.8015110  48.9788200  56.5655370
  62.4890850  48.2591540  56.3386060  72.0616670  47.9169500  58.4410320
  71.7758180  47.5034640  57.6264500  71.8636220  48.8457210  58.3210840
  63.5263900  43.9102780  56.8815930  63.4214540  43.2955130  57.6077310
  63.3588120  43.3868670  56.0978940  63.6778220  42.5959580  72.8605160
  62.9123890  43.1644580  72.7759830  63.8594180  42.3035790  71.9673390
  66.7666630  42.9722810  57.4857920  66.2176730  43.4192110  58.1300660
  67.3885890  42.4672060  58.0095590  62.4341750  41.9313730  59.3823220
  62.8558170  41.7653600  60.2254610  62.5592590  41.1213960  58.8878360
  60.5969170  37.9110280  72.1894200  60.0665630  37.4201230  71.5617540
  61.2657240  38.3394480  71.6552130  64.9469390  40.9551340  56.6300320
  65.4675050  40.2400360  56.2641470  65.5937790  41.5937210  56.9300830
  69.4947230  42.3779740  71.9535390  69.9088250  42.5324820  72.8025810
  68.5598230  42.5034960  72.1161170  61.0841470  34.8772650  72.2691490
  60.9898340  34.2593400  71.5442360  60.5038860  35.6038940  72.0421400
  63.8502910  33.4345890  69.3018880  63.4020210  33.4570150  68.4564430
  63.2168110  33.0364910  69.8989180  64.2562460  42.3300220  69.9231320
  64.6750570  43.1732950  69.7507560  63.3371090  42.4672260  69.6938100
  66.5926360  40.0616400  71.3069160  66.7122570  39.4657540  72.0464000
  67.4520360  40.0986090  70.8870460  68.9314260  40.6153590  69.8831670
  68.4049480  41.1396210  69.2796810  69.2745600  41.2480980  70.5141400
  61.3300650  38.0046960  56.3281380  61.1289710  37.1414320  56.6894720
  61.1592700  37.9180320  55.3902980  62.1069880  48.6353230  71.0389050
  61.5690970  49.3599290  70.7197750  62.3603840  48.1583570  70.2486390
  68.8088960  32.8155190  58.8568260  69.0891250  31.9723090  59.2127680
  68.0354690  33.0478300  59.3707010  60.1283450  35.1047580  56.3159260
  60.4309350  35.1115010  55.4078410  60.8678040  34.7545440  56.8126920
  64.9632090  49.8704440  71.2975700  64.8890790  50.7739580  71.6048070
  64.0610930  49.5516340  71.2697770  63.3468380  34.0482200  57.3015460
  62.9990380  33.3706190  56.7217910  63.5481150  33.5871710  58.1158850
  65.5117420  49.0362950  58.9202060  66.4068210  49.3747920  58.9420820
  65.5435050  48.3142360  58.2926340  59.1513580  44.4090000  57.1489060
  59.5888450  44.9519670  57.8046640  59.6361310  43.5836950  57.1585400
  56.3659380  47.1979030  64.6009320  56.6962390  46.3300090  64.3687960
  56.7950380  47.4037550  65.4314280  60.9621300  45.5288040  62.2611290
  60.6616840  45.4053010  63.1615200  60.8558790  44.6696630  61.8527020
  56.8549590  48.0649620  67.3390950  56.4180580  48.2450420  68.1715100
  57.4227270  48.8224240  67.1972670  72.4911770  47.5666620  71.6268260
  71.8913760  47.6259180  70.8832180  72.6205670  46.6271600  71.7565110
  73.7313220  45.3084440  56.9637970  72.9006180  45.3761090  57.4345200
  73.9085050  46.1988560  56.6604830  73.1869680  42.0531920  59.4672170
  73.9488590  42.6228570  59.5731860  73.2024050  41.4859120  60.2380480
  56.6874020  40.5769850  63.6979830  56.0322860  40.3081490  63.0539530
  57.5251970  40.4674330  63.2481810  74.1929650  42.9082020  64.3114100
  74.5638480  42.1249340  63.9050070  74.8331580  43.5971120  64.1331400
  71.1763410  44.2918600  69.7244420  70.3623250  44.7215760  69.9870210
  71.5837610  44.9037010  69.1113470  73.2388850  42.3466290  56.6244690
  73.5137690  43.2545170  56.4963910  73.0499590  42.2828820  57.5606680
  69.6364460  35.3711140  57.9198320  70.0549340  35.1842120  57.0794980
  69.3300520  34.5190190  58.2301250  73.1354190  40.2835280  61.6174120
  72.7597790  39.5163210  61.1855410  72.4057310  40.6657980  62.1049050
  57.7249950  40.9622420  68.2383170  58.0922990  40.8749820  69.1179190
  57.1560770  40.1988970  68.1390030  72.5253810  39.4306800  71.2513640
  72.2939900  39.2019550  70.3511590  72.7858360  40.3506350  71.2058530
  57.2765950  37.8731510  72.1441590  56.3822000  37.8398270  72.4835300
  57.8163500  38.0718300  72.9092840  55.9012100  37.7868780  59.6405160
  54.9976180  38.0498980  59.4656820  56.3852720  38.0579950  58.8605120
  72.4105150  38.5092770  64.9181360  72.9342630  38.0155420  64.2871530
  72.9964570  38.6443130  65.6628930  72.5894870  38.5932640  68.4400910
  71.6397580  38.5596180  68.5545900  72.7707880  39.5032750  68.2050680
  58.4439310  36.8434320  57.5499540  59.1531010  36.4217540  57.0646820
  57.7279250  36.9109550  56.9182890  58.0913470  32.8973650  56.5902190
  58.8141600  33.4382590  56.9083410  58.3637990  32.6237070  55.7143730
  71.9005120  37.7666120  60.8573770  72.3964240  37.5336990  61.6422650
  71.7021190  36.9277960  60.4411410  57.7805660  32.1479840  66.4924810
  58.4281850  31.5977220  66.0519970  58.2007500  32.4022990  67.3140620
  73.3292280  36.4027070  63.3911450  73.2191560  36.2483110  64.3293720
  74.0899870  35.8748010  63.1486860  71.6758000  32.3421200  69.8494450
  72.3130220  32.9555340  70.2153640  71.8232890  32.3781860  68.9043680
  74.2182550  34.2334990  56.6317590  75.1431860  34.1016170  56.4235880
  74.1958340  34.3127810  57.5854040  74.2921040  35.0045650  59.2574300
  73.4972540  34.9390770  59.7867210  74.4964320  35.9396290  59.2459650
  71.2339460  49.0437200  63.2512690  71.8298530  48.7221770  62.5747110
  71.4917610  48.5709020  64.0425960  57.5337660  32.3035510  69.2350130
  57.1852480  32.7599330  70.0008310  57.2025360  31.4092640  69.3172560
  62.8408060  47.0314700  69.0013040  62.5999420  47.2989260  68.1143560
  63.7810700  47.2020430  69.0563900  74.1012220  49.0509080  69.8023680
  73.6070500  49.4477950  69.0850810  73.4925510  48.4258290  70.1960960
  58.9790060  48.4217360  70.5201100  58.3850380  48.2902060  71.2591140
  58.9713900  47.5855500  70.0543200  68.4245080  31.7149590  68.7231130
  67.5504920  32.0484700  68.5204060  68.3155830  31.2422770  69.5483000
  69.3317060  33.9220460  70.1072850  69.0030420  33.1072220  69.7274580
  70.2799360  33.8790270  69.9838540  71.7851670  49.6932500  67.0810420
  71.3254640  50.4448310  66.7068440  71.1564130  48.9738970  67.0225220
  58.6102290  45.7875740  69.4709140  57.8836350  45.1681030  69.4035090
  58.6711440  46.1816350  68.6007220  62.2147390  48.0020740  66.2558550
  62.7312410  47.3908100  65.7306810  62.8644770  48.5049520  66.7469560
  64.9542890  48.8929230  67.0827530  65.2420700  48.6383530  66.2060540
  65.4666110  48.3406590  67.6733100  66.1719900  32.6319430  67.6624040
  65.3891690  33.1064930  67.9420800  65.8782830  31.7274260  67.5537220
  70.7240970  33.3342530  65.7073130  71.1649060  33.2787630  64.8594730
  70.4548560  34.2500540  65.7783310  72.5879540  32.9657770  63.7181950
  72.5267940  32.0218990  63.5712970  73.3671570  33.0737860  64.2635410
  56.8932290  49.1050130  62.6805900  56.7254330  48.4720810  63.3787790
  56.0266800  49.3109530  62.3300090  57.5160310  32.9366910  60.1837760
  58.2739670  33.0495790  59.6101790  57.0537480  33.7736110  60.1381190
  64.0574120  35.0506180  63.1740070  63.2448630  34.6763070  62.8335950
  64.5615760  34.2951260  63.4761260  68.5599100  31.7148630  64.4123140
  69.1628470  32.2868840  64.8871660  67.8192090  32.2788070  64.1897040
  71.7033700  32.1170190  59.6863420  71.8984330  33.0153640  59.9530850
  70.9163570  31.8857270  60.1796370  58.4994990  47.7983360  60.1256040
  57.9742610  48.1791390  59.4218000  58.4239570  48.4234130  60.8465750
  59.8885460  33.4630960  58.7239730  60.4178220  32.6760760  58.5947680
  60.5213780  34.1422150  58.9575260  62.0823300  33.2006100  61.7785120
  61.4526040  32.4993410  61.9455250  61.5428440  33.9610230  61.5618280
  73.2560310  49.3570900  61.4469980  73.4312500  48.6708640  60.8030900
  72.5581880  49.8817950  61.0546650  61.0987960  49.7465740  59.0005290
  61.8306780  49.4625020  58.4529180  61.3581630  49.5079020  59.8904670
  60.2602750  45.8630470  59.0051620  59.6311630  46.3315570  59.5537450
  60.3750580  45.0179690  59.4397810  67.7152470  39.9136130  45.1552820
  67.6346520  38.9990740  44.8844530  67.3016890  40.4103200  44.4492530
  65.8470510  41.6915150  47.0362090  65.0712610  41.2115590  47.3260660
  66.4983440  41.0120800  46.8618250  59.8636340  42.0034960  47.9137850
  59.0321220  41.7483670  48.3134360  60.4717320  42.0745730  48.6495770
  69.8677940  46.0975340  45.8161220  69.4059470  45.3262580  46.1448390
  70.6803490  46.1241410  46.3213670  59.8437600  46.0375050  48.1095870
  60.1465640  45.1472790  47.9306090  60.5881190  46.5945270  47.8818120
  58.2728290  36.9636850  41.6980240  57.3844990  37.3052820  41.5960120
  58.5569480  36.7637170  40.8061070  56.2361300  39.5642500  47.5819940
  56.8077410  38.7964700  47.5823580  56.2362840  39.8631260  46.6726550
  66.0941250  48.3833350  45.4365210  65.4752690  48.8390850  44.8659650
  66.9493030  48.5384810  45.0354910  65.2879500  44.3672340  47.0432250
  65.2187780  43.4262280  46.8821380  66.0499360  44.4573750  47.6154820
  57.4786170  34.9726860  49.3688870  57.2989010  34.0752610  49.6491630
  57.0766250  35.5198730  50.0435820  66.3184670  37.1742720  47.2701180
  66.6949490  36.3014600  47.1574850  66.2204180  37.5101420  46.3791620
  60.4489680  35.5468350  42.7318620  60.5556430  36.4472080  43.0387380
  59.5382040  35.4986320  42.4413270  70.1008790  34.6693160  44.2029520
  70.9218410  34.1789730  44.2455000  70.1342870  35.2590820  44.9561360
  58.0972840  37.4687360  47.9771210  58.7782950  37.7325730  48.5958610
  57.7820890  36.6288230  48.3109220  62.2897410  38.5154720  47.0643800
  62.7975630  39.0135690  47.7048820  62.8210650  37.7389920  46.8883160
  74.3908340  36.6859910  50.7673150  73.6860510  37.0741620  50.2488260
  74.6566260  37.3810200  51.3694080  60.5733510  33.1553280  51.3307220
  60.5751950  33.6725670  50.5253120  59.7437820  32.6783460  51.3077150
  66.9604600  43.2672590  42.8297120  66.3421870  43.7322040  42.2659840
  67.4727850  43.9600070  43.2466630  61.8236360  42.7948460  49.5080720
  61.4905740  43.4217380  50.1501790  62.0003040  43.3210340  48.7282390
  70.3370270  36.6093540  46.9757060  69.6325840  36.8978430  47.5560170
  70.6982430  37.4193650  46.6156620  60.2548840  34.8663240  49.3377670
  60.5965650  35.7105290  49.0431540  59.3164650  35.0146980  49.4543010
  61.0355460  44.7629260  51.3229900  61.6529460  45.4380340  51.0414350
  60.1748580  45.1717240  51.2317400  56.3287800  43.9529120  40.2036750
  55.9515780  44.4416220  39.4721650  56.5860870  44.6254400  40.8343280
  71.9533050  46.2268670  49.2384540  71.2696570  46.8967780  49.2301210
  72.4927340  46.4249320  48.4729400  73.4057190  36.0548330  47.3666270
  72.4582100  36.0887310  47.4981700  73.7307180  36.8687280  47.7515630
  63.9376730  32.3545510  45.6622260  64.2451710  31.7992400  44.9457760
  63.0077430  32.4889970  45.4795250  69.4891790  48.0712800  47.9529720
  69.5018950  47.6675090  47.0851980  68.9367010  48.8460090  47.8491150
  70.7837210  44.7929020  43.0419890  70.6733540  43.8503350  43.1669310
  70.7805460  45.1544660  43.9282650  68.8877230  42.9742640  49.2812330
  69.3046020  42.7602750  48.4465790  69.6117050  43.2315430  49.8520950
  66.3257490  40.4194340  42.3982380  65.3986770  40.3531720  42.6270850
  66.4782310  41.3574470  42.2837620  66.3126570  36.6911340  39.3949540
  65.3730240  36.8525300  39.4802000  66.6309830  37.4097020  38.8485530
  72.8339330  41.3729860  49.3728570  72.0057960  41.4422950  48.8978700
  73.4289810  41.9584170  48.9044400  70.3554780  41.9814640  42.9017630
  69.7367200  41.6434190  42.2543930  70.3379230  41.3374400  43.6096820
  69.7981340  38.1599180  50.3183440  69.3852520  38.9852890  50.5723430
  69.0657290  37.5744220  50.1259800  61.9314130  40.9459080  45.1802110
  61.5271130  40.2336330  44.6848010  62.0177250  40.6012320  46.0690150
  62.3995830  44.6326640  47.3441320  62.1024120  44.0272110  46.6649100
  63.3495650  44.6703950  47.2330680  60.6442750  37.7202290  48.9601150
  61.1957340  37.8297630  48.1854400  61.1586260  38.0939890  49.6756380
  70.4881440  48.2058510  51.0064420  70.0112000  49.0130700  50.8137030
  69.8043230  47.5536840  51.1590630  61.4914260  44.3708330  53.9949120
  60.5942790  44.5948300  54.2422520  61.5167130  44.4943270  53.0460520
  68.5319480  41.2201450  39.9090380  68.9712760  40.3823880  39.7628200
  69.2447900  41.8530850  39.9954520  60.3185480  41.2421650  52.5706490
  60.1793250  42.1144450  52.9393890  59.4366840  40.8994460  52.4254430
  66.6414860  46.1597520  43.8771620  67.0810770  46.9021850  43.4627010
  66.5801750  46.4024090  44.8010580  62.1165830  47.1843350  54.7791640
  62.0881260  47.5886300  53.9120070  61.9530800  46.2553710  54.6163240
  72.1136620  32.4744260  38.2231420  71.8009280  32.5671090  39.1230490
  72.8749090  33.0525290  38.1728850  58.6318760  39.8404060  42.6808760
  58.5116360  40.5666150  42.0690030  58.3219650  39.0706970  42.2036670
  74.0680650  47.9670450  56.0755810  74.5440370  48.4453340  56.7544890
  74.6887810  47.8987940  55.3501310  56.2704130  43.0119200  48.4877400
  56.3484550  43.1467970  47.5433120  56.8845810  42.3035090  48.6805520
  57.5151760  44.7119390  44.8983580  57.1079840  44.8533980  44.0437180
  58.4064770  44.4279550  44.6954790  73.4713900  45.1583300  53.2355820
  73.5976960  44.9195180  52.3173000  73.5135280  44.3267840  53.7077900
  67.3330640  48.8611300  51.8050630  67.8475310  48.7719310  52.6073060
  66.4899720  49.2071000  52.0978540  69.3085040  49.1466640  41.2334630
  69.1486180  48.8569580  42.1316460  69.1431750  48.3706770  40.6979860
  61.7873420  48.9265170  43.0106250  61.6115900  48.0100710  42.7974050
  60.9329160  49.2852460  43.2504050  69.0111170  46.6554200  39.7932630
  68.3176330  46.6531490  39.1334910  69.7534030  46.2313520  39.3626800
  68.5761100  48.2816910  43.8681120  69.0318050  47.5006290  44.1819740
  68.9153620  48.9923730  44.4122300  73.3237910  37.2115760  54.2005560
  72.7082180  37.7195430  53.6721020  73.0034330  36.3114090  54.1431500
  56.3263650  44.0533370  51.0271860  56.4894690  43.5838730  50.2091230
  56.7916100  43.5456930  51.6920700  61.0982420  33.1839130  46.0632430
  60.6550570  33.9648670  45.7316950  61.6567410  33.5069020  46.7703370
  65.3852230  36.0507650  51.6667750  64.9231600  36.2590670  52.4787690
  64.9830340  35.2367000  51.3638420  70.3856740  37.2716600  52.7964410
  69.5350330  36.9722350  53.1173480  70.2258530  37.5158610  51.8848230
  67.4806450  38.7718350  54.8963200  67.8059860  37.9382100  54.5565430
  68.2686780  39.2946870  55.0441530  64.2141240  32.8049830  40.9438260
  63.5895420  32.8009700  41.6691570  64.1271360  31.9380790  40.5474230
  63.1358320  33.7286460  47.9222030  63.4330650  34.6349290  47.8414050
  63.6843880  33.2405240  47.3081600  60.8896640  38.3072700  43.7913680
  60.6637560  38.0909870  44.6960300  60.1089170  38.7401160  43.4459650
  68.1194400  38.3136070  42.3904330  67.5203290  39.0371870  42.2067950
  68.6674010  38.2512850  41.6080780  63.3295850  39.2058280  54.4573950
  63.2339450  38.2653010  54.3074350  64.1727830  39.4273350  54.0622020
  66.7259270  36.9499610  44.4207610  67.1188840  37.2671810  43.6076300
  67.0876120  36.0711490  44.5352130  58.4606390  35.6171950  52.6107730
  58.0669780  36.4647160  52.8180510  57.7724790  34.9798320  52.8016370
  65.0351440  35.7006920  55.6804470  64.3449760  35.5079120  56.3150560
  65.7783740  35.9841560  56.2128770  55.7623440  33.5400410  46.6437810
  55.4736490  34.1103270  47.3562790  56.5069200  33.0604860  47.0069040
  55.9493670  37.4820530  37.8540530  55.8668340  38.4251290  37.9955520
  55.5976730  37.3395440  36.9752880  67.3114410  39.5405360  48.5158390
  66.5795530  40.0492170  48.8648490  66.9138750  38.7235340  48.2147170
  63.7491800  36.2159560  46.9210880  63.7527860  35.7749510  46.0715420
  64.6442920  36.5376890  47.0282700  59.5994180  36.0986050  45.8805090
  59.2594230  36.5761280  46.6372140  58.8371500  35.6451170  45.5206190
  63.8111950  37.2171640  39.9117640  63.9324770  37.1758120  40.8603460
  63.4260460  38.0795790  39.7564370  67.7740320  34.9939040  47.9281330
  67.7913060  35.4447690  48.7723180  67.5255900  34.0944680  48.1414770
  62.8233450  39.5272780  39.3100940  62.2550350  39.0791030  38.6836850
  63.5322450  39.8865560  38.7766090  71.2011070  32.4071220  53.7667710
  71.5256840  31.6760880  54.2925690  71.2367580  32.0884860  52.8648700
  57.9002630  43.4284800  53.1867670  57.5157420  42.7878470  53.7850630
  58.2114820  44.1320920  53.7562400  64.0499770  40.2761340  48.6676290
  64.4169900  39.8019910  49.4137630  63.8604830  41.1502910  49.0084630
  56.9140260  35.0205030  44.7969760  56.6287180  34.6560700  45.6348380
  56.8519120  34.2885490  44.1832900  61.8399140  39.3169980  50.9860500
  61.5356210  40.1961960  51.2110860  62.7945600  39.3769770  51.0217940
  60.3680930  43.5230970  41.5827350  59.5943190  42.9828590  41.4226070
  61.0975560  43.0037580  41.2445110  71.1268910  42.5196330  47.3753740
  71.8468030  43.0151620  46.9849850  70.9250730  41.8414220  46.7307610
  66.5878850  33.9134290  41.5183130  65.7743460  33.4147460  41.4428440
  66.3940800  34.7532540  41.1019480  66.5087710  42.5905390  53.2622740
  66.4425020  41.6701060  53.0080330  65.8792850  42.6880830  53.9767380
  69.3027240  38.2853940  39.8145290  70.1906860  38.5971170  39.6396630
  69.2732330  37.4126190  39.4225870  60.4118330  43.1911350  45.2206160
  60.9297000  42.3879610  45.1663050  59.9602350  43.1290490  46.0622990
  65.2987830  44.4577630  40.4933460  65.6403530  45.2019860  39.9976780
  64.4700540  44.7708750  40.8558290  57.8962870  40.1572720  52.1331860
  57.5377810  40.8226570  52.7205200  57.6017430  39.3256270  52.5044480
  61.0975990  40.6156960  55.0171410  60.7976130  40.7614140  54.1199230
  61.8687230  40.0562250  54.9244800  66.4404440  45.4125960  53.0126540
  66.4548980  44.4806920  52.7945450  65.7329540  45.4985720  53.6516310
  71.5741510  39.5965780  39.2825150  71.4905230  40.0280000  38.4321590
  72.2935700  40.0564130  39.7151970  72.6515650  42.0533300  52.3595120
  71.9263840  42.6462080  52.1624510  73.1791110  42.0456840  51.5608490
  72.6028760  46.4508040  42.0107280  71.9604920  45.7963660  42.2851000
  72.2159420  46.8563130  41.2347950  68.1815240  43.7793470  45.8578970
  68.5339060  43.1821600  45.1980340  67.2977570  43.4537700  46.0287220
  64.2678520  44.5391160  43.2649380  64.9549650  45.0860370  43.6456970
  63.4810940  45.0831890  43.2998990  56.4070920  40.1563980  38.7566460
  57.2765770  40.4388780  39.0402380  55.9161240  40.9699850  38.6415270
  63.5705730  41.5437190  42.8774740  64.0268510  42.3542440  43.1034930
  63.2193940  41.2260330  43.7093230  65.8738340  47.0543530  50.1067040
  66.5180560  47.2602910  50.7840460  66.2367780  46.2931930  49.6537890
  59.4717510  31.8874840  43.3497260  59.3432140  31.8792740  44.2982180
  58.6479530  32.2257930  42.9988270  67.1470420  45.0575880  48.8244490
  67.7892650  44.3569040  48.9376660  67.6719770  45.8374320  48.6441380
  70.9926140  45.3424500  38.5483630  70.7663720  44.6254940  39.1408270
  70.6022340  45.0936940  37.7105380  68.9208040  45.8570780  52.0280550
  69.2564280  46.4437470  52.7058470  68.0008380  45.7263490  52.2578340
  56.7742170  49.3691360  39.3228090  57.1339810  49.9680700  38.6685360
  56.6334510  49.9151250  40.0963120  56.4711440  33.6465960  52.8103960
  55.7569960  33.8462880  53.4156570  56.8906480  32.8705530  53.1818760
  70.5742390  43.2596440  40.2097790  70.2864090  43.7209130  40.9975670
  71.3694560  42.7994210  40.4782010  56.7584030  47.6346220  53.7970490
  56.8675150  46.6940960  53.6565880  56.1064590  47.9000970  53.1484220
  64.7496620  45.9062110  55.1968610  64.4293490  45.1871350  55.7414300
  64.0754980  46.5817180  55.2704670  62.7910790  46.7522560  40.1401760
  62.7820890  47.4852250  39.5246270  61.8709150  46.5054140  40.2328720
  58.3917430  41.9737450  40.8848520  57.7845380  42.7136350  40.8943820
  58.8666780  42.0636810  40.0586720  67.9650220  36.1388270  50.5605410
  68.3331040  35.3183480  50.8884980  67.1048420  36.1990160  50.9761060
  71.3312250  35.0945210  41.3692970  70.7025410  35.1990880  40.6551200
  70.8364170  35.3141990  42.1586850  65.7770390  46.8150800  38.8026950
  65.8782370  46.6114790  37.8728930  64.8772130  46.5609080  39.0074730
  63.2996280  37.3731160  42.7850850  62.5912430  37.8417500  43.2264460
  63.5840760  36.7153170  43.4196040  64.9252210  38.7927860  50.7843380
  65.4237460  39.2673680  51.4495230  65.0675160  37.8691380  50.9913410
  67.3311710  34.0981820  44.2246640  67.2079490  34.1167950  43.2756150
  68.2796270  34.1460760  44.3445040  64.4188500  49.3337120  43.4974620
  64.6730000  49.2958510  42.5753990  63.4700980  49.2070450  43.4902870
  61.5031300  35.6816240  40.1601560  62.3521830  36.1186390  40.0941750
  61.1362570  35.9936500  40.9873620  72.1319070  35.0095820  51.6271770
  71.6292670  35.7501220  51.9665580  72.9475730  35.3979820  51.3108560
  70.4241080  40.2529000  45.0733130  69.4831220  40.2679230  45.2480820
  70.7385150  39.4664960  45.5193430  60.4022720  41.9348600  38.6337090
  61.1685990  41.8229960  39.1962520  60.4797410  41.2386570  37.9813860
  59.0969480  39.3673670  39.3169980  59.1773070  38.4201180  39.4287380
  59.9889230  39.6980550  39.4230640  72.4266660  47.4237850  46.7487390
  72.5514080  48.2469020  47.2211200  73.2932220  47.2128580  46.4011540
  59.8984190  49.5169060  46.4204520  60.6346670  48.9684520  46.6913090
  60.2825110  50.3825070  46.2810510  56.7829670  45.5842630  42.2946030
  55.8569450  45.8263770  42.2851440  57.2486100  46.4116890  42.1730780
  58.9042470  48.7015130  55.6090100  59.7055200  49.0227180  56.0225500
  58.3894290  48.3410710  56.3310010  63.0086500  48.6899370  38.2430090
  63.8015110  48.9788200  37.7911880  62.4890850  48.2591540  37.5642570
  67.7407100  44.8095000  55.5565510  67.1345260  44.8326600  54.8161260
  67.4361210  44.0778040  56.0932760  69.1707470  48.5375290  54.1674920
  70.1229220  48.4533310  54.1175160  69.0235690  49.2017000  54.8408710
  72.0616670  47.9169500  39.6666830  71.7758180  47.5034640  38.8521010
  71.8636220  48.8457210  39.5467350  56.6240280  41.1888590  54.5526150
  57.1279300  40.6095870  55.1242380  55.8847700  41.4728820  55.0902520
  63.5263900  43.9102780  38.1072440  63.4214540  43.2955130  38.8333820
  63.3588120  43.3868670  37.3235450  63.6778220  42.5959580  54.0861670
  62.9123890  43.1644580  54.0016340  63.8594180  42.3035790  53.1929900
  66.7666630  42.9722810  38.7114430  66.2176730  43.4192110  39.3557170
  67.3885890  42.4672060  39.2352100  70.8201570  44.3264910  54.6436690
  71.5611040  44.6640670  54.1404150  70.0574250  44.4956970  54.0906460
  58.6563360  39.3318180  55.4476220  58.6968700  39.0332050  56.3561450
  59.5108860  39.7325790  55.2883740  62.4341750  41.9313730  40.6079730
  62.8558170  41.7653600  41.4511120  62.5592590  41.1213960  40.1134870
  60.5969170  37.9110280  53.4150710  60.0665630  37.4201230  52.7874050
  61.2657240  38.3394480  52.8808640  64.9469390  40.9551340  37.8556830
  65.4675050  40.2400360  37.4897980  65.5937790  41.5937210  38.1557340
  69.4947230  42.3779740  53.1791900  69.9088250  42.5324820  54.0282320
  68.5598230  42.5034960  53.3417680  69.9669400  39.7175900  55.1831050
  70.5490170  38.9628220  55.0951530  70.1431170  40.2483340  54.4062530
  61.0841470  34.8772650  53.4948000  60.9898340  34.2593400  52.7698870
  60.5038860  35.6038940  53.2677910  63.8502910  33.4345890  50.5275390
  63.4020210  33.4570150  49.6820940  63.2168110  33.0364910  51.1245690
  64.2562460  42.3300220  51.1487830  64.6750570  43.1732950  50.9764070
  63.3371090  42.4672260  50.9194610  66.5926360  40.0616400  52.5325670
  66.7122570  39.4657540  53.2720510  67.4520360  40.0986090  52.1126970
  68.9314260  40.6153590  51.1088180  68.4049480  41.1396210  50.5053320
  69.2745600  41.2480980  51.7397910  61.3300650  38.0046960  37.5537890
  61.1289710  37.1414320  37.9151230  61.1592700  37.9180320  36.6159490
  62.1069880  48.6353230  52.2645560  61.5690970  49.3599290  51.9454260
  62.3603840  48.1583570  51.4742900  63.3595130  36.6037750  53.7901490
  63.9494820  36.2953600  54.4779310  62.5415370  36.1317500  53.9461390
  68.1788560  36.2203560  54.0234510  67.4904080  35.5585100  53.9584500
  68.8994580  35.7741830  54.4682970  68.8088960  32.8155190  40.0824770
  69.0891250  31.9723090  40.4384190  68.0354690  33.0478300  40.5963520
  60.1283450  35.1047580  37.5415770  60.4309350  35.1115010  36.6334920
  60.8678040  34.7545440  38.0383430  64.9632090  49.8704440  52.5232210
  64.8890790  50.7739580  52.8304580  64.0610930  49.5516340  52.4954280
  63.3468380  34.0482200  38.5271970  62.9990380  33.3706190  37.9474420
  63.5481150  33.5871710  39.3415360  65.5117420  49.0362950  40.1458570
  66.4068210  49.3747920  40.1677330  65.5435050  48.3142360  39.5182850
  59.1513580  44.4090000  38.3745570  59.5888450  44.9519670  39.0303150
  59.6361310  43.5836950  38.3841910  56.3659380  47.1979030  45.8265830
  56.6962390  46.3300090  45.5944470  56.7950380  47.4037550  46.6570790
  60.9621300  45.5288040  43.4867800  60.6616840  45.4053010  44.3871710
  60.8558790  44.6696630  43.0783530  56.8549590  48.0649620  48.5647460
  56.4180580  48.2450420  49.3971610  57.4227270  48.8224240  48.4229180
  72.4911770  47.5666620  52.8524770  71.8913760  47.6259180  52.1088690
  72.6205670  46.6271600  52.9821620  73.7313220  45.3084440  38.1894480
  72.9006180  45.3761090  38.6601710  73.9085050  46.1988560  37.8861340
  73.1869680  42.0531920  40.6928680  73.9488590  42.6228570  40.7988370
  73.2024050  41.4859120  41.4636990  56.6874020  40.5769850  44.9236340
  56.0322860  40.3081490  44.2796040  57.5251970  40.4674330  44.4738320
  74.1929650  42.9082020  45.5370610  74.5638480  42.1249340  45.1306580
  74.8331580  43.5971120  45.3587910  71.1763410  44.2918600  50.9500930
  70.3623250  44.7215760  51.2126720  71.5837610  44.9037010  50.3369980
  73.2388850  42.3466290  37.8501200  73.5137690  43.2545170  37.7220420
  73.0499590  42.2828820  38.7863190  69.6364460  35.3711140  39.1454830
  70.0549340  35.1842120  38.3051490  69.3300520  34.5190190  39.4557760
  73.1354190  40.2835280  42.8430630  72.7597790  39.5163210  42.4111920
  72.4057310  40.6657980  43.3305560  57.7249950  40.9622420  49.4639680
  58.0922990  40.8749820  50.3435700  57.1560770  40.1988970  49.3646540
  72.5253810  39.4306800  52.4770150  72.2939900  39.2019550  51.5768100
  72.7858360  40.3506350  52.4315040  57.2765950  37.8731510  53.3698100
  56.3822000  37.8398270  53.7091810  57.8163500  38.0718300  54.1349350
  70.9641880  34.6563230  55.2549850  71.8412060  34.6646630  55.6383850
  70.9762720  33.9194070  54.6442200  55.9012100  37.7868780  40.8661670
  54.9976180  38.0498980  40.6913330  56.3852720  38.0579950  40.0861630
  72.4105150  38.5092770  46.1437870  72.9342630  38.0155420  45.5128040
  72.9964570  38.6443130  46.8885440  72.5894870  38.5932640  49.6657420
  71.6397580  38.5596180  49.7802410  72.7707880  39.5032750  49.4307190
  58.4439310  36.8434320  38.7756050  59.1531010  36.4217540  38.2903330
  57.7279250  36.9109550  38.1439400  58.0913470  32.8973650  37.8158700
  58.8141600  33.4382590  38.1339920  58.3637990  32.6237070  36.9400240
  71.9005120  37.7666120  42.0830280  72.3964240  37.5336990  42.8679160
  71.7021190  36.9277960  41.6667920  57.7805660  32.1479840  47.7181320
  58.4281850  31.5977220  47.2776480  58.2007500  32.4022990  48.5397130
  73.3292280  36.4027070  44.6167960  73.2191560  36.2483110  45.5550230
  74.0899870  35.8748010  44.3743370  71.6758000  32.3421200  51.0750960
  72.3130220  32.9555340  51.4410150  71.8232890  32.3781860  50.1300190
  74.2182550  34.2334990  37.8574100  75.1431860  34.1016170  37.6492390
  74.1958340  34.3127810  38.8110550  74.2921040  35.0045650  40.4830810
  73.4972540  34.9390770  41.0123720  74.4964320  35.9396290  40.4716160
  71.2339460  49.0437200  44.4769200  71.8298530  48.7221770  43.8003620
  71.4917610  48.5709020  45.2682470  57.5337660  32.3035510  50.4606640
  57.1852480  32.7599330  51.2264820  57.2025360  31.4092640  50.5429070
  59.1402030  45.4755110  54.6259830  59.0971660  45.1048020  55.5074290
  59.2713040  46.4132680  54.7661650  62.8408060  47.0314700  50.2269550
  62.5999420  47.2989260  49.3400070  63.7810700  47.2020430  50.2820410
  65.0462480  33.4947390  53.9826060  64.9851370  34.0869220  54.7321470
  65.9862860  33.3873350  53.8376320  67.6837040  33.1517450  53.6218350
  68.2977450  33.4696740  52.9599430  68.2286600  32.6666040  54.2414210
  74.1012220  49.0509080  51.0280190  73.6070500  49.4477950  50.3107320
  73.4925510  48.4258290  51.4217470  58.2058300  31.8311710  53.7357410
  58.7541290  31.6499760  52.9723520  58.2713610  31.0405820  54.2713720
  58.9790060  48.4217360  51.7457610  58.3850380  48.2902060  52.4847650
  58.9713900  47.5855500  51.2799710  68.4245080  31.7149590  49.9487640
  67.5504920  32.0484700  49.7460570  68.3155830  31.2422770  50.7739510
  69.3317060  33.9220460  51.3329360  69.0030420  33.1072220  50.9531090
  70.2799360  33.8790270  51.2095050  71.7851670  49.6932500  48.3066930
  71.3254640  50.4448310  47.9324950  71.1564130  48.9738970  48.2481730
  58.6102290  45.7875740  50.6965650  57.8836350  45.1681030  50.6291600
  58.6711440  46.1816350  49.8263730  62.2147390  48.0020740  47.4815060
  62.7312410  47.3908100  46.9563320  62.8644770  48.5049520  47.9726070
  64.9542890  48.8929230  48.3084040  65.2420700  48.6383530  47.4317050
  65.4666110  48.3406590  48.8989610  66.1719900  32.6319430  48.8880550
  65.3891690  33.1064930  49.1677310  65.8782830  31.7274260  48.7793730
  70.7240970  33.3342530  46.9329640  71.1649060  33.2787630  46.0851240
  70.4548560  34.2500540  47.0039820  72.5879540  32.9657770  44.9438460
  72.5267940  32.0218990  44.7969480  73.3671570  33.0737860  45.4891920
  56.8932290  49.1050130  43.9062410  56.7254330  48.4720810  44.6044300
  56.0266800  49.3109530  43.5556600  57.5160310  32.9366910  41.4094270
  58.2739670  33.0495790  40.8358300  57.0537480  33.7736110  41.3637700
  64.0574120  35.0506180  44.3996580  63.2448630  34.6763070  44.0592460
  64.5615760  34.2951260  44.7017770  68.5599100  31.7148630  45.6379650
  69.1628470  32.2868840  46.1128170  67.8192090  32.2788070  45.4153550
  71.7033700  32.1170190  40.9119930  71.8984330  33.0153640  41.1787360
  70.9163570  31.8857270  41.4052880  58.4994990  47.7983360  41.3512550
  57.9742610  48.1791390  40.6474510  58.4239570  48.4234130  42.0722260
  59.8885460  33.4630960  39.9496240  60.4178220  32.6760760  39.8204190
  60.5213780  34.1422150  40.1831770  62.0823300  33.2006100  43.0041630
  61.4526040  32.4993410  43.1711760  61.5428440  33.9610230  42.7874790
  65.0215250  49.8145330  55.6752240  65.9482560  49.5789600  55.7188200
  65.0065680  50.6417330  55.1938270  73.2560310  49.3570900  42.6726490
  73.4312500  48.6708640  42.0287410  72.5581880  49.8817950  42.2803160
  62.2078860  32.4790080  55.4394120  61.9263130  32.9823680  54.6754940
  62.5898560  31.6811830  55.0736250  61.0987960  49.7465740  40.2261800
  61.8306780  49.4625020  39.6785690  61.3581630  49.5079020  41.1161180
  60.2602750  45.8630470  40.2308130  59.6311630  46.3315570  40.7793960
  60.3750580  45.0179690  40.6654320  68.8094320  31.8943660  56.0174590
  68.6959770  32.2138270  56.9126110  69.6264060  32.2956170  55.7211870
  71.5892810  49.0415190  55.4993280  72.3818130  48.5464420  55.2919240
  71.8825960  49.7205330  56.1068890  67.7152470  39.9136130  26.3809330
  67.6346520  38.9990740  26.1101040  67.3016890  40.4103200  25.6749040
  65.8470510  41.6915150  28.2618600  65.0712610  41.2115590  28.5517170
  66.4983440  41.0120800  28.0874760  59.8636340  42.0034960  29.1394360
  59.0321220  41.7483670  29.5390870  60.4717320  42.0745730  29.8752280
  69.8677940  46.0975340  27.0417730  69.4059470  45.3262580  27.3704900
  70.6803490  46.1241410  27.5470180  59.8437600  46.0375050  29.3352380
  60.1465640  45.1472790  29.1562600  60.5881190  46.5945270  29.1074630
  58.2728290  36.9636850  22.9236750  57.3844990  37.3052820  22.8216630
  58.5569480  36.7637170  22.0317580  56.2361300  39.5642500  28.8076450
  56.8077410  38.7964700  28.8080090  56.2362840  39.8631260  27.8983060
  66.0941250  48.3833350  26.6621720  65.4752690  48.8390850  26.0916160
  66.9493030  48.5384810  26.2611420  65.2879500  44.3672340  28.2688760
  65.2187780  43.4262280  28.1077890  66.0499360  44.4573750  28.8411330
  57.4786170  34.9726860  30.5945380  57.2989010  34.0752610  30.8748140
  57.0766250  35.5198730  31.2692330  66.3184670  37.1742720  28.4957690
  66.6949490  36.3014600  28.3831360  66.2204180  37.5101420  27.6048130
  60.4489680  35.5468350  23.9575130  60.5556430  36.4472080  24.2643890
  59.5382040  35.4986320  23.6669780  70.1008790  34.6693160  25.4286030
  70.9218410  34.1789730  25.4711510  70.1342870  35.2590820  26.1817870
  58.0972840  37.4687360  29.2027720  58.7782950  37.7325730  29.8215120
  57.7820890  36.6288230  29.5365730  62.2897410  38.5154720  28.2900310
  62.7975630  39.0135690  28.9305330  62.8210650  37.7389920  28.1139670
  74.3908340  36.6859910  31.9929660  73.6860510  37.0741620  31.4744770
  74.6566260  37.3810200  32.5950590  60.5733510  33.1553280  32.5563730
  60.5751950  33.6725670  31.7509630  59.7437820  32.6783460  32.5333660
  66.9604600  43.2672590  24.0553630  66.3421870  43.7322040  23.4916350
  67.4727850  43.9600070  24.4723140  61.8236360  42.7948460  30.7337230
  61.4905740  43.4217380  31.3758300  62.0003040  43.3210340  29.9538900
  70.3370270  36.6093540  28.2013570  69.6325840  36.8978430  28.7816680
  70.6982430  37.4193650  27.8413130  60.2548840  34.8663240  30.5634180
  60.5965650  35.7105290  30.2688050  59.3164650  35.0146980  30.6799520
  61.0355460  44.7629260  32.5486410  61.6529460  45.4380340  32.2670860
  60.1748580  45.1717240  32.4573910  56.3287800  43.9529120  21.4293260
  55.9515780  44.4416220  20.6978160  56.5860870  44.6254400  22.0599790
  71.9533050  46.2268670  30.4641050  71.2696570  46.8967780  30.4557720
  72.4927340  46.4249320  29.6985910  73.4057190  36.0548330  28.5922780
  72.4582100  36.0887310  28.7238210  73.7307180  36.8687280  28.9772140
  63.9376730  32.3545510  26.8878770  64.2451710  31.7992400  26.1714270
  63.0077430  32.4889970  26.7051760  69.4891790  48.0712800  29.1786230
  69.5018950  47.6675090  28.3108490  68.9367010  48.8460090  29.0747660
  70.7837210  44.7929020  24.2676400  70.6733540  43.8503350  24.3925820
  70.7805460  45.1544660  25.1539160  68.8877230  42.9742640  30.5068840
  69.3046020  42.7602750  29.6722300  69.6117050  43.2315430  31.0777460
  66.3257490  40.4194340  23.6238890  65.3986770  40.3531720  23.8527360
  66.4782310  41.3574470  23.5094130  66.3126570  36.6911340  20.6206050
  65.3730240  36.8525300  20.7058510  66.6309830  37.4097020  20.0742040
  72.8339330  41.3729860  30.5985080  72.0057960  41.4422950  30.1235210
  73.4289810  41.9584170  30.1300910  70.3554780  41.9814640  24.1274140
  69.7367200  41.6434190  23.4800440  70.3379230  41.3374400  24.8353330
  69.7981340  38.1599180  31.5439950  69.3852520  38.9852890  31.7979940
  69.0657290  37.5744220  31.3516310  61.9314130  40.9459080  26.4058620
  61.5271130  40.2336330  25.9104520  62.0177250  40.6012320  27.2946660
  62.3995830  44.6326640  28.5697830  62.1024120  44.0272110  27.8905610
  63.3495650  44.6703950  28.4587190  60.6442750  37.7202290  30.1857660
  61.1957340  37.8297630  29.4110910  61.1586260  38.0939890  30.9012890
  70.4881440  48.2058510  32.2320930  70.0112000  49.0130700  32.0393540
  69.8043230  47.5536840  32.3847140  61.4914260  44.3708330  35.2205630
  60.5942790  44.5948300  35.4679030  61.5167130  44.4943270  34.2717030
  68.5319480  41.2201450  21.1346890  68.9712760  40.3823880  20.9884710
  69.2447900  41.8530850  21.2211030  60.3185480  41.2421650  33.7963000
  60.1793250  42.1144450  34.1650400  59.4366840  40.8994460  33.6510940
  66.6414860  46.1597520  25.1028130  67.0810770  46.9021850  24.6883520
  66.5801750  46.4024090  26.0267090  62.1165830  47.1843350  36.0048150
  62.0881260  47.5886300  35.1376580  61.9530800  46.2553710  35.8419750
  72.1136620  32.4744260  19.4487930  71.8009280  32.5671090  20.3487000
  72.8749090  33.0525290  19.3985360  58.6318760  39.8404060  23.9065270
  58.5116360  40.5666150  23.2946540  58.3219650  39.0706970  23.4293180
  74.0680650  47.9670450  37.3012320  74.5440370  48.4453340  37.9801400
  74.6887810  47.8987940  36.5757820  56.2704130  43.0119200  29.7133910
  56.3484550  43.1467970  28.7689630  56.8845810  42.3035090  29.9062030
  57.5151760  44.7119390  26.1240090  57.1079840  44.8533980  25.2693690
  58.4064770  44.4279550  25.9211300  73.4713900  45.1583300  34.4612330
  73.5976960  44.9195180  33.5429510  73.5135280  44.3267840  34.9334410
  67.3330640  48.8611300  33.0307140  67.8475310  48.7719310  33.8329570
  66.4899720  49.2071000  33.3235050  69.3085040  49.1466640  22.4591140
  69.1486180  48.8569580  23.3572970  69.1431750  48.3706770  21.9236370
  61.7873420  48.9265170  24.2362760  61.6115900  48.0100710  24.0230560
  60.9329160  49.2852460  24.4760560  69.0111170  46.6554200  21.0189140
  68.3176330  46.6531490  20.3591420  69.7534030  46.2313520  20.5883310
  68.5761100  48.2816910  25.0937630  69.0318050  47.5006290  25.4076250
  68.9153620  48.9923730  25.6378810  73.3237910  37.2115760  35.4262070
  72.7082180  37.7195430  34.8977530  73.0034330  36.3114090  35.3688010
  56.3263650  44.0533370  32.2528370  56.4894690  43.5838730  31.4347740
  56.7916100  43.5456930  32.9177210  61.0982420  33.1839130  27.2888940
  60.6550570  33.9648670  26.9573460  61.6567410  33.5069020  27.9959880
  65.3852230  36.0507650  32.8924260  64.9231600  36.2590670  33.7044200
  64.9830340  35.2367000  32.5894930  70.3856740  37.2716600  34.0220920
  69.5350330  36.9722350  34.3429990  70.2258530  37.5158610  33.1104740
  67.4806450  38.7718350  36.1219710  67.8059860  37.9382100  35.7821940
  68.2686780  39.2946870  36.2698040  64.2141240  32.8049830  22.1694770
  63.5895420  32.8009700  22.8948080  64.1271360  31.9380790  21.7730740
  63.1358320  33.7286460  29.1478540  63.4330650  34.6349290  29.0670560
  63.6843880  33.2405240  28.5338110  60.8896640  38.3072700  25.0170190
  60.6637560  38.0909870  25.9216810  60.1089170  38.7401160  24.6716160
  68.1194400  38.3136070  23.6160840  67.5203290  39.0371870  23.4324460
  68.6674010  38.2512850  22.8337290  63.3295850  39.2058280  35.6830460
  63.2339450  38.2653010  35.5330860  64.1727830  39.4273350  35.2878530
  66.7259270  36.9499610  25.6464120  67.1188840  37.2671810  24.8332810
  67.0876120  36.0711490  25.7608640  58.4606390  35.6171950  33.8364240
  58.0669780  36.4647160  34.0437020  57.7724790  34.9798320  34.0272880
  65.0351440  35.7006920  36.9060980  64.3449760  35.5079120  37.5407070
  65.7783740  35.9841560  37.4385280  55.7623440  33.5400410  27.8694320
  55.4736490  34.1103270  28.5819300  56.5069200  33.0604860  28.2325550
  55.9493670  37.4820530  19.0797040  55.8668340  38.4251290  19.2212030
  55.5976730  37.3395440  18.2009390  67.3114410  39.5405360  29.7414900
  66.5795530  40.0492170  30.0905000  66.9138750  38.7235340  29.4403680
  63.7491800  36.2159560  28.1467390  63.7527860  35.7749510  27.2971930
  64.6442920  36.5376890  28.2539210  59.5994180  36.0986050  27.1061600
  59.2594230  36.5761280  27.8628650  58.8371500  35.6451170  26.7462700
  63.8111950  37.2171640  21.1374150  63.9324770  37.1758120  22.0859970
  63.4260460  38.0795790  20.9820880  67.7740320  34.9939040  29.1537840
  67.7913060  35.4447690  29.9979690  67.5255900  34.0944680  29.3671280
  62.8233450  39.5272780  20.5357450  62.2550350  39.0791030  19.9093360
  63.5322450  39.8865560  20.0022600  71.2011070  32.4071220  34.9924220
  71.5256840  31.6760880  35.5182200  71.2367580  32.0884860  34.0905210
  57.9002630  43.4284800  34.4124180  57.5157420  42.7878470  35.0107140
  58.2114820  44.1320920  34.9818910  64.0499770  40.2761340  29.8932800
  64.4169900  39.8019910  30.6394140  63.8604830  41.1502910  30.2341140
  56.9140260  35.0205030  26.0226270  56.6287180  34.6560700  26.8604890
  56.8519120  34.2885490  25.4089410  61.8399140  39.3169980  32.2117010
  61.5356210  40.1961960  32.4367370  62.7945600  39.3769770  32.2474450
  60.3680930  43.5230970  22.8083860  59.5943190  42.9828590  22.6482580
  61.0975560  43.0037580  22.4701620  71.1268910  42.5196330  28.6010250
  71.8468030  43.0151620  28.2106360  70.9250730  41.8414220  27.9564120
  66.5878850  33.9134290  22.7439640  65.7743460  33.4147460  22.6684950
  66.3940800  34.7532540  22.3275990  66.5087710  42.5905390  34.4879250
  66.4425020  41.6701060  34.2336840  65.8792850  42.6880830  35.2023890
  69.3027240  38.2853940  21.0401800  70.1906860  38.5971170  20.8653140
  69.2732330  37.4126190  20.6482380  60.4118330  43.1911350  26.4462670
  60.9297000  42.3879610  26.3919560  59.9602350  43.1290490  27.2879500
  65.2987830  44.4577630  21.7189970  65.6403530  45.2019860  21.2233290
  64.4700540  44.7708750  22.0814800  57.8962870  40.1572720  33.3588370
  57.5377810  40.8226570  33.9461710  57.6017430  39.3256270  33.7300990
  61.0975990  40.6156960  36.2427920  60.7976130  40.7614140  35.3455740
  61.8687230  40.0562250  36.1501310  66.4404440  45.4125960  34.2383050
  66.4548980  44.4806920  34.0201960  65.7329540  45.4985720  34.8772820
  71.5741510  39.5965780  20.5081660  71.4905230  40.0280000  19.6578100
  72.2935700  40.0564130  20.9408480  72.6515650  42.0533300  33.5851630
  71.9263840  42.6462080  33.3881020  73.1791110  42.0456840  32.7865000
  72.6028760  46.4508040  23.2363790  71.9604920  45.7963660  23.5107510
  72.2159420  46.8563130  22.4604460  68.1815240  43.7793470  27.0835480
  68.5339060  43.1821600  26.4236850  67.2977570  43.4537700  27.2543730
  64.2678520  44.5391160  24.4905890  64.9549650  45.0860370  24.8713480
  63.4810940  45.0831890  24.5255500  56.4070920  40.1563980  19.9822970
  57.2765770  40.4388780  20.2658890  55.9161240  40.9699850  19.8671780
  63.5705730  41.5437190  24.1031250  64.0268510  42.3542440  24.3291440
  63.2193940  41.2260330  24.9349740  65.8738340  47.0543530  31.3323550
  66.5180560  47.2602910  32.0096970  66.2367780  46.2931930  30.8794400
  59.4717510  31.8874840  24.5753770  59.3432140  31.8792740  25.5238690
  58.6479530  32.2257930  24.2244780  67.1470420  45.0575880  30.0501000
  67.7892650  44.3569040  30.1633170  67.6719770  45.8374320  29.8697890
  70.9926140  45.3424500  19.7740140  70.7663720  44.6254940  20.3664780
  70.6022340  45.0936940  18.9361890  68.9208040  45.8570780  33.2537060
  69.2564280  46.4437470  33.9314980  68.0008380  45.7263490  33.4834850
  56.7742170  49.3691360  20.5484600  57.1339810  49.9680700  19.8941870
  56.6334510  49.9151250  21.3219630  56.4711440  33.6465960  34.0360470
  55.7569960  33.8462880  34.6413080  56.8906480  32.8705530  34.4075270
  70.5742390  43.2596440  21.4354300  70.2864090  43.7209130  22.2232180
  71.3694560  42.7994210  21.7038520  56.7584030  47.6346220  35.0227000
  56.8675150  46.6940960  34.8822390  56.1064590  47.9000970  34.3740730
  64.7496620  45.9062110  36.4225120  64.4293490  45.1871350  36.9670810
  64.0754980  46.5817180  36.4961180  62.7910790  46.7522560  21.3658270
  62.7820890  47.4852250  20.7502780  61.8709150  46.5054140  21.4585230
  58.3917430  41.9737450  22.1105030  57.7845380  42.7136350  22.1200330
  58.8666780  42.0636810  21.2843230  67.9650220  36.1388270  31.7861920
  68.3331040  35.3183480  32.1141490  67.1048420  36.1990160  32.2017570
  71.3312250  35.0945210  22.5949480  70.7025410  35.1990880  21.8807710
  70.8364170  35.3141990  23.3843360  65.7770390  46.8150800  20.0283460
  65.8782370  46.6114790  19.0985440  64.8772130  46.5609080  20.2331240
  63.2996280  37.3731160  24.0107360  62.5912430  37.8417500  24.4520970
  63.5840760  36.7153170  24.6452550  64.9252210  38.7927860  32.0099890
  65.4237460  39.2673680  32.6751740  65.0675160  37.8691380  32.2169920
  67.3311710  34.0981820  25.4503150  67.2079490  34.1167950  24.5012660
  68.2796270  34.1460760  25.5701550  64.4188500  49.3337120  24.7231130
  64.6730000  49.2958510  23.8010500  63.4700980  49.2070450  24.7159380
  61.5031300  35.6816240  21.3858070  62.3521830  36.1186390  21.3198260
  61.1362570  35.9936500  22.2130130  72.1319070  35.0095820  32.8528280
  71.6292670  35.7501220  33.1922090  72.9475730  35.3979820  32.5365070
  70.4241080  40.2529000  26.2989640  69.4831220  40.2679230  26.4737330
  70.7385150  39.4664960  26.7449940  60.4022720  41.9348600  19.8593600
  61.1685990  41.8229960  20.4219030  60.4797410  41.2386570  19.2070370
  59.0969480  39.3673670  20.5426490  59.1773070  38.4201180  20.6543890
  59.9889230  39.6980550  20.6487150  72.4266660  47.4237850  27.9743900
  72.5514080  48.2469020  28.4467710  73.2932220  47.2128580  27.6268050
  59.8984190  49.5169060  27.6461030  60.6346670  48.9684520  27.9169600
  60.2825110  50.3825070  27.5067020  56.7829670  45.5842630  23.5202540
  55.8569450  45.8263770  23.5107950  57.2486100  46.4116890  23.3987290
  58.9042470  48.7015130  36.8346610  59.7055200  49.0227180  37.2482010
  58.3894290  48.3410710  37.5566520  63.0086500  48.6899370  19.4686600
  63.8015110  48.9788200  19.0168390  62.4890850  48.2591540  18.7899080
  67.7407100  44.8095000  36.7822020  67.1345260  44.8326600  36.0417770
  67.4361210  44.0778040  37.3189270  69.1707470  48.5375290  35.3931430
  70.1229220  48.4533310  35.3431670  69.0235690  49.2017000  36.0665220
  72.0616670  47.9169500  20.8923340  71.7758180  47.5034640  20.0777520
  71.8636220  48.8457210  20.7723860  56.6240280  41.1888590  35.7782660
  57.1279300  40.6095870  36.3498890  55.8847700  41.4728820  36.3159030
  63.5263900  43.9102780  19.3328950  63.4214540  43.2955130  20.0590330
  63.3588120  43.3868670  18.5491960  63.6778220  42.5959580  35.3118180
  62.9123890  43.1644580  35.2272850  63.8594180  42.3035790  34.4186410
  66.7666630  42.9722810  19.9370940  66.2176730  43.4192110  20.5813680
  67.3885890  42.4672060  20.4608610  70.8201570  44.3264910  35.8693200
  71.5611040  44.6640670  35.3660660  70.0574250  44.4956970  35.3162970
  58.6563360  39.3318180  36.6732730  58.6968700  39.0332050  37.5817960
  59.5108860  39.7325790  36.5140250  62.4341750  41.9313730  21.8336240
  62.8558170  41.7653600  22.6767630  62.5592590  41.1213960  21.3391380
  60.5969170  37.9110280  34.6407220  60.0665630  37.4201230  34.0130560
  61.2657240  38.3394480  34.1065150  64.9469390  40.9551340  19.0813340
  65.4675050  40.2400360  18.7154490  65.5937790  41.5937210  19.3813850
  69.4947230  42.3779740  34.4048410  69.9088250  42.5324820  35.2538830
  68.5598230  42.5034960  34.5674190  69.9669400  39.7175900  36.4087560
  70.5490170  38.9628220  36.3208040  70.1431170  40.2483340  35.6319040
  61.0841470  34.8772650  34.7204510  60.9898340  34.2593400  33.9955380
  60.5038860  35.6038940  34.4934420  63.8502910  33.4345890  31.7531900
  63.4020210  33.4570150  30.9077450  63.2168110  33.0364910  32.3502200
  64.2562460  42.3300220  32.3744340  64.6750570  43.1732950  32.2020580
  63.3371090  42.4672260  32.1451120  66.5926360  40.0616400  33.7582180
  66.7122570  39.4657540  34.4977020  67.4520360  40.0986090  33.3383480
  68.9314260  40.6153590  32.3344690  68.4049480  41.1396210  31.7309830
  69.2745600  41.2480980  32.9654420  61.3300650  38.0046960  18.7794400
  61.1289710  37.1414320  19.1407740  61.1592700  37.9180320  17.8416000
  62.1069880  48.6353230  33.4902070  61.5690970  49.3599290  33.1710770
  62.3603840  48.1583570  32.6999410  63.3595130  36.6037750  35.0158000
  63.9494820  36.2953600  35.7035820  62.5415370  36.1317500  35.1717900
  68.1788560  36.2203560  35.2491020  67.4904080  35.5585100  35.1841010
  68.8994580  35.7741830  35.6939480  68.8088960  32.8155190  21.3081280
  69.0891250  31.9723090  21.6640700  68.0354690  33.0478300  21.8220030
  60.1283450  35.1047580  18.7672280  60.4309350  35.1115010  17.8591430
  60.8678040  34.7545440  19.2639940  64.9632090  49.8704440  33.7488720
  64.8890790  50.7739580  34.0561090  64.0610930  49.5516340  33.7210790
  63.3468380  34.0482200  19.7528480  62.9990380  33.3706190  19.1730930
  63.5481150  33.5871710  20.5671870  65.5117420  49.0362950  21.3715080
  66.4068210  49.3747920  21.3933840  65.5435050  48.3142360  20.7439360
  59.1513580  44.4090000  19.6002080  59.5888450  44.9519670  20.2559660
  59.6361310  43.5836950  19.6098420  56.3659380  47.1979030  27.0522340
  56.6962390  46.3300090  26.8200980  56.7950380  47.4037550  27.8827300
  60.9621300  45.5288040  24.7124310  60.6616840  45.4053010  25.6128220
  60.8558790  44.6696630  24.3040040  56.8549590  48.0649620  29.7903970
  56.4180580  48.2450420  30.6228120  57.4227270  48.8224240  29.6485690
  72.4911770  47.5666620  34.0781280  71.8913760  47.6259180  33.3345200
  72.6205670  46.6271600  34.2078130  73.7313220  45.3084440  19.4150990
  72.9006180  45.3761090  19.8858220  73.9085050  46.1988560  19.1117850
  73.1869680  42.0531920  21.9185190  73.9488590  42.6228570  22.0244880
  73.2024050  41.4859120  22.6893500  56.6874020  40.5769850  26.1492850
  56.0322860  40.3081490  25.5052550  57.5251970  40.4674330  25.6994830
  74.1929650  42.9082020  26.7627120  74.5638480  42.1249340  26.3563090
  74.8331580  43.5971120  26.5844420  71.1763410  44.2918600  32.1757440
  70.3623250  44.7215760  32.4383230  71.5837610  44.9037010  31.5626490
  73.2388850  42.3466290  19.0757710  73.5137690  43.2545170  18.9476930
  73.0499590  42.2828820  20.0119700  69.6364460  35.3711140  20.3711340
  70.0549340  35.1842120  19.5308000  69.3300520  34.5190190  20.6814270
  73.1354190  40.2835280  24.0687140  72.7597790  39.5163210  23.6368430
  72.4057310  40.6657980  24.5562070  57.7249950  40.9622420  30.6896190
  58.0922990  40.8749820  31.5692210  57.1560770  40.1988970  30.5903050
  72.5253810  39.4306800  33.7026660  72.2939900  39.2019550  32.8024610
  72.7858360  40.3506350  33.6571550  57.2765950  37.8731510  34.5954610
  56.3822000  37.8398270  34.9348320  57.8163500  38.0718300  35.3605860
  70.9641880  34.6563230  36.4806360  71.8412060  34.6646630  36.8640360
  70.9762720  33.9194070  35.8698710  55.9012100  37.7868780  22.0918180
  54.9976180  38.0498980  21.9169840  56.3852720  38.0579950  21.3118140
  72.4105150  38.5092770  27.3694380  72.9342630  38.0155420  26.7384550
  72.9964570  38.6443130  28.1141950  72.5894870  38.5932640  30.8913930
  71.6397580  38.5596180  31.0058920  72.7707880  39.5032750  30.6563700
  58.4439310  36.8434320  20.0012560  59.1531010  36.4217540  19.5159840
  57.7279250  36.9109550  19.3695910  58.0913470  32.8973650  19.0415210
  58.8141600  33.4382590  19.3596430  58.3637990  32.6237070  18.1656750
  71.9005120  37.7666120  23.3086790  72.3964240  37.5336990  24.0935670
  71.7021190  36.9277960  22.8924430  57.7805660  32.1479840  28.9437830
  58.4281850  31.5977220  28.5032990  58.2007500  32.4022990  29.7653640
  73.3292280  36.4027070  25.8424470  73.2191560  36.2483110  26.7806740
  74.0899870  35.8748010  25.5999880  71.6758000  32.3421200  32.3007470
  72.3130220  32.9555340  32.6666660  71.8232890  32.3781860  31.3556700
  74.2182550  34.2334990  19.0830610  75.1431860  34.1016170  18.8748900
  74.1958340  34.3127810  20.0367060  74.2921040  35.0045650  21.7087320
  73.4972540  34.9390770  22.2380230  74.4964320  35.9396290  21.6972670
  71.2339460  49.0437200  25.7025710  71.8298530  48.7221770  25.0260130
  71.4917610  48.5709020  26.4938980  57.5337660  32.3035510  31.6863150
  57.1852480  32.7599330  32.4521330  57.2025360  31.4092640  31.7685580
  59.1402030  45.4755110  35.8516340  59.0971660  45.1048020  36.7330800
  59.2713040  46.4132680  35.9918160  62.8408060  47.0314700  31.4526060
  62.5999420  47.2989260  30.5656580  63.7810700  47.2020430  31.5076920
  65.0462480  33.4947390  35.2082570  64.9851370  34.0869220  35.9577980
  65.9862860  33.3873350  35.0632830  67.6837040  33.1517450  34.8474860
  68.2977450  33.4696740  34.1855940  68.2286600  32.6666040  35.4670720
  74.1012220  49.0509080  32.2536700  73.6070500  49.4477950  31.5363830
  73.4925510  48.4258290  32.6473980  58.2058300  31.8311710  34.9613920
  58.7541290  31.6499760  34.1980030  58.2713610  31.0405820  35.4970230
  58.9790060  48.4217360  32.9714120  58.3850380  48.2902060  33.7104160
  58.9713900  47.5855500  32.5056220  68.4245080  31.7149590  31.1744150
  67.5504920  32.0484700  30.9717080  68.3155830  31.2422770  31.9996020
  69.3317060  33.9220460  32.5585870  69.0030420  33.1072220  32.1787600
  70.2799360  33.8790270  32.4351560  71.7851670  49.6932500  29.5323440
  71.3254640  50.4448310  29.1581460  71.1564130  48.9738970  29.4738240
  58.6102290  45.7875740  31.9222160  57.8836350  45.1681030  31.8548110
  58.6711440  46.1816350  31.0520240  62.2147390  48.0020740  28.7071570
  62.7312410  47.3908100  28.1819830  62.8644770  48.5049520  29.1982580
  64.9542890  48.8929230  29.5340550  65.2420700  48.6383530  28.6573560
  65.4666110  48.3406590  30.1246120  66.1719900  32.6319430  30.1137060
  65.3891690  33.1064930  30.3933820  65.8782830  31.7274260  30.0050240
  70.7240970  33.3342530  28.1586150  71.1649060  33.2787630  27.3107750
  70.4548560  34.2500540  28.2296330  72.5879540  32.9657770  26.1694970
  72.5267940  32.0218990  26.0225990  73.3671570  33.0737860  26.7148430
  56.8932290  49.1050130  25.1318920  56.7254330  48.4720810  25.8300810
  56.0266800  49.3109530  24.7813110  57.5160310  32.9366910  22.6350780
  58.2739670  33.0495790  22.0614810  57.0537480  33.7736110  22.5894210
  64.0574120  35.0506180  25.6253090  63.2448630  34.6763070  25.2848970
  64.5615760  34.2951260  25.9274280  68.5599100  31.7148630  26.8636160
  69.1628470  32.2868840  27.3384680  67.8192090  32.2788070  26.6410060
  71.7033700  32.1170190  22.1376440  71.8984330  33.0153640  22.4043870
  70.9163570  31.8857270  22.6309390  58.4994990  47.7983360  22.5769060
  57.9742610  48.1791390  21.8731020  58.4239570  48.4234130  23.2978770
  59.8885460  33.4630960  21.1752750  60.4178220  32.6760760  21.0460700
  60.5213780  34.1422150  21.4088280  62.0823300  33.2006100  24.2298140
  61.4526040  32.4993410  24.3968270  61.5428440  33.9610230  24.0131300
  65.0215250  49.8145330  36.9008750  65.9482560  49.5789600  36.9444710
  65.0065680  50.6417330  36.4194780  73.2560310  49.3570900  23.8983000
  73.4312500  48.6708640  23.2543920  72.5581880  49.8817950  23.5059670
  62.2078860  32.4790080  36.6650630  61.9263130  32.9823680  35.9011450
  62.5898560  31.6811830  36.2992760  61.0987960  49.7465740  21.4518310
  61.8306780  49.4625020  20.9042200  61.3581630  49.5079020  22.3417690
  60.2602750  45.8630470  21.4564640  59.6311630  46.3315570  22.0050470
  60.3750580  45.0179690  21.8910830  68.8094320  31.8943660  37.2431100
  68.6959770  32.2138270  38.1382620  69.6264060  32.2956170  36.9468380
  71.5892810  49.0415190  36.7249790  72.3818130  48.5464420  36.5175750
  71.8825960  49.7205330  37.3325400  67.7152470  39.9136130   7.6065840
  67.6346520  38.9990740   7.3357550  67.3016890  40.4103200   6.9005550
  65.8470510  41.6915150   9.4875110  65.0712610  41.2115590   9.7773680
  66.4983440  41.0120800   9.3131270  59.8636340  42.0034960  10.3650870
  59.0321220  41.7483670  10.7647380  60.4717320  42.0745730  11.1008790
  69.8677940  46.0975340   8.2674240  69.4059470  45.3262580   8.5961410
  70.6803490  46.1241410   8.7726690  59.8437600  46.0375050  10.5608890
  60.1465640  45.1472790  10.3819110  60.5881190  46.5945270  10.3331140
  58.2728290  36.9636850   4.1493260  57.3844990  37.3052820   4.0473140
  58.5569480  36.7637170   3.2574090  56.2361300  39.5642500  10.0332960
  56.8077410  38.7964700  10.0336600  56.2362840  39.8631260   9.1239570
  66.0941250  48.3833350   7.8878230  65.4752690  48.8390850   7.3172670
  66.9493030  48.5384810   7.4867930  65.2879500  44.3672340   9.4945270
  65.2187780  43.4262280   9.3334400  66.0499360  44.4573750  10.0667840
  57.4786170  34.9726860  11.8201890  57.2989010  34.0752610  12.1004650
  57.0766250  35.5198730  12.4948840  66.3184670  37.1742720   9.7214200
  66.6949490  36.3014600   9.6087870  66.2204180  37.5101420   8.8304640
  60.4489680  35.5468350   5.1831640  60.5556430  36.4472080   5.4900400
  59.5382040  35.4986320   4.8926290  70.1008790  34.6693160   6.6542540
  70.9218410  34.1789730   6.6968020  70.1342870  35.2590820   7.4074380
  58.0972840  37.4687360  10.4284230  58.7782950  37.7325730  11.0471630
  57.7820890  36.6288230  10.7622240  62.2897410  38.5154720   9.5156820
  62.7975630  39.0135690  10.1561840  62.8210650  37.7389920   9.3396180
  74.3908340  36.6859910  13.2186170  73.6860510  37.0741620  12.7001280
  74.6566260  37.3810200  13.8207100  60.5733510  33.1553280  13.7820240
  60.5751950  33.6725670  12.9766140  59.7437820  32.6783460  13.7590170
  66.9604600  43.2672590   5.2810140  66.3421870  43.7322040   4.7172860
  67.4727850  43.9600070   5.6979650  61.8236360  42.7948460  11.9593740
  61.4905740  43.4217380  12.6014810  62.0003040  43.3210340  11.1795410
  70.3370270  36.6093540   9.4270080  69.6325840  36.8978430  10.0073190
  70.6982430  37.4193650   9.0669640  60.2548840  34.8663240  11.7890690
  60.5965650  35.7105290  11.4944560  59.3164650  35.0146980  11.9056030
  61.0355460  44.7629260  13.7742920  61.6529460  45.4380340  13.4927370
  60.1748580  45.1717240  13.6830420  56.3287800  43.9529120   2.6549770
  55.9515780  44.4416220   1.9234670  56.5860870  44.6254400   3.2856300
  71.9533050  46.2268670  11.6897560  71.2696570  46.8967780  11.6814230
  72.4927340  46.4249320  10.9242420  73.4057190  36.0548330   9.8179290
  72.4582100  36.0887310   9.9494720  73.7307180  36.8687280  10.2028650
  63.9376730  32.3545510   8.1135280  64.2451710  31.7992400   7.3970780
  63.0077430  32.4889970   7.9308270  69.4891790  48.0712800  10.4042740
  69.5018950  47.6675090   9.5365000  68.9367010  48.8460090  10.3004170
  70.7837210  44.7929020   5.4932910  70.6733540  43.8503350   5.6182330
  70.7805460  45.1544660   6.3795670  68.8877230  42.9742640  11.7325350
  69.3046020  42.7602750  10.8978810  69.6117050  43.2315430  12.3033970
  66.3257490  40.4194340   4.8495400  65.3986770  40.3531720   5.0783870
  66.4782310  41.3574470   4.7350640  72.8339330  41.3729860  11.8241590
  72.0057960  41.4422950  11.3491720  73.4289810  41.9584170  11.3557420
  70.3554780  41.9814640   5.3530650  69.7367200  41.6434190   4.7056950
  70.3379230  41.3374400   6.0609840  69.7981340  38.1599180  12.7696460
  69.3852520  38.9852890  13.0236450  69.0657290  37.5744220  12.5772820
  61.9314130  40.9459080   7.6315130  61.5271130  40.2336330   7.1361030
  62.0177250  40.6012320   8.5203170  62.3995830  44.6326640   9.7954340
  62.1024120  44.0272110   9.1162120  63.3495650  44.6703950   9.6843700
  60.6442750  37.7202290  11.4114170  61.1957340  37.8297630  10.6367420
  61.1586260  38.0939890  12.1269400  70.4881440  48.2058510  13.4577440
  70.0112000  49.0130700  13.2650050  69.8043230  47.5536840  13.6103650
  61.4914260  44.3708330  16.4462140  60.5942790  44.5948300  16.6935540
  61.5167130  44.4943270  15.4973540  68.5319480  41.2201450   2.3603400
  68.9712760  40.3823880   2.2141220  69.2447900  41.8530850   2.4467540
  60.3185480  41.2421650  15.0219510  60.1793250  42.1144450  15.3906910
  59.4366840  40.8994460  14.8767450  66.6414860  46.1597520   6.3284640
  67.0810770  46.9021850   5.9140030  66.5801750  46.4024090   7.2523600
  62.1165830  47.1843350  17.2304660  62.0881260  47.5886300  16.3633090
  61.9530800  46.2553710  17.0676260  58.6318760  39.8404060   5.1321780
  58.5116360  40.5666150   4.5203050  58.3219650  39.0706970   4.6549690
  74.0680650  47.9670450  18.5268830  74.5440370  48.4453340  19.2057910
  74.6887810  47.8987940  17.8014330  56.2704130  43.0119200  10.9390420
  56.3484550  43.1467970   9.9946140  56.8845810  42.3035090  11.1318540
  57.5151760  44.7119390   7.3496600  57.1079840  44.8533980   6.4950200
  58.4064770  44.4279550   7.1467810  73.4713900  45.1583300  15.6868840
  73.5976960  44.9195180  14.7686020  73.5135280  44.3267840  16.1590920
  67.3330640  48.8611300  14.2563650  67.8475310  48.7719310  15.0586080
  66.4899720  49.2071000  14.5491560  69.3085040  49.1466640   3.6847650
  69.1486180  48.8569580   4.5829480  69.1431750  48.3706770   3.1492880
  61.7873420  48.9265170   5.4619270  61.6115900  48.0100710   5.2487070
  60.9329160  49.2852460   5.7017070  68.5761100  48.2816910   6.3194140
  69.0318050  47.5006290   6.6332760  68.9153620  48.9923730   6.8635320
  73.3237910  37.2115760  16.6518580  72.7082180  37.7195430  16.1234040
  73.0034330  36.3114090  16.5944520  56.3263650  44.0533370  13.4784880
  56.4894690  43.5838730  12.6604250  56.7916100  43.5456930  14.1433720
  61.0982420  33.1839130   8.5145450  60.6550570  33.9648670   8.1829970
  61.6567410  33.5069020   9.2216390  65.3852230  36.0507650  14.1180770
  64.9231600  36.2590670  14.9300710  64.9830340  35.2367000  13.8151440
  70.3856740  37.2716600  15.2477430  69.5350330  36.9722350  15.5686500
  70.2258530  37.5158610  14.3361250  67.4806450  38.7718350  17.3476220
  67.8059860  37.9382100  17.0078450  68.2686780  39.2946870  17.4954550
  64.2141240  32.8049830   3.3951280  63.5895420  32.8009700   4.1204590
  64.1271360  31.9380790   2.9987250  63.1358320  33.7286460  10.3735050
  63.4330650  34.6349290  10.2927070  63.6843880  33.2405240   9.7594620
  60.8896640  38.3072700   6.2426700  60.6637560  38.0909870   7.1473320
  60.1089170  38.7401160   5.8972670  68.1194400  38.3136070   4.8417350
  67.5203290  39.0371870   4.6580970  68.6674010  38.2512850   4.0593800
  63.3295850  39.2058280  16.9086970  63.2339450  38.2653010  16.7587370
  64.1727830  39.4273350  16.5135040  66.7259270  36.9499610   6.8720630
  67.1188840  37.2671810   6.0589320  67.0876120  36.0711490   6.9865150
  58.4606390  35.6171950  15.0620750  58.0669780  36.4647160  15.2693530
  57.7724790  34.9798320  15.2529390  65.0351440  35.7006920  18.1317490
  64.3449760  35.5079120  18.7663580  65.7783740  35.9841560  18.6641790
  55.7623440  33.5400410   9.0950830  55.4736490  34.1103270   9.8075810
  56.5069200  33.0604860   9.4582060  67.3114410  39.5405360  10.9671410
  66.5795530  40.0492170  11.3161510  66.9138750  38.7235340  10.6660190
  63.7491800  36.2159560   9.3723900  63.7527860  35.7749510   8.5228440
  64.6442920  36.5376890   9.4795720  59.5994180  36.0986050   8.3318110
  59.2594230  36.5761280   9.0885160  58.8371500  35.6451170   7.9719210
  63.8111950  37.2171640   2.3630660  63.9324770  37.1758120   3.3116480
  63.4260460  38.0795790   2.2077390  67.7740320  34.9939040  10.3794350
  67.7913060  35.4447690  11.2236200  67.5255900  34.0944680  10.5927790
  71.2011070  32.4071220  16.2180730  71.5256840  31.6760880  16.7438710
  71.2367580  32.0884860  15.3161720  57.9002630  43.4284800  15.6380690
  57.5157420  42.7878470  16.2363650  58.2114820  44.1320920  16.2075420
  64.0499770  40.2761340  11.1189310  64.4169900  39.8019910  11.8650650
  63.8604830  41.1502910  11.4597650  56.9140260  35.0205030   7.2482780
  56.6287180  34.6560700   8.0861400  56.8519120  34.2885490   6.6345920
  61.8399140  39.3169980  13.4373520  61.5356210  40.1961960  13.6623880
  62.7945600  39.3769770  13.4730960  60.3680930  43.5230970   4.0340370
  59.5943190  42.9828590   3.8739090  61.0975560  43.0037580   3.6958130
  71.1268910  42.5196330   9.8266760  71.8468030  43.0151620   9.4362870
  70.9250730  41.8414220   9.1820630  66.5878850  33.9134290   3.9696150
  65.7743460  33.4147460   3.8941460  66.3940800  34.7532540   3.5532500
  66.5087710  42.5905390  15.7135760  66.4425020  41.6701060  15.4593350
  65.8792850  42.6880830  16.4280400  69.3027240  38.2853940   2.2658310
  70.1906860  38.5971170   2.0909650  69.2732330  37.4126190   1.8738890
  60.4118330  43.1911350   7.6719180  60.9297000  42.3879610   7.6176070
  59.9602350  43.1290490   8.5136010  65.2987830  44.4577630   2.9446480
  65.6403530  45.2019860   2.4489800  64.4700540  44.7708750   3.3071310
  57.8962870  40.1572720  14.5844880  57.5377810  40.8226570  15.1718220
  57.6017430  39.3256270  14.9557500  61.0975990  40.6156960  17.4684430
  60.7976130  40.7614140  16.5712250  61.8687230  40.0562250  17.3757820
  66.4404440  45.4125960  15.4639560  66.4548980  44.4806920  15.2458470
  65.7329540  45.4985720  16.1029330  72.6515650  42.0533300  14.8108140
  71.9263840  42.6462080  14.6137530  73.1791110  42.0456840  14.0121510
  72.6028760  46.4508040   4.4620300  71.9604920  45.7963660   4.7364020
  72.2159420  46.8563130   3.6860970  68.1815240  43.7793470   8.3091990
  68.5339060  43.1821600   7.6493360  67.2977570  43.4537700   8.4800240
  64.2678520  44.5391160   5.7162400  64.9549650  45.0860370   6.0969990
  63.4810940  45.0831890   5.7512010  63.5705730  41.5437190   5.3287760
  64.0268510  42.3542440   5.5547950  63.2193940  41.2260330   6.1606250
  65.8738340  47.0543530  12.5580060  66.5180560  47.2602910  13.2353480
  66.2367780  46.2931930  12.1050910  59.4717510  31.8874840   5.8010280
  59.3432140  31.8792740   6.7495200  58.6479530  32.2257930   5.4501290
  67.1470420  45.0575880  11.2757510  67.7892650  44.3569040  11.3889680
  67.6719770  45.8374320  11.0954400  68.9208040  45.8570780  14.4793570
  69.2564280  46.4437470  15.1571490  68.0008380  45.7263490  14.7091360
  56.4711440  33.6465960  15.2616980  55.7569960  33.8462880  15.8669590
  56.8906480  32.8705530  15.6331780  70.5742390  43.2596440   2.6610810
  70.2864090  43.7209130   3.4488690  71.3694560  42.7994210   2.9295030
  56.7584030  47.6346220  16.2483510  56.8675150  46.6940960  16.1078900
  56.1064590  47.9000970  15.5997240  64.7496620  45.9062110  17.6481630
  64.4293490  45.1871350  18.1927320  64.0754980  46.5817180  17.7217690
  62.7910790  46.7522560   2.5914780  62.7820890  47.4852250   1.9759290
  61.8709150  46.5054140   2.6841740  58.3917430  41.9737450   3.3361540
  57.7845380  42.7136350   3.3456840  58.8666780  42.0636810   2.5099740
  67.9650220  36.1388270  13.0118430  68.3331040  35.3183480  13.3398000
  67.1048420  36.1990160  13.4274080  71.3312250  35.0945210   3.8205990
  70.7025410  35.1990880   3.1064220  70.8364170  35.3141990   4.6099870
  63.2996280  37.3731160   5.2363870  62.5912430  37.8417500   5.6777480
  63.5840760  36.7153170   5.8709060  64.9252210  38.7927860  13.2356400
  65.4237460  39.2673680  13.9008250  65.0675160  37.8691380  13.4426430
  67.3311710  34.0981820   6.6759660  67.2079490  34.1167950   5.7269170
  68.2796270  34.1460760   6.7958060  64.4188500  49.3337120   5.9487640
  64.6730000  49.2958510   5.0267010  63.4700980  49.2070450   5.9415890
  61.5031300  35.6816240   2.6114580  62.3521830  36.1186390   2.5454770
  61.1362570  35.9936500   3.4386640  72.1319070  35.0095820  14.0784790
  71.6292670  35.7501220  14.4178600  72.9475730  35.3979820  13.7621580
  70.4241080  40.2529000   7.5246150  69.4831220  40.2679230   7.6993840
  70.7385150  39.4664960   7.9706450  59.0969480  39.3673670   1.7683000
  59.1773070  38.4201180   1.8800400  59.9889230  39.6980550   1.8743660
  72.4266660  47.4237850   9.2000410  72.5514080  48.2469020   9.6724220
  73.2932220  47.2128580   8.8524560  59.8984190  49.5169060   8.8717540
  60.6346670  48.9684520   9.1426110  60.2825110  50.3825070   8.7323530
  56.7829670  45.5842630   4.7459050  55.8569450  45.8263770   4.7364460
  57.2486100  46.4116890   4.6243800  58.9042470  48.7015130  18.0603120
  59.7055200  49.0227180  18.4738520  58.3894290  48.3410710  18.7823030
  67.7407100  44.8095000  18.0078530  67.1345260  44.8326600  17.2674280
  67.4361210  44.0778040  18.5445780  69.1707470  48.5375290  16.6187940
  70.1229220  48.4533310  16.5688180  69.0235690  49.2017000  17.2921730
  56.6240280  41.1888590  17.0039170  57.1279300  40.6095870  17.5755400
  55.8847700  41.4728820  17.5415540  63.6778220  42.5959580  16.5374690
  62.9123890  43.1644580  16.4529360  63.8594180  42.3035790  15.6442920
  70.8201570  44.3264910  17.0949710  71.5611040  44.6640670  16.5917170
  70.0574250  44.4956970  16.5419480  58.6563360  39.3318180  17.8989240
  58.6968700  39.0332050  18.8074470  59.5108860  39.7325790  17.7396760
  62.4341750  41.9313730   3.0592750  62.8558170  41.7653600   3.9024140
  62.5592590  41.1213960   2.5647890  60.5969170  37.9110280  15.8663730
  60.0665630  37.4201230  15.2387070  61.2657240  38.3394480  15.3321660
  69.4947230  42.3779740  15.6304920  69.9088250  42.5324820  16.4795340
  68.5598230  42.5034960  15.7930700  69.9669400  39.7175900  17.6344070
  70.5490170  38.9628220  17.5464550  70.1431170  40.2483340  16.8575550
  61.0841470  34.8772650  15.9461020  60.9898340  34.2593400  15.2211890
  60.5038860  35.6038940  15.7190930  63.8502910  33.4345890  12.9788410
  63.4020210  33.4570150  12.1333960  63.2168110  33.0364910  13.5758710
  64.2562460  42.3300220  13.6000850  64.6750570  43.1732950  13.4277090
  63.3371090  42.4672260  13.3707630  66.5926360  40.0616400  14.9838690
  66.7122570  39.4657540  15.7233530  67.4520360  40.0986090  14.5639990
  68.9314260  40.6153590  13.5601200  68.4049480  41.1396210  12.9566340
  69.2745600  41.2480980  14.1910930  62.1069880  48.6353230  14.7158580
  61.5690970  49.3599290  14.3967280  62.3603840  48.1583570  13.9255920
  63.3595130  36.6037750  16.2414510  63.9494820  36.2953600  16.9292330
  62.5415370  36.1317500  16.3974410  68.1788560  36.2203560  16.4747530
  67.4904080  35.5585100  16.4097520  68.8994580  35.7741830  16.9195990
  68.8088960  32.8155190   2.5337790  69.0891250  31.9723090   2.8897210
  68.0354690  33.0478300   3.0476540  64.9632090  49.8704440  14.9745230
  64.8890790  50.7739580  15.2817600  64.0610930  49.5516340  14.9467300
  65.5117420  49.0362950   2.5971590  66.4068210  49.3747920   2.6190350
  65.5435050  48.3142360   1.9695870  56.3659380  47.1979030   8.2778850
  56.6962390  46.3300090   8.0457490  56.7950380  47.4037550   9.1083810
  60.9621300  45.5288040   5.9380820  60.6616840  45.4053010   6.8384730
  60.8558790  44.6696630   5.5296550  56.8549590  48.0649620  11.0160480
  56.4180580  48.2450420  11.8484630  57.4227270  48.8224240  10.8742200
  72.4911770  47.5666620  15.3037790  71.8913760  47.6259180  14.5601710
  72.6205670  46.6271600  15.4334640  73.1869680  42.0531920   3.1441700
  73.9488590  42.6228570   3.2501390  73.2024050  41.4859120   3.9150010
  56.6874020  40.5769850   7.3749360  56.0322860  40.3081490   6.7309060
  57.5251970  40.4674330   6.9251340  74.1929650  42.9082020   7.9883630
  74.5638480  42.1249340   7.5819600  74.8331580  43.5971120   7.8100930
  71.1763410  44.2918600  13.4013950  70.3623250  44.7215760  13.6639740
  71.5837610  44.9037010  12.7883000  73.1354190  40.2835280   5.2943650
  72.7597790  39.5163210   4.8624940  72.4057310  40.6657980   5.7818580
  57.7249950  40.9622420  11.9152700  58.0922990  40.8749820  12.7948720
  57.1560770  40.1988970  11.8159560  72.5253810  39.4306800  14.9283170
  72.2939900  39.2019550  14.0281120  72.7858360  40.3506350  14.8828060
  57.2765950  37.8731510  15.8211120  56.3822000  37.8398270  16.1604830
  57.8163500  38.0718300  16.5862370  70.9641880  34.6563230  17.7062870
  71.8412060  34.6646630  18.0896870  70.9762720  33.9194070  17.0955220
  55.9012100  37.7868780   3.3174690  54.9976180  38.0498980   3.1426350
  56.3852720  38.0579950   2.5374650  72.4105150  38.5092770   8.5950890
  72.9342630  38.0155420   7.9641060  72.9964570  38.6443130   9.3398460
  72.5894870  38.5932640  12.1170440  71.6397580  38.5596180  12.2315430
  72.7707880  39.5032750  11.8820210  71.9005120  37.7666120   4.5343300
  72.3964240  37.5336990   5.3192180  71.7021190  36.9277960   4.1180940
  57.7805660  32.1479840  10.1694340  58.4281850  31.5977220   9.7289500
  58.2007500  32.4022990  10.9910150  73.3292280  36.4027070   7.0680980
  73.2191560  36.2483110   8.0063250  74.0899870  35.8748010   6.8256390
  71.6758000  32.3421200  13.5263980  72.3130220  32.9555340  13.8923170
  71.8232890  32.3781860  12.5813210  74.2921040  35.0045650   2.9343830
  73.4972540  34.9390770   3.4636740  74.4964320  35.9396290   2.9229180
  71.2339460  49.0437200   6.9282220  71.8298530  48.7221770   6.2516640
  71.4917610  48.5709020   7.7195490  57.5337660  32.3035510  12.9119660
  57.1852480  32.7599330  13.6777840  57.2025360  31.4092640  12.9942090
  59.1402030  45.4755110  17.0772850  59.0971660  45.1048020  17.9587310
  59.2713040  46.4132680  17.2174670  62.8408060  47.0314700  12.6782570
  62.5999420  47.2989260  11.7913090  63.7810700  47.2020430  12.7333430
  65.0462480  33.4947390  16.4339080  64.9851370  34.0869220  17.1834490
  65.9862860  33.3873350  16.2889340  67.6837040  33.1517450  16.0731370
  68.2977450  33.4696740  15.4112450  68.2286600  32.6666040  16.6927230
  74.1012220  49.0509080  13.4793210  73.6070500  49.4477950  12.7620340
  73.4925510  48.4258290  13.8730490  58.2058300  31.8311710  16.1870430
  58.7541290  31.6499760  15.4236540  58.2713610  31.0405820  16.7226740
  58.9790060  48.4217360  14.1970630  58.3850380  48.2902060  14.9360670
  58.9713900  47.5855500  13.7312730  68.4245080  31.7149590  12.4000660
  67.5504920  32.0484700  12.1973590  68.3155830  31.2422770  13.2252530
  69.3317060  33.9220460  13.7842380  69.0030420  33.1072220  13.4044110
  70.2799360  33.8790270  13.6608070  71.7851670  49.6932500  10.7579950
  71.3254640  50.4448310  10.3837970  71.1564130  48.9738970  10.6994750
  58.6102290  45.7875740  13.1478670  57.8836350  45.1681030  13.0804620
  58.6711440  46.1816350  12.2776750  62.2147390  48.0020740   9.9328080
  62.7312410  47.3908100   9.4076340  62.8644770  48.5049520  10.4239090
  64.9542890  48.8929230  10.7597060  65.2420700  48.6383530   9.8830070
  65.4666110  48.3406590  11.3502630  66.1719900  32.6319430  11.3393570
  65.3891690  33.1064930  11.6190330  65.8782830  31.7274260  11.2306750
  70.7240970  33.3342530   9.3842660  71.1649060  33.2787630   8.5364260
  70.4548560  34.2500540   9.4552840  72.5879540  32.9657770   7.3951480
  72.5267940  32.0218990   7.2482500  73.3671570  33.0737860   7.9404940
  56.8932290  49.1050130   6.3575430  56.7254330  48.4720810   7.0557320
  56.0266800  49.3109530   6.0069620  57.5160310  32.9366910   3.8607290
  58.2739670  33.0495790   3.2871320  57.0537480  33.7736110   3.8150720
  64.0574120  35.0506180   6.8509600  63.2448630  34.6763070   6.5105480
  64.5615760  34.2951260   7.1530790  68.5599100  31.7148630   8.0892670
  69.1628470  32.2868840   8.5641190  67.8192090  32.2788070   7.8666570
  71.7033700  32.1170190   3.3632950  71.8984330  33.0153640   3.6300380
  70.9163570  31.8857270   3.8565900  58.4994990  47.7983360   3.8025570
  57.9742610  48.1791390   3.0987530  58.4239570  48.4234130   4.5235280
  59.8885460  33.4630960   2.4009260  60.4178220  32.6760760   2.2717210
  60.5213780  34.1422150   2.6344790  62.0823300  33.2006100   5.4554650
  61.4526040  32.4993410   5.6224780  61.5428440  33.9610230   5.2387810
  65.0215250  49.8145330  18.1265260  65.9482560  49.5789600  18.1701220
  65.0065680  50.6417330  17.6451290  73.2560310  49.3570900   5.1239510
  73.4312500  48.6708640   4.4800430  72.5581880  49.8817950   4.7316180
  62.2078860  32.4790080  17.8907140  61.9263130  32.9823680  17.1267960
  62.5898560  31.6811830  17.5249270  61.0987960  49.7465740   2.6774820
  61.8306780  49.4625020   2.1298710  61.3581630  49.5079020   3.5674200
  60.2602750  45.8630470   2.6821150  59.6311630  46.3315570   3.2306980
  60.3750580  45.0179690   3.1167340  68.8094320  31.8943660  18.4687610
  68.6959770  32.2138270  19.3639130  69.6264060  32.2956170  18.1724890
  71.5892810  49.0415190  17.9506300  72.3818130  48.5464420  17.7432260
  71.8825960  49.7205330  18.5581910  67.7152470  21.1392640  63.9296310
  67.6346520  20.2247250  63.6588020  67.3016890  21.6359710  63.2236020
  65.8470510  22.9171660  65.8105580  65.0712610  22.4372100  66.1004150
  66.4983440  22.2377310  65.6361740  59.8636340  23.2291470  66.6881340
  59.0321220  22.9740180  67.0877850  60.4717320  23.3002240  67.4239260
  69.8677940  27.3231850  64.5904710  69.4059470  26.5519090  64.9191880
  70.6803490  27.3497920  65.0957160  59.8437600  27.2631560  66.8839360
  60.1465640  26.3729300  66.7049580  60.5881190  27.8201780  66.6561610
  58.2728290  18.1893360  60.4723730  57.3844990  18.5309330  60.3703610
  58.5569480  17.9893680  59.5804560  56.2361300  20.7899010  66.3563430
  56.8077410  20.0221210  66.3567070  56.2362840  21.0887770  65.4470040
  66.0941250  29.6089860  64.2108700  65.4752690  30.0647360  63.6403140
  66.9493030  29.7641320  63.8098400  65.2879500  25.5928850  65.8175740
  65.2187780  24.6518790  65.6564870  66.0499360  25.6830260  66.3898310
  57.4786170  16.1983370  68.1432360  57.2989010  15.3009120  68.4235120
  57.0766250  16.7455240  68.8179310  66.3184670  18.3999230  66.0444670
  66.6949490  17.5271110  65.9318340  66.2204180  18.7357930  65.1535110
  60.4489680  16.7724860  61.5062110  60.5556430  17.6728590  61.8130870
  59.5382040  16.7242830  61.2156760  70.1008790  15.8949670  62.9773010
  70.9218410  15.4046240  63.0198490  70.1342870  16.4847330  63.7304850
  58.0972840  18.6943870  66.7514700  58.7782950  18.9582240  67.3702100
  57.7820890  17.8544740  67.0852710  62.2897410  19.7411230  65.8387290
  62.7975630  20.2392200  66.4792310  62.8210650  18.9646430  65.6626650
  74.3908340  17.9116420  69.5416640  73.6860510  18.2998130  69.0231750
  74.6566260  18.6066710  70.1437570  60.5733510  14.3809790  70.1050710
  60.5751950  14.8982180  69.2996610  59.7437820  13.9039970  70.0820640
  66.9604600  24.4929100  61.6040610  66.3421870  24.9578550  61.0403330
  67.4727850  25.1856580  62.0210120  61.8236360  24.0204970  68.2824210
  61.4905740  24.6473890  68.9245280  62.0003040  24.5466850  67.5025880
  70.3370270  17.8350050  65.7500550  69.6325840  18.1234940  66.3303660
  70.6982430  18.6450160  65.3900110  60.2548840  16.0919750  68.1121160
  60.5965650  16.9361800  67.8175030  59.3164650  16.2403490  68.2286500
  61.0355460  25.9885770  70.0973390  61.6529460  26.6636850  69.8157840
  60.1748580  26.3973750  70.0060890  56.3287800  25.1785630  58.9780240
  55.9515780  25.6672730  58.2465140  56.5860870  25.8510910  59.6086770
  71.9533050  27.4525180  68.0128030  71.2696570  28.1224290  68.0044700
  72.4927340  27.6505830  67.2472890  73.4057190  17.2804840  66.1409760
  72.4582100  17.3143820  66.2725190  73.7307180  18.0943790  66.5259120
  63.9376730  13.5802020  64.4365750  64.2451710  13.0248910  63.7201250
  63.0077430  13.7146480  64.2538740  69.4891790  29.2969310  66.7273210
  69.5018950  28.8931600  65.8595470  68.9367010  30.0716600  66.6234640
  70.7837210  26.0185530  61.8163380  70.6733540  25.0759860  61.9412800
  70.7805460  26.3801170  62.7026140  68.8877230  24.1999150  68.0555820
  69.3046020  23.9859260  67.2209280  69.6117050  24.4571940  68.6264440
  66.3257490  21.6450850  61.1725870  65.3986770  21.5788230  61.4014340
  66.4782310  22.5830980  61.0581110  66.3126570  17.9167850  58.1693030
  65.3730240  18.0781810  58.2545490  66.6309830  18.6353530  57.6229020
  72.8339330  22.5986370  68.1472060  72.0057960  22.6679460  67.6722190
  73.4289810  23.1840680  67.6787890  70.3554780  23.2071150  61.6761120
  69.7367200  22.8690700  61.0287420  70.3379230  22.5630910  62.3840310
  69.7981340  19.3855690  69.0926930  69.3852520  20.2109400  69.3466920
  69.0657290  18.8000730  68.9003290  61.9314130  22.1715590  63.9545600
  61.5271130  21.4592840  63.4591500  62.0177250  21.8268830  64.8433640
  62.3995830  25.8583150  66.1184810  62.1024120  25.2528620  65.4392590
  63.3495650  25.8960460  66.0074170  60.6442750  18.9458800  67.7344640
  61.1957340  19.0554140  66.9597890  61.1586260  19.3196400  68.4499870
  70.4881440  29.4315020  69.7807910  70.0112000  30.2387210  69.5880520
  69.8043230  28.7793350  69.9334120  68.5319480  22.4457960  58.6833870
  68.9712760  21.6080390  58.5371690  69.2447900  23.0787360  58.7698010
  60.3185480  22.4678160  71.3449980  60.1793250  23.3400960  71.7137380
  59.4366840  22.1250970  71.1997920  66.6414860  27.3854030  62.6515110
  67.0810770  28.1278360  62.2370500  66.5801750  27.6280600  63.5754070
  72.1136620  13.7000770  56.9974910  71.8009280  13.7927600  57.8973980
  72.8749090  14.2781800  56.9472340  58.6318760  21.0660570  61.4552250
  58.5116360  21.7922660  60.8433520  58.3219650  20.2963480  60.9780160
  56.2704130  24.2375710  67.2620890  56.3484550  24.3724480  66.3176610
  56.8845810  23.5291600  67.4549010  57.5151760  25.9375900  63.6727070
  57.1079840  26.0790490  62.8180670  58.4064770  25.6536060  63.4698280
  73.4713900  26.3839810  72.0099310  73.5976960  26.1451690  71.0916490
  73.5135280  25.5524350  72.4821390  67.3330640  30.0867810  70.5794120
  67.8475310  29.9975820  71.3816550  66.4899720  30.4327510  70.8722030
  69.3085040  30.3723150  60.0078120  69.1486180  30.0826090  60.9059950
  69.1431750  29.5963280  59.4723350  61.7873420  30.1521680  61.7849740
  61.6115900  29.2357220  61.5717540  60.9329160  30.5108970  62.0247540
  69.0111170  27.8810710  58.5676120  68.3176330  27.8788000  57.9078400
  69.7534030  27.4570030  58.1370290  68.5761100  29.5073420  62.6424610
  69.0318050  28.7262800  62.9563230  68.9153620  30.2180240  63.1865790
  73.3237910  18.4372270  72.9749050  72.7082180  18.9451940  72.4464510
  73.0034330  17.5370600  72.9174990  56.3263650  25.2789880  69.8015350
  56.4894690  24.8095240  68.9834720  56.7916100  24.7713440  70.4664190
  61.0982420  14.4095640  64.8375920  60.6550570  15.1905180  64.5060440
  61.6567410  14.7325530  65.5446860  65.3852230  17.2764160  70.4411240
  64.9231600  17.4847180  71.2531180  64.9830340  16.4623510  70.1381910
  70.3856740  18.4973110  71.5707900  69.5350330  18.1978860  71.8916970
  70.2258530  18.7415120  70.6591720  64.2141240  14.0306340  59.7181750
  63.5895420  14.0266210  60.4435060  64.1271360  13.1637300  59.3217720
  63.1358320  14.9542970  66.6965520  63.4330650  15.8605800  66.6157540
  63.6843880  14.4661750  66.0825090  60.8896640  19.5329210  62.5657170
  60.6637560  19.3166380  63.4703790  60.1089170  19.9657670  62.2203140
  68.1194400  19.5392580  61.1647820  67.5203290  20.2628380  60.9811440
  68.6674010  19.4769360  60.3824270  66.7259270  18.1756120  63.1951100
  67.1188840  18.4928320  62.3819790  67.0876120  17.2968000  63.3095620
  58.4606390  16.8428460  71.3851220  58.0669780  17.6903670  71.5924000
  57.7724790  16.2054830  71.5759860  55.7623440  14.7656920  65.4181300
  55.4736490  15.3359780  66.1306280  56.5069200  14.2861370  65.7812530
  55.9493670  18.7077040  56.6284020  55.8668340  19.6507800  56.7699010
  55.5976730  18.5651950  55.7496370  67.3114410  20.7661870  67.2901880
  66.5795530  21.2748680  67.6391980  66.9138750  19.9491850  66.9890660
  63.7491800  17.4416070  65.6954370  63.7527860  17.0006020  64.8458910
  64.6442920  17.7633400  65.8026190  59.5994180  17.3242560  64.6548580
  59.2594230  17.8017790  65.4115630  58.8371500  16.8707680  64.2949680
  63.8111950  18.4428150  58.6861130  63.9324770  18.4014630  59.6346950
  63.4260460  19.3052300  58.5307860  67.7740320  16.2195550  66.7024820
  67.7913060  16.6704200  67.5466670  67.5255900  15.3201190  66.9158260
  62.8233450  20.7529290  58.0844430  62.2550350  20.3047540  57.4580340
  63.5322450  21.1122070  57.5509580  57.9002630  24.6541310  71.9611160
  57.5157420  24.0134980  72.5594120  58.2114820  25.3577430  72.5305890
  64.0499770  21.5017850  67.4419780  64.4169900  21.0276420  68.1881120
  63.8604830  22.3759420  67.7828120  56.9140260  16.2461540  63.5713250
  56.6287180  15.8817210  64.4091870  56.8519120  15.5142000  62.9576390
  61.8399140  20.5426490  69.7603990  61.5356210  21.4218470  69.9854350
  62.7945600  20.6026280  69.7961430  60.3680930  24.7487480  60.3570840
  59.5943190  24.2085100  60.1969560  61.0975560  24.2294090  60.0188600
  71.1268910  23.7452840  66.1497230  71.8468030  24.2408130  65.7593340
  70.9250730  23.0670730  65.5051100  66.5878850  15.1390800  60.2926620
  65.7743460  14.6403970  60.2171930  66.3940800  15.9789050  59.8762970
  66.5087710  23.8161900  72.0366230  66.4425020  22.8957570  71.7823820
  65.8792850  23.9137340  72.7510870  69.3027240  19.5110450  58.5888780
  70.1906860  19.8227680  58.4140120  69.2732330  18.6382700  58.1969360
  60.4118330  24.4167860  63.9949650  60.9297000  23.6136120  63.9406540
  59.9602350  24.3547000  64.8366480  65.2987830  25.6834140  59.2676950
  65.6403530  26.4276370  58.7720270  64.4700540  25.9965260  59.6301780
  57.8962870  21.3829230  70.9075350  57.5377810  22.0483080  71.4948690
  57.6017430  20.5512780  71.2787970  66.4404440  26.6382470  71.7870030
  66.4548980  25.7063430  71.5688940  65.7329540  26.7242230  72.4259800
  71.5741510  20.8222290  58.0568640  71.4905230  21.2536510  57.2065080
  72.2935700  21.2820640  58.4895460  72.6515650  23.2789810  71.1338610
  71.9263840  23.8718590  70.9368000  73.1791110  23.2713350  70.3351980
  72.6028760  27.6764550  60.7850770  71.9604920  27.0220170  61.0594490
  72.2159420  28.0819640  60.0091440  68.1815240  25.0049980  64.6322460
  68.5339060  24.4078110  63.9723830  67.2977570  24.6794210  64.8030710
  64.2678520  25.7647670  62.0392870  64.9549650  26.3116880  62.4200460
  63.4810940  26.3088400  62.0742480  56.4070920  21.3820490  57.5309950
  57.2765770  21.6645290  57.8145870  55.9161240  22.1956360  57.4158760
  63.5705730  22.7693700  61.6518230  64.0268510  23.5798950  61.8778420
  63.2193940  22.4516840  62.4836720  65.8738340  28.2800040  68.8810530
  66.5180560  28.4859420  69.5583950  66.2367780  27.5188440  68.4281380
  59.4717510  13.1131350  62.1240750  59.3432140  13.1049250  63.0725670
  58.6479530  13.4514440  61.7731760  67.1470420  26.2832390  67.5987980
  67.7892650  25.5825550  67.7120150  67.6719770  27.0630830  67.4184870
  70.9926140  26.5681010  57.3227120  70.7663720  25.8511450  57.9151760
  70.6022340  26.3193450  56.4848870  68.9208040  27.0827290  70.8024040
  69.2564280  27.6693980  71.4801960  68.0008380  26.9520000  71.0321830
  56.7742170  30.5947870  58.0971580  57.1339810  31.1937210  57.4428850
  56.6334510  31.1407760  58.8706610  56.4711440  14.8722470  71.5847450
  55.7569960  15.0719390  72.1900060  56.8906480  14.0962040  71.9562250
  70.5742390  24.4852950  58.9841280  70.2864090  24.9465640  59.7719160
  71.3694560  24.0250720  59.2525500  56.7584030  28.8602730  72.5713980
  56.8675150  27.9197470  72.4309370  56.1064590  29.1257480  71.9227710
  62.7910790  27.9779070  58.9145250  62.7820890  28.7108760  58.2989760
  61.8709150  27.7310650  59.0072210  58.3917430  23.1993960  59.6592010
  57.7845380  23.9392860  59.6687310  58.8666780  23.2893320  58.8330210
  67.9650220  17.3644780  69.3348900  68.3331040  16.5439990  69.6628470
  67.1048420  17.4246670  69.7504550  71.3312250  16.3201720  60.1436460
  70.7025410  16.4247390  59.4294690  70.8364170  16.5398500  60.9330340
  65.7770390  28.0407310  57.5770440  65.8782370  27.8371300  56.6472420
  64.8772130  27.7865590  57.7818220  63.2996280  18.5987670  61.5594340
  62.5912430  19.0674010  62.0007950  63.5840760  17.9409680  62.1939530
  64.9252210  20.0184370  69.5586870  65.4237460  20.4930190  70.2238720
  65.0675160  19.0947890  69.7656900  67.3311710  15.3238330  62.9990130
  67.2079490  15.3424460  62.0499640  68.2796270  15.3717270  63.1188530
  64.4188500  30.5593630  62.2718110  64.6730000  30.5215020  61.3497480
  63.4700980  30.4326960  62.2646360  61.5031300  16.9072750  58.9345050
  62.3521830  17.3442900  58.8685240  61.1362570  17.2193010  59.7617110
  72.1319070  16.2352330  70.4015260  71.6292670  16.9757730  70.7409070
  72.9475730  16.6236330  70.0852050  70.4241080  21.4785510  63.8476620
  69.4831220  21.4935740  64.0224310  70.7385150  20.6921470  64.2936920
  60.4022720  23.1605110  57.4080580  61.1685990  23.0486470  57.9706010
  60.4797410  22.4643080  56.7557350  59.0969480  20.5930180  58.0913470
  59.1773070  19.6457690  58.2030870  59.9889230  20.9237060  58.1974130
  72.4266660  28.6494360  65.5230880  72.5514080  29.4725530  65.9954690
  73.2932220  28.4385090  65.1755030  59.8984190  30.7425570  65.1948010
  60.6346670  30.1941030  65.4656580  60.2825110  31.6081580  65.0554000
  56.7829670  26.8099140  61.0689520  55.8569450  27.0520280  61.0594930
  57.2486100  27.6373400  60.9474270  63.0086500  29.9155880  57.0173580
  63.8015110  30.2044710  56.5655370  62.4890850  29.4848050  56.3386060
  72.0616670  29.1426010  58.4410320  71.7758180  28.7291150  57.6264500
  71.8636220  30.0713720  58.3210840  63.5263900  25.1359290  56.8815930
  63.4214540  24.5211640  57.6077310  63.3588120  24.6125180  56.0978940
  63.6778220  23.8216090  72.8605160  62.9123890  24.3901090  72.7759830
  63.8594180  23.5292300  71.9673390  66.7666630  24.1979320  57.4857920
  66.2176730  24.6448620  58.1300660  67.3885890  23.6928570  58.0095590
  62.4341750  23.1570240  59.3823220  62.8558170  22.9910110  60.2254610
  62.5592590  22.3470470  58.8878360  60.5969170  19.1366790  72.1894200
  60.0665630  18.6457740  71.5617540  61.2657240  19.5650990  71.6552130
  64.9469390  22.1807850  56.6300320  65.4675050  21.4656870  56.2641470
  65.5937790  22.8193720  56.9300830  69.4947230  23.6036250  71.9535390
  69.9088250  23.7581330  72.8025810  68.5598230  23.7291470  72.1161170
  61.0841470  16.1029160  72.2691490  60.9898340  15.4849910  71.5442360
  60.5038860  16.8295450  72.0421400  63.8502910  14.6602400  69.3018880
  63.4020210  14.6826660  68.4564430  63.2168110  14.2621420  69.8989180
  64.2562460  23.5556730  69.9231320  64.6750570  24.3989460  69.7507560
  63.3371090  23.6928770  69.6938100  66.5926360  21.2872910  71.3069160
  66.7122570  20.6914050  72.0464000  67.4520360  21.3242600  70.8870460
  68.9314260  21.8410100  69.8831670  68.4049480  22.3652720  69.2796810
  69.2745600  22.4737490  70.5141400  61.3300650  19.2303470  56.3281380
  61.1289710  18.3670830  56.6894720  61.1592700  19.1436830  55.3902980
  62.1069880  29.8609740  71.0389050  61.5690970  30.5855800  70.7197750
  62.3603840  29.3840080  70.2486390  68.8088960  14.0411700  58.8568260
  69.0891250  13.1979600  59.2127680  68.0354690  14.2734810  59.3707010
  60.1283450  16.3304090  56.3159260  60.4309350  16.3371520  55.4078410
  60.8678040  15.9801950  56.8126920  64.9632090  31.0960950  71.2975700
  64.8890790  31.9996090  71.6048070  64.0610930  30.7772850  71.2697770
  63.3468380  15.2738710  57.3015460  62.9990380  14.5962700  56.7217910
  63.5481150  14.8128220  58.1158850  65.5117420  30.2619460  58.9202060
  66.4068210  30.6004430  58.9420820  65.5435050  29.5398870  58.2926340
  59.1513580  25.6346510  57.1489060  59.5888450  26.1776180  57.8046640
  59.6361310  24.8093460  57.1585400  56.3659380  28.4235540  64.6009320
  56.6962390  27.5556600  64.3687960  56.7950380  28.6294060  65.4314280
  60.9621300  26.7544550  62.2611290  60.6616840  26.6309520  63.1615200
  60.8558790  25.8953140  61.8527020  56.8549590  29.2906130  67.3390950
  56.4180580  29.4706930  68.1715100  57.4227270  30.0480750  67.1972670
  72.4911770  28.7923130  71.6268260  71.8913760  28.8515690  70.8832180
  72.6205670  27.8528110  71.7565110  73.7313220  26.5340950  56.9637970
  72.9006180  26.6017600  57.4345200  73.9085050  27.4245070  56.6604830
  73.1869680  23.2788430  59.4672170  73.9488590  23.8485080  59.5731860
  73.2024050  22.7115630  60.2380480  56.6874020  21.8026360  63.6979830
  56.0322860  21.5338000  63.0539530  57.5251970  21.6930840  63.2481810
  74.1929650  24.1338530  64.3114100  74.5638480  23.3505850  63.9050070
  74.8331580  24.8227630  64.1331400  71.1763410  25.5175110  69.7244420
  70.3623250  25.9472270  69.9870210  71.5837610  26.1293520  69.1113470
  73.2388850  23.5722800  56.6244690  73.5137690  24.4801680  56.4963910
  73.0499590  23.5085330  57.5606680  69.6364460  16.5967650  57.9198320
  70.0549340  16.4098630  57.0794980  69.3300520  15.7446700  58.2301250
  73.1354190  21.5091790  61.6174120  72.7597790  20.7419720  61.1855410
  72.4057310  21.8914490  62.1049050  57.7249950  22.1878930  68.2383170
  58.0922990  22.1006330  69.1179190  57.1560770  21.4245480  68.1390030
  72.5253810  20.6563310  71.2513640  72.2939900  20.4276060  70.3511590
  72.7858360  21.5762860  71.2058530  57.2765950  19.0988020  72.1441590
  56.3822000  19.0654780  72.4835300  57.8163500  19.2974810  72.9092840
  55.9012100  19.0125290  59.6405160  54.9976180  19.2755490  59.4656820
  56.3852720  19.2836460  58.8605120  72.4105150  19.7349280  64.9181360
  72.9342630  19.2411930  64.2871530  72.9964570  19.8699640  65.6628930
  72.5894870  19.8189150  68.4400910  71.6397580  19.7852690  68.5545900
  72.7707880  20.7289260  68.2050680  58.4439310  18.0690830  57.5499540
  59.1531010  17.6474050  57.0646820  57.7279250  18.1366060  56.9182890
  58.0913470  14.1230160  56.5902190  58.8141600  14.6639100  56.9083410
  58.3637990  13.8493580  55.7143730  71.9005120  18.9922630  60.8573770
  72.3964240  18.7593500  61.6422650  71.7021190  18.1534470  60.4411410
  57.7805660  13.3736350  66.4924810  58.4281850  12.8233730  66.0519970
  58.2007500  13.6279500  67.3140620  73.3292280  17.6283580  63.3911450
  73.2191560  17.4739620  64.3293720  74.0899870  17.1004520  63.1486860
  71.6758000  13.5677710  69.8494450  72.3130220  14.1811850  70.2153640
  71.8232890  13.6038370  68.9043680  74.2182550  15.4591500  56.6317590
  75.1431860  15.3272680  56.4235880  74.1958340  15.5384320  57.5854040
  74.2921040  16.2302160  59.2574300  73.4972540  16.1647280  59.7867210
  74.4964320  17.1652800  59.2459650  71.2339460  30.2693710  63.2512690
  71.8298530  29.9478280  62.5747110  71.4917610  29.7965530  64.0425960
  57.5337660  13.5292020  69.2350130  57.1852480  13.9855840  70.0008310
  57.2025360  12.6349150  69.3172560  62.8408060  28.2571210  69.0013040
  62.5999420  28.5245770  68.1143560  63.7810700  28.4276940  69.0563900
  74.1012220  30.2765590  69.8023680  73.6070500  30.6734460  69.0850810
  73.4925510  29.6514800  70.1960960  58.9790060  29.6473870  70.5201100
  58.3850380  29.5158570  71.2591140  58.9713900  28.8112010  70.0543200
  68.4245080  12.9406100  68.7231130  67.5504920  13.2741210  68.5204060
  68.3155830  12.4679280  69.5483000  69.3317060  15.1476970  70.1072850
  69.0030420  14.3328730  69.7274580  70.2799360  15.1046780  69.9838540
  71.7851670  30.9189010  67.0810420  71.3254640  31.6704820  66.7068440
  71.1564130  30.1995480  67.0225220  58.6102290  27.0132250  69.4709140
  57.8836350  26.3937540  69.4035090  58.6711440  27.4072860  68.6007220
  62.2147390  29.2277250  66.2558550  62.7312410  28.6164610  65.7306810
  62.8644770  29.7306030  66.7469560  64.9542890  30.1185740  67.0827530
  65.2420700  29.8640040  66.2060540  65.4666110  29.5663100  67.6733100
  66.1719900  13.8575940  67.6624040  65.3891690  14.3321440  67.9420800
  65.8782830  12.9530770  67.5537220  70.7240970  14.5599040  65.7073130
  71.1649060  14.5044140  64.8594730  70.4548560  15.4757050  65.7783310
  72.5879540  14.1914280  63.7181950  72.5267940  13.2475500  63.5712970
  73.3671570  14.2994370  64.2635410  56.8932290  30.3306640  62.6805900
  56.7254330  29.6977320  63.3787790  56.0266800  30.5366040  62.3300090
  57.5160310  14.1623420  60.1837760  58.2739670  14.2752300  59.6101790
  57.0537480  14.9992620  60.1381190  64.0574120  16.2762690  63.1740070
  63.2448630  15.9019580  62.8335950  64.5615760  15.5207770  63.4761260
  68.5599100  12.9405140  64.4123140  69.1628470  13.5125350  64.8871660
  67.8192090  13.5044580  64.1897040  71.7033700  13.3426700  59.6863420
  71.8984330  14.2410150  59.9530850  70.9163570  13.1113780  60.1796370
  58.4994990  29.0239870  60.1256040  57.9742610  29.4047900  59.4218000
  58.4239570  29.6490640  60.8465750  59.8885460  14.6887470  58.7239730
  60.4178220  13.9017270  58.5947680  60.5213780  15.3678660  58.9575260
  62.0823300  14.4262610  61.7785120  61.4526040  13.7249920  61.9455250
  61.5428440  15.1866740  61.5618280  73.2560310  30.5827410  61.4469980
  73.4312500  29.8965150  60.8030900  72.5581880  31.1074460  61.0546650
  61.0987960  30.9722250  59.0005290  61.8306780  30.6881530  58.4529180
  61.3581630  30.7335530  59.8904670  60.2602750  27.0886980  59.0051620
  59.6311630  27.5572080  59.5537450  60.3750580  26.2436200  59.4397810
  67.7152470  21.1392640  45.1552820  67.6346520  20.2247250  44.8844530
  67.3016890  21.6359710  44.4492530  65.8470510  22.9171660  47.0362090
  65.0712610  22.4372100  47.3260660  66.4983440  22.2377310  46.8618250
  59.8636340  23.2291470  47.9137850  59.0321220  22.9740180  48.3134360
  60.4717320  23.3002240  48.6495770  69.8677940  27.3231850  45.8161220
  69.4059470  26.5519090  46.1448390  70.6803490  27.3497920  46.3213670
  59.8437600  27.2631560  48.1095870  60.1465640  26.3729300  47.9306090
  60.5881190  27.8201780  47.8818120  58.2728290  18.1893360  41.6980240
  57.3844990  18.5309330  41.5960120  58.5569480  17.9893680  40.8061070
  56.2361300  20.7899010  47.5819940  56.8077410  20.0221210  47.5823580
  56.2362840  21.0887770  46.6726550  66.0941250  29.6089860  45.4365210
  65.4752690  30.0647360  44.8659650  66.9493030  29.7641320  45.0354910
  65.2879500  25.5928850  47.0432250  65.2187780  24.6518790  46.8821380
  66.0499360  25.6830260  47.6154820  57.4786170  16.1983370  49.3688870
  57.2989010  15.3009120  49.6491630  57.0766250  16.7455240  50.0435820
  66.3184670  18.3999230  47.2701180  66.6949490  17.5271110  47.1574850
  66.2204180  18.7357930  46.3791620  60.4489680  16.7724860  42.7318620
  60.5556430  17.6728590  43.0387380  59.5382040  16.7242830  42.4413270
  70.1008790  15.8949670  44.2029520  70.9218410  15.4046240  44.2455000
  70.1342870  16.4847330  44.9561360  58.0972840  18.6943870  47.9771210
  58.7782950  18.9582240  48.5958610  57.7820890  17.8544740  48.3109220
  62.2897410  19.7411230  47.0643800  62.7975630  20.2392200  47.7048820
  62.8210650  18.9646430  46.8883160  74.3908340  17.9116420  50.7673150
  73.6860510  18.2998130  50.2488260  74.6566260  18.6066710  51.3694080
  60.5733510  14.3809790  51.3307220  60.5751950  14.8982180  50.5253120
  59.7437820  13.9039970  51.3077150  66.9604600  24.4929100  42.8297120
  66.3421870  24.9578550  42.2659840  67.4727850  25.1856580  43.2466630
  61.8236360  24.0204970  49.5080720  61.4905740  24.6473890  50.1501790
  62.0003040  24.5466850  48.7282390  70.3370270  17.8350050  46.9757060
  69.6325840  18.1234940  47.5560170  70.6982430  18.6450160  46.6156620
  60.2548840  16.0919750  49.3377670  60.5965650  16.9361800  49.0431540
  59.3164650  16.2403490  49.4543010  61.0355460  25.9885770  51.3229900
  61.6529460  26.6636850  51.0414350  60.1748580  26.3973750  51.2317400
  56.3287800  25.1785630  40.2036750  55.9515780  25.6672730  39.4721650
  56.5860870  25.8510910  40.8343280  71.9533050  27.4525180  49.2384540
  71.2696570  28.1224290  49.2301210  72.4927340  27.6505830  48.4729400
  73.4057190  17.2804840  47.3666270  72.4582100  17.3143820  47.4981700
  73.7307180  18.0943790  47.7515630  63.9376730  13.5802020  45.6622260
  64.2451710  13.0248910  44.9457760  63.0077430  13.7146480  45.4795250
  69.4891790  29.2969310  47.9529720  69.5018950  28.8931600  47.0851980
  68.9367010  30.0716600  47.8491150  70.7837210  26.0185530  43.0419890
  70.6733540  25.0759860  43.1669310  70.7805460  26.3801170  43.9282650
  68.8877230  24.1999150  49.2812330  69.3046020  23.9859260  48.4465790
  69.6117050  24.4571940  49.8520950  66.3257490  21.6450850  42.3982380
  65.3986770  21.5788230  42.6270850  66.4782310  22.5830980  42.2837620
  66.3126570  17.9167850  39.3949540  65.3730240  18.0781810  39.4802000
  66.6309830  18.6353530  38.8485530  72.8339330  22.5986370  49.3728570
  72.0057960  22.6679460  48.8978700  73.4289810  23.1840680  48.9044400
  70.3554780  23.2071150  42.9017630  69.7367200  22.8690700  42.2543930
  70.3379230  22.5630910  43.6096820  69.7981340  19.3855690  50.3183440
  69.3852520  20.2109400  50.5723430  69.0657290  18.8000730  50.1259800
  61.9314130  22.1715590  45.1802110  61.5271130  21.4592840  44.6848010
  62.0177250  21.8268830  46.0690150  62.3995830  25.8583150  47.3441320
  62.1024120  25.2528620  46.6649100  63.3495650  25.8960460  47.2330680
  60.6442750  18.9458800  48.9601150  61.1957340  19.0554140  48.1854400
  61.1586260  19.3196400  49.6756380  70.4881440  29.4315020  51.0064420
  70.0112000  30.2387210  50.8137030  69.8043230  28.7793350  51.1590630
  61.4914260  25.5964840  53.9949120  60.5942790  25.8204810  54.2422520
  61.5167130  25.7199780  53.0460520  68.5319480  22.4457960  39.9090380
  68.9712760  21.6080390  39.7628200  69.2447900  23.0787360  39.9954520
  60.3185480  22.4678160  52.5706490  60.1793250  23.3400960  52.9393890
  59.4366840  22.1250970  52.4254430  66.6414860  27.3854030  43.8771620
  67.0810770  28.1278360  43.4627010  66.5801750  27.6280600  44.8010580
  62.1165830  28.4099860  54.7791640  62.0881260  28.8142810  53.9120070
  61.9530800  27.4810220  54.6163240  72.1136620  13.7000770  38.2231420
  71.8009280  13.7927600  39.1230490  72.8749090  14.2781800  38.1728850
  58.6318760  21.0660570  42.6808760  58.5116360  21.7922660  42.0690030
  58.3219650  20.2963480  42.2036670  74.0680650  29.1926960  56.0755810
  74.5440370  29.6709850  56.7544890  74.6887810  29.1244450  55.3501310
  56.2704130  24.2375710  48.4877400  56.3484550  24.3724480  47.5433120
  56.8845810  23.5291600  48.6805520  57.5151760  25.9375900  44.8983580
  57.1079840  26.0790490  44.0437180  58.4064770  25.6536060  44.6954790
  73.4713900  26.3839810  53.2355820  73.5976960  26.1451690  52.3173000
  73.5135280  25.5524350  53.7077900  67.3330640  30.0867810  51.8050630
  67.8475310  29.9975820  52.6073060  66.4899720  30.4327510  52.0978540
  69.3085040  30.3723150  41.2334630  69.1486180  30.0826090  42.1316460
  69.1431750  29.5963280  40.6979860  61.7873420  30.1521680  43.0106250
  61.6115900  29.2357220  42.7974050  60.9329160  30.5108970  43.2504050
  69.0111170  27.8810710  39.7932630  68.3176330  27.8788000  39.1334910
  69.7534030  27.4570030  39.3626800  68.5761100  29.5073420  43.8681120
  69.0318050  28.7262800  44.1819740  68.9153620  30.2180240  44.4122300
  73.3237910  18.4372270  54.2005560  72.7082180  18.9451940  53.6721020
  73.0034330  17.5370600  54.1431500  56.3263650  25.2789880  51.0271860
  56.4894690  24.8095240  50.2091230  56.7916100  24.7713440  51.6920700
  61.0982420  14.4095640  46.0632430  60.6550570  15.1905180  45.7316950
  61.6567410  14.7325530  46.7703370  65.3852230  17.2764160  51.6667750
  64.9231600  17.4847180  52.4787690  64.9830340  16.4623510  51.3638420
  70.3856740  18.4973110  52.7964410  69.5350330  18.1978860  53.1173480
  70.2258530  18.7415120  51.8848230  67.4806450  19.9974860  54.8963200
  67.8059860  19.1638610  54.5565430  68.2686780  20.5203380  55.0441530
  64.2141240  14.0306340  40.9438260  63.5895420  14.0266210  41.6691570
  64.1271360  13.1637300  40.5474230  63.1358320  14.9542970  47.9222030
  63.4330650  15.8605800  47.8414050  63.6843880  14.4661750  47.3081600
  60.8896640  19.5329210  43.7913680  60.6637560  19.3166380  44.6960300
  60.1089170  19.9657670  43.4459650  68.1194400  19.5392580  42.3904330
  67.5203290  20.2628380  42.2067950  68.6674010  19.4769360  41.6080780
  63.3295850  20.4314790  54.4573950  63.2339450  19.4909520  54.3074350
  64.1727830  20.6529860  54.0622020  66.7259270  18.1756120  44.4207610
  67.1188840  18.4928320  43.6076300  67.0876120  17.2968000  44.5352130
  58.4606390  16.8428460  52.6107730  58.0669780  17.6903670  52.8180510
  57.7724790  16.2054830  52.8016370  65.0351440  16.9263430  55.6804470
  64.3449760  16.7335630  56.3150560  65.7783740  17.2098070  56.2128770
  55.7623440  14.7656920  46.6437810  55.4736490  15.3359780  47.3562790
  56.5069200  14.2861370  47.0069040  55.9493670  18.7077040  37.8540530
  55.8668340  19.6507800  37.9955520  55.5976730  18.5651950  36.9752880
  67.3114410  20.7661870  48.5158390  66.5795530  21.2748680  48.8648490
  66.9138750  19.9491850  48.2147170  63.7491800  17.4416070  46.9210880
  63.7527860  17.0006020  46.0715420  64.6442920  17.7633400  47.0282700
  59.5994180  17.3242560  45.8805090  59.2594230  17.8017790  46.6372140
  58.8371500  16.8707680  45.5206190  63.8111950  18.4428150  39.9117640
  63.9324770  18.4014630  40.8603460  63.4260460  19.3052300  39.7564370
  67.7740320  16.2195550  47.9281330  67.7913060  16.6704200  48.7723180
  67.5255900  15.3201190  48.1414770  62.8233450  20.7529290  39.3100940
  62.2550350  20.3047540  38.6836850  63.5322450  21.1122070  38.7766090
  71.2011070  13.6327730  53.7667710  71.5256840  12.9017390  54.2925690
  71.2367580  13.3141370  52.8648700  57.9002630  24.6541310  53.1867670
  57.5157420  24.0134980  53.7850630  58.2114820  25.3577430  53.7562400
  64.0499770  21.5017850  48.6676290  64.4169900  21.0276420  49.4137630
  63.8604830  22.3759420  49.0084630  56.9140260  16.2461540  44.7969760
  56.6287180  15.8817210  45.6348380  56.8519120  15.5142000  44.1832900
  61.8399140  20.5426490  50.9860500  61.5356210  21.4218470  51.2110860
  62.7945600  20.6026280  51.0217940  60.3680930  24.7487480  41.5827350
  59.5943190  24.2085100  41.4226070  61.0975560  24.2294090  41.2445110
  71.1268910  23.7452840  47.3753740  71.8468030  24.2408130  46.9849850
  70.9250730  23.0670730  46.7307610  66.5878850  15.1390800  41.5183130
  65.7743460  14.6403970  41.4428440  66.3940800  15.9789050  41.1019480
  66.5087710  23.8161900  53.2622740  66.4425020  22.8957570  53.0080330
  65.8792850  23.9137340  53.9767380  69.3027240  19.5110450  39.8145290
  70.1906860  19.8227680  39.6396630  69.2732330  18.6382700  39.4225870
  60.4118330  24.4167860  45.2206160  60.9297000  23.6136120  45.1663050
  59.9602350  24.3547000  46.0622990  65.2987830  25.6834140  40.4933460
  65.6403530  26.4276370  39.9976780  64.4700540  25.9965260  40.8558290
  57.8962870  21.3829230  52.1331860  57.5377810  22.0483080  52.7205200
  57.6017430  20.5512780  52.5044480  61.0975990  21.8413470  55.0171410
  60.7976130  21.9870650  54.1199230  61.8687230  21.2818760  54.9244800
  66.4404440  26.6382470  53.0126540  66.4548980  25.7063430  52.7945450
  65.7329540  26.7242230  53.6516310  71.5741510  20.8222290  39.2825150
  71.4905230  21.2536510  38.4321590  72.2935700  21.2820640  39.7151970
  72.6515650  23.2789810  52.3595120  71.9263840  23.8718590  52.1624510
  73.1791110  23.2713350  51.5608490  72.6028760  27.6764550  42.0107280
  71.9604920  27.0220170  42.2851000  72.2159420  28.0819640  41.2347950
  68.1815240  25.0049980  45.8578970  68.5339060  24.4078110  45.1980340
  67.2977570  24.6794210  46.0287220  64.2678520  25.7647670  43.2649380
  64.9549650  26.3116880  43.6456970  63.4810940  26.3088400  43.2998990
  56.4070920  21.3820490  38.7566460  57.2765770  21.6645290  39.0402380
  55.9161240  22.1956360  38.6415270  63.5705730  22.7693700  42.8774740
  64.0268510  23.5798950  43.1034930  63.2193940  22.4516840  43.7093230
  65.8738340  28.2800040  50.1067040  66.5180560  28.4859420  50.7840460
  66.2367780  27.5188440  49.6537890  59.4717510  13.1131350  43.3497260
  59.3432140  13.1049250  44.2982180  58.6479530  13.4514440  42.9988270
  67.1470420  26.2832390  48.8244490  67.7892650  25.5825550  48.9376660
  67.6719770  27.0630830  48.6441380  70.9926140  26.5681010  38.5483630
  70.7663720  25.8511450  39.1408270  70.6022340  26.3193450  37.7105380
  68.9208040  27.0827290  52.0280550  69.2564280  27.6693980  52.7058470
  68.0008380  26.9520000  52.2578340  56.7742170  30.5947870  39.3228090
  57.1339810  31.1937210  38.6685360  56.6334510  31.1407760  40.0963120
  56.4711440  14.8722470  52.8103960  55.7569960  15.0719390  53.4156570
  56.8906480  14.0962040  53.1818760  70.5742390  24.4852950  40.2097790
  70.2864090  24.9465640  40.9975670  71.3694560  24.0250720  40.4782010
  56.7584030  28.8602730  53.7970490  56.8675150  27.9197470  53.6565880
  56.1064590  29.1257480  53.1484220  64.7496620  27.1318620  55.1968610
  64.4293490  26.4127860  55.7414300  64.0754980  27.8073690  55.2704670
  62.7910790  27.9779070  40.1401760  62.7820890  28.7108760  39.5246270
  61.8709150  27.7310650  40.2328720  58.3917430  23.1993960  40.8848520
  57.7845380  23.9392860  40.8943820  58.8666780  23.2893320  40.0586720
  67.9650220  17.3644780  50.5605410  68.3331040  16.5439990  50.8884980
  67.1048420  17.4246670  50.9761060  71.3312250  16.3201720  41.3692970
  70.7025410  16.4247390  40.6551200  70.8364170  16.5398500  42.1586850
  65.7770390  28.0407310  38.8026950  65.8782370  27.8371300  37.8728930
  64.8772130  27.7865590  39.0074730  63.2996280  18.5987670  42.7850850
  62.5912430  19.0674010  43.2264460  63.5840760  17.9409680  43.4196040
  64.9252210  20.0184370  50.7843380  65.4237460  20.4930190  51.4495230
  65.0675160  19.0947890  50.9913410  67.3311710  15.3238330  44.2246640
  67.2079490  15.3424460  43.2756150  68.2796270  15.3717270  44.3445040
  64.4188500  30.5593630  43.4974620  64.6730000  30.5215020  42.5753990
  63.4700980  30.4326960  43.4902870  61.5031300  16.9072750  40.1601560
  62.3521830  17.3442900  40.0941750  61.1362570  17.2193010  40.9873620
  72.1319070  16.2352330  51.6271770  71.6292670  16.9757730  51.9665580
  72.9475730  16.6236330  51.3108560  70.4241080  21.4785510  45.0733130
  69.4831220  21.4935740  45.2480820  70.7385150  20.6921470  45.5193430
  60.4022720  23.1605110  38.6337090  61.1685990  23.0486470  39.1962520
  60.4797410  22.4643080  37.9813860  59.0969480  20.5930180  39.3169980
  59.1773070  19.6457690  39.4287380  59.9889230  20.9237060  39.4230640
  72.4266660  28.6494360  46.7487390  72.5514080  29.4725530  47.2211200
  73.2932220  28.4385090  46.4011540  59.8984190  30.7425570  46.4204520
  60.6346670  30.1941030  46.6913090  60.2825110  31.6081580  46.2810510
  56.7829670  26.8099140  42.2946030  55.8569450  27.0520280  42.2851440
  57.2486100  27.6373400  42.1730780  58.9042470  29.9271640  55.6090100
  59.7055200  30.2483690  56.0225500  58.3894290  29.5667220  56.3310010
  63.0086500  29.9155880  38.2430090  63.8015110  30.2044710  37.7911880
  62.4890850  29.4848050  37.5642570  67.7407100  26.0351510  55.5565510
  67.1345260  26.0583110  54.8161260  67.4361210  25.3034550  56.0932760
  69.1707470  29.7631800  54.1674920  70.1229220  29.6789820  54.1175160
  69.0235690  30.4273510  54.8408710  72.0616670  29.1426010  39.6666830
  71.7758180  28.7291150  38.8521010  71.8636220  30.0713720  39.5467350
  56.6240280  22.4145100  54.5526150  57.1279300  21.8352380  55.1242380
  55.8847700  22.6985330  55.0902520  63.5263900  25.1359290  38.1072440
  63.4214540  24.5211640  38.8333820  63.3588120  24.6125180  37.3235450
  63.6778220  23.8216090  54.0861670  62.9123890  24.3901090  54.0016340
  63.8594180  23.5292300  53.1929900  66.7666630  24.1979320  38.7114430
  66.2176730  24.6448620  39.3557170  67.3885890  23.6928570  39.2352100
  70.8201570  25.5521420  54.6436690  71.5611040  25.8897180  54.1404150
  70.0574250  25.7213480  54.0906460  58.6563360  20.5574690  55.4476220
  58.6968700  20.2588560  56.3561450  59.5108860  20.9582300  55.2883740
  62.4341750  23.1570240  40.6079730  62.8558170  22.9910110  41.4511120
  62.5592590  22.3470470  40.1134870  60.5969170  19.1366790  53.4150710
  60.0665630  18.6457740  52.7874050  61.2657240  19.5650990  52.8808640
  64.9469390  22.1807850  37.8556830  65.4675050  21.4656870  37.4897980
  65.5937790  22.8193720  38.1557340  69.4947230  23.6036250  53.1791900
  69.9088250  23.7581330  54.0282320  68.5598230  23.7291470  53.3417680
  69.9669400  20.9432410  55.1831050  70.5490170  20.1884730  55.0951530
  70.1431170  21.4739850  54.4062530  61.0841470  16.1029160  53.4948000
  60.9898340  15.4849910  52.7698870  60.5038860  16.8295450  53.2677910
  63.8502910  14.6602400  50.5275390  63.4020210  14.6826660  49.6820940
  63.2168110  14.2621420  51.1245690  64.2562460  23.5556730  51.1487830
  64.6750570  24.3989460  50.9764070  63.3371090  23.6928770  50.9194610
  66.5926360  21.2872910  52.5325670  66.7122570  20.6914050  53.2720510
  67.4520360  21.3242600  52.1126970  68.9314260  21.8410100  51.1088180
  68.4049480  22.3652720  50.5053320  69.2745600  22.4737490  51.7397910
  61.3300650  19.2303470  37.5537890  61.1289710  18.3670830  37.9151230
  61.1592700  19.1436830  36.6159490  62.1069880  29.8609740  52.2645560
  61.5690970  30.5855800  51.9454260  62.3603840  29.3840080  51.4742900
  63.3595130  17.8294260  53.7901490  63.9494820  17.5210110  54.4779310
  62.5415370  17.3574010  53.9461390  68.1788560  17.4460070  54.0234510
  67.4904080  16.7841610  53.9584500  68.8994580  16.9998340  54.4682970
  68.8088960  14.0411700  40.0824770  69.0891250  13.1979600  40.4384190
  68.0354690  14.2734810  40.5963520  60.1283450  16.3304090  37.5415770
  60.4309350  16.3371520  36.6334920  60.8678040  15.9801950  38.0383430
  64.9632090  31.0960950  52.5232210  64.8890790  31.9996090  52.8304580
  64.0610930  30.7772850  52.4954280  63.3468380  15.2738710  38.5271970
  62.9990380  14.5962700  37.9474420  63.5481150  14.8128220  39.3415360
  65.5117420  30.2619460  40.1458570  66.4068210  30.6004430  40.1677330
  65.5435050  29.5398870  39.5182850  59.1513580  25.6346510  38.3745570
  59.5888450  26.1776180  39.0303150  59.6361310  24.8093460  38.3841910
  56.3659380  28.4235540  45.8265830  56.6962390  27.5556600  45.5944470
  56.7950380  28.6294060  46.6570790  60.9621300  26.7544550  43.4867800
  60.6616840  26.6309520  44.3871710  60.8558790  25.8953140  43.0783530
  56.8549590  29.2906130  48.5647460  56.4180580  29.4706930  49.3971610
  57.4227270  30.0480750  48.4229180  72.4911770  28.7923130  52.8524770
  71.8913760  28.8515690  52.1088690  72.6205670  27.8528110  52.9821620
  73.7313220  26.5340950  38.1894480  72.9006180  26.6017600  38.6601710
  73.9085050  27.4245070  37.8861340  73.1869680  23.2788430  40.6928680
  73.9488590  23.8485080  40.7988370  73.2024050  22.7115630  41.4636990
  56.6874020  21.8026360  44.9236340  56.0322860  21.5338000  44.2796040
  57.5251970  21.6930840  44.4738320  74.1929650  24.1338530  45.5370610
  74.5638480  23.3505850  45.1306580  74.8331580  24.8227630  45.3587910
  71.1763410  25.5175110  50.9500930  70.3623250  25.9472270  51.2126720
  71.5837610  26.1293520  50.3369980  73.2388850  23.5722800  37.8501200
  73.5137690  24.4801680  37.7220420  73.0499590  23.5085330  38.7863190
  69.6364460  16.5967650  39.1454830  70.0549340  16.4098630  38.3051490
  69.3300520  15.7446700  39.4557760  73.1354190  21.5091790  42.8430630
  72.7597790  20.7419720  42.4111920  72.4057310  21.8914490  43.3305560
  57.7249950  22.1878930  49.4639680  58.0922990  22.1006330  50.3435700
  57.1560770  21.4245480  49.3646540  72.5253810  20.6563310  52.4770150
  72.2939900  20.4276060  51.5768100  72.7858360  21.5762860  52.4315040
  57.2765950  19.0988020  53.3698100  56.3822000  19.0654780  53.7091810
  57.8163500  19.2974810  54.1349350  70.9641880  15.8819740  55.2549850
  71.8412060  15.8903140  55.6383850  70.9762720  15.1450580  54.6442200
  55.9012100  19.0125290  40.8661670  54.9976180  19.2755490  40.6913330
  56.3852720  19.2836460  40.0861630  72.4105150  19.7349280  46.1437870
  72.9342630  19.2411930  45.5128040  72.9964570  19.8699640  46.8885440
  72.5894870  19.8189150  49.6657420  71.6397580  19.7852690  49.7802410
  72.7707880  20.7289260  49.4307190  58.4439310  18.0690830  38.7756050
  59.1531010  17.6474050  38.2903330  57.7279250  18.1366060  38.1439400
  58.0913470  14.1230160  37.8158700  58.8141600  14.6639100  38.1339920
  58.3637990  13.8493580  36.9400240  71.9005120  18.9922630  42.0830280
  72.3964240  18.7593500  42.8679160  71.7021190  18.1534470  41.6667920
  57.7805660  13.3736350  47.7181320  58.4281850  12.8233730  47.2776480
  58.2007500  13.6279500  48.5397130  73.3292280  17.6283580  44.6167960
  73.2191560  17.4739620  45.5550230  74.0899870  17.1004520  44.3743370
  71.6758000  13.5677710  51.0750960  72.3130220  14.1811850  51.4410150
  71.8232890  13.6038370  50.1300190  74.2182550  15.4591500  37.8574100
  75.1431860  15.3272680  37.6492390  74.1958340  15.5384320  38.8110550
  74.2921040  16.2302160  40.4830810  73.4972540  16.1647280  41.0123720
  74.4964320  17.1652800  40.4716160  71.2339460  30.2693710  44.4769200
  71.8298530  29.9478280  43.8003620  71.4917610  29.7965530  45.2682470
  57.5337660  13.5292020  50.4606640  57.1852480  13.9855840  51.2264820
  57.2025360  12.6349150  50.5429070  59.1402030  26.7011620  54.6259830
  59.0971660  26.3304530  55.5074290  59.2713040  27.6389190  54.7661650
  62.8408060  28.2571210  50.2269550  62.5999420  28.5245770  49.3400070
  63.7810700  28.4276940  50.2820410  65.0462480  14.7203900  53.9826060
  64.9851370  15.3125730  54.7321470  65.9862860  14.6129860  53.8376320
  67.6837040  14.3773960  53.6218350  68.2977450  14.6953250  52.9599430
  68.2286600  13.8922550  54.2414210  74.1012220  30.2765590  51.0280190
  73.6070500  30.6734460  50.3107320  73.4925510  29.6514800  51.4217470
  58.2058300  13.0568220  53.7357410  58.7541290  12.8756270  52.9723520
  58.2713610  12.2662330  54.2713720  58.9790060  29.6473870  51.7457610
  58.3850380  29.5158570  52.4847650  58.9713900  28.8112010  51.2799710
  68.4245080  12.9406100  49.9487640  67.5504920  13.2741210  49.7460570
  68.3155830  12.4679280  50.7739510  69.3317060  15.1476970  51.3329360
  69.0030420  14.3328730  50.9531090  70.2799360  15.1046780  51.2095050
  71.7851670  30.9189010  48.3066930  71.3254640  31.6704820  47.9324950
  71.1564130  30.1995480  48.2481730  58.6102290  27.0132250  50.6965650
  57.8836350  26.3937540  50.6291600  58.6711440  27.4072860  49.8263730
  62.2147390  29.2277250  47.4815060  62.7312410  28.6164610  46.9563320
  62.8644770  29.7306030  47.9726070  64.9542890  30.1185740  48.3084040
  65.2420700  29.8640040  47.4317050  65.4666110  29.5663100  48.8989610
  66.1719900  13.8575940  48.8880550  65.3891690  14.3321440  49.1677310
  65.8782830  12.9530770  48.7793730  70.7240970  14.5599040  46.9329640
  71.1649060  14.5044140  46.0851240  70.4548560  15.4757050  47.0039820
  72.5879540  14.1914280  44.9438460  72.5267940  13.2475500  44.7969480
  73.3671570  14.2994370  45.4891920  56.8932290  30.3306640  43.9062410
  56.7254330  29.6977320  44.6044300  56.0266800  30.5366040  43.5556600
  57.5160310  14.1623420  41.4094270  58.2739670  14.2752300  40.8358300
  57.0537480  14.9992620  41.3637700  64.0574120  16.2762690  44.3996580
  63.2448630  15.9019580  44.0592460  64.5615760  15.5207770  44.7017770
  68.5599100  12.9405140  45.6379650  69.1628470  13.5125350  46.1128170
  67.8192090  13.5044580  45.4153550  71.7033700  13.3426700  40.9119930
  71.8984330  14.2410150  41.1787360  70.9163570  13.1113780  41.4052880
  58.4994990  29.0239870  41.3512550  57.9742610  29.4047900  40.6474510
  58.4239570  29.6490640  42.0722260  59.8885460  14.6887470  39.9496240
  60.4178220  13.9017270  39.8204190  60.5213780  15.3678660  40.1831770
  62.0823300  14.4262610  43.0041630  61.4526040  13.7249920  43.1711760
  61.5428440  15.1866740  42.7874790  65.0215250  31.0401840  55.6752240
  65.9482560  30.8046110  55.7188200  65.0065680  31.8673840  55.1938270
  73.2560310  30.5827410  42.6726490  73.4312500  29.8965150  42.0287410
  72.5581880  31.1074460  42.2803160  62.2078860  13.7046590  55.4394120
  61.9263130  14.2080190  54.6754940  62.5898560  12.9068340  55.0736250
  61.0987960  30.9722250  40.2261800  61.8306780  30.6881530  39.6785690
  61.3581630  30.7335530  41.1161180  60.2602750  27.0886980  40.2308130
  59.6311630  27.5572080  40.7793960  60.3750580  26.2436200  40.6654320
  68.8094320  13.1200170  56.0174590  68.6959770  13.4394780  56.9126110
  69.6264060  13.5212680  55.7211870  71.5892810  30.2671700  55.4993280
  72.3818130  29.7720930  55.2919240  71.8825960  30.9461840  56.1068890
  67.7152470  21.1392640  26.3809330  67.6346520  20.2247250  26.1101040
  67.3016890  21.6359710  25.6749040  65.8470510  22.9171660  28.2618600
  65.0712610  22.4372100  28.5517170  66.4983440  22.2377310  28.0874760
  59.8636340  23.2291470  29.1394360  59.0321220  22.9740180  29.5390870
  60.4717320  23.3002240  29.8752280  69.8677940  27.3231850  27.0417730
  69.4059470  26.5519090  27.3704900  70.6803490  27.3497920  27.5470180
  59.8437600  27.2631560  29.3352380  60.1465640  26.3729300  29.1562600
  60.5881190  27.8201780  29.1074630  58.2728290  18.1893360  22.9236750
  57.3844990  18.5309330  22.8216630  58.5569480  17.9893680  22.0317580
  56.2361300  20.7899010  28.8076450  56.8077410  20.0221210  28.8080090
  56.2362840  21.0887770  27.8983060  66.0941250  29.6089860  26.6621720
  65.4752690  30.0647360  26.0916160  66.9493030  29.7641320  26.2611420
  65.2879500  25.5928850  28.2688760  65.2187780  24.6518790  28.1077890
  66.0499360  25.6830260  28.8411330  57.4786170  16.1983370  30.5945380
  57.2989010  15.3009120  30.8748140  57.0766250  16.7455240  31.2692330
  66.3184670  18.3999230  28.4957690  66.6949490  17.5271110  28.3831360
  66.2204180  18.7357930  27.6048130  60.4489680  16.7724860  23.9575130
  60.5556430  17.6728590  24.2643890  59.5382040  16.7242830  23.6669780
  70.1008790  15.8949670  25.4286030  70.9218410  15.4046240  25.4711510
  70.1342870  16.4847330  26.1817870  58.0972840  18.6943870  29.2027720
  58.7782950  18.9582240  29.8215120  57.7820890  17.8544740  29.5365730
  62.2897410  19.7411230  28.2900310  62.7975630  20.2392200  28.9305330
  62.8210650  18.9646430  28.1139670  74.3908340  17.9116420  31.9929660
  73.6860510  18.2998130  31.4744770  74.6566260  18.6066710  32.5950590
  60.5733510  14.3809790  32.5563730  60.5751950  14.8982180  31.7509630
  59.7437820  13.9039970  32.5333660  66.9604600  24.4929100  24.0553630
  66.3421870  24.9578550  23.4916350  67.4727850  25.1856580  24.4723140
  61.8236360  24.0204970  30.7337230  61.4905740  24.6473890  31.3758300
  62.0003040  24.5466850  29.9538900  70.3370270  17.8350050  28.2013570
  69.6325840  18.1234940  28.7816680  70.6982430  18.6450160  27.8413130
  60.2548840  16.0919750  30.5634180  60.5965650  16.9361800  30.2688050
  59.3164650  16.2403490  30.6799520  61.0355460  25.9885770  32.5486410
  61.6529460  26.6636850  32.2670860  60.1748580  26.3973750  32.4573910
  56.3287800  25.1785630  21.4293260  55.9515780  25.6672730  20.6978160
  56.5860870  25.8510910  22.0599790  71.9533050  27.4525180  30.4641050
  71.2696570  28.1224290  30.4557720  72.4927340  27.6505830  29.6985910
  73.4057190  17.2804840  28.5922780  72.4582100  17.3143820  28.7238210
  73.7307180  18.0943790  28.9772140  63.9376730  13.5802020  26.8878770
  64.2451710  13.0248910  26.1714270  63.0077430  13.7146480  26.7051760
  69.4891790  29.2969310  29.1786230  69.5018950  28.8931600  28.3108490
  68.9367010  30.0716600  29.0747660  70.7837210  26.0185530  24.2676400
  70.6733540  25.0759860  24.3925820  70.7805460  26.3801170  25.1539160
  68.8877230  24.1999150  30.5068840  69.3046020  23.9859260  29.6722300
  69.6117050  24.4571940  31.0777460  66.3257490  21.6450850  23.6238890
  65.3986770  21.5788230  23.8527360  66.4782310  22.5830980  23.5094130
  66.3126570  17.9167850  20.6206050  65.3730240  18.0781810  20.7058510
  66.6309830  18.6353530  20.0742040  72.8339330  22.5986370  30.5985080
  72.0057960  22.6679460  30.1235210  73.4289810  23.1840680  30.1300910
  70.3554780  23.2071150  24.1274140  69.7367200  22.8690700  23.4800440
  70.3379230  22.5630910  24.8353330  69.7981340  19.3855690  31.5439950
  69.3852520  20.2109400  31.7979940  69.0657290  18.8000730  31.3516310
  61.9314130  22.1715590  26.4058620  61.5271130  21.4592840  25.9104520
  62.0177250  21.8268830  27.2946660  62.3995830  25.8583150  28.5697830
  62.1024120  25.2528620  27.8905610  63.3495650  25.8960460  28.4587190
  60.6442750  18.9458800  30.1857660  61.1957340  19.0554140  29.4110910
  61.1586260  19.3196400  30.9012890  70.4881440  29.4315020  32.2320930
  70.0112000  30.2387210  32.0393540  69.8043230  28.7793350  32.3847140
  61.4914260  25.5964840  35.2205630  60.5942790  25.8204810  35.4679030
  61.5167130  25.7199780  34.2717030  68.5319480  22.4457960  21.1346890
  68.9712760  21.6080390  20.9884710  69.2447900  23.0787360  21.2211030
  60.3185480  22.4678160  33.7963000  60.1793250  23.3400960  34.1650400
  59.4366840  22.1250970  33.6510940  66.6414860  27.3854030  25.1028130
  67.0810770  28.1278360  24.6883520  66.5801750  27.6280600  26.0267090
  62.1165830  28.4099860  36.0048150  62.0881260  28.8142810  35.1376580
  61.9530800  27.4810220  35.8419750  72.1136620  13.7000770  19.4487930
  71.8009280  13.7927600  20.3487000  72.8749090  14.2781800  19.3985360
  58.6318760  21.0660570  23.9065270  58.5116360  21.7922660  23.2946540
  58.3219650  20.2963480  23.4293180  74.0680650  29.1926960  37.3012320
  74.5440370  29.6709850  37.9801400  74.6887810  29.1244450  36.5757820
  56.2704130  24.2375710  29.7133910  56.3484550  24.3724480  28.7689630
  56.8845810  23.5291600  29.9062030  57.5151760  25.9375900  26.1240090
  57.1079840  26.0790490  25.2693690  58.4064770  25.6536060  25.9211300
  73.4713900  26.3839810  34.4612330  73.5976960  26.1451690  33.5429510
  73.5135280  25.5524350  34.9334410  67.3330640  30.0867810  33.0307140
  67.8475310  29.9975820  33.8329570  66.4899720  30.4327510  33.3235050
  69.3085040  30.3723150  22.4591140  69.1486180  30.0826090  23.3572970
  69.1431750  29.5963280  21.9236370  61.7873420  30.1521680  24.2362760
  61.6115900  29.2357220  24.0230560  60.9329160  30.5108970  24.4760560
  69.0111170  27.8810710  21.0189140  68.3176330  27.8788000  20.3591420
  69.7534030  27.4570030  20.5883310  68.5761100  29.5073420  25.0937630
  69.0318050  28.7262800  25.4076250  68.9153620  30.2180240  25.6378810
  73.3237910  18.4372270  35.4262070  72.7082180  18.9451940  34.8977530
  73.0034330  17.5370600  35.3688010  56.3263650  25.2789880  32.2528370
  56.4894690  24.8095240  31.4347740  56.7916100  24.7713440  32.9177210
  61.0982420  14.4095640  27.2888940  60.6550570  15.1905180  26.9573460
  61.6567410  14.7325530  27.9959880  65.3852230  17.2764160  32.8924260
  64.9231600  17.4847180  33.7044200  64.9830340  16.4623510  32.5894930
  70.3856740  18.4973110  34.0220920  69.5350330  18.1978860  34.3429990
  70.2258530  18.7415120  33.1104740  67.4806450  19.9974860  36.1219710
  67.8059860  19.1638610  35.7821940  68.2686780  20.5203380  36.2698040
  64.2141240  14.0306340  22.1694770  63.5895420  14.0266210  22.8948080
  64.1271360  13.1637300  21.7730740  63.1358320  14.9542970  29.1478540
  63.4330650  15.8605800  29.0670560  63.6843880  14.4661750  28.5338110
  60.8896640  19.5329210  25.0170190  60.6637560  19.3166380  25.9216810
  60.1089170  19.9657670  24.6716160  68.1194400  19.5392580  23.6160840
  67.5203290  20.2628380  23.4324460  68.6674010  19.4769360  22.8337290
  63.3295850  20.4314790  35.6830460  63.2339450  19.4909520  35.5330860
  64.1727830  20.6529860  35.2878530  66.7259270  18.1756120  25.6464120
  67.1188840  18.4928320  24.8332810  67.0876120  17.2968000  25.7608640
  58.4606390  16.8428460  33.8364240  58.0669780  17.6903670  34.0437020
  57.7724790  16.2054830  34.0272880  65.0351440  16.9263430  36.9060980
  64.3449760  16.7335630  37.5407070  65.7783740  17.2098070  37.4385280
  55.7623440  14.7656920  27.8694320  55.4736490  15.3359780  28.5819300
  56.5069200  14.2861370  28.2325550  55.9493670  18.7077040  19.0797040
  55.8668340  19.6507800  19.2212030  55.5976730  18.5651950  18.2009390
  67.3114410  20.7661870  29.7414900  66.5795530  21.2748680  30.0905000
  66.9138750  19.9491850  29.4403680  63.7491800  17.4416070  28.1467390
  63.7527860  17.0006020  27.2971930  64.6442920  17.7633400  28.2539210
  59.5994180  17.3242560  27.1061600  59.2594230  17.8017790  27.8628650
  58.8371500  16.8707680  26.7462700  63.8111950  18.4428150  21.1374150
  63.9324770  18.4014630  22.0859970  63.4260460  19.3052300  20.9820880
  67.7740320  16.2195550  29.1537840  67.7913060  16.6704200  29.9979690
  67.5255900  15.3201190  29.3671280  62.8233450  20.7529290  20.5357450
  62.2550350  20.3047540  19.9093360  63.5322450  21.1122070  20.0022600
  71.2011070  13.6327730  34.9924220  71.5256840  12.9017390  35.5182200
  71.2367580  13.3141370  34.0905210  57.9002630  24.6541310  34.4124180
  57.5157420  24.0134980  35.0107140  58.2114820  25.3577430  34.9818910
  64.0499770  21.5017850  29.8932800  64.4169900  21.0276420  30.6394140
  63.8604830  22.3759420  30.2341140  56.9140260  16.2461540  26.0226270
  56.6287180  15.8817210  26.8604890  56.8519120  15.5142000  25.4089410
  61.8399140  20.5426490  32.2117010  61.5356210  21.4218470  32.4367370
  62.7945600  20.6026280  32.2474450  60.3680930  24.7487480  22.8083860
  59.5943190  24.2085100  22.6482580  61.0975560  24.2294090  22.4701620
  71.1268910  23.7452840  28.6010250  71.8468030  24.2408130  28.2106360
  70.9250730  23.0670730  27.9564120  66.5878850  15.1390800  22.7439640
  65.7743460  14.6403970  22.6684950  66.3940800  15.9789050  22.3275990
  66.5087710  23.8161900  34.4879250  66.4425020  22.8957570  34.2336840
  65.8792850  23.9137340  35.2023890  69.3027240  19.5110450  21.0401800
  70.1906860  19.8227680  20.8653140  69.2732330  18.6382700  20.6482380
  60.4118330  24.4167860  26.4462670  60.9297000  23.6136120  26.3919560
  59.9602350  24.3547000  27.2879500  65.2987830  25.6834140  21.7189970
  65.6403530  26.4276370  21.2233290  64.4700540  25.9965260  22.0814800
  57.8962870  21.3829230  33.3588370  57.5377810  22.0483080  33.9461710
  57.6017430  20.5512780  33.7300990  61.0975990  21.8413470  36.2427920
  60.7976130  21.9870650  35.3455740  61.8687230  21.2818760  36.1501310
  66.4404440  26.6382470  34.2383050  66.4548980  25.7063430  34.0201960
  65.7329540  26.7242230  34.8772820  71.5741510  20.8222290  20.5081660
  71.4905230  21.2536510  19.6578100  72.2935700  21.2820640  20.9408480
  72.6515650  23.2789810  33.5851630  71.9263840  23.8718590  33.3881020
  73.1791110  23.2713350  32.7865000  72.6028760  27.6764550  23.2363790
  71.9604920  27.0220170  23.5107510  72.2159420  28.0819640  22.4604460
  68.1815240  25.0049980  27.0835480  68.5339060  24.4078110  26.4236850
  67.2977570  24.6794210  27.2543730  64.2678520  25.7647670  24.4905890
  64.9549650  26.3116880  24.8713480  63.4810940  26.3088400  24.5255500
  56.4070920  21.3820490  19.9822970  57.2765770  21.6645290  20.2658890
  55.9161240  22.1956360  19.8671780  63.5705730  22.7693700  24.1031250
  64.0268510  23.5798950  24.3291440  63.2193940  22.4516840  24.9349740
  65.8738340  28.2800040  31.3323550  66.5180560  28.4859420  32.0096970
  66.2367780  27.5188440  30.8794400  59.4717510  13.1131350  24.5753770
  59.3432140  13.1049250  25.5238690  58.6479530  13.4514440  24.2244780
  67.1470420  26.2832390  30.0501000  67.7892650  25.5825550  30.1633170
  67.6719770  27.0630830  29.8697890  70.9926140  26.5681010  19.7740140
  70.7663720  25.8511450  20.3664780  70.6022340  26.3193450  18.9361890
  68.9208040  27.0827290  33.2537060  69.2564280  27.6693980  33.9314980
  68.0008380  26.9520000  33.4834850  56.7742170  30.5947870  20.5484600
  57.1339810  31.1937210  19.8941870  56.6334510  31.1407760  21.3219630
  56.4711440  14.8722470  34.0360470  55.7569960  15.0719390  34.6413080
  56.8906480  14.0962040  34.4075270  70.5742390  24.4852950  21.4354300
  70.2864090  24.9465640  22.2232180  71.3694560  24.0250720  21.7038520
  56.7584030  28.8602730  35.0227000  56.8675150  27.9197470  34.8822390
  56.1064590  29.1257480  34.3740730  64.7496620  27.1318620  36.4225120
  64.4293490  26.4127860  36.9670810  64.0754980  27.8073690  36.4961180
  62.7910790  27.9779070  21.3658270  62.7820890  28.7108760  20.7502780
  61.8709150  27.7310650  21.4585230  58.3917430  23.1993960  22.1105030
  57.7845380  23.9392860  22.1200330  58.8666780  23.2893320  21.2843230
  67.9650220  17.3644780  31.7861920  68.3331040  16.5439990  32.1141490
  67.1048420  17.4246670  32.2017570  71.3312250  16.3201720  22.5949480
  70.7025410  16.4247390  21.8807710  70.8364170  16.5398500  23.3843360
  65.7770390  28.0407310  20.0283460  65.8782370  27.8371300  19.0985440
  64.8772130  27.7865590  20.2331240  63.2996280  18.5987670  24.0107360
  62.5912430  19.0674010  24.4520970  63.5840760  17.9409680  24.6452550
  64.9252210  20.0184370  32.0099890  65.4237460  20.4930190  32.6751740
  65.0675160  19.0947890  32.2169920  67.3311710  15.3238330  25.4503150
  67.2079490  15.3424460  24.5012660  68.2796270  15.3717270  25.5701550
  64.4188500  30.5593630  24.7231130  64.6730000  30.5215020  23.8010500
  63.4700980  30.4326960  24.7159380  61.5031300  16.9072750  21.3858070
  62.3521830  17.3442900  21.3198260  61.1362570  17.2193010  22.2130130
  72.1319070  16.2352330  32.8528280  71.6292670  16.9757730  33.1922090
  72.9475730  16.6236330  32.5365070  70.4241080  21.4785510  26.2989640
  69.4831220  21.4935740  26.4737330  70.7385150  20.6921470  26.7449940
  60.4022720  23.1605110  19.8593600  61.1685990  23.0486470  20.4219030
  60.4797410  22.4643080  19.2070370  59.0969480  20.5930180  20.5426490
  59.1773070  19.6457690  20.6543890  59.9889230  20.9237060  20.6487150
  72.4266660  28.6494360  27.9743900  72.5514080  29.4725530  28.4467710
  73.2932220  28.4385090  27.6268050  59.8984190  30.7425570  27.6461030
  60.6346670  30.1941030  27.9169600  60.2825110  31.6081580  27.5067020
  56.7829670  26.8099140  23.5202540  55.8569450  27.0520280  23.5107950
  57.2486100  27.6373400  23.3987290  58.9042470  29.9271640  36.8346610
  59.7055200  30.2483690  37.2482010  58.3894290  29.5667220  37.5566520
  63.0086500  29.9155880  19.4686600  63.8015110  30.2044710  19.0168390
  62.4890850  29.4848050  18.7899080  67.7407100  26.0351510  36.7822020
  67.1345260  26.0583110  36.0417770  67.4361210  25.3034550  37.3189270
  69.1707470  29.7631800  35.3931430  70.1229220  29.6789820  35.3431670
  69.0235690  30.4273510  36.0665220  72.0616670  29.1426010  20.8923340
  71.7758180  28.7291150  20.0777520  71.8636220  30.0713720  20.7723860
  56.6240280  22.4145100  35.7782660  57.1279300  21.8352380  36.3498890
  55.8847700  22.6985330  36.3159030  63.5263900  25.1359290  19.3328950
  63.4214540  24.5211640  20.0590330  63.3588120  24.6125180  18.5491960
  63.6778220  23.8216090  35.3118180  62.9123890  24.3901090  35.2272850
  63.8594180  23.5292300  34.4186410  66.7666630  24.1979320  19.9370940
  66.2176730  24.6448620  20.5813680  67.3885890  23.6928570  20.4608610
  70.8201570  25.5521420  35.8693200  71.5611040  25.8897180  35.3660660
  70.0574250  25.7213480  35.3162970  58.6563360  20.5574690  36.6732730
  58.6968700  20.2588560  37.5817960  59.5108860  20.9582300  36.5140250
  62.4341750  23.1570240  21.8336240  62.8558170  22.9910110  22.6767630
  62.5592590  22.3470470  21.3391380  60.5969170  19.1366790  34.6407220
  60.0665630  18.6457740  34.0130560  61.2657240  19.5650990  34.1065150
  64.9469390  22.1807850  19.0813340  65.4675050  21.4656870  18.7154490
  65.5937790  22.8193720  19.3813850  69.4947230  23.6036250  34.4048410
  69.9088250  23.7581330  35.2538830  68.5598230  23.7291470  34.5674190
  69.9669400  20.9432410  36.4087560  70.5490170  20.1884730  36.3208040
  70.1431170  21.4739850  35.6319040  61.0841470  16.1029160  34.7204510
  60.9898340  15.4849910  33.9955380  60.5038860  16.8295450  34.4934420
  63.8502910  14.6602400  31.7531900  63.4020210  14.6826660  30.9077450
  63.2168110  14.2621420  32.3502200  64.2562460  23.5556730  32.3744340
  64.6750570  24.3989460  32.2020580  63.3371090  23.6928770  32.1451120
  66.5926360  21.2872910  33.7582180  66.7122570  20.6914050  34.4977020
  67.4520360  21.3242600  33.3383480  68.9314260  21.8410100  32.3344690
  68.4049480  22.3652720  31.7309830  69.2745600  22.4737490  32.9654420
  61.3300650  19.2303470  18.7794400  61.1289710  18.3670830  19.1407740
  61.1592700  19.1436830  17.8416000  62.1069880  29.8609740  33.4902070
  61.5690970  30.5855800  33.1710770  62.3603840  29.3840080  32.6999410
  63.3595130  17.8294260  35.0158000  63.9494820  17.5210110  35.7035820
  62.5415370  17.3574010  35.1717900  68.1788560  17.4460070  35.2491020
  67.4904080  16.7841610  35.1841010  68.8994580  16.9998340  35.6939480
  68.8088960  14.0411700  21.3081280  69.0891250  13.1979600  21.6640700
  68.0354690  14.2734810  21.8220030  60.1283450  16.3304090  18.7672280
  60.4309350  16.3371520  17.8591430  60.8678040  15.9801950  19.2639940
  64.9632090  31.0960950  33.7488720  64.8890790  31.9996090  34.0561090
  64.0610930  30.7772850  33.7210790  63.3468380  15.2738710  19.7528480
  62.9990380  14.5962700  19.1730930  63.5481150  14.8128220  20.5671870
  65.5117420  30.2619460  21.3715080  66.4068210  30.6004430  21.3933840
  65.5435050  29.5398870  20.7439360  59.1513580  25.6346510  19.6002080
  59.5888450  26.1776180  20.2559660  59.6361310  24.8093460  19.6098420
  56.3659380  28.4235540  27.0522340  56.6962390  27.5556600  26.8200980
  56.7950380  28.6294060  27.8827300  60.9621300  26.7544550  24.7124310
  60.6616840  26.6309520  25.6128220  60.8558790  25.8953140  24.3040040
  56.8549590  29.2906130  29.7903970  56.4180580  29.4706930  30.6228120
  57.4227270  30.0480750  29.6485690  72.4911770  28.7923130  34.0781280
  71.8913760  28.8515690  33.3345200  72.6205670  27.8528110  34.2078130
  73.7313220  26.5340950  19.4150990  72.9006180  26.6017600  19.8858220
  73.9085050  27.4245070  19.1117850  73.1869680  23.2788430  21.9185190
  73.9488590  23.8485080  22.0244880  73.2024050  22.7115630  22.6893500
  56.6874020  21.8026360  26.1492850  56.0322860  21.5338000  25.5052550
  57.5251970  21.6930840  25.6994830  74.1929650  24.1338530  26.7627120
  74.5638480  23.3505850  26.3563090  74.8331580  24.8227630  26.5844420
  71.1763410  25.5175110  32.1757440  70.3623250  25.9472270  32.4383230
  71.5837610  26.1293520  31.5626490  73.2388850  23.5722800  19.0757710
  73.5137690  24.4801680  18.9476930  73.0499590  23.5085330  20.0119700
  69.6364460  16.5967650  20.3711340  70.0549340  16.4098630  19.5308000
  69.3300520  15.7446700  20.6814270  73.1354190  21.5091790  24.0687140
  72.7597790  20.7419720  23.6368430  72.4057310  21.8914490  24.5562070
  57.7249950  22.1878930  30.6896190  58.0922990  22.1006330  31.5692210
  57.1560770  21.4245480  30.5903050  72.5253810  20.6563310  33.7026660
  72.2939900  20.4276060  32.8024610  72.7858360  21.5762860  33.6571550
  57.2765950  19.0988020  34.5954610  56.3822000  19.0654780  34.9348320
  57.8163500  19.2974810  35.3605860  70.9641880  15.8819740  36.4806360
  71.8412060  15.8903140  36.8640360  70.9762720  15.1450580  35.8698710
  55.9012100  19.0125290  22.0918180  54.9976180  19.2755490  21.9169840
  56.3852720  19.2836460  21.3118140  72.4105150  19.7349280  27.3694380
  72.9342630  19.2411930  26.7384550  72.9964570  19.8699640  28.1141950
  72.5894870  19.8189150  30.8913930  71.6397580  19.7852690  31.0058920
  72.7707880  20.7289260  30.6563700  58.4439310  18.0690830  20.0012560
  59.1531010  17.6474050  19.5159840  57.7279250  18.1366060  19.3695910
  58.0913470  14.1230160  19.0415210  58.8141600  14.6639100  19.3596430
  58.3637990  13.8493580  18.1656750  71.9005120  18.9922630  23.3086790
  72.3964240  18.7593500  24.0935670  71.7021190  18.1534470  22.8924430
  57.7805660  13.3736350  28.9437830  58.4281850  12.8233730  28.5032990
  58.2007500  13.6279500  29.7653640  73.3292280  17.6283580  25.8424470
  73.2191560  17.4739620  26.7806740  74.0899870  17.1004520  25.5999880
  71.6758000  13.5677710  32.3007470  72.3130220  14.1811850  32.6666660
  71.8232890  13.6038370  31.3556700  74.2182550  15.4591500  19.0830610
  75.1431860  15.3272680  18.8748900  74.1958340  15.5384320  20.0367060
  74.2921040  16.2302160  21.7087320  73.4972540  16.1647280  22.2380230
  74.4964320  17.1652800  21.6972670  71.2339460  30.2693710  25.7025710
  71.8298530  29.9478280  25.0260130  71.4917610  29.7965530  26.4938980
  57.5337660  13.5292020  31.6863150  57.1852480  13.9855840  32.4521330
  57.2025360  12.6349150  31.7685580  59.1402030  26.7011620  35.8516340
  59.0971660  26.3304530  36.7330800  59.2713040  27.6389190  35.9918160
  62.8408060  28.2571210  31.4526060  62.5999420  28.5245770  30.5656580
  63.7810700  28.4276940  31.5076920  65.0462480  14.7203900  35.2082570
  64.9851370  15.3125730  35.9577980  65.9862860  14.6129860  35.0632830
  67.6837040  14.3773960  34.8474860  68.2977450  14.6953250  34.1855940
  68.2286600  13.8922550  35.4670720  74.1012220  30.2765590  32.2536700
  73.6070500  30.6734460  31.5363830  73.4925510  29.6514800  32.6473980
  58.2058300  13.0568220  34.9613920  58.7541290  12.8756270  34.1980030
  58.2713610  12.2662330  35.4970230  58.9790060  29.6473870  32.9714120
  58.3850380  29.5158570  33.7104160  58.9713900  28.8112010  32.5056220
  68.4245080  12.9406100  31.1744150  67.5504920  13.2741210  30.9717080
  68.3155830  12.4679280  31.9996020  69.3317060  15.1476970  32.5585870
  69.0030420  14.3328730  32.1787600  70.2799360  15.1046780  32.4351560
  71.7851670  30.9189010  29.5323440  71.3254640  31.6704820  29.1581460
  71.1564130  30.1995480  29.4738240  58.6102290  27.0132250  31.9222160
  57.8836350  26.3937540  31.8548110  58.6711440  27.4072860  31.0520240
  62.2147390  29.2277250  28.7071570  62.7312410  28.6164610  28.1819830
  62.8644770  29.7306030  29.1982580  64.9542890  30.1185740  29.5340550
  65.2420700  29.8640040  28.6573560  65.4666110  29.5663100  30.1246120
  66.1719900  13.8575940  30.1137060  65.3891690  14.3321440  30.3933820
  65.8782830  12.9530770  30.0050240  70.7240970  14.5599040  28.1586150
  71.1649060  14.5044140  27.3107750  70.4548560  15.4757050  28.2296330
  72.5879540  14.1914280  26.1694970  72.5267940  13.2475500  26.0225990
  73.3671570  14.2994370  26.7148430  56.8932290  30.3306640  25.1318920
  56.7254330  29.6977320  25.8300810  56.0266800  30.5366040  24.7813110
  57.5160310  14.1623420  22.6350780  58.2739670  14.2752300  22.0614810
  57.0537480  14.9992620  22.5894210  64.0574120  16.2762690  25.6253090
  63.2448630  15.9019580  25.2848970  64.5615760  15.5207770  25.9274280
  68.5599100  12.9405140  26.8636160  69.1628470  13.5125350  27.3384680
  67.8192090  13.5044580  26.6410060  71.7033700  13.3426700  22.1376440
  71.8984330  14.2410150  22.4043870  70.9163570  13.1113780  22.6309390
  58.4994990  29.0239870  22.5769060  57.9742610  29.4047900  21.8731020
  58.4239570  29.6490640  23.2978770  59.8885460  14.6887470  21.1752750
  60.4178220  13.9017270  21.0460700  60.5213780  15.3678660  21.4088280
  62.0823300  14.4262610  24.2298140  61.4526040  13.7249920  24.3968270
  61.5428440  15.1866740  24.0131300  65.0215250  31.0401840  36.9008750
  65.9482560  30.8046110  36.9444710  65.0065680  31.8673840  36.4194780
  73.2560310  30.5827410  23.8983000  73.4312500  29.8965150  23.2543920
  72.5581880  31.1074460  23.5059670  62.2078860  13.7046590  36.6650630
  61.9263130  14.2080190  35.9011450  62.5898560  12.9068340  36.2992760
  61.0987960  30.9722250  21.4518310  61.8306780  30.6881530  20.9042200
  61.3581630  30.7335530  22.3417690  60.2602750  27.0886980  21.4564640
  59.6311630  27.5572080  22.0050470  60.3750580  26.2436200  21.8910830
  68.8094320  13.1200170  37.2431100  68.6959770  13.4394780  38.1382620
  69.6264060  13.5212680  36.9468380  71.5892810  30.2671700  36.7249790
  72.3818130  29.7720930  36.5175750  71.8825960  30.9461840  37.3325400
  67.7152470  21.1392640   7.6065840  67.6346520  20.2247250   7.3357550
  67.3016890  21.6359710   6.9005550  65.8470510  22.9171660   9.4875110
  65.0712610  22.4372100   9.7773680  66.4983440  22.2377310   9.3131270
  59.8636340  23.2291470  10.3650870  59.0321220  22.9740180  10.7647380
  60.4717320  23.3002240  11.1008790  69.8677940  27.3231850   8.2674240
  69.4059470  26.5519090   8.5961410  70.6803490  27.3497920   8.7726690
  59.8437600  27.2631560  10.5608890  60.1465640  26.3729300  10.3819110
  60.5881190  27.8201780  10.3331140  58.2728290  18.1893360   4.1493260
  57.3844990  18.5309330   4.0473140  58.5569480  17.9893680   3.2574090
  56.2361300  20.7899010  10.0332960  56.8077410  20.0221210  10.0336600
  56.2362840  21.0887770   9.1239570  66.0941250  29.6089860   7.8878230
  65.4752690  30.0647360   7.3172670  66.9493030  29.7641320   7.4867930
  65.2879500  25.5928850   9.4945270  65.2187780  24.6518790   9.3334400
  66.0499360  25.6830260  10.0667840  57.4786170  16.1983370  11.8201890
  57.2989010  15.3009120  12.1004650  57.0766250  16.7455240  12.4948840
  66.3184670  18.3999230   9.7214200  66.6949490  17.5271110   9.6087870
  66.2204180  18.7357930   8.8304640  60.4489680  16.7724860   5.1831640
  60.5556430  17.6728590   5.4900400  59.5382040  16.7242830   4.8926290
  70.1008790  15.8949670   6.6542540  70.9218410  15.4046240   6.6968020
  70.1342870  16.4847330   7.4074380  58.0972840  18.6943870  10.4284230
  58.7782950  18.9582240  11.0471630  57.7820890  17.8544740  10.7622240
  62.2897410  19.7411230   9.5156820  62.7975630  20.2392200  10.1561840
  62.8210650  18.9646430   9.3396180  74.3908340  17.9116420  13.2186170
  73.6860510  18.2998130  12.7001280  74.6566260  18.6066710  13.8207100
  60.5733510  14.3809790  13.7820240  60.5751950  14.8982180  12.9766140
  59.7437820  13.9039970  13.7590170  66.9604600  24.4929100   5.2810140
  66.3421870  24.9578550   4.7172860  67.4727850  25.1856580   5.6979650
  61.8236360  24.0204970  11.9593740  61.4905740  24.6473890  12.6014810
  62.0003040  24.5466850  11.1795410  70.3370270  17.8350050   9.4270080
  69.6325840  18.1234940  10.0073190  70.6982430  18.6450160   9.0669640
  60.2548840  16.0919750  11.7890690  60.5965650  16.9361800  11.4944560
  59.3164650  16.2403490  11.9056030  61.0355460  25.9885770  13.7742920
  61.6529460  26.6636850  13.4927370  60.1748580  26.3973750  13.6830420
  56.3287800  25.1785630   2.6549770  55.9515780  25.6672730   1.9234670
  56.5860870  25.8510910   3.2856300  71.9533050  27.4525180  11.6897560
  71.2696570  28.1224290  11.6814230  72.4927340  27.6505830  10.9242420
  73.4057190  17.2804840   9.8179290  72.4582100  17.3143820   9.9494720
  73.7307180  18.0943790  10.2028650  63.9376730  13.5802020   8.1135280
  64.2451710  13.0248910   7.3970780  63.0077430  13.7146480   7.9308270
  69.4891790  29.2969310  10.4042740  69.5018950  28.8931600   9.5365000
  68.9367010  30.0716600  10.3004170  70.7837210  26.0185530   5.4932910
  70.6733540  25.0759860   5.6182330  70.7805460  26.3801170   6.3795670
  68.8877230  24.1999150  11.7325350  69.3046020  23.9859260  10.8978810
  69.6117050  24.4571940  12.3033970  66.3257490  21.6450850   4.8495400
  65.3986770  21.5788230   5.0783870  66.4782310  22.5830980   4.7350640
  72.8339330  22.5986370  11.8241590  72.0057960  22.6679460  11.3491720
  73.4289810  23.1840680  11.3557420  70.3554780  23.2071150   5.3530650
  69.7367200  22.8690700   4.7056950  70.3379230  22.5630910   6.0609840
  69.7981340  19.3855690  12.7696460  69.3852520  20.2109400  13.0236450
  69.0657290  18.8000730  12.5772820  61.9314130  22.1715590   7.6315130
  61.5271130  21.4592840   7.1361030  62.0177250  21.8268830   8.5203170
  62.3995830  25.8583150   9.7954340  62.1024120  25.2528620   9.1162120
  63.3495650  25.8960460   9.6843700  60.6442750  18.9458800  11.4114170
  61.1957340  19.0554140  10.6367420  61.1586260  19.3196400  12.1269400
  70.4881440  29.4315020  13.4577440  70.0112000  30.2387210  13.2650050
  69.8043230  28.7793350  13.6103650  61.4914260  25.5964840  16.4462140
  60.5942790  25.8204810  16.6935540  61.5167130  25.7199780  15.4973540
  68.5319480  22.4457960   2.3603400  68.9712760  21.6080390   2.2141220
  69.2447900  23.0787360   2.4467540  60.3185480  22.4678160  15.0219510
  60.1793250  23.3400960  15.3906910  59.4366840  22.1250970  14.8767450
  66.6414860  27.3854030   6.3284640  67.0810770  28.1278360   5.9140030
  66.5801750  27.6280600   7.2523600  62.1165830  28.4099860  17.2304660
  62.0881260  28.8142810  16.3633090  61.9530800  27.4810220  17.0676260
  58.6318760  21.0660570   5.1321780  58.5116360  21.7922660   4.5203050
  58.3219650  20.2963480   4.6549690  74.0680650  29.1926960  18.5268830
  74.5440370  29.6709850  19.2057910  74.6887810  29.1244450  17.8014330
  56.2704130  24.2375710  10.9390420  56.3484550  24.3724480   9.9946140
  56.8845810  23.5291600  11.1318540  57.5151760  25.9375900   7.3496600
  57.1079840  26.0790490   6.4950200  58.4064770  25.6536060   7.1467810
  73.4713900  26.3839810  15.6868840  73.5976960  26.1451690  14.7686020
  73.5135280  25.5524350  16.1590920  67.3330640  30.0867810  14.2563650
  67.8475310  29.9975820  15.0586080  66.4899720  30.4327510  14.5491560
  69.3085040  30.3723150   3.6847650  69.1486180  30.0826090   4.5829480
  69.1431750  29.5963280   3.1492880  61.7873420  30.1521680   5.4619270
  61.6115900  29.2357220   5.2487070  60.9329160  30.5108970   5.7017070
  68.5761100  29.5073420   6.3194140  69.0318050  28.7262800   6.6332760
  68.9153620  30.2180240   6.8635320  73.3237910  18.4372270  16.6518580
  72.7082180  18.9451940  16.1234040  73.0034330  17.5370600  16.5944520
  56.3263650  25.2789880  13.4784880  56.4894690  24.8095240  12.6604250
  56.7916100  24.7713440  14.1433720  61.0982420  14.4095640   8.5145450
  60.6550570  15.1905180   8.1829970  61.6567410  14.7325530   9.2216390
  65.3852230  17.2764160  14.1180770  64.9231600  17.4847180  14.9300710
  64.9830340  16.4623510  13.8151440  70.3856740  18.4973110  15.2477430
  69.5350330  18.1978860  15.5686500  70.2258530  18.7415120  14.3361250
  67.4806450  19.9974860  17.3476220  67.8059860  19.1638610  17.0078450
  68.2686780  20.5203380  17.4954550  64.2141240  14.0306340   3.3951280
  63.5895420  14.0266210   4.1204590  64.1271360  13.1637300   2.9987250
  63.1358320  14.9542970  10.3735050  63.4330650  15.8605800  10.2927070
  63.6843880  14.4661750   9.7594620  60.8896640  19.5329210   6.2426700
  60.6637560  19.3166380   7.1473320  60.1089170  19.9657670   5.8972670
  68.1194400  19.5392580   4.8417350  67.5203290  20.2628380   4.6580970
  68.6674010  19.4769360   4.0593800  63.3295850  20.4314790  16.9086970
  63.2339450  19.4909520  16.7587370  64.1727830  20.6529860  16.5135040
  66.7259270  18.1756120   6.8720630  67.1188840  18.4928320   6.0589320
  67.0876120  17.2968000   6.9865150  58.4606390  16.8428460  15.0620750
  58.0669780  17.6903670  15.2693530  57.7724790  16.2054830  15.2529390
  65.0351440  16.9263430  18.1317490  64.3449760  16.7335630  18.7663580
  65.7783740  17.2098070  18.6641790  55.7623440  14.7656920   9.0950830
  55.4736490  15.3359780   9.8075810  56.5069200  14.2861370   9.4582060
  67.3114410  20.7661870  10.9671410  66.5795530  21.2748680  11.3161510
  66.9138750  19.9491850  10.6660190  63.7491800  17.4416070   9.3723900
  63.7527860  17.0006020   8.5228440  64.6442920  17.7633400   9.4795720
  59.5994180  17.3242560   8.3318110  59.2594230  17.8017790   9.0885160
  58.8371500  16.8707680   7.9719210  63.8111950  18.4428150   2.3630660
  63.9324770  18.4014630   3.3116480  63.4260460  19.3052300   2.2077390
  67.7740320  16.2195550  10.3794350  67.7913060  16.6704200  11.2236200
  67.5255900  15.3201190  10.5927790  71.2011070  13.6327730  16.2180730
  71.5256840  12.9017390  16.7438710  71.2367580  13.3141370  15.3161720
  57.9002630  24.6541310  15.6380690  57.5157420  24.0134980  16.2363650
  58.2114820  25.3577430  16.2075420  64.0499770  21.5017850  11.1189310
  64.4169900  21.0276420  11.8650650  63.8604830  22.3759420  11.4597650
  56.9140260  16.2461540   7.2482780  56.6287180  15.8817210   8.0861400
  56.8519120  15.5142000   6.6345920  61.8399140  20.5426490  13.4373520
  61.5356210  21.4218470  13.6623880  62.7945600  20.6026280  13.4730960
  60.3680930  24.7487480   4.0340370  59.5943190  24.2085100   3.8739090
  61.0975560  24.2294090   3.6958130  71.1268910  23.7452840   9.8266760
  71.8468030  24.2408130   9.4362870  70.9250730  23.0670730   9.1820630
  66.5878850  15.1390800   3.9696150  65.7743460  14.6403970   3.8941460
  66.3940800  15.9789050   3.5532500  66.5087710  23.8161900  15.7135760
  66.4425020  22.8957570  15.4593350  65.8792850  23.9137340  16.4280400
  69.3027240  19.5110450   2.2658310  70.1906860  19.8227680   2.0909650
  69.2732330  18.6382700   1.8738890  60.4118330  24.4167860   7.6719180
  60.9297000  23.6136120   7.6176070  59.9602350  24.3547000   8.5136010
  65.2987830  25.6834140   2.9446480  65.6403530  26.4276370   2.4489800
  64.4700540  25.9965260   3.3071310  57.8962870  21.3829230  14.5844880
  57.5377810  22.0483080  15.1718220  57.6017430  20.5512780  14.9557500
  61.0975990  21.8413470  17.4684430  60.7976130  21.9870650  16.5712250
  61.8687230  21.2818760  17.3757820  66.4404440  26.6382470  15.4639560
  66.4548980  25.7063430  15.2458470  65.7329540  26.7242230  16.1029330
  72.6515650  23.2789810  14.8108140  71.9263840  23.8718590  14.6137530
  73.1791110  23.2713350  14.0121510  72.6028760  27.6764550   4.4620300
  71.9604920  27.0220170   4.7364020  72.2159420  28.0819640   3.6860970
  68.1815240  25.0049980   8.3091990  68.5339060  24.4078110   7.6493360
  67.2977570  24.6794210   8.4800240  64.2678520  25.7647670   5.7162400
  64.9549650  26.3116880   6.0969990  63.4810940  26.3088400   5.7512010
  63.5705730  22.7693700   5.3287760  64.0268510  23.5798950   5.5547950
  63.2193940  22.4516840   6.1606250  65.8738340  28.2800040  12.5580060
  66.5180560  28.4859420  13.2353480  66.2367780  27.5188440  12.1050910
  59.4717510  13.1131350   5.8010280  59.3432140  13.1049250   6.7495200
  58.6479530  13.4514440   5.4501290  67.1470420  26.2832390  11.2757510
  67.7892650  25.5825550  11.3889680  67.6719770  27.0630830  11.0954400
  68.9208040  27.0827290  14.4793570  69.2564280  27.6693980  15.1571490
  68.0008380  26.9520000  14.7091360  56.4711440  14.8722470  15.2616980
  55.7569960  15.0719390  15.8669590  56.8906480  14.0962040  15.6331780
  70.5742390  24.4852950   2.6610810  70.2864090  24.9465640   3.4488690
  71.3694560  24.0250720   2.9295030  56.7584030  28.8602730  16.2483510
  56.8675150  27.9197470  16.1078900  56.1064590  29.1257480  15.5997240
  64.7496620  27.1318620  17.6481630  64.4293490  26.4127860  18.1927320
  64.0754980  27.8073690  17.7217690  62.7910790  27.9779070   2.5914780
  62.7820890  28.7108760   1.9759290  61.8709150  27.7310650   2.6841740
  58.3917430  23.1993960   3.3361540  57.7845380  23.9392860   3.3456840
  58.8666780  23.2893320   2.5099740  67.9650220  17.3644780  13.0118430
  68.3331040  16.5439990  13.3398000  67.1048420  17.4246670  13.4274080
  71.3312250  16.3201720   3.8205990  70.7025410  16.4247390   3.1064220
  70.8364170  16.5398500   4.6099870  63.2996280  18.5987670   5.2363870
  62.5912430  19.0674010   5.6777480  63.5840760  17.9409680   5.8709060
  64.9252210  20.0184370  13.2356400  65.4237460  20.4930190  13.9008250
  65.0675160  19.0947890  13.4426430  67.3311710  15.3238330   6.6759660
  67.2079490  15.3424460   5.7269170  68.2796270  15.3717270   6.7958060
  64.4188500  30.5593630   5.9487640  64.6730000  30.5215020   5.0267010
  63.4700980  30.4326960   5.9415890  61.5031300  16.9072750   2.6114580
  62.3521830  17.3442900   2.5454770  61.1362570  17.2193010   3.4386640
  72.1319070  16.2352330  14.0784790  71.6292670  16.9757730  14.4178600
  72.9475730  16.6236330  13.7621580  70.4241080  21.4785510   7.5246150
  69.4831220  21.4935740   7.6993840  70.7385150  20.6921470   7.9706450
  59.0969480  20.5930180   1.7683000  59.1773070  19.6457690   1.8800400
  59.9889230  20.9237060   1.8743660  72.4266660  28.6494360   9.2000410
  72.5514080  29.4725530   9.6724220  73.2932220  28.4385090   8.8524560
  59.8984190  30.7425570   8.8717540  60.6346670  30.1941030   9.1426110
  60.2825110  31.6081580   8.7323530  56.7829670  26.8099140   4.7459050
  55.8569450  27.0520280   4.7364460  57.2486100  27.6373400   4.6243800
  58.9042470  29.9271640  18.0603120  59.7055200  30.2483690  18.4738520
  58.3894290  29.5667220  18.7823030  67.7407100  26.0351510  18.0078530
  67.1345260  26.0583110  17.2674280  67.4361210  25.3034550  18.5445780
  69.1707470  29.7631800  16.6187940  70.1229220  29.6789820  16.5688180
  69.0235690  30.4273510  17.2921730  56.6240280  22.4145100  17.0039170
  57.1279300  21.8352380  17.5755400  55.8847700  22.6985330  17.5415540
  63.6778220  23.8216090  16.5374690  62.9123890  24.3901090  16.4529360
  63.8594180  23.5292300  15.6442920  70.8201570  25.5521420  17.0949710
  71.5611040  25.8897180  16.5917170  70.0574250  25.7213480  16.5419480
  58.6563360  20.5574690  17.8989240  58.6968700  20.2588560  18.8074470
  59.5108860  20.9582300  17.7396760  62.4341750  23.1570240   3.0592750
  62.8558170  22.9910110   3.9024140  62.5592590  22.3470470   2.5647890
  60.5969170  19.1366790  15.8663730  60.0665630  18.6457740  15.2387070
  61.2657240  19.5650990  15.3321660  69.4947230  23.6036250  15.6304920
  69.9088250  23.7581330  16.4795340  68.5598230  23.7291470  15.7930700
  69.9669400  20.9432410  17.6344070  70.5490170  20.1884730  17.5464550
  70.1431170  21.4739850  16.8575550  61.0841470  16.1029160  15.9461020
  60.9898340  15.4849910  15.2211890  60.5038860  16.8295450  15.7190930
  63.8502910  14.6602400  12.9788410  63.4020210  14.6826660  12.1333960
  63.2168110  14.2621420  13.5758710  64.2562460  23.5556730  13.6000850
  64.6750570  24.3989460  13.4277090  63.3371090  23.6928770  13.3707630
  66.5926360  21.2872910  14.9838690  66.7122570  20.6914050  15.7233530
  67.4520360  21.3242600  14.5639990  68.9314260  21.8410100  13.5601200
  68.4049480  22.3652720  12.9566340  69.2745600  22.4737490  14.1910930
  62.1069880  29.8609740  14.7158580  61.5690970  30.5855800  14.3967280
  62.3603840  29.3840080  13.9255920  63.3595130  17.8294260  16.2414510
  63.9494820  17.5210110  16.9292330  62.5415370  17.3574010  16.3974410
  68.1788560  17.4460070  16.4747530  67.4904080  16.7841610  16.4097520
  68.8994580  16.9998340  16.9195990  68.8088960  14.0411700   2.5337790
  69.0891250  13.1979600   2.8897210  68.0354690  14.2734810   3.0476540
  64.9632090  31.0960950  14.9745230  64.8890790  31.9996090  15.2817600
  64.0610930  30.7772850  14.9467300  65.5117420  30.2619460   2.5971590
  66.4068210  30.6004430   2.6190350  65.5435050  29.5398870   1.9695870
  56.3659380  28.4235540   8.2778850  56.6962390  27.5556600   8.0457490
  56.7950380  28.6294060   9.1083810  60.9621300  26.7544550   5.9380820
  60.6616840  26.6309520   6.8384730  60.8558790  25.8953140   5.5296550
  56.8549590  29.2906130  11.0160480  56.4180580  29.4706930  11.8484630
  57.4227270  30.0480750  10.8742200  72.4911770  28.7923130  15.3037790
  71.8913760  28.8515690  14.5601710  72.6205670  27.8528110  15.4334640
  73.1869680  23.2788430   3.1441700  73.9488590  23.8485080   3.2501390
  73.2024050  22.7115630   3.9150010  56.6874020  21.8026360   7.3749360
  56.0322860  21.5338000   6.7309060  57.5251970  21.6930840   6.9251340
  74.1929650  24.1338530   7.9883630  74.5638480  23.3505850   7.5819600
  74.8331580  24.8227630   7.8100930  71.1763410  25.5175110  13.4013950
  70.3623250  25.9472270  13.6639740  71.5837610  26.1293520  12.7883000
  73.1354190  21.5091790   5.2943650  72.7597790  20.7419720   4.8624940
  72.4057310  21.8914490   5.7818580  57.7249950  22.1878930  11.9152700
  58.0922990  22.1006330  12.7948720  57.1560770  21.4245480  11.8159560
  72.5253810  20.6563310  14.9283170  72.2939900  20.4276060  14.0281120
  72.7858360  21.5762860  14.8828060  57.2765950  19.0988020  15.8211120
  56.3822000  19.0654780  16.1604830  57.8163500  19.2974810  16.5862370
  70.9641880  15.8819740  17.7062870  71.8412060  15.8903140  18.0896870
  70.9762720  15.1450580  17.0955220  55.9012100  19.0125290   3.3174690
  54.9976180  19.2755490   3.1426350  56.3852720  19.2836460   2.5374650
  72.4105150  19.7349280   8.5950890  72.9342630  19.2411930   7.9641060
  72.9964570  19.8699640   9.3398460  72.5894870  19.8189150  12.1170440
  71.6397580  19.7852690  12.2315430  72.7707880  20.7289260  11.8820210
  71.9005120  18.9922630   4.5343300  72.3964240  18.7593500   5.3192180
  71.7021190  18.1534470   4.1180940  57.7805660  13.3736350  10.1694340
  58.4281850  12.8233730   9.7289500  58.2007500  13.6279500  10.9910150
  73.3292280  17.6283580   7.0680980  73.2191560  17.4739620   8.0063250
  74.0899870  17.1004520   6.8256390  71.6758000  13.5677710  13.5263980
  72.3130220  14.1811850  13.8923170  71.8232890  13.6038370  12.5813210
  74.2921040  16.2302160   2.9343830  73.4972540  16.1647280   3.4636740
  74.4964320  17.1652800   2.9229180  71.2339460  30.2693710   6.9282220
  71.8298530  29.9478280   6.2516640  71.4917610  29.7965530   7.7195490
  57.5337660  13.5292020  12.9119660  57.1852480  13.9855840  13.6777840
  57.2025360  12.6349150  12.9942090  59.1402030  26.7011620  17.0772850
  59.0971660  26.3304530  17.9587310  59.2713040  27.6389190  17.2174670
  62.8408060  28.2571210  12.6782570  62.5999420  28.5245770  11.7913090
  63.7810700  28.4276940  12.7333430  65.0462480  14.7203900  16.4339080
  64.9851370  15.3125730  17.1834490  65.9862860  14.6129860  16.2889340
  67.6837040  14.3773960  16.0731370  68.2977450  14.6953250  15.4112450
  68.2286600  13.8922550  16.6927230  74.1012220  30.2765590  13.4793210
  73.6070500  30.6734460  12.7620340  73.4925510  29.6514800  13.8730490
  58.2058300  13.0568220  16.1870430  58.7541290  12.8756270  15.4236540
  58.2713610  12.2662330  16.7226740  58.9790060  29.6473870  14.1970630
  58.3850380  29.5158570  14.9360670  58.9713900  28.8112010  13.7312730
  68.4245080  12.9406100  12.4000660  67.5504920  13.2741210  12.1973590
  68.3155830  12.4679280  13.2252530  69.3317060  15.1476970  13.7842380
  69.0030420  14.3328730  13.4044110  70.2799360  15.1046780  13.6608070
  71.7851670  30.9189010  10.7579950  71.3254640  31.6704820  10.3837970
  71.1564130  30.1995480  10.6994750  58.6102290  27.0132250  13.1478670
  57.8836350  26.3937540  13.0804620  58.6711440  27.4072860  12.2776750
  62.2147390  29.2277250   9.9328080  62.7312410  28.6164610   9.4076340
  62.8644770  29.7306030  10.4239090  64.9542890  30.1185740  10.7597060
  65.2420700  29.8640040   9.8830070  65.4666110  29.5663100  11.3502630
  66.1719900  13.8575940  11.3393570  65.3891690  14.3321440  11.6190330
  65.8782830  12.9530770  11.2306750  70.7240970  14.5599040   9.3842660
  71.1649060  14.5044140   8.5364260  70.4548560  15.4757050   9.4552840
  72.5879540  14.1914280   7.3951480  72.5267940  13.2475500   7.2482500
  73.3671570  14.2994370   7.9404940  56.8932290  30.3306640   6.3575430
  56.7254330  29.6977320   7.0557320  56.0266800  30.5366040   6.0069620
  57.5160310  14.1623420   3.8607290  58.2739670  14.2752300   3.2871320
  57.0537480  14.9992620   3.8150720  64.0574120  16.2762690   6.8509600
  63.2448630  15.9019580   6.5105480  64.5615760  15.5207770   7.1530790
  68.5599100  12.9405140   8.0892670  69.1628470  13.5125350   8.5641190
  67.8192090  13.5044580   7.8666570  71.7033700  13.3426700   3.3632950
  71.8984330  14.2410150   3.6300380  70.9163570  13.1113780   3.8565900
  58.4994990  29.0239870   3.8025570  57.9742610  29.4047900   3.0987530
  58.4239570  29.6490640   4.5235280  59.8885460  14.6887470   2.4009260
  60.4178220  13.9017270   2.2717210  60.5213780  15.3678660   2.6344790
  62.0823300  14.4262610   5.4554650  61.4526040  13.7249920   5.6224780
  61.5428440  15.1866740   5.2387810  65.0215250  31.0401840  18.1265260
  65.9482560  30.8046110  18.1701220  65.0065680  31.8673840  17.6451290
  73.2560310  30.5827410   5.1239510  73.4312500  29.8965150   4.4800430
  72.5581880  31.1074460   4.7316180  62.2078860  13.7046590  17.8907140
  61.9263130  14.2080190  17.1267960  62.5898560  12.9068340  17.5249270
  61.0987960  30.9722250   2.6774820  61.8306780  30.6881530   2.1298710
  61.3581630  30.7335530   3.5674200  60.2602750  27.0886980   2.6821150
  59.6311630  27.5572080   3.2306980  60.3750580  26.2436200   3.1167340
  68.8094320  13.1200170  18.4687610  68.6959770  13.4394780  19.3639130
  69.6264060  13.5212680  18.1724890  71.5892810  30.2671700  17.9506300
  72.3818130  29.7720930  17.7432260  71.8825960  30.9461840  18.5581910
  65.8470510   4.1428170  65.8105580  65.0712610   3.6628610  66.1004150
  66.4983440   3.4633820  65.6361740  59.8636340   4.4547980  66.6881340
  59.0321220   4.1996690  67.0877850  60.4717320   4.5258750  67.4239260
  69.8677940   8.5488360  64.5904710  69.4059470   7.7775600  64.9191880
  70.6803490   8.5754430  65.0957160  59.8437600   8.4888070  66.8839360
  60.1465640   7.5985810  66.7049580  60.5881190   9.0458290  66.6561610
  66.0941250  10.8346370  64.2108700  65.4752690  11.2903870  63.6403140
  66.9493030  10.9897830  63.8098400  65.2879500   6.8185360  65.8175740
  65.2187780   5.8775300  65.6564870  66.0499360   6.9086770  66.3898310
  66.9604600   5.7185610  61.6040610  66.3421870   6.1835060  61.0403330
  67.4727850   6.4113090  62.0210120  61.8236360   5.2461480  68.2824210
  61.4905740   5.8730400  68.9245280  62.0003040   5.7723360  67.5025880
  61.0355460   7.2142280  70.0973390  61.6529460   7.8893360  69.8157840
  60.1748580   7.6230260  70.0060890  56.3287800   6.4042140  58.9780240
  55.9515780   6.8929240  58.2465140  56.5860870   7.0767420  59.6086770
  71.9533050   8.6781690  68.0128030  71.2696570   9.3480800  68.0044700
  72.4927340   8.8762340  67.2472890  69.4891790  10.5225820  66.7273210
  69.5018950  10.1188110  65.8595470  68.9367010  11.2973110  66.6234640
  70.7837210   7.2442040  61.8163380  70.6733540   6.3016370  61.9412800
  70.7805460   7.6057680  62.7026140  68.8877230   5.4255660  68.0555820
  69.3046020   5.2115770  67.2209280  69.6117050   5.6828450  68.6264440
  66.3257490   2.8707360  61.1725870  65.3986770   2.8044740  61.4014340
  66.4782310   3.8087490  61.0581110  72.8339330   3.8242880  68.1472060
  72.0057960   3.8935970  67.6722190  73.4289810   4.4097190  67.6787890
  70.3554780   4.4327660  61.6761120  69.7367200   4.0947210  61.0287420
  70.3379230   3.7887420  62.3840310  61.9314130   3.3972100  63.9545600
  61.5271130   2.6849350  63.4591500  62.0177250   3.0525340  64.8433640
  62.3995830   7.0839660  66.1184810  62.1024120   6.4785130  65.4392590
  63.3495650   7.1216970  66.0074170  70.4881440  10.6571530  69.7807910
  70.0112000  11.4643720  69.5880520  69.8043230  10.0049860  69.9334120
  68.5319480   3.6714470  58.6833870  68.9712760   2.8336900  58.5371690
  69.2447900   4.3043870  58.7698010  60.3185480   3.6934670  71.3449980
  60.1793250   4.5657470  71.7137380  59.4366840   3.3507480  71.1997920
  66.6414860   8.6110540  62.6515110  67.0810770   9.3534870  62.2370500
  66.5801750   8.8537110  63.5754070  58.6318760   2.2917080  61.4552250
  58.5116360   3.0179170  60.8433520  58.3219650   1.5219990  60.9780160
  56.2704130   5.4632220  67.2620890  56.3484550   5.5980990  66.3176610
  56.8845810   4.7548110  67.4549010  57.5151760   7.1632410  63.6727070
  57.1079840   7.3047000  62.8180670  58.4064770   6.8792570  63.4698280
  73.4713900   7.6096320  72.0099310  73.5976960   7.3708200  71.0916490
  73.5135280   6.7780860  72.4821390  67.3330640  11.3124320  70.5794120
  67.8475310  11.2232330  71.3816550  66.4899720  11.6584020  70.8722030
  69.3085040  11.5979660  60.0078120  69.1486180  11.3082600  60.9059950
  69.1431750  10.8219790  59.4723350  61.7873420  11.3778190  61.7849740
  61.6115900  10.4613730  61.5717540  60.9329160  11.7365480  62.0247540
  69.0111170   9.1067220  58.5676120  68.3176330   9.1044510  57.9078400
  69.7534030   8.6826540  58.1370290  68.5761100  10.7329930  62.6424610
  69.0318050   9.9519310  62.9563230  68.9153620  11.4436750  63.1865790
  56.3263650   6.5046390  69.8015350  56.4894690   6.0351750  68.9834720
  56.7916100   5.9969950  70.4664190  62.8233450   1.9785800  58.0844430
  62.2550350   1.5304050  57.4580340  63.5322450   2.3378580  57.5509580
  57.9002630   5.8797820  71.9611160  57.5157420   5.2391490  72.5594120
  58.2114820   6.5833940  72.5305890  64.0499770   2.7274360  67.4419780
  64.4169900   2.2532930  68.1881120  63.8604830   3.6015930  67.7828120
  61.8399140   1.7683000  69.7603990  61.5356210   2.6474980  69.9854350
  62.7945600   1.8282790  69.7961430  60.3680930   5.9743990  60.3570840
  59.5943190   5.4341610  60.1969560  61.0975560   5.4550600  60.0188600
  71.1268910   4.9709350  66.1497230  71.8468030   5.4664640  65.7593340
  70.9250730   4.2927240  65.5051100  66.5087710   5.0418410  72.0366230
  66.4425020   4.1214080  71.7823820  65.8792850   5.1393850  72.7510870
  60.4118330   5.6424370  63.9949650  60.9297000   4.8392630  63.9406540
  59.9602350   5.5803510  64.8366480  65.2987830   6.9090650  59.2676950
  65.6403530   7.6532880  58.7720270  64.4700540   7.2221770  59.6301780
  57.8962870   2.6085740  70.9075350  57.5377810   3.2739590  71.4948690
  57.6017430   1.7769290  71.2787970  66.4404440   7.8638980  71.7870030
  66.4548980   6.9319940  71.5688940  65.7329540   7.9498740  72.4259800
  71.5741510   2.0478800  58.0568640  71.4905230   2.4793020  57.2065080
  72.2935700   2.5077150  58.4895460  72.6515650   4.5046320  71.1338610
  71.9263840   5.0975100  70.9368000  73.1791110   4.4969860  70.3351980
  72.6028760   8.9021060  60.7850770  71.9604920   8.2476680  61.0594490
  72.2159420   9.3076150  60.0091440  68.1815240   6.2306490  64.6322460
  68.5339060   5.6334620  63.9723830  67.2977570   5.9050720  64.8030710
  64.2678520   6.9904180  62.0392870  64.9549650   7.5373390  62.4200460
  63.4810940   7.5344910  62.0742480  56.4070920   2.6077000  57.5309950
  57.2765770   2.8901800  57.8145870  55.9161240   3.4212870  57.4158760
  63.5705730   3.9950210  61.6518230  64.0268510   4.8055460  61.8778420
  63.2193940   3.6773350  62.4836720  65.8738340   9.5056550  68.8810530
  66.5180560   9.7115930  69.5583950  66.2367780   8.7444950  68.4281380
  67.1470420   7.5088900  67.5987980  67.7892650   6.8082060  67.7120150
  67.6719770   8.2887340  67.4184870  70.9926140   7.7937520  57.3227120
  70.7663720   7.0767960  57.9151760  70.6022340   7.5449960  56.4848870
  68.9208040   8.3083800  70.8024040  69.2564280   8.8950490  71.4801960
  68.0008380   8.1776510  71.0321830  56.7742170  11.8204380  58.0971580
  57.1339810  12.4193720  57.4428850  56.6334510  12.3664270  58.8706610
  70.5742390   5.7109460  58.9841280  70.2864090   6.1722150  59.7719160
  71.3694560   5.2507230  59.2525500  56.7584030  10.0859240  72.5713980
  56.8675150   9.1453980  72.4309370  56.1064590  10.3513990  71.9227710
  62.7910790   9.2035580  58.9145250  62.7820890   9.9365270  58.2989760
  61.8709150   8.9567160  59.0072210  58.3917430   4.4250470  59.6592010
  57.7845380   5.1649370  59.6687310  58.8666780   4.5149830  58.8330210
  65.7770390   9.2663820  57.5770440  65.8782370   9.0627810  56.6472420
  64.8772130   9.0122100  57.7818220  64.4188500  11.7850140  62.2718110
  64.6730000  11.7471530  61.3497480  63.4700980  11.6583470  62.2646360
  70.4241080   2.7042020  63.8476620  69.4831220   2.7192250  64.0224310
  70.7385150   1.9177980  64.2936920  60.4022720   4.3861620  57.4080580
  61.1685990   4.2742980  57.9706010  60.4797410   3.6899590  56.7557350
  72.4266660   9.8750870  65.5230880  72.5514080  10.6982040  65.9954690
  73.2932220   9.6641600  65.1755030  59.8984190  11.9682080  65.1948010
  60.6346670  11.4197540  65.4656580  60.2825110  12.8338090  65.0554000
  56.7829670   8.0355650  61.0689520  55.8569450   8.2776790  61.0594930
  57.2486100   8.8629910  60.9474270  63.0086500  11.1412390  57.0173580
  63.8015110  11.4301220  56.5655370  62.4890850  10.7104560  56.3386060
  72.0616670  10.3682520  58.4410320  71.7758180   9.9547660  57.6264500
  71.8636220  11.2970230  58.3210840  63.5263900   6.3615800  56.8815930
  63.4214540   5.7468150  57.6077310  63.3588120   5.8381690  56.0978940
  63.6778220   5.0472600  72.8605160  62.9123890   5.6157600  72.7759830
  63.8594180   4.7548810  71.9673390  66.7666630   5.4235830  57.4857920
  66.2176730   5.8705130  58.1300660  67.3885890   4.9185080  58.0095590
  62.4341750   4.3826750  59.3823220  62.8558170   4.2166620  60.2254610
  62.5592590   3.5726980  58.8878360  64.9469390   3.4064360  56.6300320
  65.4675050   2.6913380  56.2641470  65.5937790   4.0450230  56.9300830
  69.4947230   4.8292760  71.9535390  69.9088250   4.9837840  72.8025810
  68.5598230   4.9547980  72.1161170  64.2562460   4.7813240  69.9231320
  64.6750570   5.6245970  69.7507560  63.3371090   4.9185280  69.6938100
  66.5926360   2.5129420  71.3069160  66.7122570   1.9170560  72.0464000
  67.4520360   2.5499110  70.8870460  68.9314260   3.0666610  69.8831670
  68.4049480   3.5909230  69.2796810  69.2745600   3.6994000  70.5141400
  62.1069880  11.0866250  71.0389050  61.5690970  11.8112310  70.7197750
  62.3603840  10.6096590  70.2486390  64.9632090  12.3217460  71.2975700
  64.8890790  13.2252600  71.6048070  64.0610930  12.0029360  71.2697770
  65.5117420  11.4875970  58.9202060  66.4068210  11.8260940  58.9420820
  65.5435050  10.7655380  58.2926340  59.1513580   6.8603020  57.1489060
  59.5888450   7.4032690  57.8046640  59.6361310   6.0349970  57.1585400
  56.3659380   9.6492050  64.6009320  56.6962390   8.7813110  64.3687960
  56.7950380   9.8550570  65.4314280  60.9621300   7.9801060  62.2611290
  60.6616840   7.8566030  63.1615200  60.8558790   7.1209650  61.8527020
  56.8549590  10.5162640  67.3390950  56.4180580  10.6963440  68.1715100
  57.4227270  11.2737260  67.1972670  72.4911770  10.0179640  71.6268260
  71.8913760  10.0772200  70.8832180  72.6205670   9.0784620  71.7565110
  73.7313220   7.7597460  56.9637970  72.9006180   7.8274110  57.4345200
  73.9085050   8.6501580  56.6604830  73.1869680   4.5044940  59.4672170
  73.9488590   5.0741590  59.5731860  73.2024050   3.9372140  60.2380480
  56.6874020   3.0282870  63.6979830  56.0322860   2.7594510  63.0539530
  57.5251970   2.9187350  63.2481810  74.1929650   5.3595040  64.3114100
  74.5638480   4.5762360  63.9050070  74.8331580   6.0484140  64.1331400
  71.1763410   6.7431620  69.7244420  70.3623250   7.1728780  69.9870210
  71.5837610   7.3550030  69.1113470  73.2388850   4.7979310  56.6244690
  73.5137690   5.7058190  56.4963910  73.0499590   4.7341840  57.5606680
  73.1354190   2.7348300  61.6174120  72.7597790   1.9676230  61.1855410
  72.4057310   3.1171000  62.1049050  57.7249950   3.4135440  68.2383170
  58.0922990   3.3262840  69.1179190  57.1560770   2.6501990  68.1390030
  72.5253810   1.8819820  71.2513640  72.2939900   1.6532570  70.3511590
  72.7858360   2.8019370  71.2058530  71.2339460  11.4950220  63.2512690
  71.8298530  11.1734790  62.5747110  71.4917610  11.0222040  64.0425960
  62.8408060   9.4827720  69.0013040  62.5999420   9.7502280  68.1143560
  63.7810700   9.6533450  69.0563900  74.1012220  11.5022100  69.8023680
  73.6070500  11.8990970  69.0850810  73.4925510  10.8771310  70.1960960
  58.9790060  10.8730380  70.5201100  58.3850380  10.7415080  71.2591140
  58.9713900  10.0368520  70.0543200  71.7851670  12.1445520  67.0810420
  71.3254640  12.8961330  66.7068440  71.1564130  11.4251990  67.0225220
  58.6102290   8.2388760  69.4709140  57.8836350   7.6194050  69.4035090
  58.6711440   8.6329370  68.6007220  62.2147390  10.4533760  66.2558550
  62.7312410   9.8421120  65.7306810  62.8644770  10.9562540  66.7469560
  64.9542890  11.3442250  67.0827530  65.2420700  11.0896550  66.2060540
  65.4666110  10.7919610  67.6733100  56.8932290  11.5563150  62.6805900
  56.7254330  10.9233830  63.3787790  56.0266800  11.7622550  62.3300090
  58.4994990  10.2496380  60.1256040  57.9742610  10.6304410  59.4218000
  58.4239570  10.8747150  60.8465750  73.2560310  11.8083920  61.4469980
  73.4312500  11.1221660  60.8030900  72.5581880  12.3330970  61.0546650
  61.0987960  12.1978760  59.0005290  61.8306780  11.9138040  58.4529180
  61.3581630  11.9592040  59.8904670  60.2602750   8.3143490  59.0051620
  59.6311630   8.7828590  59.5537450  60.3750580   7.4692710  59.4397810
  65.8470510   4.1428170  47.0362090  65.0712610   3.6628610  47.3260660
  66.4983440   3.4633820  46.8618250  59.8636340   4.4547980  47.9137850
  59.0321220   4.1996690  48.3134360  60.4717320   4.5258750  48.6495770
  69.8677940   8.5488360  45.8161220  69.4059470   7.7775600  46.1448390
  70.6803490   8.5754430  46.3213670  59.8437600   8.4888070  48.1095870
  60.1465640   7.5985810  47.9306090  60.5881190   9.0458290  47.8818120
  66.0941250  10.8346370  45.4365210  65.4752690  11.2903870  44.8659650
  66.9493030  10.9897830  45.0354910  65.2879500   6.8185360  47.0432250
  65.2187780   5.8775300  46.8821380  66.0499360   6.9086770  47.6154820
  66.9604600   5.7185610  42.8297120  66.3421870   6.1835060  42.2659840
  67.4727850   6.4113090  43.2466630  61.8236360   5.2461480  49.5080720
  61.4905740   5.8730400  50.1501790  62.0003040   5.7723360  48.7282390
  61.0355460   7.2142280  51.3229900  61.6529460   7.8893360  51.0414350
  60.1748580   7.6230260  51.2317400  56.3287800   6.4042140  40.2036750
  55.9515780   6.8929240  39.4721650  56.5860870   7.0767420  40.8343280
  71.9533050   8.6781690  49.2384540  71.2696570   9.3480800  49.2301210
  72.4927340   8.8762340  48.4729400  69.4891790  10.5225820  47.9529720
  69.5018950  10.1188110  47.0851980  68.9367010  11.2973110  47.8491150
  70.7837210   7.2442040  43.0419890  70.6733540   6.3016370  43.1669310
  70.7805460   7.6057680  43.9282650  68.8877230   5.4255660  49.2812330
  69.3046020   5.2115770  48.4465790  69.6117050   5.6828450  49.8520950
  66.3257490   2.8707360  42.3982380  65.3986770   2.8044740  42.6270850
  66.4782310   3.8087490  42.2837620  72.8339330   3.8242880  49.3728570
  72.0057960   3.8935970  48.8978700  73.4289810   4.4097190  48.9044400
  70.3554780   4.4327660  42.9017630  69.7367200   4.0947210  42.2543930
  70.3379230   3.7887420  43.6096820  61.9314130   3.3972100  45.1802110
  61.5271130   2.6849350  44.6848010  62.0177250   3.0525340  46.0690150
  62.3995830   7.0839660  47.3441320  62.1024120   6.4785130  46.6649100
  63.3495650   7.1216970  47.2330680  70.4881440  10.6571530  51.0064420
  70.0112000  11.4643720  50.8137030  69.8043230  10.0049860  51.1590630
  61.4914260   6.8221350  53.9949120  60.5942790   7.0461320  54.2422520
  61.5167130   6.9456290  53.0460520  68.5319480   3.6714470  39.9090380
  68.9712760   2.8336900  39.7628200  69.2447900   4.3043870  39.9954520
  60.3185480   3.6934670  52.5706490  60.1793250   4.5657470  52.9393890
  59.4366840   3.3507480  52.4254430  66.6414860   8.6110540  43.8771620
  67.0810770   9.3534870  43.4627010  66.5801750   8.8537110  44.8010580
  62.1165830   9.6356370  54.7791640  62.0881260  10.0399320  53.9120070
  61.9530800   8.7066730  54.6163240  58.6318760   2.2917080  42.6808760
  58.5116360   3.0179170  42.0690030  58.3219650   1.5219990  42.2036670
  74.0680650  10.4183470  56.0755810  74.5440370  10.8966360  56.7544890
  74.6887810  10.3500960  55.3501310  56.2704130   5.4632220  48.4877400
  56.3484550   5.5980990  47.5433120  56.8845810   4.7548110  48.6805520
  57.5151760   7.1632410  44.8983580  57.1079840   7.3047000  44.0437180
  58.4064770   6.8792570  44.6954790  73.4713900   7.6096320  53.2355820
  73.5976960   7.3708200  52.3173000  73.5135280   6.7780860  53.7077900
  67.3330640  11.3124320  51.8050630  67.8475310  11.2232330  52.6073060
  66.4899720  11.6584020  52.0978540  69.3085040  11.5979660  41.2334630
  69.1486180  11.3082600  42.1316460  69.1431750  10.8219790  40.6979860
  61.7873420  11.3778190  43.0106250  61.6115900  10.4613730  42.7974050
  60.9329160  11.7365480  43.2504050  69.0111170   9.1067220  39.7932630
  68.3176330   9.1044510  39.1334910  69.7534030   8.6826540  39.3626800
  68.5761100  10.7329930  43.8681120  69.0318050   9.9519310  44.1819740
  68.9153620  11.4436750  44.4122300  56.3263650   6.5046390  51.0271860
  56.4894690   6.0351750  50.2091230  56.7916100   5.9969950  51.6920700
  62.8233450   1.9785800  39.3100940  62.2550350   1.5304050  38.6836850
  63.5322450   2.3378580  38.7766090  57.9002630   5.8797820  53.1867670
  57.5157420   5.2391490  53.7850630  58.2114820   6.5833940  53.7562400
  64.0499770   2.7274360  48.6676290  64.4169900   2.2532930  49.4137630
  63.8604830   3.6015930  49.0084630  61.8399140   1.7683000  50.9860500
  61.5356210   2.6474980  51.2110860  62.7945600   1.8282790  51.0217940
  60.3680930   5.9743990  41.5827350  59.5943190   5.4341610  41.4226070
  61.0975560   5.4550600  41.2445110  71.1268910   4.9709350  47.3753740
  71.8468030   5.4664640  46.9849850  70.9250730   4.2927240  46.7307610
  66.5087710   5.0418410  53.2622740  66.4425020   4.1214080  53.0080330
  65.8792850   5.1393850  53.9767380  60.4118330   5.6424370  45.2206160
  60.9297000   4.8392630  45.1663050  59.9602350   5.5803510  46.0622990
  65.2987830   6.9090650  40.4933460  65.6403530   7.6532880  39.9976780
  64.4700540   7.2221770  40.8558290  57.8962870   2.6085740  52.1331860
  57.5377810   3.2739590  52.7205200  57.6017430   1.7769290  52.5044480
  61.0975990   3.0669980  55.0171410  60.7976130   3.2127160  54.1199230
  61.8687230   2.5075270  54.9244800  66.4404440   7.8638980  53.0126540
  66.4548980   6.9319940  52.7945450  65.7329540   7.9498740  53.6516310
  71.5741510   2.0478800  39.2825150  71.4905230   2.4793020  38.4321590
  72.2935700   2.5077150  39.7151970  72.6515650   4.5046320  52.3595120
  71.9263840   5.0975100  52.1624510  73.1791110   4.4969860  51.5608490
  72.6028760   8.9021060  42.0107280  71.9604920   8.2476680  42.2851000
  72.2159420   9.3076150  41.2347950  68.1815240   6.2306490  45.8578970
  68.5339060   5.6334620  45.1980340  67.2977570   5.9050720  46.0287220
  64.2678520   6.9904180  43.2649380  64.9549650   7.5373390  43.6456970
  63.4810940   7.5344910  43.2998990  56.4070920   2.6077000  38.7566460
  57.2765770   2.8901800  39.0402380  55.9161240   3.4212870  38.6415270
  63.5705730   3.9950210  42.8774740  64.0268510   4.8055460  43.1034930
  63.2193940   3.6773350  43.7093230  65.8738340   9.5056550  50.1067040
  66.5180560   9.7115930  50.7840460  66.2367780   8.7444950  49.6537890
  67.1470420   7.5088900  48.8244490  67.7892650   6.8082060  48.9376660
  67.6719770   8.2887340  48.6441380  70.9926140   7.7937520  38.5483630
  70.7663720   7.0767960  39.1408270  70.6022340   7.5449960  37.7105380
  68.9208040   8.3083800  52.0280550  69.2564280   8.8950490  52.7058470
  68.0008380   8.1776510  52.2578340  56.7742170  11.8204380  39.3228090
  57.1339810  12.4193720  38.6685360  56.6334510  12.3664270  40.0963120
  70.5742390   5.7109460  40.2097790  70.2864090   6.1722150  40.9975670
  71.3694560   5.2507230  40.4782010  56.7584030  10.0859240  53.7970490
  56.8675150   9.1453980  53.6565880  56.1064590  10.3513990  53.1484220
  64.7496620   8.3575130  55.1968610  64.4293490   7.6384370  55.7414300
  64.0754980   9.0330200  55.2704670  62.7910790   9.2035580  40.1401760
  62.7820890   9.9365270  39.5246270  61.8709150   8.9567160  40.2328720
  58.3917430   4.4250470  40.8848520  57.7845380   5.1649370  40.8943820
  58.8666780   4.5149830  40.0586720  65.7770390   9.2663820  38.8026950
  65.8782370   9.0627810  37.8728930  64.8772130   9.0122100  39.0074730
  64.4188500  11.7850140  43.4974620  64.6730000  11.7471530  42.5753990
  63.4700980  11.6583470  43.4902870  70.4241080   2.7042020  45.0733130
  69.4831220   2.7192250  45.2480820  70.7385150   1.9177980  45.5193430
  60.4022720   4.3861620  38.6337090  61.1685990   4.2742980  39.1962520
  60.4797410   3.6899590  37.9813860  72.4266660   9.8750870  46.7487390
  72.5514080  10.6982040  47.2211200  73.2932220   9.6641600  46.4011540
  59.8984190  11.9682080  46.4204520  60.6346670  11.4197540  46.6913090
  60.2825110  12.8338090  46.2810510  56.7829670   8.0355650  42.2946030
  55.8569450   8.2776790  42.2851440  57.2486100   8.8629910  42.1730780
  58.9042470  11.1528150  55.6090100  59.7055200  11.4740200  56.0225500
  58.3894290  10.7923730  56.3310010  63.0086500  11.1412390  38.2430090
  63.8015110  11.4301220  37.7911880  62.4890850  10.7104560  37.5642570
  67.7407100   7.2608020  55.5565510  67.1345260   7.2839620  54.8161260
  67.4361210   6.5291060  56.0932760  69.1707470  10.9888310  54.1674920
  70.1229220  10.9046330  54.1175160  69.0235690  11.6530020  54.8408710
  72.0616670  10.3682520  39.6666830  71.7758180   9.9547660  38.8521010
  71.8636220  11.2970230  39.5467350  56.6240280   3.6401610  54.5526150
  57.1279300   3.0608890  55.1242380  55.8847700   3.9241840  55.0902520
  63.5263900   6.3615800  38.1072440  63.4214540   5.7468150  38.8333820
  63.3588120   5.8381690  37.3235450  63.6778220   5.0472600  54.0861670
  62.9123890   5.6157600  54.0016340  63.8594180   4.7548810  53.1929900
  66.7666630   5.4235830  38.7114430  66.2176730   5.8705130  39.3557170
  67.3885890   4.9185080  39.2352100  70.8201570   6.7777930  54.6436690
  71.5611040   7.1153690  54.1404150  70.0574250   6.9469990  54.0906460
  58.6563360   1.7831200  55.4476220  58.6968700   1.4845070  56.3561450
  59.5108860   2.1838810  55.2883740  62.4341750   4.3826750  40.6079730
  62.8558170   4.2166620  41.4511120  62.5592590   3.5726980  40.1134870
  64.9469390   3.4064360  37.8556830  65.4675050   2.6913380  37.4897980
  65.5937790   4.0450230  38.1557340  69.4947230   4.8292760  53.1791900
  69.9088250   4.9837840  54.0282320  68.5598230   4.9547980  53.3417680
  64.2562460   4.7813240  51.1487830  64.6750570   5.6245970  50.9764070
  63.3371090   4.9185280  50.9194610  66.5926360   2.5129420  52.5325670
  66.7122570   1.9170560  53.2720510  67.4520360   2.5499110  52.1126970
  68.9314260   3.0666610  51.1088180  68.4049480   3.5909230  50.5053320
  69.2745600   3.6994000  51.7397910  62.1069880  11.0866250  52.2645560
  61.5690970  11.8112310  51.9454260  62.3603840  10.6096590  51.4742900
  64.9632090  12.3217460  52.5232210  64.8890790  13.2252600  52.8304580
  64.0610930  12.0029360  52.4954280  65.5117420  11.4875970  40.1458570
  66.4068210  11.8260940  40.1677330  65.5435050  10.7655380  39.5182850
  59.1513580   6.8603020  38.3745570  59.5888450   7.4032690  39.0303150
  59.6361310   6.0349970  38.3841910  56.3659380   9.6492050  45.8265830
  56.6962390   8.7813110  45.5944470  56.7950380   9.8550570  46.6570790
  60.9621300   7.9801060  43.4867800  60.6616840   7.8566030  44.3871710
  60.8558790   7.1209650  43.0783530  56.8549590  10.5162640  48.5647460
  56.4180580  10.6963440  49.3971610  57.4227270  11.2737260  48.4229180
  72.4911770  10.0179640  52.8524770  71.8913760  10.0772200  52.1088690
  72.6205670   9.0784620  52.9821620  73.7313220   7.7597460  38.1894480
  72.9006180   7.8274110  38.6601710  73.9085050   8.6501580  37.8861340
  73.1869680   4.5044940  40.6928680  73.9488590   5.0741590  40.7988370
  73.2024050   3.9372140  41.4636990  56.6874020   3.0282870  44.9236340
  56.0322860   2.7594510  44.2796040  57.5251970   2.9187350  44.4738320
  74.1929650   5.3595040  45.5370610  74.5638480   4.5762360  45.1306580
  74.8331580   6.0484140  45.3587910  71.1763410   6.7431620  50.9500930
  70.3623250   7.1728780  51.2126720  71.5837610   7.3550030  50.3369980
  73.2388850   4.7979310  37.8501200  73.5137690   5.7058190  37.7220420
  73.0499590   4.7341840  38.7863190  73.1354190   2.7348300  42.8430630
  72.7597790   1.9676230  42.4111920  72.4057310   3.1171000  43.3305560
  57.7249950   3.4135440  49.4639680  58.0922990   3.3262840  50.3435700
  57.1560770   2.6501990  49.3646540  72.5253810   1.8819820  52.4770150
  72.2939900   1.6532570  51.5768100  72.7858360   2.8019370  52.4315040
  71.2339460  11.4950220  44.4769200  71.8298530  11.1734790  43.8003620
  71.4917610  11.0222040  45.2682470  59.1402030   7.9268130  54.6259830
  59.0971660   7.5561040  55.5074290  59.2713040   8.8645700  54.7661650
  62.8408060   9.4827720  50.2269550  62.5999420   9.7502280  49.3400070
  63.7810700   9.6533450  50.2820410  74.1012220  11.5022100  51.0280190
  73.6070500  11.8990970  50.3107320  73.4925510  10.8771310  51.4217470
  58.9790060  10.8730380  51.7457610  58.3850380  10.7415080  52.4847650
  58.9713900  10.0368520  51.2799710  71.7851670  12.1445520  48.3066930
  71.3254640  12.8961330  47.9324950  71.1564130  11.4251990  48.2481730
  58.6102290   8.2388760  50.6965650  57.8836350   7.6194050  50.6291600
  58.6711440   8.6329370  49.8263730  62.2147390  10.4533760  47.4815060
  62.7312410   9.8421120  46.9563320  62.8644770  10.9562540  47.9726070
  64.9542890  11.3442250  48.3084040  65.2420700  11.0896550  47.4317050
  65.4666110  10.7919610  48.8989610  56.8932290  11.5563150  43.9062410
  56.7254330  10.9233830  44.6044300  56.0266800  11.7622550  43.5556600
  58.4994990  10.2496380  41.3512550  57.9742610  10.6304410  40.6474510
  58.4239570  10.8747150  42.0722260  65.0215250  12.2658350  55.6752240
  65.9482560  12.0302620  55.7188200  65.0065680  13.0930350  55.1938270
  73.2560310  11.8083920  42.6726490  73.4312500  11.1221660  42.0287410
  72.5581880  12.3330970  42.2803160  61.0987960  12.1978760  40.2261800
  61.8306780  11.9138040  39.6785690  61.3581630  11.9592040  41.1161180
  60.2602750   8.3143490  40.2308130  59.6311630   8.7828590  40.7793960
  60.3750580   7.4692710  40.6654320  71.5892810  11.4928210  55.4993280
  72.3818130  10.9977440  55.2919240  71.8825960  12.1718350  56.1068890
  65.8470510   4.1428170  28.2618600  65.0712610   3.6628610  28.5517170
  66.4983440   3.4633820  28.0874760  59.8636340   4.4547980  29.1394360
  59.0321220   4.1996690  29.5390870  60.4717320   4.5258750  29.8752280
  69.8677940   8.5488360  27.0417730  69.4059470   7.7775600  27.3704900
  70.6803490   8.5754430  27.5470180  59.8437600   8.4888070  29.3352380
  60.1465640   7.5985810  29.1562600  60.5881190   9.0458290  29.1074630
  66.0941250  10.8346370  26.6621720  65.4752690  11.2903870  26.0916160
  66.9493030  10.9897830  26.2611420  65.2879500   6.8185360  28.2688760
  65.2187780   5.8775300  28.1077890  66.0499360   6.9086770  28.8411330
  66.9604600   5.7185610  24.0553630  66.3421870   6.1835060  23.4916350
  67.4727850   6.4113090  24.4723140  61.8236360   5.2461480  30.7337230
  61.4905740   5.8730400  31.3758300  62.0003040   5.7723360  29.9538900
  61.0355460   7.2142280  32.5486410  61.6529460   7.8893360  32.2670860
  60.1748580   7.6230260  32.4573910  56.3287800   6.4042140  21.4293260
  55.9515780   6.8929240  20.6978160  56.5860870   7.0767420  22.0599790
  71.9533050   8.6781690  30.4641050  71.2696570   9.3480800  30.4557720
  72.4927340   8.8762340  29.6985910  69.4891790  10.5225820  29.1786230
  69.5018950  10.1188110  28.3108490  68.9367010  11.2973110  29.0747660
  70.7837210   7.2442040  24.2676400  70.6733540   6.3016370  24.3925820
  70.7805460   7.6057680  25.1539160  68.8877230   5.4255660  30.5068840
  69.3046020   5.2115770  29.6722300  69.6117050   5.6828450  31.0777460
  66.3257490   2.8707360  23.6238890  65.3986770   2.8044740  23.8527360
  66.4782310   3.8087490  23.5094130  72.8339330   3.8242880  30.5985080
  72.0057960   3.8935970  30.1235210  73.4289810   4.4097190  30.1300910
  70.3554780   4.4327660  24.1274140  69.7367200   4.0947210  23.4800440
  70.3379230   3.7887420  24.8353330  61.9314130   3.3972100  26.4058620
  61.5271130   2.6849350  25.9104520  62.0177250   3.0525340  27.2946660
  62.3995830   7.0839660  28.5697830  62.1024120   6.4785130  27.8905610
  63.3495650   7.1216970  28.4587190  70.4881440  10.6571530  32.2320930
  70.0112000  11.4643720  32.0393540  69.8043230  10.0049860  32.3847140
  61.4914260   6.8221350  35.2205630  60.5942790   7.0461320  35.4679030
  61.5167130   6.9456290  34.2717030  68.5319480   3.6714470  21.1346890
  68.9712760   2.8336900  20.9884710  69.2447900   4.3043870  21.2211030
  60.3185480   3.6934670  33.7963000  60.1793250   4.5657470  34.1650400
  59.4366840   3.3507480  33.6510940  66.6414860   8.6110540  25.1028130
  67.0810770   9.3534870  24.6883520  66.5801750   8.8537110  26.0267090
  62.1165830   9.6356370  36.0048150  62.0881260  10.0399320  35.1376580
  61.9530800   8.7066730  35.8419750  58.6318760   2.2917080  23.9065270
  58.5116360   3.0179170  23.2946540  58.3219650   1.5219990  23.4293180
  74.0680650  10.4183470  37.3012320  74.5440370  10.8966360  37.9801400
  74.6887810  10.3500960  36.5757820  56.2704130   5.4632220  29.7133910
  56.3484550   5.5980990  28.7689630  56.8845810   4.7548110  29.9062030
  57.5151760   7.1632410  26.1240090  57.1079840   7.3047000  25.2693690
  58.4064770   6.8792570  25.9211300  73.4713900   7.6096320  34.4612330
  73.5976960   7.3708200  33.5429510  73.5135280   6.7780860  34.9334410
  67.3330640  11.3124320  33.0307140  67.8475310  11.2232330  33.8329570
  66.4899720  11.6584020  33.3235050  69.3085040  11.5979660  22.4591140
  69.1486180  11.3082600  23.3572970  69.1431750  10.8219790  21.9236370
  61.7873420  11.3778190  24.2362760  61.6115900  10.4613730  24.0230560
  60.9329160  11.7365480  24.4760560  69.0111170   9.1067220  21.0189140
  68.3176330   9.1044510  20.3591420  69.7534030   8.6826540  20.5883310
  68.5761100  10.7329930  25.0937630  69.0318050   9.9519310  25.4076250
  68.9153620  11.4436750  25.6378810  56.3263650   6.5046390  32.2528370
  56.4894690   6.0351750  31.4347740  56.7916100   5.9969950  32.9177210
  62.8233450   1.9785800  20.5357450  62.2550350   1.5304050  19.9093360
  63.5322450   2.3378580  20.0022600  57.9002630   5.8797820  34.4124180
  57.5157420   5.2391490  35.0107140  58.2114820   6.5833940  34.9818910
  64.0499770   2.7274360  29.8932800  64.4169900   2.2532930  30.6394140
  63.8604830   3.6015930  30.2341140  61.8399140   1.7683000  32.2117010
  61.5356210   2.6474980  32.4367370  62.7945600   1.8282790  32.2474450
  60.3680930   5.9743990  22.8083860  59.5943190   5.4341610  22.6482580
  61.0975560   5.4550600  22.4701620  71.1268910   4.9709350  28.6010250
  71.8468030   5.4664640  28.2106360  70.9250730   4.2927240  27.9564120
  66.5087710   5.0418410  34.4879250  66.4425020   4.1214080  34.2336840
  65.8792850   5.1393850  35.2023890  60.4118330   5.6424370  26.4462670
  60.9297000   4.8392630  26.3919560  59.9602350   5.5803510  27.2879500
  65.2987830   6.9090650  21.7189970  65.6403530   7.6532880  21.2233290
  64.4700540   7.2221770  22.0814800  57.8962870   2.6085740  33.3588370
  57.5377810   3.2739590  33.9461710  57.6017430   1.7769290  33.7300990
  61.0975990   3.0669980  36.2427920  60.7976130   3.2127160  35.3455740
  61.8687230   2.5075270  36.1501310  66.4404440   7.8638980  34.2383050
  66.4548980   6.9319940  34.0201960  65.7329540   7.9498740  34.8772820
  71.5741510   2.0478800  20.5081660  71.4905230   2.4793020  19.6578100
  72.2935700   2.5077150  20.9408480  72.6515650   4.5046320  33.5851630
  71.9263840   5.0975100  33.3881020  73.1791110   4.4969860  32.7865000
  72.6028760   8.9021060  23.2363790  71.9604920   8.2476680  23.5107510
  72.2159420   9.3076150  22.4604460  68.1815240   6.2306490  27.0835480
  68.5339060   5.6334620  26.4236850  67.2977570   5.9050720  27.2543730
  64.2678520   6.9904180  24.4905890  64.9549650   7.5373390  24.8713480
  63.4810940   7.5344910  24.5255500  56.4070920   2.6077000  19.9822970
  57.2765770   2.8901800  20.2658890  55.9161240   3.4212870  19.8671780
  63.5705730   3.9950210  24.1031250  64.0268510   4.8055460  24.3291440
  63.2193940   3.6773350  24.9349740  65.8738340   9.5056550  31.3323550
  66.5180560   9.7115930  32.0096970  66.2367780   8.7444950  30.8794400
  67.1470420   7.5088900  30.0501000  67.7892650   6.8082060  30.1633170
  67.6719770   8.2887340  29.8697890  70.9926140   7.7937520  19.7740140
  70.7663720   7.0767960  20.3664780  70.6022340   7.5449960  18.9361890
  68.9208040   8.3083800  33.2537060  69.2564280   8.8950490  33.9314980
  68.0008380   8.1776510  33.4834850  56.7742170  11.8204380  20.5484600
  57.1339810  12.4193720  19.8941870  56.6334510  12.3664270  21.3219630
  70.5742390   5.7109460  21.4354300  70.2864090   6.1722150  22.2232180
  71.3694560   5.2507230  21.7038520  56.7584030  10.0859240  35.0227000
  56.8675150   9.1453980  34.8822390  56.1064590  10.3513990  34.3740730
  64.7496620   8.3575130  36.4225120  64.4293490   7.6384370  36.9670810
  64.0754980   9.0330200  36.4961180  62.7910790   9.2035580  21.3658270
  62.7820890   9.9365270  20.7502780  61.8709150   8.9567160  21.4585230
  58.3917430   4.4250470  22.1105030  57.7845380   5.1649370  22.1200330
  58.8666780   4.5149830  21.2843230  65.7770390   9.2663820  20.0283460
  65.8782370   9.0627810  19.0985440  64.8772130   9.0122100  20.2331240
  64.4188500  11.7850140  24.7231130  64.6730000  11.7471530  23.8010500
  63.4700980  11.6583470  24.7159380  70.4241080   2.7042020  26.2989640
  69.4831220   2.7192250  26.4737330  70.7385150   1.9177980  26.7449940
  60.4022720   4.3861620  19.8593600  61.1685990   4.2742980  20.4219030
  60.4797410   3.6899590  19.2070370  72.4266660   9.8750870  27.9743900
  72.5514080  10.6982040  28.4467710  73.2932220   9.6641600  27.6268050
  59.8984190  11.9682080  27.6461030  60.6346670  11.4197540  27.9169600
  60.2825110  12.8338090  27.5067020  56.7829670   8.0355650  23.5202540
  55.8569450   8.2776790  23.5107950  57.2486100   8.8629910  23.3987290
  58.9042470  11.1528150  36.8346610  59.7055200  11.4740200  37.2482010
  58.3894290  10.7923730  37.5566520  63.0086500  11.1412390  19.4686600
  63.8015110  11.4301220  19.0168390  62.4890850  10.7104560  18.7899080
  67.7407100   7.2608020  36.7822020  67.1345260   7.2839620  36.0417770
  67.4361210   6.5291060  37.3189270  69.1707470  10.9888310  35.3931430
  70.1229220  10.9046330  35.3431670  69.0235690  11.6530020  36.0665220
  72.0616670  10.3682520  20.8923340  71.7758180   9.9547660  20.0777520
  71.8636220  11.2970230  20.7723860  56.6240280   3.6401610  35.7782660
  57.1279300   3.0608890  36.3498890  55.8847700   3.9241840  36.3159030
  63.5263900   6.3615800  19.3328950  63.4214540   5.7468150  20.0590330
  63.3588120   5.8381690  18.5491960  63.6778220   5.0472600  35.3118180
  62.9123890   5.6157600  35.2272850  63.8594180   4.7548810  34.4186410
  66.7666630   5.4235830  19.9370940  66.2176730   5.8705130  20.5813680
  67.3885890   4.9185080  20.4608610  70.8201570   6.7777930  35.8693200
  71.5611040   7.1153690  35.3660660  70.0574250   6.9469990  35.3162970
  58.6563360   1.7831200  36.6732730  58.6968700   1.4845070  37.5817960
  59.5108860   2.1838810  36.5140250  62.4341750   4.3826750  21.8336240
  62.8558170   4.2166620  22.6767630  62.5592590   3.5726980  21.3391380
  64.9469390   3.4064360  19.0813340  65.4675050   2.6913380  18.7154490
  65.5937790   4.0450230  19.3813850  69.4947230   4.8292760  34.4048410
  69.9088250   4.9837840  35.2538830  68.5598230   4.9547980  34.5674190
  64.2562460   4.7813240  32.3744340  64.6750570   5.6245970  32.2020580
  63.3371090   4.9185280  32.1451120  66.5926360   2.5129420  33.7582180
  66.7122570   1.9170560  34.4977020  67.4520360   2.5499110  33.3383480
  68.9314260   3.0666610  32.3344690  68.4049480   3.5909230  31.7309830
  69.2745600   3.6994000  32.9654420  62.1069880  11.0866250  33.4902070
  61.5690970  11.8112310  33.1710770  62.3603840  10.6096590  32.6999410
  64.9632090  12.3217460  33.7488720  64.8890790  13.2252600  34.0561090
  64.0610930  12.0029360  33.7210790  65.5117420  11.4875970  21.3715080
  66.4068210  11.8260940  21.3933840  65.5435050  10.7655380  20.7439360
  59.1513580   6.8603020  19.6002080  59.5888450   7.4032690  20.2559660
  59.6361310   6.0349970  19.6098420  56.3659380   9.6492050  27.0522340
  56.6962390   8.7813110  26.8200980  56.7950380   9.8550570  27.8827300
  60.9621300   7.9801060  24.7124310  60.6616840   7.8566030  25.6128220
  60.8558790   7.1209650  24.3040040  56.8549590  10.5162640  29.7903970
  56.4180580  10.6963440  30.6228120  57.4227270  11.2737260  29.6485690
  72.4911770  10.0179640  34.0781280  71.8913760  10.0772200  33.3345200
  72.6205670   9.0784620  34.2078130  73.7313220   7.7597460  19.4150990
  72.9006180   7.8274110  19.8858220  73.9085050   8.6501580  19.1117850
  73.1869680   4.5044940  21.9185190  73.9488590   5.0741590  22.0244880
  73.2024050   3.9372140  22.6893500  56.6874020   3.0282870  26.1492850
  56.0322860   2.7594510  25.5052550  57.5251970   2.9187350  25.6994830
  74.1929650   5.3595040  26.7627120  74.5638480   4.5762360  26.3563090
  74.8331580   6.0484140  26.5844420  71.1763410   6.7431620  32.1757440
  70.3623250   7.1728780  32.4383230  71.5837610   7.3550030  31.5626490
  73.2388850   4.7979310  19.0757710  73.5137690   5.7058190  18.9476930
  73.0499590   4.7341840  20.0119700  73.1354190   2.7348300  24.0687140
  72.7597790   1.9676230  23.6368430  72.4057310   3.1171000  24.5562070
  57.7249950   3.4135440  30.6896190  58.0922990   3.3262840  31.5692210
  57.1560770   2.6501990  30.5903050  72.5253810   1.8819820  33.7026660
  72.2939900   1.6532570  32.8024610  72.7858360   2.8019370  33.6571550
  71.2339460  11.4950220  25.7025710  71.8298530  11.1734790  25.0260130
  71.4917610  11.0222040  26.4938980  59.1402030   7.9268130  35.8516340
  59.0971660   7.5561040  36.7330800  59.2713040   8.8645700  35.9918160
  62.8408060   9.4827720  31.4526060  62.5999420   9.7502280  30.5656580
  63.7810700   9.6533450  31.5076920  74.1012220  11.5022100  32.2536700
  73.6070500  11.8990970  31.5363830  73.4925510  10.8771310  32.6473980
  58.9790060  10.8730380  32.9714120  58.3850380  10.7415080  33.7104160
  58.9713900  10.0368520  32.5056220  71.7851670  12.1445520  29.5323440
  71.3254640  12.8961330  29.1581460  71.1564130  11.4251990  29.4738240
  58.6102290   8.2388760  31.9222160  57.8836350   7.6194050  31.8548110
  58.6711440   8.6329370  31.0520240  62.2147390  10.4533760  28.7071570
  62.7312410   9.8421120  28.1819830  62.8644770  10.9562540  29.1982580
  64.9542890  11.3442250  29.5340550  65.2420700  11.0896550  28.6573560
  65.4666110  10.7919610  30.1246120  56.8932290  11.5563150  25.1318920
  56.7254330  10.9233830  25.8300810  56.0266800  11.7622550  24.7813110
  58.4994990  10.2496380  22.5769060  57.9742610  10.6304410  21.8731020
  58.4239570  10.8747150  23.2978770  65.0215250  12.2658350  36.9008750
  65.9482560  12.0302620  36.9444710  65.0065680  13.0930350  36.4194780
  73.2560310  11.8083920  23.8983000  73.4312500  11.1221660  23.2543920
  72.5581880  12.3330970  23.5059670  61.0987960  12.1978760  21.4518310
  61.8306780  11.9138040  20.9042200  61.3581630  11.9592040  22.3417690
  60.2602750   8.3143490  21.4564640  59.6311630   8.7828590  22.0050470
  60.3750580   7.4692710  21.8910830  71.5892810  11.4928210  36.7249790
  72.3818130  10.9977440  36.5175750  71.8825960  12.1718350  37.3325400
  65.8470510   4.1428170   9.4875110  65.0712610   3.6628610   9.7773680
  66.4983440   3.4633820   9.3131270  59.8636340   4.4547980  10.3650870
  59.0321220   4.1996690  10.7647380  60.4717320   4.5258750  11.1008790
  69.8677940   8.5488360   8.2674240  69.4059470   7.7775600   8.5961410
  70.6803490   8.5754430   8.7726690  59.8437600   8.4888070  10.5608890
  60.1465640   7.5985810  10.3819110  60.5881190   9.0458290  10.3331140
  66.0941250  10.8346370   7.8878230  65.4752690  11.2903870   7.3172670
  66.9493030  10.9897830   7.4867930  65.2879500   6.8185360   9.4945270
  65.2187780   5.8775300   9.3334400  66.0499360   6.9086770  10.0667840
  66.9604600   5.7185610   5.2810140  66.3421870   6.1835060   4.7172860
  67.4727850   6.4113090   5.6979650  61.8236360   5.2461480  11.9593740
  61.4905740   5.8730400  12.6014810  62.0003040   5.7723360  11.1795410
  61.0355460   7.2142280  13.7742920  61.6529460   7.8893360  13.4927370
  60.1748580   7.6230260  13.6830420  56.3287800   6.4042140   2.6549770
  55.9515780   6.8929240   1.9234670  56.5860870   7.0767420   3.2856300
  71.9533050   8.6781690  11.6897560  71.2696570   9.3480800  11.6814230
  72.4927340   8.8762340  10.9242420  69.4891790  10.5225820  10.4042740
  69.5018950  10.1188110   9.5365000  68.9367010  11.2973110  10.3004170
  70.7837210   7.2442040   5.4932910  70.6733540   6.3016370   5.6182330
  70.7805460   7.6057680   6.3795670  68.8877230   5.4255660  11.7325350
  69.3046020   5.2115770  10.8978810  69.6117050   5.6828450  12.3033970
  66.3257490   2.8707360   4.8495400  65.3986770   2.8044740   5.0783870
  66.4782310   3.8087490   4.7350640  72.8339330   3.8242880  11.8241590
  72.0057960   3.8935970  11.3491720  73.4289810   4.4097190  11.3557420
  70.3554780   4.4327660   5.3530650  69.7367200   4.0947210   4.7056950
  70.3379230   3.7887420   6.0609840  61.9314130   3.3972100   7.6315130
  61.5271130   2.6849350   7.1361030  62.0177250   3.0525340   8.5203170
  62.3995830   7.0839660   9.7954340  62.1024120   6.4785130   9.1162120
  63.3495650   7.1216970   9.6843700  70.4881440  10.6571530  13.4577440
  70.0112000  11.4643720  13.2650050  69.8043230  10.0049860  13.6103650
  61.4914260   6.8221350  16.4462140  60.5942790   7.0461320  16.6935540
  61.5167130   6.9456290  15.4973540  68.5319480   3.6714470   2.3603400
  68.9712760   2.8336900   2.2141220  69.2447900   4.3043870   2.4467540
  60.3185480   3.6934670  15.0219510  60.1793250   4.5657470  15.3906910
  59.4366840   3.3507480  14.8767450  66.6414860   8.6110540   6.3284640
  67.0810770   9.3534870   5.9140030  66.5801750   8.8537110   7.2523600
  62.1165830   9.6356370  17.2304660  62.0881260  10.0399320  16.3633090
  61.9530800   8.7066730  17.0676260  58.6318760   2.2917080   5.1321780
  58.5116360   3.0179170   4.5203050  58.3219650   1.5219990   4.6549690
  74.0680650  10.4183470  18.5268830  74.5440370  10.8966360  19.2057910
  74.6887810  10.3500960  17.8014330  56.2704130   5.4632220  10.9390420
  56.3484550   5.5980990   9.9946140  56.8845810   4.7548110  11.1318540
  57.5151760   7.1632410   7.3496600  57.1079840   7.3047000   6.4950200
  58.4064770   6.8792570   7.1467810  73.4713900   7.6096320  15.6868840
  73.5976960   7.3708200  14.7686020  73.5135280   6.7780860  16.1590920
  67.3330640  11.3124320  14.2563650  67.8475310  11.2232330  15.0586080
  66.4899720  11.6584020  14.5491560  69.3085040  11.5979660   3.6847650
  69.1486180  11.3082600   4.5829480  69.1431750  10.8219790   3.1492880
  61.7873420  11.3778190   5.4619270  61.6115900  10.4613730   5.2487070
  60.9329160  11.7365480   5.7017070  68.5761100  10.7329930   6.3194140
  69.0318050   9.9519310   6.6332760  68.9153620  11.4436750   6.8635320
  56.3263650   6.5046390  13.4784880  56.4894690   6.0351750  12.6604250
  56.7916100   5.9969950  14.1433720  57.9002630   5.8797820  15.6380690
  57.5157420   5.2391490  16.2363650  58.2114820   6.5833940  16.2075420
  64.0499770   2.7274360  11.1189310  64.4169900   2.2532930  11.8650650
  63.8604830   3.6015930  11.4597650  61.8399140   1.7683000  13.4373520
  61.5356210   2.6474980  13.6623880  62.7945600   1.8282790  13.4730960
  60.3680930   5.9743990   4.0340370  59.5943190   5.4341610   3.8739090
  61.0975560   5.4550600   3.6958130  71.1268910   4.9709350   9.8266760
  71.8468030   5.4664640   9.4362870  70.9250730   4.2927240   9.1820630
  66.5087710   5.0418410  15.7135760  66.4425020   4.1214080  15.4593350
  65.8792850   5.1393850  16.4280400  60.4118330   5.6424370   7.6719180
  60.9297000   4.8392630   7.6176070  59.9602350   5.5803510   8.5136010
  65.2987830   6.9090650   2.9446480  65.6403530   7.6532880   2.4489800
  64.4700540   7.2221770   3.3071310  57.8962870   2.6085740  14.5844880
  57.5377810   3.2739590  15.1718220  57.6017430   1.7769290  14.9557500
  61.0975990   3.0669980  17.4684430  60.7976130   3.2127160  16.5712250
  61.8687230   2.5075270  17.3757820  66.4404440   7.8638980  15.4639560
  66.4548980   6.9319940  15.2458470  65.7329540   7.9498740  16.1029330
  72.6515650   4.5046320  14.8108140  71.9263840   5.0975100  14.6137530
  73.1791110   4.4969860  14.0121510  72.6028760   8.9021060   4.4620300
  71.9604920   8.2476680   4.7364020  72.2159420   9.3076150   3.6860970
  68.1815240   6.2306490   8.3091990  68.5339060   5.6334620   7.6493360
  67.2977570   5.9050720   8.4800240  64.2678520   6.9904180   5.7162400
  64.9549650   7.5373390   6.0969990  63.4810940   7.5344910   5.7512010
  63.5705730   3.9950210   5.3287760  64.0268510   4.8055460   5.5547950
  63.2193940   3.6773350   6.1606250  65.8738340   9.5056550  12.5580060
  66.5180560   9.7115930  13.2353480  66.2367780   8.7444950  12.1050910
  67.1470420   7.5088900  11.2757510  67.7892650   6.8082060  11.3889680
  67.6719770   8.2887340  11.0954400  68.9208040   8.3083800  14.4793570
  69.2564280   8.8950490  15.1571490  68.0008380   8.1776510  14.7091360
  70.5742390   5.7109460   2.6610810  70.2864090   6.1722150   3.4488690
  71.3694560   5.2507230   2.9295030  56.7584030  10.0859240  16.2483510
  56.8675150   9.1453980  16.1078900  56.1064590  10.3513990  15.5997240
  64.7496620   8.3575130  17.6481630  64.4293490   7.6384370  18.1927320
  64.0754980   9.0330200  17.7217690  62.7910790   9.2035580   2.5914780
  62.7820890   9.9365270   1.9759290  61.8709150   8.9567160   2.6841740
  58.3917430   4.4250470   3.3361540  57.7845380   5.1649370   3.3456840
  58.8666780   4.5149830   2.5099740  64.4188500  11.7850140   5.9487640
  64.6730000  11.7471530   5.0267010  63.4700980  11.6583470   5.9415890
  70.4241080   2.7042020   7.5246150  69.4831220   2.7192250   7.6993840
  70.7385150   1.9177980   7.9706450  72.4266660   9.8750870   9.2000410
  72.5514080  10.6982040   9.6724220  73.2932220   9.6641600   8.8524560
  59.8984190  11.9682080   8.8717540  60.6346670  11.4197540   9.1426110
  60.2825110  12.8338090   8.7323530  56.7829670   8.0355650   4.7459050
  55.8569450   8.2776790   4.7364460  57.2486100   8.8629910   4.6243800
  58.9042470  11.1528150  18.0603120  59.7055200  11.4740200  18.4738520
  58.3894290  10.7923730  18.7823030  67.7407100   7.2608020  18.0078530
  67.1345260   7.2839620  17.2674280  67.4361210   6.5291060  18.5445780
  69.1707470  10.9888310  16.6187940  70.1229220  10.9046330  16.5688180
  69.0235690  11.6530020  17.2921730  56.6240280   3.6401610  17.0039170
  57.1279300   3.0608890  17.5755400  55.8847700   3.9241840  17.5415540
  63.6778220   5.0472600  16.5374690  62.9123890   5.6157600  16.4529360
  63.8594180   4.7548810  15.6442920  70.8201570   6.7777930  17.0949710
  71.5611040   7.1153690  16.5917170  70.0574250   6.9469990  16.5419480
  58.6563360   1.7831200  17.8989240  58.6968700   1.4845070  18.8074470
  59.5108860   2.1838810  17.7396760  62.4341750   4.3826750   3.0592750
  62.8558170   4.2166620   3.9024140  62.5592590   3.5726980   2.5647890
  69.4947230   4.8292760  15.6304920  69.9088250   4.9837840  16.4795340
  68.5598230   4.9547980  15.7930700  64.2562460   4.7813240  13.6000850
  64.6750570   5.6245970  13.4277090  63.3371090   4.9185280  13.3707630
  66.5926360   2.5129420  14.9838690  66.7122570   1.9170560  15.7233530
  67.4520360   2.5499110  14.5639990  68.9314260   3.0666610  13.5601200
  68.4049480   3.5909230  12.9566340  69.2745600   3.6994000  14.1910930
  62.1069880  11.0866250  14.7158580  61.5690970  11.8112310  14.3967280
  62.3603840  10.6096590  13.9255920  64.9632090  12.3217460  14.9745230
  64.8890790  13.2252600  15.2817600  64.0610930  12.0029360  14.9467300
  65.5117420  11.4875970   2.5971590  66.4068210  11.8260940   2.6190350
  65.5435050  10.7655380   1.9695870  56.3659380   9.6492050   8.2778850
  56.6962390   8.7813110   8.0457490  56.7950380   9.8550570   9.1083810
  60.9621300   7.9801060   5.9380820  60.6616840   7.8566030   6.8384730
  60.8558790   7.1209650   5.5296550  56.8549590  10.5162640  11.0160480
  56.4180580  10.6963440  11.8484630  57.4227270  11.2737260  10.8742200
  72.4911770  10.0179640  15.3037790  71.8913760  10.0772200  14.5601710
  72.6205670   9.0784620  15.4334640  73.1869680   4.5044940   3.1441700
  73.9488590   5.0741590   3.2501390  73.2024050   3.9372140   3.9150010
  56.6874020   3.0282870   7.3749360  56.0322860   2.7594510   6.7309060
  57.5251970   2.9187350   6.9251340  74.1929650   5.3595040   7.9883630
  74.5638480   4.5762360   7.5819600  74.8331580   6.0484140   7.8100930
  71.1763410   6.7431620  13.4013950  70.3623250   7.1728780  13.6639740
  71.5837610   7.3550030  12.7883000  73.1354190   2.7348300   5.2943650
  72.7597790   1.9676230   4.8624940  72.4057310   3.1171000   5.7818580
  57.7249950   3.4135440  11.9152700  58.0922990   3.3262840  12.7948720
  57.1560770   2.6501990  11.8159560  72.5253810   1.8819820  14.9283170
  72.2939900   1.6532570  14.0281120  72.7858360   2.8019370  14.8828060
  71.2339460  11.4950220   6.9282220  71.8298530  11.1734790   6.2516640
  71.4917610  11.0222040   7.7195490  59.1402030   7.9268130  17.0772850
  59.0971660   7.5561040  17.9587310  59.2713040   8.8645700  17.2174670
  62.8408060   9.4827720  12.6782570  62.5999420   9.7502280  11.7913090
  63.7810700   9.6533450  12.7333430  74.1012220  11.5022100  13.4793210
  73.6070500  11.8990970  12.7620340  73.4925510  10.8771310  13.8730490
  58.9790060  10.8730380  14.1970630  58.3850380  10.7415080  14.9360670
  58.9713900  10.0368520  13.7312730  71.7851670  12.1445520  10.7579950
  71.3254640  12.8961330  10.3837970  71.1564130  11.4251990  10.6994750
  58.6102290   8.2388760  13.1478670  57.8836350   7.6194050  13.0804620
  58.6711440   8.6329370  12.2776750  62.2147390  10.4533760   9.9328080
  62.7312410   9.8421120   9.4076340  62.8644770  10.9562540  10.4239090
  64.9542890  11.3442250  10.7597060  65.2420700  11.0896550   9.8830070
  65.4666110  10.7919610  11.3502630  56.8932290  11.5563150   6.3575430
  56.7254330  10.9233830   7.0557320  56.0266800  11.7622550   6.0069620
  58.4994990  10.2496380   3.8025570  57.9742610  10.6304410   3.0987530
  58.4239570  10.8747150   4.5235280  65.0215250  12.2658350  18.1265260
  65.9482560  12.0302620  18.1701220  65.0065680  13.0930350  17.6451290
  73.2560310  11.8083920   5.1239510  73.4312500  11.1221660   4.4800430
  72.5581880  12.3330970   4.7316180  61.0987960  12.1978760   2.6774820
  61.8306780  11.9138040   2.1298710  61.3581630  11.9592040   3.5674200
  60.2602750   8.3143490   2.6821150  59.6311630   8.7828590   3.2306980
  60.3750580   7.4692710   3.1167340  71.5892810  11.4928210  17.9506300
  72.3818130  10.9977440  17.7432260  71.8825960  12.1718350  18.5581910
  48.9408980  96.2366600  63.9296310  48.8603030  95.3221210  63.6588020
  48.5273400  96.7333670  63.2236020  47.0727020  98.0145620  65.8105580
  46.2969120  97.5346060  66.1004150  47.7239950  97.3351270  65.6361740
  41.0892850  98.3265430  66.6881340  40.2577730  98.0714140  67.0877850
  41.6973830  98.3976200  67.4239260  39.4984800  93.2867320  60.4723730
  38.6101500  93.6283290  60.3703610  39.7825990  93.0867640  59.5804560
  37.4617810  95.8872970  66.3563430  38.0333920  95.1195170  66.3567070
  37.4619350  96.1861730  65.4470040  38.7042680  91.2957330  68.1432360
  38.5245520  90.3983080  68.4235120  38.3022760  91.8429200  68.8179310
  47.5441180  93.4973190  66.0444670  47.9206000  92.6245070  65.9318340
  47.4460690  93.8331890  65.1535110  41.6746190  91.8698820  61.5062110
  41.7812940  92.7702550  61.8130870  40.7638550  91.8216790  61.2156760
  51.3265300  90.9923630  62.9773010  52.1474920  90.5020200  63.0198490
  51.3599380  91.5821290  63.7304850  39.3229350  93.7917830  66.7514700
  40.0039460  94.0556200  67.3702100  39.0077400  92.9518700  67.0852710
  43.5153920  94.8385190  65.8387290  44.0232140  95.3366160  66.4792310
  44.0467160  94.0620390  65.6626650  55.6164850  93.0090380  69.5416640
  54.9117020  93.3972090  69.0231750  55.8822770  93.7040670  70.1437570
  41.7990020  89.4783750  70.1050710  41.8008460  89.9956140  69.2996610
  40.9694330  89.0013930  70.0820640  51.5626780  92.9324010  65.7500550
  50.8582350  93.2208900  66.3303660  51.9238940  93.7424120  65.3900110
  41.4805350  91.1893710  68.1121160  41.8222160  92.0335760  67.8175030
  40.5421160  91.3377450  68.2286500  54.6313700  92.3778800  66.1409760
  53.6838610  92.4117780  66.2725190  54.9563690  93.1917750  66.5259120
  45.1633240  88.6775980  64.4365750  45.4708220  88.1222870  63.7201250
  44.2333940  88.8120440  64.2538740  47.5514000  96.7424810  61.1725870
  46.6243280  96.6762190  61.4014340  47.7038820  97.6804940  61.0581110
  47.5383080  93.0141810  58.1693030  46.5986750  93.1755770  58.2545490
  47.8566340  93.7327490  57.6229020  54.0595840  97.6960330  68.1472060
  53.2314470  97.7653420  67.6722190  54.6546320  98.2814640  67.6787890
  51.5811290  98.3045110  61.6761120  50.9623710  97.9664660  61.0287420
  51.5635740  97.6604870  62.3840310  51.0237850  94.4829650  69.0926930
  50.6109030  95.3083360  69.3466920  50.2913800  93.8974690  68.9003290
  43.1570640  97.2689550  63.9545600  42.7527640  96.5566800  63.4591500
  43.2433760  96.9242790  64.8433640  41.8699260  94.0432760  67.7344640
  42.4213850  94.1528100  66.9597890  42.3842770  94.4170360  68.4499870
  49.7575990  97.5431920  58.6833870  50.1969270  96.7054350  58.5371690
  50.4704410  98.1761320  58.7698010  41.5441990  97.5652120  71.3449980
  41.4049760  98.4374920  71.7137380  40.6623350  97.2224930  71.1997920
  53.3393130  88.7974730  56.9974910  53.0265790  88.8901560  57.8973980
  54.1005600  89.3755760  56.9472340  39.8575270  96.1634530  61.4552250
  39.7372870  96.8896620  60.8433520  39.5476160  95.3937440  60.9780160
  54.5494420  93.5346230  72.9749050  53.9338690  94.0425900  72.4464510
  54.2290840  92.6344560  72.9174990  42.3238930  89.5069600  64.8375920
  41.8807080  90.2879140  64.5060440  42.8823920  89.8299490  65.5446860
  46.6108740  92.3738120  70.4411240  46.1488110  92.5821140  71.2531180
  46.2086850  91.5597470  70.1381910  51.6113250  93.5947070  71.5707900
  50.7606840  93.2952820  71.8916970  51.4515040  93.8389080  70.6591720
  45.4397750  89.1280300  59.7181750  44.8151930  89.1240170  60.4435060
  45.3527870  88.2611260  59.3217720  44.3614830  90.0516930  66.6965520
  44.6587160  90.9579760  66.6157540  44.9100390  89.5635710  66.0825090
  42.1153150  94.6303170  62.5657170  41.8894070  94.4140340  63.4703790
  41.3345680  95.0631630  62.2203140  49.3450910  94.6366540  61.1647820
  48.7459800  95.3602340  60.9811440  49.8930520  94.5743320  60.3824270
  47.9515780  93.2730080  63.1951100  48.3445350  93.5902280  62.3819790
  48.3132630  92.3941960  63.3095620  39.6862900  91.9402420  71.3851220
  39.2926290  92.7877630  71.5924000  38.9981300  91.3028790  71.5759860
  36.9879950  89.8630880  65.4181300  36.6993000  90.4333740  66.1306280
  37.7325710  89.3835330  65.7812530  37.1750180  93.8051000  56.6284020
  37.0924850  94.7481760  56.7699010  36.8233240  93.6625910  55.7496370
  48.5370920  95.8635830  67.2901880  47.8052040  96.3722640  67.6391980
  48.1395260  95.0465810  66.9890660  44.9748310  92.5390030  65.6954370
  44.9784370  92.0979980  64.8458910  45.8699430  92.8607360  65.8026190
  40.8250690  92.4216520  64.6548580  40.4850740  92.8991750  65.4115630
  40.0628010  91.9681640  64.2949680  45.0368460  93.5402110  58.6861130
  45.1581280  93.4988590  59.6346950  44.6516970  94.4026260  58.5307860
  48.9996830  91.3169510  66.7024820  49.0169570  91.7678160  67.5466670
  48.7512410  90.4175150  66.9158260  44.0489960  95.8503250  58.0844430
  43.4806860  95.4021500  57.4580340  44.7578960  96.2096030  57.5509580
  45.2756280  96.5991810  67.4419780  45.6426410  96.1250380  68.1881120
  45.0861340  97.4733380  67.7828120  38.1396770  91.3435500  63.5713250
  37.8543690  90.9791170  64.4091870  38.0775630  90.6115960  62.9576390
  43.0655650  95.6400450  69.7603990  42.7612720  96.5192430  69.9854350
  44.0202110  95.7000240  69.7961430  47.8135360  90.2364760  60.2926620
  46.9999970  89.7377930  60.2171930  47.6197310  91.0763010  59.8762970
  50.5283750  94.6084410  58.5888780  51.4163370  94.9201640  58.4140120
  50.4988840  93.7356660  58.1969360  39.1219380  96.4803190  70.9075350
  38.7634320  97.1457040  71.4948690  38.8273940  95.6486740  71.2787970
  52.7998020  95.9196250  58.0568640  52.7161740  96.3510470  57.2065080
  53.5192210  96.3794600  58.4895460  37.6327430  96.4794450  57.5309950
  38.5022280  96.7619250  57.8145870  37.1417750  97.2930320  57.4158760
  44.7962240  97.8667660  61.6518230  45.2525020  98.6772910  61.8778420
  44.4450450  97.5490800  62.4836720  40.6974020  88.2105310  62.1240750
  40.5688650  88.2023210  63.0725670  39.8736040  88.5488400  61.7731760
  37.6967950  89.9696430  71.5847450  36.9826470  90.1693350  72.1900060
  38.1162990  89.1936000  71.9562250  49.1906730  92.4618740  69.3348900
  49.5587550  91.6413950  69.6628470  48.3304930  92.5220630  69.7504550
  52.5568760  91.4175680  60.1436460  51.9281920  91.5221350  59.4294690
  52.0620680  91.6372460  60.9330340  44.5252790  93.6961630  61.5594340
  43.8168940  94.1647970  62.0007950  44.8097270  93.0383640  62.1939530
  46.1508720  95.1158330  69.5586870  46.6493970  95.5904150  70.2238720
  46.2931670  94.1921850  69.7656900  48.5568220  90.4212290  62.9990130
  48.4336000  90.4398420  62.0499640  49.5052780  90.4691230  63.1188530
  42.7287810  92.0046710  58.9345050  43.5778340  92.4416860  58.8685240
  42.3619080  92.3166970  59.7617110  53.3575580  91.3326290  70.4015260
  52.8549180  92.0731690  70.7409070  54.1732240  91.7210290  70.0852050
  51.6497590  96.5759470  63.8476620  50.7087730  96.5909700  64.0224310
  51.9641660  95.7895430  64.2936920  41.6279230  98.2579070  57.4080580
  42.3942500  98.1460430  57.9706010  41.7053920  97.5617040  56.7557350
  40.3225990  95.6904140  58.0913470  40.4029580  94.7431650  58.2030870
  41.2145740  96.0211020  58.1974130  43.6598260  98.2544200  59.3823220
  44.0814680  98.0884070  60.2254610  43.7849100  97.4444430  58.8878360
  41.8225680  94.2340750  72.1894200  41.2922140  93.7431700  71.5617540
  42.4913750  94.6624950  71.6552130  46.1725900  97.2781810  56.6300320
  46.6931560  96.5630830  56.2641470  46.8194300  97.9167680  56.9300830
  42.3097980  91.2003120  72.2691490  42.2154850  90.5823870  71.5442360
  41.7295370  91.9269410  72.0421400  45.0759420  89.7576360  69.3018880
  44.6276720  89.7800620  68.4564430  44.4424620  89.3595380  69.8989180
  47.8182870  96.3846870  71.3069160  47.9379080  95.7888010  72.0464000
  48.6776870  96.4216560  70.8870460  50.1570770  96.9384060  69.8831670
  49.6305990  97.4626680  69.2796810  50.5002110  97.5711450  70.5141400
  42.5557160  94.3277430  56.3281380  42.3546220  93.4644790  56.6894720
  42.3849210  94.2410790  55.3902980  50.0345470  89.1385660  58.8568260
  50.3147760  88.2953560  59.2127680  49.2611200  89.3708770  59.3707010
  41.3539960  91.4278050  56.3159260  41.6565860  91.4345480  55.4078410
  42.0934550  91.0775910  56.8126920  44.5724890  90.3712670  57.3015460
  44.2246890  89.6936660  56.7217910  44.7737660  89.9102180  58.1158850
  37.9130530  96.9000320  63.6979830  37.2579370  96.6311960  63.0539530
  38.7508480  96.7904800  63.2481810  50.8620970  91.6941610  57.9198320
  51.2805850  91.5072590  57.0794980  50.5557030  90.8420660  58.2301250
  54.3610700  96.6065750  61.6174120  53.9854300  95.8393680  61.1855410
  53.6313820  96.9888450  62.1049050  38.9506460  97.2852890  68.2383170
  39.3179500  97.1980290  69.1179190  38.3817280  96.5219440  68.1390030
  53.7510320  95.7537270  71.2513640  53.5196410  95.5250020  70.3511590
  54.0114870  96.6736820  71.2058530  38.5022460  94.1961980  72.1441590
  37.6078510  94.1628740  72.4835300  39.0420010  94.3948770  72.9092840
  37.1268610  94.1099250  59.6405160  36.2232690  94.3729450  59.4656820
  37.6109230  94.3810420  58.8605120  53.6361660  94.8323240  64.9181360
  54.1599140  94.3385890  64.2871530  54.2221080  94.9673600  65.6628930
  53.8151380  94.9163110  68.4400910  52.8654090  94.8826650  68.5545900
  53.9964390  95.8263220  68.2050680  39.6695820  93.1664790  57.5499540
  40.3787520  92.7448010  57.0646820  38.9535760  93.2340020  56.9182890
  39.3169980  89.2204120  56.5902190  40.0398110  89.7613060  56.9083410
  39.5894500  88.9467540  55.7143730  53.1261630  94.0896590  60.8573770
  53.6220750  93.8567460  61.6422650  52.9277700  93.2508430  60.4411410
  39.0062170  88.4710310  66.4924810  39.6538360  87.9207690  66.0519970
  39.4264010  88.7253460  67.3140620  54.5548790  92.7257540  63.3911450
  54.4448070  92.5713580  64.3293720  55.3156380  92.1978480  63.1486860
  52.9014510  88.6651670  69.8494450  53.5386730  89.2785810  70.2153640
  53.0489400  88.7012330  68.9043680  55.4439060  90.5565460  56.6317590
  56.3688370  90.4246640  56.4235880  55.4214850  90.6358280  57.5854040
  55.5177550  91.3276120  59.2574300  54.7229050  91.2621240  59.7867210
  55.7220830  92.2626760  59.2459650  38.7594170  88.6265980  69.2350130
  38.4108990  89.0829800  70.0008310  38.4281870  87.7323110  69.3172560
  49.6501590  88.0380060  68.7231130  48.7761430  88.3715170  68.5204060
  49.5412340  87.5653240  69.5483000  50.5573570  90.2450930  70.1072850
  50.2286930  89.4302690  69.7274580  51.5055870  90.2020740  69.9838540
  47.3976410  88.9549900  67.6624040  46.6148200  89.4295400  67.9420800
  47.1039340  88.0504730  67.5537220  51.9497480  89.6573000  65.7073130
  52.3905570  89.6018100  64.8594730  51.6805070  90.5731010  65.7783310
  53.8136050  89.2888240  63.7181950  53.7524450  88.3449460  63.5712970
  54.5928080  89.3968330  64.2635410  38.7416820  89.2597380  60.1837760
  39.4996180  89.3726260  59.6101790  38.2793990  90.0966580  60.1381190
  45.2830630  91.3736650  63.1740070  44.4705140  90.9993540  62.8335950
  45.7872270  90.6181730  63.4761260  49.7855610  88.0379100  64.4123140
  50.3884980  88.6099310  64.8871660  49.0448600  88.6018540  64.1897040
  52.9290210  88.4400660  59.6863420  53.1240840  89.3384110  59.9530850
  52.1420080  88.2087740  60.1796370  41.1141970  89.7861430  58.7239730
  41.6434730  88.9991230  58.5947680  41.7470290  90.4652620  58.9575260
  43.3079810  89.5236570  61.7785120  42.6782550  88.8223880  61.9455250
  42.7684950  90.2840700  61.5618280  48.9408980  96.2366600  45.1552820
  48.8603030  95.3221210  44.8844530  48.5273400  96.7333670  44.4492530
  47.0727020  98.0145620  47.0362090  46.2969120  97.5346060  47.3260660
  47.7239950  97.3351270  46.8618250  41.0892850  98.3265430  47.9137850
  40.2577730  98.0714140  48.3134360  41.6973830  98.3976200  48.6495770
  39.4984800  93.2867320  41.6980240  38.6101500  93.6283290  41.5960120
  39.7825990  93.0867640  40.8061070  37.4617810  95.8872970  47.5819940
  38.0333920  95.1195170  47.5823580  37.4619350  96.1861730  46.6726550
  38.7042680  91.2957330  49.3688870  38.5245520  90.3983080  49.6491630
  38.3022760  91.8429200  50.0435820  47.5441180  93.4973190  47.2701180
  47.9206000  92.6245070  47.1574850  47.4460690  93.8331890  46.3791620
  41.6746190  91.8698820  42.7318620  41.7812940  92.7702550  43.0387380
  40.7638550  91.8216790  42.4413270  51.3265300  90.9923630  44.2029520
  52.1474920  90.5020200  44.2455000  51.3599380  91.5821290  44.9561360
  39.3229350  93.7917830  47.9771210  40.0039460  94.0556200  48.5958610
  39.0077400  92.9518700  48.3109220  43.5153920  94.8385190  47.0643800
  44.0232140  95.3366160  47.7048820  44.0467160  94.0620390  46.8883160
  55.6164850  93.0090380  50.7673150  54.9117020  93.3972090  50.2488260
  55.8822770  93.7040670  51.3694080  41.7990020  89.4783750  51.3307220
  41.8008460  89.9956140  50.5253120  40.9694330  89.0013930  51.3077150
  51.5626780  92.9324010  46.9757060  50.8582350  93.2208900  47.5560170
  51.9238940  93.7424120  46.6156620  41.4805350  91.1893710  49.3377670
  41.8222160  92.0335760  49.0431540  40.5421160  91.3377450  49.4543010
  54.6313700  92.3778800  47.3666270  53.6838610  92.4117780  47.4981700
  54.9563690  93.1917750  47.7515630  45.1633240  88.6775980  45.6622260
  45.4708220  88.1222870  44.9457760  44.2333940  88.8120440  45.4795250
  47.5514000  96.7424810  42.3982380  46.6243280  96.6762190  42.6270850
  47.7038820  97.6804940  42.2837620  47.5383080  93.0141810  39.3949540
  46.5986750  93.1755770  39.4802000  47.8566340  93.7327490  38.8485530
  54.0595840  97.6960330  49.3728570  53.2314470  97.7653420  48.8978700
  54.6546320  98.2814640  48.9044400  51.5811290  98.3045110  42.9017630
  50.9623710  97.9664660  42.2543930  51.5635740  97.6604870  43.6096820
  51.0237850  94.4829650  50.3183440  50.6109030  95.3083360  50.5723430
  50.2913800  93.8974690  50.1259800  43.1570640  97.2689550  45.1802110
  42.7527640  96.5566800  44.6848010  43.2433760  96.9242790  46.0690150
  41.8699260  94.0432760  48.9601150  42.4213850  94.1528100  48.1854400
  42.3842770  94.4170360  49.6756380  49.7575990  97.5431920  39.9090380
  50.1969270  96.7054350  39.7628200  50.4704410  98.1761320  39.9954520
  41.5441990  97.5652120  52.5706490  41.4049760  98.4374920  52.9393890
  40.6623350  97.2224930  52.4254430  53.3393130  88.7974730  38.2231420
  53.0265790  88.8901560  39.1230490  54.1005600  89.3755760  38.1728850
  39.8575270  96.1634530  42.6808760  39.7372870  96.8896620  42.0690030
  39.5476160  95.3937440  42.2036670  54.5494420  93.5346230  54.2005560
  53.9338690  94.0425900  53.6721020  54.2290840  92.6344560  54.1431500
  42.3238930  89.5069600  46.0632430  41.8807080  90.2879140  45.7316950
  42.8823920  89.8299490  46.7703370  46.6108740  92.3738120  51.6667750
  46.1488110  92.5821140  52.4787690  46.2086850  91.5597470  51.3638420
  51.6113250  93.5947070  52.7964410  50.7606840  93.2952820  53.1173480
  51.4515040  93.8389080  51.8848230  48.7062960  95.0948820  54.8963200
  49.0316370  94.2612570  54.5565430  49.4943290  95.6177340  55.0441530
  45.4397750  89.1280300  40.9438260  44.8151930  89.1240170  41.6691570
  45.3527870  88.2611260  40.5474230  44.3614830  90.0516930  47.9222030
  44.6587160  90.9579760  47.8414050  44.9100390  89.5635710  47.3081600
  42.1153150  94.6303170  43.7913680  41.8894070  94.4140340  44.6960300
  41.3345680  95.0631630  43.4459650  49.3450910  94.6366540  42.3904330
  48.7459800  95.3602340  42.2067950  49.8930520  94.5743320  41.6080780
  44.5552360  95.5288750  54.4573950  44.4595960  94.5883480  54.3074350
  45.3984340  95.7503820  54.0622020  47.9515780  93.2730080  44.4207610
  48.3445350  93.5902280  43.6076300  48.3132630  92.3941960  44.5352130
  39.6862900  91.9402420  52.6107730  39.2926290  92.7877630  52.8180510
  38.9981300  91.3028790  52.8016370  46.2607950  92.0237390  55.6804470
  45.5706270  91.8309590  56.3150560  47.0040250  92.3072030  56.2128770
  36.9879950  89.8630880  46.6437810  36.6993000  90.4333740  47.3562790
  37.7325710  89.3835330  47.0069040  37.1750180  93.8051000  37.8540530
  37.0924850  94.7481760  37.9955520  36.8233240  93.6625910  36.9752880
  48.5370920  95.8635830  48.5158390  47.8052040  96.3722640  48.8648490
  48.1395260  95.0465810  48.2147170  44.9748310  92.5390030  46.9210880
  44.9784370  92.0979980  46.0715420  45.8699430  92.8607360  47.0282700
  40.8250690  92.4216520  45.8805090  40.4850740  92.8991750  46.6372140
  40.0628010  91.9681640  45.5206190  45.0368460  93.5402110  39.9117640
  45.1581280  93.4988590  40.8603460  44.6516970  94.4026260  39.7564370
  48.9996830  91.3169510  47.9281330  49.0169570  91.7678160  48.7723180
  48.7512410  90.4175150  48.1414770  44.0489960  95.8503250  39.3100940
  43.4806860  95.4021500  38.6836850  44.7578960  96.2096030  38.7766090
  52.4267580  88.7301690  53.7667710  52.7513350  87.9991350  54.2925690
  52.4624090  88.4115330  52.8648700  45.2756280  96.5991810  48.6676290
  45.6426410  96.1250380  49.4137630  45.0861340  97.4733380  49.0084630
  38.1396770  91.3435500  44.7969760  37.8543690  90.9791170  45.6348380
  38.0775630  90.6115960  44.1832900  43.0655650  95.6400450  50.9860500
  42.7612720  96.5192430  51.2110860  44.0202110  95.7000240  51.0217940
  47.8135360  90.2364760  41.5183130  46.9999970  89.7377930  41.4428440
  47.6197310  91.0763010  41.1019480  50.5283750  94.6084410  39.8145290
  51.4163370  94.9201640  39.6396630  50.4988840  93.7356660  39.4225870
  39.1219380  96.4803190  52.1331860  38.7634320  97.1457040  52.7205200
  38.8273940  95.6486740  52.5044480  42.3232500  96.9387430  55.0171410
  42.0232640  97.0844610  54.1199230  43.0943740  96.3792720  54.9244800
  52.7998020  95.9196250  39.2825150  52.7161740  96.3510470  38.4321590
  53.5192210  96.3794600  39.7151970  37.6327430  96.4794450  38.7566460
  38.5022280  96.7619250  39.0402380  37.1417750  97.2930320  38.6415270
  44.7962240  97.8667660  42.8774740  45.2525020  98.6772910  43.1034930
  44.4450450  97.5490800  43.7093230  40.6974020  88.2105310  43.3497260
  40.5688650  88.2023210  44.2982180  39.8736040  88.5488400  42.9988270
  37.6967950  89.9696430  52.8103960  36.9826470  90.1693350  53.4156570
  38.1162990  89.1936000  53.1818760  49.1906730  92.4618740  50.5605410
  49.5587550  91.6413950  50.8884980  48.3304930  92.5220630  50.9761060
  52.5568760  91.4175680  41.3692970  51.9281920  91.5221350  40.6551200
  52.0620680  91.6372460  42.1586850  44.5252790  93.6961630  42.7850850
  43.8168940  94.1647970  43.2264460  44.8097270  93.0383640  43.4196040
  46.1508720  95.1158330  50.7843380  46.6493970  95.5904150  51.4495230
  46.2931670  94.1921850  50.9913410  48.5568220  90.4212290  44.2246640
  48.4336000  90.4398420  43.2756150  49.5052780  90.4691230  44.3445040
  42.7287810  92.0046710  40.1601560  43.5778340  92.4416860  40.0941750
  42.3619080  92.3166970  40.9873620  53.3575580  91.3326290  51.6271770
  52.8549180  92.0731690  51.9665580  54.1732240  91.7210290  51.3108560
  51.6497590  96.5759470  45.0733130  50.7087730  96.5909700  45.2480820
  51.9641660  95.7895430  45.5193430  41.6279230  98.2579070  38.6337090
  42.3942500  98.1460430  39.1962520  41.7053920  97.5617040  37.9813860
  40.3225990  95.6904140  39.3169980  40.4029580  94.7431650  39.4287380
  41.2145740  96.0211020  39.4230640  37.8496790  97.5119060  54.5526150
  38.3535810  96.9326340  55.1242380  37.1104210  97.7959290  55.0902520
  39.8819870  95.6548650  55.4476220  39.9225210  95.3562520  56.3561450
  40.7365370  96.0556260  55.2883740  43.6598260  98.2544200  40.6079730
  44.0814680  98.0884070  41.4511120  43.7849100  97.4444430  40.1134870
  41.8225680  94.2340750  53.4150710  41.2922140  93.7431700  52.7874050
  42.4913750  94.6624950  52.8808640  46.1725900  97.2781810  37.8556830
  46.6931560  96.5630830  37.4897980  46.8194300  97.9167680  38.1557340
  51.1925910  96.0406370  55.1831050  51.7746680  95.2858690  55.0951530
  51.3687680  96.5713810  54.4062530  42.3097980  91.2003120  53.4948000
  42.2154850  90.5823870  52.7698870  41.7295370  91.9269410  53.2677910
  45.0759420  89.7576360  50.5275390  44.6276720  89.7800620  49.6820940
  44.4424620  89.3595380  51.1245690  47.8182870  96.3846870  52.5325670
  47.9379080  95.7888010  53.2720510  48.6776870  96.4216560  52.1126970
  50.1570770  96.9384060  51.1088180  49.6305990  97.4626680  50.5053320
  50.5002110  97.5711450  51.7397910  42.5557160  94.3277430  37.5537890
  42.3546220  93.4644790  37.9151230  42.3849210  94.2410790  36.6159490
  44.5851640  92.9268220  53.7901490  45.1751330  92.6184070  54.4779310
  43.7671880  92.4547970  53.9461390  49.4045070  92.5434030  54.0234510
  48.7160590  91.8815570  53.9584500  50.1251090  92.0972300  54.4682970
  50.0345470  89.1385660  40.0824770  50.3147760  88.2953560  40.4384190
  49.2611200  89.3708770  40.5963520  41.3539960  91.4278050  37.5415770
  41.6565860  91.4345480  36.6334920  42.0934550  91.0775910  38.0383430
  44.5724890  90.3712670  38.5271970  44.2246890  89.6936660  37.9474420
  44.7737660  89.9102180  39.3415360  37.9130530  96.9000320  44.9236340
  37.2579370  96.6311960  44.2796040  38.7508480  96.7904800  44.4738320
  50.8620970  91.6941610  39.1454830  51.2805850  91.5072590  38.3051490
  50.5557030  90.8420660  39.4557760  54.3610700  96.6065750  42.8430630
  53.9854300  95.8393680  42.4111920  53.6313820  96.9888450  43.3305560
  38.9506460  97.2852890  49.4639680  39.3179500  97.1980290  50.3435700
  38.3817280  96.5219440  49.3646540  53.7510320  95.7537270  52.4770150
  53.5196410  95.5250020  51.5768100  54.0114870  96.6736820  52.4315040
  38.5022460  94.1961980  53.3698100  37.6078510  94.1628740  53.7091810
  39.0420010  94.3948770  54.1349350  52.1898390  90.9793700  55.2549850
  53.0668570  90.9877100  55.6383850  52.2019230  90.2424540  54.6442200
  37.1268610  94.1099250  40.8661670  36.2232690  94.3729450  40.6913330
  37.6109230  94.3810420  40.0861630  53.6361660  94.8323240  46.1437870
  54.1599140  94.3385890  45.5128040  54.2221080  94.9673600  46.8885440
  53.8151380  94.9163110  49.6657420  52.8654090  94.8826650  49.7802410
  53.9964390  95.8263220  49.4307190  39.6695820  93.1664790  38.7756050
  40.3787520  92.7448010  38.2903330  38.9535760  93.2340020  38.1439400
  39.3169980  89.2204120  37.8158700  40.0398110  89.7613060  38.1339920
  39.5894500  88.9467540  36.9400240  53.1261630  94.0896590  42.0830280
  53.6220750  93.8567460  42.8679160  52.9277700  93.2508430  41.6667920
  39.0062170  88.4710310  47.7181320  39.6538360  87.9207690  47.2776480
  39.4264010  88.7253460  48.5397130  54.5548790  92.7257540  44.6167960
  54.4448070  92.5713580  45.5550230  55.3156380  92.1978480  44.3743370
  52.9014510  88.6651670  51.0750960  53.5386730  89.2785810  51.4410150
  53.0489400  88.7012330  50.1300190  55.4439060  90.5565460  37.8574100
  56.3688370  90.4246640  37.6492390  55.4214850  90.6358280  38.8110550
  55.5177550  91.3276120  40.4830810  54.7229050  91.2621240  41.0123720
  55.7220830  92.2626760  40.4716160  38.7594170  88.6265980  50.4606640
  38.4108990  89.0829800  51.2264820  38.4281870  87.7323110  50.5429070
  46.2718990  89.8177860  53.9826060  46.2107880  90.4099690  54.7321470
  47.2119370  89.7103820  53.8376320  48.9093550  89.4747920  53.6218350
  49.5233960  89.7927210  52.9599430  49.4543110  88.9896510  54.2414210
  39.4314810  88.1542180  53.7357410  39.9797800  87.9730230  52.9723520
  39.4970120  87.3636290  54.2713720  49.6501590  88.0380060  49.9487640
  48.7761430  88.3715170  49.7460570  49.5412340  87.5653240  50.7739510
  50.5573570  90.2450930  51.3329360  50.2286930  89.4302690  50.9531090
  51.5055870  90.2020740  51.2095050  47.3976410  88.9549900  48.8880550
  46.6148200  89.4295400  49.1677310  47.1039340  88.0504730  48.7793730
  51.9497480  89.6573000  46.9329640  52.3905570  89.6018100  46.0851240
  51.6805070  90.5731010  47.0039820  53.8136050  89.2888240  44.9438460
  53.7524450  88.3449460  44.7969480  54.5928080  89.3968330  45.4891920
  38.7416820  89.2597380  41.4094270  39.4996180  89.3726260  40.8358300
  38.2793990  90.0966580  41.3637700  45.2830630  91.3736650  44.3996580
  44.4705140  90.9993540  44.0592460  45.7872270  90.6181730  44.7017770
  49.7855610  88.0379100  45.6379650  50.3884980  88.6099310  46.1128170
  49.0448600  88.6018540  45.4153550  52.9290210  88.4400660  40.9119930
  53.1240840  89.3384110  41.1787360  52.1420080  88.2087740  41.4052880
  41.1141970  89.7861430  39.9496240  41.6434730  88.9991230  39.8204190
  41.7470290  90.4652620  40.1831770  43.3079810  89.5236570  43.0041630
  42.6782550  88.8223880  43.1711760  42.7684950  90.2840700  42.7874790
  43.4335370  88.8020550  55.4394120  43.1519640  89.3054150  54.6754940
  43.8155070  88.0042300  55.0736250  50.0350830  88.2174130  56.0174590
  49.9216280  88.5368740  56.9126110  50.8520570  88.6186640  55.7211870
  48.9408980  96.2366600  26.3809330  48.8603030  95.3221210  26.1101040
  48.5273400  96.7333670  25.6749040  47.0727020  98.0145620  28.2618600
  46.2969120  97.5346060  28.5517170  47.7239950  97.3351270  28.0874760
  41.0892850  98.3265430  29.1394360  40.2577730  98.0714140  29.5390870
  41.6973830  98.3976200  29.8752280  39.4984800  93.2867320  22.9236750
  38.6101500  93.6283290  22.8216630  39.7825990  93.0867640  22.0317580
  37.4617810  95.8872970  28.8076450  38.0333920  95.1195170  28.8080090
  37.4619350  96.1861730  27.8983060  38.7042680  91.2957330  30.5945380
  38.5245520  90.3983080  30.8748140  38.3022760  91.8429200  31.2692330
  47.5441180  93.4973190  28.4957690  47.9206000  92.6245070  28.3831360
  47.4460690  93.8331890  27.6048130  41.6746190  91.8698820  23.9575130
  41.7812940  92.7702550  24.2643890  40.7638550  91.8216790  23.6669780
  51.3265300  90.9923630  25.4286030  52.1474920  90.5020200  25.4711510
  51.3599380  91.5821290  26.1817870  39.3229350  93.7917830  29.2027720
  40.0039460  94.0556200  29.8215120  39.0077400  92.9518700  29.5365730
  43.5153920  94.8385190  28.2900310  44.0232140  95.3366160  28.9305330
  44.0467160  94.0620390  28.1139670  55.6164850  93.0090380  31.9929660
  54.9117020  93.3972090  31.4744770  55.8822770  93.7040670  32.5950590
  41.7990020  89.4783750  32.5563730  41.8008460  89.9956140  31.7509630
  40.9694330  89.0013930  32.5333660  51.5626780  92.9324010  28.2013570
  50.8582350  93.2208900  28.7816680  51.9238940  93.7424120  27.8413130
  41.4805350  91.1893710  30.5634180  41.8222160  92.0335760  30.2688050
  40.5421160  91.3377450  30.6799520  54.6313700  92.3778800  28.5922780
  53.6838610  92.4117780  28.7238210  54.9563690  93.1917750  28.9772140
  45.1633240  88.6775980  26.8878770  45.4708220  88.1222870  26.1714270
  44.2333940  88.8120440  26.7051760  47.5514000  96.7424810  23.6238890
  46.6243280  96.6762190  23.8527360  47.7038820  97.6804940  23.5094130
  47.5383080  93.0141810  20.6206050  46.5986750  93.1755770  20.7058510
  47.8566340  93.7327490  20.0742040  54.0595840  97.6960330  30.5985080
  53.2314470  97.7653420  30.1235210  54.6546320  98.2814640  30.1300910
  51.5811290  98.3045110  24.1274140  50.9623710  97.9664660  23.4800440
  51.5635740  97.6604870  24.8353330  51.0237850  94.4829650  31.5439950
  50.6109030  95.3083360  31.7979940  50.2913800  93.8974690  31.3516310
  43.1570640  97.2689550  26.4058620  42.7527640  96.5566800  25.9104520
  43.2433760  96.9242790  27.2946660  41.8699260  94.0432760  30.1857660
  42.4213850  94.1528100  29.4110910  42.3842770  94.4170360  30.9012890
  49.7575990  97.5431920  21.1346890  50.1969270  96.7054350  20.9884710
  50.4704410  98.1761320  21.2211030  41.5441990  97.5652120  33.7963000
  41.4049760  98.4374920  34.1650400  40.6623350  97.2224930  33.6510940
  53.3393130  88.7974730  19.4487930  53.0265790  88.8901560  20.3487000
  54.1005600  89.3755760  19.3985360  39.8575270  96.1634530  23.9065270
  39.7372870  96.8896620  23.2946540  39.5476160  95.3937440  23.4293180
  54.5494420  93.5346230  35.4262070  53.9338690  94.0425900  34.8977530
  54.2290840  92.6344560  35.3688010  42.3238930  89.5069600  27.2888940
  41.8807080  90.2879140  26.9573460  42.8823920  89.8299490  27.9959880
  46.6108740  92.3738120  32.8924260  46.1488110  92.5821140  33.7044200
  46.2086850  91.5597470  32.5894930  51.6113250  93.5947070  34.0220920
  50.7606840  93.2952820  34.3429990  51.4515040  93.8389080  33.1104740
  48.7062960  95.0948820  36.1219710  49.0316370  94.2612570  35.7821940
  49.4943290  95.6177340  36.2698040  45.4397750  89.1280300  22.1694770
  44.8151930  89.1240170  22.8948080  45.3527870  88.2611260  21.7730740
  44.3614830  90.0516930  29.1478540  44.6587160  90.9579760  29.0670560
  44.9100390  89.5635710  28.5338110  42.1153150  94.6303170  25.0170190
  41.8894070  94.4140340  25.9216810  41.3345680  95.0631630  24.6716160
  49.3450910  94.6366540  23.6160840  48.7459800  95.3602340  23.4324460
  49.8930520  94.5743320  22.8337290  44.5552360  95.5288750  35.6830460
  44.4595960  94.5883480  35.5330860  45.3984340  95.7503820  35.2878530
  47.9515780  93.2730080  25.6464120  48.3445350  93.5902280  24.8332810
  48.3132630  92.3941960  25.7608640  39.6862900  91.9402420  33.8364240
  39.2926290  92.7877630  34.0437020  38.9981300  91.3028790  34.0272880
  46.2607950  92.0237390  36.9060980  45.5706270  91.8309590  37.5407070
  47.0040250  92.3072030  37.4385280  36.9879950  89.8630880  27.8694320
  36.6993000  90.4333740  28.5819300  37.7325710  89.3835330  28.2325550
  37.1750180  93.8051000  19.0797040  37.0924850  94.7481760  19.2212030
  36.8233240  93.6625910  18.2009390  48.5370920  95.8635830  29.7414900
  47.8052040  96.3722640  30.0905000  48.1395260  95.0465810  29.4403680
  44.9748310  92.5390030  28.1467390  44.9784370  92.0979980  27.2971930
  45.8699430  92.8607360  28.2539210  40.8250690  92.4216520  27.1061600
  40.4850740  92.8991750  27.8628650  40.0628010  91.9681640  26.7462700
  45.0368460  93.5402110  21.1374150  45.1581280  93.4988590  22.0859970
  44.6516970  94.4026260  20.9820880  48.9996830  91.3169510  29.1537840
  49.0169570  91.7678160  29.9979690  48.7512410  90.4175150  29.3671280
  44.0489960  95.8503250  20.5357450  43.4806860  95.4021500  19.9093360
  44.7578960  96.2096030  20.0022600  52.4267580  88.7301690  34.9924220
  52.7513350  87.9991350  35.5182200  52.4624090  88.4115330  34.0905210
  45.2756280  96.5991810  29.8932800  45.6426410  96.1250380  30.6394140
  45.0861340  97.4733380  30.2341140  38.1396770  91.3435500  26.0226270
  37.8543690  90.9791170  26.8604890  38.0775630  90.6115960  25.4089410
  43.0655650  95.6400450  32.2117010  42.7612720  96.5192430  32.4367370
  44.0202110  95.7000240  32.2474450  47.8135360  90.2364760  22.7439640
  46.9999970  89.7377930  22.6684950  47.6197310  91.0763010  22.3275990
  50.5283750  94.6084410  21.0401800  51.4163370  94.9201640  20.8653140
  50.4988840  93.7356660  20.6482380  39.1219380  96.4803190  33.3588370
  38.7634320  97.1457040  33.9461710  38.8273940  95.6486740  33.7300990
  42.3232500  96.9387430  36.2427920  42.0232640  97.0844610  35.3455740
  43.0943740  96.3792720  36.1501310  52.7998020  95.9196250  20.5081660
  52.7161740  96.3510470  19.6578100  53.5192210  96.3794600  20.9408480
  37.6327430  96.4794450  19.9822970  38.5022280  96.7619250  20.2658890
  37.1417750  97.2930320  19.8671780  44.7962240  97.8667660  24.1031250
  45.2525020  98.6772910  24.3291440  44.4450450  97.5490800  24.9349740
  40.6974020  88.2105310  24.5753770  40.5688650  88.2023210  25.5238690
  39.8736040  88.5488400  24.2244780  37.6967950  89.9696430  34.0360470
  36.9826470  90.1693350  34.6413080  38.1162990  89.1936000  34.4075270
  49.1906730  92.4618740  31.7861920  49.5587550  91.6413950  32.1141490
  48.3304930  92.5220630  32.2017570  52.5568760  91.4175680  22.5949480
  51.9281920  91.5221350  21.8807710  52.0620680  91.6372460  23.3843360
  44.5252790  93.6961630  24.0107360  43.8168940  94.1647970  24.4520970
  44.8097270  93.0383640  24.6452550  46.1508720  95.1158330  32.0099890
  46.6493970  95.5904150  32.6751740  46.2931670  94.1921850  32.2169920
  48.5568220  90.4212290  25.4503150  48.4336000  90.4398420  24.5012660
  49.5052780  90.4691230  25.5701550  42.7287810  92.0046710  21.3858070
  43.5778340  92.4416860  21.3198260  42.3619080  92.3166970  22.2130130
  53.3575580  91.3326290  32.8528280  52.8549180  92.0731690  33.1922090
  54.1732240  91.7210290  32.5365070  51.6497590  96.5759470  26.2989640
  50.7087730  96.5909700  26.4737330  51.9641660  95.7895430  26.7449940
  41.6279230  98.2579070  19.8593600  42.3942500  98.1460430  20.4219030
  41.7053920  97.5617040  19.2070370  40.3225990  95.6904140  20.5426490
  40.4029580  94.7431650  20.6543890  41.2145740  96.0211020  20.6487150
  37.8496790  97.5119060  35.7782660  38.3535810  96.9326340  36.3498890
  37.1104210  97.7959290  36.3159030  39.8819870  95.6548650  36.6732730
  39.9225210  95.3562520  37.5817960  40.7365370  96.0556260  36.5140250
  43.6598260  98.2544200  21.8336240  44.0814680  98.0884070  22.6767630
  43.7849100  97.4444430  21.3391380  41.8225680  94.2340750  34.6407220
  41.2922140  93.7431700  34.0130560  42.4913750  94.6624950  34.1065150
  46.1725900  97.2781810  19.0813340  46.6931560  96.5630830  18.7154490
  46.8194300  97.9167680  19.3813850  51.1925910  96.0406370  36.4087560
  51.7746680  95.2858690  36.3208040  51.3687680  96.5713810  35.6319040
  42.3097980  91.2003120  34.7204510  42.2154850  90.5823870  33.9955380
  41.7295370  91.9269410  34.4934420  45.0759420  89.7576360  31.7531900
  44.6276720  89.7800620  30.9077450  44.4424620  89.3595380  32.3502200
  47.8182870  96.3846870  33.7582180  47.9379080  95.7888010  34.4977020
  48.6776870  96.4216560  33.3383480  50.1570770  96.9384060  32.3344690
  49.6305990  97.4626680  31.7309830  50.5002110  97.5711450  32.9654420
  42.5557160  94.3277430  18.7794400  42.3546220  93.4644790  19.1407740
  42.3849210  94.2410790  17.8416000  44.5851640  92.9268220  35.0158000
  45.1751330  92.6184070  35.7035820  43.7671880  92.4547970  35.1717900
  49.4045070  92.5434030  35.2491020  48.7160590  91.8815570  35.1841010
  50.1251090  92.0972300  35.6939480  50.0345470  89.1385660  21.3081280
  50.3147760  88.2953560  21.6640700  49.2611200  89.3708770  21.8220030
  41.3539960  91.4278050  18.7672280  41.6565860  91.4345480  17.8591430
  42.0934550  91.0775910  19.2639940  44.5724890  90.3712670  19.7528480
  44.2246890  89.6936660  19.1730930  44.7737660  89.9102180  20.5671870
  37.9130530  96.9000320  26.1492850  37.2579370  96.6311960  25.5052550
  38.7508480  96.7904800  25.6994830  50.8620970  91.6941610  20.3711340
  51.2805850  91.5072590  19.5308000  50.5557030  90.8420660  20.6814270
  54.3610700  96.6065750  24.0687140  53.9854300  95.8393680  23.6368430
  53.6313820  96.9888450  24.5562070  38.9506460  97.2852890  30.6896190
  39.3179500  97.1980290  31.5692210  38.3817280  96.5219440  30.5903050
  53.7510320  95.7537270  33.7026660  53.5196410  95.5250020  32.8024610
  54.0114870  96.6736820  33.6571550  38.5022460  94.1961980  34.5954610
  37.6078510  94.1628740  34.9348320  39.0420010  94.3948770  35.3605860
  52.1898390  90.9793700  36.4806360  53.0668570  90.9877100  36.8640360
  52.2019230  90.2424540  35.8698710  37.1268610  94.1099250  22.0918180
  36.2232690  94.3729450  21.9169840  37.6109230  94.3810420  21.3118140
  53.6361660  94.8323240  27.3694380  54.1599140  94.3385890  26.7384550
  54.2221080  94.9673600  28.1141950  53.8151380  94.9163110  30.8913930
  52.8654090  94.8826650  31.0058920  53.9964390  95.8263220  30.6563700
  39.6695820  93.1664790  20.0012560  40.3787520  92.7448010  19.5159840
  38.9535760  93.2340020  19.3695910  39.3169980  89.2204120  19.0415210
  40.0398110  89.7613060  19.3596430  39.5894500  88.9467540  18.1656750
  53.1261630  94.0896590  23.3086790  53.6220750  93.8567460  24.0935670
  52.9277700  93.2508430  22.8924430  39.0062170  88.4710310  28.9437830
  39.6538360  87.9207690  28.5032990  39.4264010  88.7253460  29.7653640
  54.5548790  92.7257540  25.8424470  54.4448070  92.5713580  26.7806740
  55.3156380  92.1978480  25.5999880  52.9014510  88.6651670  32.3007470
  53.5386730  89.2785810  32.6666660  53.0489400  88.7012330  31.3556700
  55.4439060  90.5565460  19.0830610  56.3688370  90.4246640  18.8748900
  55.4214850  90.6358280  20.0367060  55.5177550  91.3276120  21.7087320
  54.7229050  91.2621240  22.2380230  55.7220830  92.2626760  21.6972670
  38.7594170  88.6265980  31.6863150  38.4108990  89.0829800  32.4521330
  38.4281870  87.7323110  31.7685580  46.2718990  89.8177860  35.2082570
  46.2107880  90.4099690  35.9577980  47.2119370  89.7103820  35.0632830
  48.9093550  89.4747920  34.8474860  49.5233960  89.7927210  34.1855940
  49.4543110  88.9896510  35.4670720  39.4314810  88.1542180  34.9613920
  39.9797800  87.9730230  34.1980030  39.4970120  87.3636290  35.4970230
  49.6501590  88.0380060  31.1744150  48.7761430  88.3715170  30.9717080
  49.5412340  87.5653240  31.9996020  50.5573570  90.2450930  32.5585870
  50.2286930  89.4302690  32.1787600  51.5055870  90.2020740  32.4351560
  47.3976410  88.9549900  30.1137060  46.6148200  89.4295400  30.3933820
  47.1039340  88.0504730  30.0050240  51.9497480  89.6573000  28.1586150
  52.3905570  89.6018100  27.3107750  51.6805070  90.5731010  28.2296330
  53.8136050  89.2888240  26.1694970  53.7524450  88.3449460  26.0225990
  54.5928080  89.3968330  26.7148430  38.7416820  89.2597380  22.6350780
  39.4996180  89.3726260  22.0614810  38.2793990  90.0966580  22.5894210
  45.2830630  91.3736650  25.6253090  44.4705140  90.9993540  25.2848970
  45.7872270  90.6181730  25.9274280  49.7855610  88.0379100  26.8636160
  50.3884980  88.6099310  27.3384680  49.0448600  88.6018540  26.6410060
  52.9290210  88.4400660  22.1376440  53.1240840  89.3384110  22.4043870
  52.1420080  88.2087740  22.6309390  41.1141970  89.7861430  21.1752750
  41.6434730  88.9991230  21.0460700  41.7470290  90.4652620  21.4088280
  43.3079810  89.5236570  24.2298140  42.6782550  88.8223880  24.3968270
  42.7684950  90.2840700  24.0131300  43.4335370  88.8020550  36.6650630
  43.1519640  89.3054150  35.9011450  43.8155070  88.0042300  36.2992760
  50.0350830  88.2174130  37.2431100  49.9216280  88.5368740  38.1382620
  50.8520570  88.6186640  36.9468380  48.9408980  96.2366600   7.6065840
  48.8603030  95.3221210   7.3357550  48.5273400  96.7333670   6.9005550
  47.0727020  98.0145620   9.4875110  46.2969120  97.5346060   9.7773680
  47.7239950  97.3351270   9.3131270  41.0892850  98.3265430  10.3650870
  40.2577730  98.0714140  10.7647380  41.6973830  98.3976200  11.1008790
  39.4984800  93.2867320   4.1493260  38.6101500  93.6283290   4.0473140
  39.7825990  93.0867640   3.2574090  37.4617810  95.8872970  10.0332960
  38.0333920  95.1195170  10.0336600  37.4619350  96.1861730   9.1239570
  38.7042680  91.2957330  11.8201890  38.5245520  90.3983080  12.1004650
  38.3022760  91.8429200  12.4948840  47.5441180  93.4973190   9.7214200
  47.9206000  92.6245070   9.6087870  47.4460690  93.8331890   8.8304640
  41.6746190  91.8698820   5.1831640  41.7812940  92.7702550   5.4900400
  40.7638550  91.8216790   4.8926290  51.3265300  90.9923630   6.6542540
  52.1474920  90.5020200   6.6968020  51.3599380  91.5821290   7.4074380
  39.3229350  93.7917830  10.4284230  40.0039460  94.0556200  11.0471630
  39.0077400  92.9518700  10.7622240  43.5153920  94.8385190   9.5156820
  44.0232140  95.3366160  10.1561840  44.0467160  94.0620390   9.3396180
  55.6164850  93.0090380  13.2186170  54.9117020  93.3972090  12.7001280
  55.8822770  93.7040670  13.8207100  41.7990020  89.4783750  13.7820240
  41.8008460  89.9956140  12.9766140  40.9694330  89.0013930  13.7590170
  51.5626780  92.9324010   9.4270080  50.8582350  93.2208900  10.0073190
  51.9238940  93.7424120   9.0669640  41.4805350  91.1893710  11.7890690
  41.8222160  92.0335760  11.4944560  40.5421160  91.3377450  11.9056030
  54.6313700  92.3778800   9.8179290  53.6838610  92.4117780   9.9494720
  54.9563690  93.1917750  10.2028650  45.1633240  88.6775980   8.1135280
  45.4708220  88.1222870   7.3970780  44.2333940  88.8120440   7.9308270
  47.5514000  96.7424810   4.8495400  46.6243280  96.6762190   5.0783870
  47.7038820  97.6804940   4.7350640  54.0595840  97.6960330  11.8241590
  53.2314470  97.7653420  11.3491720  54.6546320  98.2814640  11.3557420
  51.5811290  98.3045110   5.3530650  50.9623710  97.9664660   4.7056950
  51.5635740  97.6604870   6.0609840  51.0237850  94.4829650  12.7696460
  50.6109030  95.3083360  13.0236450  50.2913800  93.8974690  12.5772820
  43.1570640  97.2689550   7.6315130  42.7527640  96.5566800   7.1361030
  43.2433760  96.9242790   8.5203170  41.8699260  94.0432760  11.4114170
  42.4213850  94.1528100  10.6367420  42.3842770  94.4170360  12.1269400
  49.7575990  97.5431920   2.3603400  50.1969270  96.7054350   2.2141220
  50.4704410  98.1761320   2.4467540  41.5441990  97.5652120  15.0219510
  41.4049760  98.4374920  15.3906910  40.6623350  97.2224930  14.8767450
  39.8575270  96.1634530   5.1321780  39.7372870  96.8896620   4.5203050
  39.5476160  95.3937440   4.6549690  54.5494420  93.5346230  16.6518580
  53.9338690  94.0425900  16.1234040  54.2290840  92.6344560  16.5944520
  42.3238930  89.5069600   8.5145450  41.8807080  90.2879140   8.1829970
  42.8823920  89.8299490   9.2216390  46.6108740  92.3738120  14.1180770
  46.1488110  92.5821140  14.9300710  46.2086850  91.5597470  13.8151440
  51.6113250  93.5947070  15.2477430  50.7606840  93.2952820  15.5686500
  51.4515040  93.8389080  14.3361250  48.7062960  95.0948820  17.3476220
  49.0316370  94.2612570  17.0078450  49.4943290  95.6177340  17.4954550
  45.4397750  89.1280300   3.3951280  44.8151930  89.1240170   4.1204590
  45.3527870  88.2611260   2.9987250  44.3614830  90.0516930  10.3735050
  44.6587160  90.9579760  10.2927070  44.9100390  89.5635710   9.7594620
  42.1153150  94.6303170   6.2426700  41.8894070  94.4140340   7.1473320
  41.3345680  95.0631630   5.8972670  49.3450910  94.6366540   4.8417350
  48.7459800  95.3602340   4.6580970  49.8930520  94.5743320   4.0593800
  44.5552360  95.5288750  16.9086970  44.4595960  94.5883480  16.7587370
  45.3984340  95.7503820  16.5135040  47.9515780  93.2730080   6.8720630
  48.3445350  93.5902280   6.0589320  48.3132630  92.3941960   6.9865150
  39.6862900  91.9402420  15.0620750  39.2926290  92.7877630  15.2693530
  38.9981300  91.3028790  15.2529390  46.2607950  92.0237390  18.1317490
  45.5706270  91.8309590  18.7663580  47.0040250  92.3072030  18.6641790
  36.9879950  89.8630880   9.0950830  36.6993000  90.4333740   9.8075810
  37.7325710  89.3835330   9.4582060  48.5370920  95.8635830  10.9671410
  47.8052040  96.3722640  11.3161510  48.1395260  95.0465810  10.6660190
  44.9748310  92.5390030   9.3723900  44.9784370  92.0979980   8.5228440
  45.8699430  92.8607360   9.4795720  40.8250690  92.4216520   8.3318110
  40.4850740  92.8991750   9.0885160  40.0628010  91.9681640   7.9719210
  45.0368460  93.5402110   2.3630660  45.1581280  93.4988590   3.3116480
  44.6516970  94.4026260   2.2077390  48.9996830  91.3169510  10.3794350
  49.0169570  91.7678160  11.2236200  48.7512410  90.4175150  10.5927790
  52.4267580  88.7301690  16.2180730  52.7513350  87.9991350  16.7438710
  52.4624090  88.4115330  15.3161720  45.2756280  96.5991810  11.1189310
  45.6426410  96.1250380  11.8650650  45.0861340  97.4733380  11.4597650
  38.1396770  91.3435500   7.2482780  37.8543690  90.9791170   8.0861400
  38.0775630  90.6115960   6.6345920  43.0655650  95.6400450  13.4373520
  42.7612720  96.5192430  13.6623880  44.0202110  95.7000240  13.4730960
  47.8135360  90.2364760   3.9696150  46.9999970  89.7377930   3.8941460
  47.6197310  91.0763010   3.5532500  50.5283750  94.6084410   2.2658310
  51.4163370  94.9201640   2.0909650  50.4988840  93.7356660   1.8738890
  39.1219380  96.4803190  14.5844880  38.7634320  97.1457040  15.1718220
  38.8273940  95.6486740  14.9557500  42.3232500  96.9387430  17.4684430
  42.0232640  97.0844610  16.5712250  43.0943740  96.3792720  17.3757820
  44.7962240  97.8667660   5.3287760  45.2525020  98.6772910   5.5547950
  44.4450450  97.5490800   6.1606250  40.6974020  88.2105310   5.8010280
  40.5688650  88.2023210   6.7495200  39.8736040  88.5488400   5.4501290
  37.6967950  89.9696430  15.2616980  36.9826470  90.1693350  15.8669590
  38.1162990  89.1936000  15.6331780  49.1906730  92.4618740  13.0118430
  49.5587550  91.6413950  13.3398000  48.3304930  92.5220630  13.4274080
  52.5568760  91.4175680   3.8205990  51.9281920  91.5221350   3.1064220
  52.0620680  91.6372460   4.6099870  44.5252790  93.6961630   5.2363870
  43.8168940  94.1647970   5.6777480  44.8097270  93.0383640   5.8709060
  46.1508720  95.1158330  13.2356400  46.6493970  95.5904150  13.9008250
  46.2931670  94.1921850  13.4426430  48.5568220  90.4212290   6.6759660
  48.4336000  90.4398420   5.7269170  49.5052780  90.4691230   6.7958060
  42.7287810  92.0046710   2.6114580  43.5778340  92.4416860   2.5454770
  42.3619080  92.3166970   3.4386640  53.3575580  91.3326290  14.0784790
  52.8549180  92.0731690  14.4178600  54.1732240  91.7210290  13.7621580
  51.6497590  96.5759470   7.5246150  50.7087730  96.5909700   7.6993840
  51.9641660  95.7895430   7.9706450  40.3225990  95.6904140   1.7683000
  40.4029580  94.7431650   1.8800400  41.2145740  96.0211020   1.8743660
  37.8496790  97.5119060  17.0039170  38.3535810  96.9326340  17.5755400
  37.1104210  97.7959290  17.5415540  39.8819870  95.6548650  17.8989240
  39.9225210  95.3562520  18.8074470  40.7365370  96.0556260  17.7396760
  43.6598260  98.2544200   3.0592750  44.0814680  98.0884070   3.9024140
  43.7849100  97.4444430   2.5647890  41.8225680  94.2340750  15.8663730
  41.2922140  93.7431700  15.2387070  42.4913750  94.6624950  15.3321660
  51.1925910  96.0406370  17.6344070  51.7746680  95.2858690  17.5464550
  51.3687680  96.5713810  16.8575550  42.3097980  91.2003120  15.9461020
  42.2154850  90.5823870  15.2211890  41.7295370  91.9269410  15.7190930
  45.0759420  89.7576360  12.9788410  44.6276720  89.7800620  12.1333960
  44.4424620  89.3595380  13.5758710  47.8182870  96.3846870  14.9838690
  47.9379080  95.7888010  15.7233530  48.6776870  96.4216560  14.5639990
  50.1570770  96.9384060  13.5601200  49.6305990  97.4626680  12.9566340
  50.5002110  97.5711450  14.1910930  44.5851640  92.9268220  16.2414510
  45.1751330  92.6184070  16.9292330  43.7671880  92.4547970  16.3974410
  49.4045070  92.5434030  16.4747530  48.7160590  91.8815570  16.4097520
  50.1251090  92.0972300  16.9195990  50.0345470  89.1385660   2.5337790
  50.3147760  88.2953560   2.8897210  49.2611200  89.3708770   3.0476540
  37.9130530  96.9000320   7.3749360  37.2579370  96.6311960   6.7309060
  38.7508480  96.7904800   6.9251340  54.3610700  96.6065750   5.2943650
  53.9854300  95.8393680   4.8624940  53.6313820  96.9888450   5.7818580
  38.9506460  97.2852890  11.9152700  39.3179500  97.1980290  12.7948720
  38.3817280  96.5219440  11.8159560  53.7510320  95.7537270  14.9283170
  53.5196410  95.5250020  14.0281120  54.0114870  96.6736820  14.8828060
  38.5022460  94.1961980  15.8211120  37.6078510  94.1628740  16.1604830
  39.0420010  94.3948770  16.5862370  52.1898390  90.9793700  17.7062870
  53.0668570  90.9877100  18.0896870  52.2019230  90.2424540  17.0955220
  37.1268610  94.1099250   3.3174690  36.2232690  94.3729450   3.1426350
  37.6109230  94.3810420   2.5374650  53.6361660  94.8323240   8.5950890
  54.1599140  94.3385890   7.9641060  54.2221080  94.9673600   9.3398460
  53.8151380  94.9163110  12.1170440  52.8654090  94.8826650  12.2315430
  53.9964390  95.8263220  11.8820210  53.1261630  94.0896590   4.5343300
  53.6220750  93.8567460   5.3192180  52.9277700  93.2508430   4.1180940
  39.0062170  88.4710310  10.1694340  39.6538360  87.9207690   9.7289500
  39.4264010  88.7253460  10.9910150  54.5548790  92.7257540   7.0680980
  54.4448070  92.5713580   8.0063250  55.3156380  92.1978480   6.8256390
  52.9014510  88.6651670  13.5263980  53.5386730  89.2785810  13.8923170
  53.0489400  88.7012330  12.5813210  55.5177550  91.3276120   2.9343830
  54.7229050  91.2621240   3.4636740  55.7220830  92.2626760   2.9229180
  38.7594170  88.6265980  12.9119660  38.4108990  89.0829800  13.6777840
  38.4281870  87.7323110  12.9942090  46.2718990  89.8177860  16.4339080
  46.2107880  90.4099690  17.1834490  47.2119370  89.7103820  16.2889340
  48.9093550  89.4747920  16.0731370  49.5233960  89.7927210  15.4112450
  49.4543110  88.9896510  16.6927230  39.4314810  88.1542180  16.1870430
  39.9797800  87.9730230  15.4236540  39.4970120  87.3636290  16.7226740
  49.6501590  88.0380060  12.4000660  48.7761430  88.3715170  12.1973590
  49.5412340  87.5653240  13.2252530  50.5573570  90.2450930  13.7842380
  50.2286930  89.4302690  13.4044110  51.5055870  90.2020740  13.6608070
  47.3976410  88.9549900  11.3393570  46.6148200  89.4295400  11.6190330
  47.1039340  88.0504730  11.2306750  51.9497480  89.6573000   9.3842660
  52.3905570  89.6018100   8.5364260  51.6805070  90.5731010   9.4552840
  53.8136050  89.2888240   7.3951480  53.7524450  88.3449460   7.2482500
  54.5928080  89.3968330   7.9404940  38.7416820  89.2597380   3.8607290
  39.4996180  89.3726260   3.2871320  38.2793990  90.0966580   3.8150720
  45.2830630  91.3736650   6.8509600  44.4705140  90.9993540   6.5105480
  45.7872270  90.6181730   7.1530790  49.7855610  88.0379100   8.0892670
  50.3884980  88.6099310   8.5641190  49.0448600  88.6018540   7.8666570
  52.9290210  88.4400660   3.3632950  53.1240840  89.3384110   3.6300380
  52.1420080  88.2087740   3.8565900  41.1141970  89.7861430   2.4009260
  41.6434730  88.9991230   2.2717210  41.7470290  90.4652620   2.6344790
  43.3079810  89.5236570   5.4554650  42.6782550  88.8223880   5.6224780
  42.7684950  90.2840700   5.2387810  43.4335370  88.8020550  17.8907140
  43.1519640  89.3054150  17.1267960  43.8155070  88.0042300  17.5249270
  50.0350830  88.2174130  18.4687610  49.9216280  88.5368740  19.3639130
  50.8520570  88.6186640  18.1724890  48.9408980  77.4623110  63.9296310
  48.8603030  76.5477720  63.6588020  48.5273400  77.9590180  63.2236020
  47.0727020  79.2402130  65.8105580  46.2969120  78.7602570  66.1004150
  47.7239950  78.5607780  65.6361740  41.0892850  79.5521940  66.6881340
  40.2577730  79.2970650  67.0877850  41.6973830  79.6232710  67.4239260
  51.0934450  83.6462320  64.5904710  50.6315980  82.8749560  64.9191880
  51.9060000  83.6728390  65.0957160  41.0694110  83.5862030  66.8839360
  41.3722150  82.6959770  66.7049580  41.8137700  84.1432250  66.6561610
  39.4984800  74.5123830  60.4723730  38.6101500  74.8539800  60.3703610
  39.7825990  74.3124150  59.5804560  37.4617810  77.1129480  66.3563430
  38.0333920  76.3451680  66.3567070  37.4619350  77.4118240  65.4470040
  47.3197760  85.9320330  64.2108700  46.7009200  86.3877830  63.6403140
  48.1749540  86.0871790  63.8098400  46.5136010  81.9159320  65.8175740
  46.4444290  80.9749260  65.6564870  47.2755870  82.0060730  66.3898310
  38.7042680  72.5213840  68.1432360  38.5245520  71.6239590  68.4235120
  38.3022760  73.0685710  68.8179310  47.5441180  74.7229700  66.0444670
  47.9206000  73.8501580  65.9318340  47.4460690  75.0588400  65.1535110
  41.6746190  73.0955330  61.5062110  41.7812940  73.9959060  61.8130870
  40.7638550  73.0473300  61.2156760  51.3265300  72.2180140  62.9773010
  52.1474920  71.7276710  63.0198490  51.3599380  72.8077800  63.7304850
  39.3229350  75.0174340  66.7514700  40.0039460  75.2812710  67.3702100
  39.0077400  74.1775210  67.0852710  43.5153920  76.0641700  65.8387290
  44.0232140  76.5622670  66.4792310  44.0467160  75.2876900  65.6626650
  55.6164850  74.2346890  69.5416640  54.9117020  74.6228600  69.0231750
  55.8822770  74.9297180  70.1437570  41.7990020  70.7040260  70.1050710
  41.8008460  71.2212650  69.2996610  40.9694330  70.2270440  70.0820640
  48.1861110  80.8159570  61.6040610  47.5678380  81.2809020  61.0403330
  48.6984360  81.5087050  62.0210120  43.0492870  80.3435440  68.2824210
  42.7162250  80.9704360  68.9245280  43.2259550  80.8697320  67.5025880
  51.5626780  74.1580520  65.7500550  50.8582350  74.4465410  66.3303660
  51.9238940  74.9680630  65.3900110  41.4805350  72.4150220  68.1121160
  41.8222160  73.2592270  67.8175030  40.5421160  72.5633960  68.2286500
  42.2611970  82.3116240  70.0973390  42.8785970  82.9867320  69.8157840
  41.4005090  82.7204220  70.0060890  37.5544310  81.5016100  58.9780240
  37.1772290  81.9903200  58.2465140  37.8117380  82.1741380  59.6086770
  53.1789560  83.7755650  68.0128030  52.4953080  84.4454760  68.0044700
  53.7183850  83.9736300  67.2472890  54.6313700  73.6035310  66.1409760
  53.6838610  73.6374290  66.2725190  54.9563690  74.4174260  66.5259120
  45.1633240  69.9032490  64.4365750  45.4708220  69.3479380  63.7201250
  44.2333940  70.0376950  64.2538740  50.7148300  85.6199780  66.7273210
  50.7275460  85.2162070  65.8595470  50.1623520  86.3947070  66.6234640
  52.0093720  82.3416000  61.8163380  51.8990050  81.3990330  61.9412800
  52.0061970  82.7031640  62.7026140  50.1133740  80.5229620  68.0555820
  50.5302530  80.3089730  67.2209280  50.8373560  80.7802410  68.6264440
  47.5514000  77.9681320  61.1725870  46.6243280  77.9018700  61.4014340
  47.7038820  78.9061450  61.0581110  47.5383080  74.2398320  58.1693030
  46.5986750  74.4012280  58.2545490  47.8566340  74.9584000  57.6229020
  54.0595840  78.9216840  68.1472060  53.2314470  78.9909930  67.6722190
  54.6546320  79.5071150  67.6787890  51.5811290  79.5301620  61.6761120
  50.9623710  79.1921170  61.0287420  51.5635740  78.8861380  62.3840310
  51.0237850  75.7086160  69.0926930  50.6109030  76.5339870  69.3466920
  50.2913800  75.1231200  68.9003290  43.1570640  78.4946060  63.9545600
  42.7527640  77.7823310  63.4591500  43.2433760  78.1499300  64.8433640
  43.6252340  82.1813620  66.1184810  43.3280630  81.5759090  65.4392590
  44.5752160  82.2190930  66.0074170  41.8699260  75.2689270  67.7344640
  42.4213850  75.3784610  66.9597890  42.3842770  75.6426870  68.4499870
  51.7137950  85.7545490  69.7807910  51.2368510  86.5617680  69.5880520
  51.0299740  85.1023820  69.9334120  49.7575990  78.7688430  58.6833870
  50.1969270  77.9310860  58.5371690  50.4704410  79.4017830  58.7698010
  41.5441990  78.7908630  71.3449980  41.4049760  79.6631430  71.7137380
  40.6623350  78.4481440  71.1997920  47.8671370  83.7084500  62.6515110
  48.3067280  84.4508830  62.2370500  47.8058260  83.9511070  63.5754070
  53.3393130  70.0231240  56.9974910  53.0265790  70.1158070  57.8973980
  54.1005600  70.6012270  56.9472340  39.8575270  77.3891040  61.4552250
  39.7372870  78.1153130  60.8433520  39.5476160  76.6193950  60.9780160
  37.4960640  80.5606180  67.2620890  37.5741060  80.6954950  66.3176610
  38.1102320  79.8522070  67.4549010  38.7408270  82.2606370  63.6727070
  38.3336350  82.4020960  62.8180670  39.6321280  81.9766530  63.4698280
  54.6970410  82.7070280  72.0099310  54.8233470  82.4682160  71.0916490
  54.7391790  81.8754820  72.4821390  48.5587150  86.4098280  70.5794120
  49.0731820  86.3206290  71.3816550  47.7156230  86.7557980  70.8722030
  50.5341550  86.6953620  60.0078120  50.3742690  86.4056560  60.9059950
  50.3688260  85.9193750  59.4723350  43.0129930  86.4752150  61.7849740
  42.8372410  85.5587690  61.5717540  42.1585670  86.8339440  62.0247540
  50.2367680  84.2041180  58.5676120  49.5432840  84.2018470  57.9078400
  50.9790540  83.7800500  58.1370290  49.8017610  85.8303890  62.6424610
  50.2574560  85.0493270  62.9563230  50.1410130  86.5410710  63.1865790
  54.5494420  74.7602740  72.9749050  53.9338690  75.2682410  72.4464510
  54.2290840  73.8601070  72.9174990  37.5520160  81.6020350  69.8015350
  37.7151200  81.1325710  68.9834720  38.0172610  81.0943910  70.4664190
  42.3238930  70.7326110  64.8375920  41.8807080  71.5135650  64.5060440
  42.8823920  71.0556000  65.5446860  46.6108740  73.5994630  70.4411240
  46.1488110  73.8077650  71.2531180  46.2086850  72.7853980  70.1381910
  51.6113250  74.8203580  71.5707900  50.7606840  74.5209330  71.8916970
  51.4515040  75.0645590  70.6591720  45.4397750  70.3536810  59.7181750
  44.8151930  70.3496680  60.4435060  45.3527870  69.4867770  59.3217720
  44.3614830  71.2773440  66.6965520  44.6587160  72.1836270  66.6157540
  44.9100390  70.7892220  66.0825090  42.1153150  75.8559680  62.5657170
  41.8894070  75.6396850  63.4703790  41.3345680  76.2888140  62.2203140
  49.3450910  75.8623050  61.1647820  48.7459800  76.5858850  60.9811440
  49.8930520  75.7999830  60.3824270  47.9515780  74.4986590  63.1951100
  48.3445350  74.8158790  62.3819790  48.3132630  73.6198470  63.3095620
  39.6862900  73.1658930  71.3851220  39.2926290  74.0134140  71.5924000
  38.9981300  72.5285300  71.5759860  36.9879950  71.0887390  65.4181300
  36.6993000  71.6590250  66.1306280  37.7325710  70.6091840  65.7812530
  37.1750180  75.0307510  56.6284020  37.0924850  75.9738270  56.7699010
  36.8233240  74.8882420  55.7496370  48.5370920  77.0892340  67.2901880
  47.8052040  77.5979150  67.6391980  48.1395260  76.2722320  66.9890660
  44.9748310  73.7646540  65.6954370  44.9784370  73.3236490  64.8458910
  45.8699430  74.0863870  65.8026190  40.8250690  73.6473030  64.6548580
  40.4850740  74.1248260  65.4115630  40.0628010  73.1938150  64.2949680
  45.0368460  74.7658620  58.6861130  45.1581280  74.7245100  59.6346950
  44.6516970  75.6282770  58.5307860  48.9996830  72.5426020  66.7024820
  49.0169570  72.9934670  67.5466670  48.7512410  71.6431660  66.9158260
  44.0489960  77.0759760  58.0844430  43.4806860  76.6278010  57.4580340
  44.7578960  77.4352540  57.5509580  39.1259140  80.9771780  71.9611160
  38.7413930  80.3365450  72.5594120  39.4371330  81.6807900  72.5305890
  45.2756280  77.8248320  67.4419780  45.6426410  77.3506890  68.1881120
  45.0861340  78.6989890  67.7828120  38.1396770  72.5692010  63.5713250
  37.8543690  72.2047680  64.4091870  38.0775630  71.8372470  62.9576390
  43.0655650  76.8656960  69.7603990  42.7612720  77.7448940  69.9854350
  44.0202110  76.9256750  69.7961430  41.5937440  81.0717950  60.3570840
  40.8199700  80.5315570  60.1969560  42.3232070  80.5524560  60.0188600
  52.3525420  80.0683310  66.1497230  53.0724540  80.5638600  65.7593340
  52.1507240  79.3901200  65.5051100  47.8135360  71.4621270  60.2926620
  46.9999970  70.9634440  60.2171930  47.6197310  72.3019520  59.8762970
  47.7344220  80.1392370  72.0366230  47.6681530  79.2188040  71.7823820
  47.1049360  80.2367810  72.7510870  50.5283750  75.8340920  58.5888780
  51.4163370  76.1458150  58.4140120  50.4988840  74.9613170  58.1969360
  41.6374840  80.7398330  63.9949650  42.1553510  79.9366590  63.9406540
  41.1858860  80.6777470  64.8366480  46.5244340  82.0064610  59.2676950
  46.8660040  82.7506840  58.7720270  45.6957050  82.3195730  59.6301780
  39.1219380  77.7059700  70.9075350  38.7634320  78.3713550  71.4948690
  38.8273940  76.8743250  71.2787970  47.6660950  82.9612940  71.7870030
  47.6805490  82.0293900  71.5688940  46.9586050  83.0472700  72.4259800
  52.7998020  77.1452760  58.0568640  52.7161740  77.5766980  57.2065080
  53.5192210  77.6051110  58.4895460  53.8772160  79.6020280  71.1338610
  53.1520350  80.1949060  70.9368000  54.4047620  79.5943820  70.3351980
  53.8285270  83.9995020  60.7850770  53.1861430  83.3450640  61.0594490
  53.4415930  84.4050110  60.0091440  49.4071750  81.3280450  64.6322460
  49.7595570  80.7308580  63.9723830  48.5234080  81.0024680  64.8030710
  45.4935030  82.0878140  62.0392870  46.1806160  82.6347350  62.4200460
  44.7067450  82.6318870  62.0742480  37.6327430  77.7050960  57.5309950
  38.5022280  77.9875760  57.8145870  37.1417750  78.5186830  57.4158760
  44.7962240  79.0924170  61.6518230  45.2525020  79.9029420  61.8778420
  44.4450450  78.7747310  62.4836720  47.0994850  84.6030510  68.8810530
  47.7437070  84.8089890  69.5583950  47.4624290  83.8418910  68.4281380
  40.6974020  69.4361820  62.1240750  40.5688650  69.4279720  63.0725670
  39.8736040  69.7744910  61.7731760  48.3726930  82.6062860  67.5987980
  49.0149160  81.9056020  67.7120150  48.8976280  83.3861300  67.4184870
  52.2182650  82.8911480  57.3227120  51.9920230  82.1741920  57.9151760
  51.8278850  82.6423920  56.4848870  50.1464550  83.4057760  70.8024040
  50.4820790  83.9924450  71.4801960  49.2264890  83.2750470  71.0321830
  37.9998680  86.9178340  58.0971580  38.3596320  87.5167680  57.4428850
  37.8591020  87.4638230  58.8706610  37.6967950  71.1952940  71.5847450
  36.9826470  71.3949860  72.1900060  38.1162990  70.4192510  71.9562250
  51.7998900  80.8083420  58.9841280  51.5120600  81.2696110  59.7719160
  52.5951070  80.3481190  59.2525500  37.9840540  85.1833200  72.5713980
  38.0931660  84.2427940  72.4309370  37.3321100  85.4487950  71.9227710
  44.0167300  84.3009540  58.9145250  44.0077400  85.0339230  58.2989760
  43.0965660  84.0541120  59.0072210  39.6173940  79.5224430  59.6592010
  39.0101890  80.2623330  59.6687310  40.0923290  79.6123790  58.8330210
  49.1906730  73.6875250  69.3348900  49.5587550  72.8670460  69.6628470
  48.3304930  73.7477140  69.7504550  52.5568760  72.6432190  60.1436460
  51.9281920  72.7477860  59.4294690  52.0620680  72.8628970  60.9330340
  47.0026900  84.3637780  57.5770440  47.1038880  84.1601770  56.6472420
  46.1028640  84.1096060  57.7818220  44.5252790  74.9218140  61.5594340
  43.8168940  75.3904480  62.0007950  44.8097270  74.2640150  62.1939530
  46.1508720  76.3414840  69.5586870  46.6493970  76.8160660  70.2238720
  46.2931670  75.4178360  69.7656900  48.5568220  71.6468800  62.9990130
  48.4336000  71.6654930  62.0499640  49.5052780  71.6947740  63.1188530
  45.6445010  86.8824100  62.2718110  45.8986510  86.8445490  61.3497480
  44.6957490  86.7557430  62.2646360  42.7287810  73.2303220  58.9345050
  43.5778340  73.6673370  58.8685240  42.3619080  73.5423480  59.7617110
  53.3575580  72.5582800  70.4015260  52.8549180  73.2988200  70.7409070
  54.1732240  72.9466800  70.0852050  51.6497590  77.8015980  63.8476620
  50.7087730  77.8166210  64.0224310  51.9641660  77.0151940  64.2936920
  41.6279230  79.4835580  57.4080580  42.3942500  79.3716940  57.9706010
  41.7053920  78.7873550  56.7557350  40.3225990  76.9160650  58.0913470
  40.4029580  75.9688160  58.2030870  41.2145740  77.2467530  58.1974130
  53.6523170  84.9724830  65.5230880  53.7770590  85.7956000  65.9954690
  54.5188730  84.7615560  65.1755030  41.1240700  87.0656040  65.1948010
  41.8603180  86.5171500  65.4656580  41.5081620  87.9312050  65.0554000
  38.0086180  83.1329610  61.0689520  37.0825960  83.3750750  61.0594930
  38.4742610  83.9603870  60.9474270  44.2343010  86.2386350  57.0173580
  45.0271620  86.5275180  56.5655370  43.7147360  85.8078520  56.3386060
  53.2873180  85.4656480  58.4410320  53.0014690  85.0521620  57.6264500
  53.0892730  86.3944190  58.3210840  44.7520410  81.4589760  56.8815930
  44.6471050  80.8442110  57.6077310  44.5844630  80.9355650  56.0978940
  44.9034730  80.1446560  72.8605160  44.1380400  80.7131560  72.7759830
  45.0850690  79.8522770  71.9673390  47.9923140  80.5209790  57.4857920
  47.4433240  80.9679090  58.1300660  48.6142400  80.0159040  58.0095590
  43.6598260  79.4800710  59.3823220  44.0814680  79.3140580  60.2254610
  43.7849100  78.6700940  58.8878360  41.8225680  75.4597260  72.1894200
  41.2922140  74.9688210  71.5617540  42.4913750  75.8881460  71.6552130
  46.1725900  78.5038320  56.6300320  46.6931560  77.7887340  56.2641470
  46.8194300  79.1424190  56.9300830  50.7203740  79.9266720  71.9535390
  51.1344760  80.0811800  72.8025810  49.7854740  80.0521940  72.1161170
  42.3097980  72.4259630  72.2691490  42.2154850  71.8080380  71.5442360
  41.7295370  73.1525920  72.0421400  45.0759420  70.9832870  69.3018880
  44.6276720  71.0057130  68.4564430  44.4424620  70.5851890  69.8989180
  45.4818970  79.8787200  69.9231320  45.9007080  80.7219930  69.7507560
  44.5627600  80.0159240  69.6938100  47.8182870  77.6103380  71.3069160
  47.9379080  77.0144520  72.0464000  48.6776870  77.6473070  70.8870460
  50.1570770  78.1640570  69.8831670  49.6305990  78.6883190  69.2796810
  50.5002110  78.7967960  70.5141400  42.5557160  75.5533940  56.3281380
  42.3546220  74.6901300  56.6894720  42.3849210  75.4667300  55.3902980
  43.3326390  86.1840210  71.0389050  42.7947480  86.9086270  70.7197750
  43.5860350  85.7070550  70.2486390  50.0345470  70.3642170  58.8568260
  50.3147760  69.5210070  59.2127680  49.2611200  70.5965280  59.3707010
  41.3539960  72.6534560  56.3159260  41.6565860  72.6601990  55.4078410
  42.0934550  72.3032420  56.8126920  46.1888600  87.4191420  71.2975700
  46.1147300  88.3226560  71.6048070  45.2867440  87.1003320  71.2697770
  44.5724890  71.5969180  57.3015460  44.2246890  70.9193170  56.7217910
  44.7737660  71.1358690  58.1158850  46.7373930  86.5849930  58.9202060
  47.6324720  86.9234900  58.9420820  46.7691560  85.8629340  58.2926340
  40.3770090  81.9576980  57.1489060  40.8144960  82.5006650  57.8046640
  40.8617820  81.1323930  57.1585400  37.5915890  84.7466010  64.6009320
  37.9218900  83.8787070  64.3687960  38.0206890  84.9524530  65.4314280
  42.1877810  83.0775020  62.2611290  41.8873350  82.9539990  63.1615200
  42.0815300  82.2183610  61.8527020  38.0806100  85.6136600  67.3390950
  37.6437090  85.7937400  68.1715100  38.6483780  86.3711220  67.1972670
  53.7168280  85.1153600  71.6268260  53.1170270  85.1746160  70.8832180
  53.8462180  84.1758580  71.7565110  54.9569730  82.8571420  56.9637970
  54.1262690  82.9248070  57.4345200  55.1341560  83.7475540  56.6604830
  54.4126190  79.6018900  59.4672170  55.1745100  80.1715550  59.5731860
  54.4280560  79.0346100  60.2380480  37.9130530  78.1256830  63.6979830
  37.2579370  77.8568470  63.0539530  38.7508480  78.0161310  63.2481810
  55.4186160  80.4569000  64.3114100  55.7894990  79.6736320  63.9050070
  56.0588090  81.1458100  64.1331400  52.4019920  81.8405580  69.7244420
  51.5879760  82.2702740  69.9870210  52.8094120  82.4523990  69.1113470
  54.4645360  79.8953270  56.6244690  54.7394200  80.8032150  56.4963910
  54.2756100  79.8315800  57.5606680  50.8620970  72.9198120  57.9198320
  51.2805850  72.7329100  57.0794980  50.5557030  72.0677170  58.2301250
  54.3610700  77.8322260  61.6174120  53.9854300  77.0650190  61.1855410
  53.6313820  78.2144960  62.1049050  38.9506460  78.5109400  68.2383170
  39.3179500  78.4236800  69.1179190  38.3817280  77.7475950  68.1390030
  53.7510320  76.9793780  71.2513640  53.5196410  76.7506530  70.3511590
  54.0114870  77.8993330  71.2058530  38.5022460  75.4218490  72.1441590
  37.6078510  75.3885250  72.4835300  39.0420010  75.6205280  72.9092840
  37.1268610  75.3355760  59.6405160  36.2232690  75.5985960  59.4656820
  37.6109230  75.6066930  58.8605120  53.6361660  76.0579750  64.9181360
  54.1599140  75.5642400  64.2871530  54.2221080  76.1930110  65.6628930
  53.8151380  76.1419620  68.4400910  52.8654090  76.1083160  68.5545900
  53.9964390  77.0519730  68.2050680  39.6695820  74.3921300  57.5499540
  40.3787520  73.9704520  57.0646820  38.9535760  74.4596530  56.9182890
  39.3169980  70.4460630  56.5902190  40.0398110  70.9869570  56.9083410
  39.5894500  70.1724050  55.7143730  53.1261630  75.3153100  60.8573770
  53.6220750  75.0823970  61.6422650  52.9277700  74.4764940  60.4411410
  39.0062170  69.6966820  66.4924810  39.6538360  69.1464200  66.0519970
  39.4264010  69.9509970  67.3140620  54.5548790  73.9514050  63.3911450
  54.4448070  73.7970090  64.3293720  55.3156380  73.4234990  63.1486860
  52.9014510  69.8908180  69.8494450  53.5386730  70.5042320  70.2153640
  53.0489400  69.9268840  68.9043680  55.4439060  71.7821970  56.6317590
  56.3688370  71.6503150  56.4235880  55.4214850  71.8614790  57.5854040
  55.5177550  72.5532630  59.2574300  54.7229050  72.4877750  59.7867210
  55.7220830  73.4883270  59.2459650  52.4595970  86.5924180  63.2512690
  53.0555040  86.2708750  62.5747110  52.7174120  86.1196000  64.0425960
  38.7594170  69.8522490  69.2350130  38.4108990  70.3086310  70.0008310
  38.4281870  68.9579620  69.3172560  44.0664570  84.5801680  69.0013040
  43.8255930  84.8476240  68.1143560  45.0067210  84.7507410  69.0563900
  55.3268730  86.5996060  69.8023680  54.8327010  86.9964930  69.0850810
  54.7182020  85.9745270  70.1960960  40.2046570  85.9704340  70.5201100
  39.6106890  85.8389040  71.2591140  40.1970410  85.1342480  70.0543200
  49.6501590  69.2636570  68.7231130  48.7761430  69.5971680  68.5204060
  49.5412340  68.7909750  69.5483000  50.5573570  71.4707440  70.1072850
  50.2286930  70.6559200  69.7274580  51.5055870  71.4277250  69.9838540
  53.0108180  87.2419480  67.0810420  52.5511150  87.9935290  66.7068440
  52.3820640  86.5225950  67.0225220  39.8358800  83.3362720  69.4709140
  39.1092860  82.7168010  69.4035090  39.8967950  83.7303330  68.6007220
  43.4403900  85.5507720  66.2558550  43.9568920  84.9395080  65.7306810
  44.0901280  86.0536500  66.7469560  46.1799400  86.4416210  67.0827530
  46.4677210  86.1870510  66.2060540  46.6922620  85.8893570  67.6733100
  47.3976410  70.1806410  67.6624040  46.6148200  70.6551910  67.9420800
  47.1039340  69.2761240  67.5537220  51.9497480  70.8829510  65.7073130
  52.3905570  70.8274610  64.8594730  51.6805070  71.7987520  65.7783310
  53.8136050  70.5144750  63.7181950  53.7524450  69.5705970  63.5712970
  54.5928080  70.6224840  64.2635410  38.1188800  86.6537110  62.6805900
  37.9510840  86.0207790  63.3787790  37.2523310  86.8596510  62.3300090
  38.7416820  70.4853890  60.1837760  39.4996180  70.5982770  59.6101790
  38.2793990  71.3223090  60.1381190  45.2830630  72.5993160  63.1740070
  44.4705140  72.2250050  62.8335950  45.7872270  71.8438240  63.4761260
  49.7855610  69.2635610  64.4123140  50.3884980  69.8355820  64.8871660
  49.0448600  69.8275050  64.1897040  52.9290210  69.6657170  59.6863420
  53.1240840  70.5640620  59.9530850  52.1420080  69.4344250  60.1796370
  39.7251500  85.3470340  60.1256040  39.1999120  85.7278370  59.4218000
  39.6496080  85.9721110  60.8465750  41.1141970  71.0117940  58.7239730
  41.6434730  70.2247740  58.5947680  41.7470290  71.6909130  58.9575260
  43.3079810  70.7493080  61.7785120  42.6782550  70.0480390  61.9455250
  42.7684950  71.5097210  61.5618280  54.4816820  86.9057880  61.4469980
  54.6569010  86.2195620  60.8030900  53.7838390  87.4304930  61.0546650
  42.3244470  87.2952720  59.0005290  43.0563290  87.0112000  58.4529180
  42.5838140  87.0566000  59.8904670  41.4859260  83.4117450  59.0051620
  40.8568140  83.8802550  59.5537450  41.6007090  82.5666670  59.4397810
  48.9408980  77.4623110  45.1552820  48.8603030  76.5477720  44.8844530
  48.5273400  77.9590180  44.4492530  47.0727020  79.2402130  47.0362090
  46.2969120  78.7602570  47.3260660  47.7239950  78.5607780  46.8618250
  41.0892850  79.5521940  47.9137850  40.2577730  79.2970650  48.3134360
  41.6973830  79.6232710  48.6495770  51.0934450  83.6462320  45.8161220
  50.6315980  82.8749560  46.1448390  51.9060000  83.6728390  46.3213670
  41.0694110  83.5862030  48.1095870  41.3722150  82.6959770  47.9306090
  41.8137700  84.1432250  47.8818120  39.4984800  74.5123830  41.6980240
  38.6101500  74.8539800  41.5960120  39.7825990  74.3124150  40.8061070
  37.4617810  77.1129480  47.5819940  38.0333920  76.3451680  47.5823580
  37.4619350  77.4118240  46.6726550  47.3197760  85.9320330  45.4365210
  46.7009200  86.3877830  44.8659650  48.1749540  86.0871790  45.0354910
  46.5136010  81.9159320  47.0432250  46.4444290  80.9749260  46.8821380
  47.2755870  82.0060730  47.6154820  38.7042680  72.5213840  49.3688870
  38.5245520  71.6239590  49.6491630  38.3022760  73.0685710  50.0435820
  47.5441180  74.7229700  47.2701180  47.9206000  73.8501580  47.1574850
  47.4460690  75.0588400  46.3791620  41.6746190  73.0955330  42.7318620
  41.7812940  73.9959060  43.0387380  40.7638550  73.0473300  42.4413270
  39.3229350  75.0174340  47.9771210  40.0039460  75.2812710  48.5958610
  39.0077400  74.1775210  48.3109220  43.5153920  76.0641700  47.0643800
  44.0232140  76.5622670  47.7048820  44.0467160  75.2876900  46.8883160
  41.7990020  70.7040260  51.3307220  41.8008460  71.2212650  50.5253120
  40.9694330  70.2270440  51.3077150  48.1861110  80.8159570  42.8297120
  47.5678380  81.2809020  42.2659840  48.6984360  81.5087050  43.2466630
  43.0492870  80.3435440  49.5080720  42.7162250  80.9704360  50.1501790
  43.2259550  80.8697320  48.7282390  41.4805350  72.4150220  49.3377670
  41.8222160  73.2592270  49.0431540  40.5421160  72.5633960  49.4543010
  42.2611970  82.3116240  51.3229900  42.8785970  82.9867320  51.0414350
  41.4005090  82.7204220  51.2317400  37.5544310  81.5016100  40.2036750
  37.1772290  81.9903200  39.4721650  37.8117380  82.1741380  40.8343280
  53.1789560  83.7755650  49.2384540  52.4953080  84.4454760  49.2301210
  53.7183850  83.9736300  48.4729400  50.7148300  85.6199780  47.9529720
  50.7275460  85.2162070  47.0851980  50.1623520  86.3947070  47.8491150
  52.0093720  82.3416000  43.0419890  51.8990050  81.3990330  43.1669310
  52.0061970  82.7031640  43.9282650  50.1133740  80.5229620  49.2812330
  50.5302530  80.3089730  48.4465790  50.8373560  80.7802410  49.8520950
  47.5514000  77.9681320  42.3982380  46.6243280  77.9018700  42.6270850
  47.7038820  78.9061450  42.2837620  47.5383080  74.2398320  39.3949540
  46.5986750  74.4012280  39.4802000  47.8566340  74.9584000  38.8485530
  54.0595840  78.9216840  49.3728570  53.2314470  78.9909930  48.8978700
  54.6546320  79.5071150  48.9044400  51.5811290  79.5301620  42.9017630
  50.9623710  79.1921170  42.2543930  51.5635740  78.8861380  43.6096820
  51.0237850  75.7086160  50.3183440  50.6109030  76.5339870  50.5723430
  50.2913800  75.1231200  50.1259800  43.1570640  78.4946060  45.1802110
  42.7527640  77.7823310  44.6848010  43.2433760  78.1499300  46.0690150
  43.6252340  82.1813620  47.3441320  43.3280630  81.5759090  46.6649100
  44.5752160  82.2190930  47.2330680  41.8699260  75.2689270  48.9601150
  42.4213850  75.3784610  48.1854400  42.3842770  75.6426870  49.6756380
  51.7137950  85.7545490  51.0064420  51.2368510  86.5617680  50.8137030
  51.0299740  85.1023820  51.1590630  42.7170770  81.9195310  53.9949120
  41.8199300  82.1435280  54.2422520  42.7423640  82.0430250  53.0460520
  49.7575990  78.7688430  39.9090380  50.1969270  77.9310860  39.7628200
  50.4704410  79.4017830  39.9954520  41.5441990  78.7908630  52.5706490
  41.4049760  79.6631430  52.9393890  40.6623350  78.4481440  52.4254430
  47.8671370  83.7084500  43.8771620  48.3067280  84.4508830  43.4627010
  47.8058260  83.9511070  44.8010580  43.3422340  84.7330330  54.7791640
  43.3137770  85.1373280  53.9120070  43.1787310  83.8040690  54.6163240
  39.8575270  77.3891040  42.6808760  39.7372870  78.1153130  42.0690030
  39.5476160  76.6193950  42.2036670  55.2937160  85.5157430  56.0755810
  55.7696880  85.9940320  56.7544890  55.9144320  85.4474920  55.3501310
  37.4960640  80.5606180  48.4877400  37.5741060  80.6954950  47.5433120
  38.1102320  79.8522070  48.6805520  38.7408270  82.2606370  44.8983580
  38.3336350  82.4020960  44.0437180  39.6321280  81.9766530  44.6954790
  54.6970410  82.7070280  53.2355820  54.8233470  82.4682160  52.3173000
  54.7391790  81.8754820  53.7077900  48.5587150  86.4098280  51.8050630
  49.0731820  86.3206290  52.6073060  47.7156230  86.7557980  52.0978540
  50.5341550  86.6953620  41.2334630  50.3742690  86.4056560  42.1316460
  50.3688260  85.9193750  40.6979860  43.0129930  86.4752150  43.0106250
  42.8372410  85.5587690  42.7974050  42.1585670  86.8339440  43.2504050
  50.2367680  84.2041180  39.7932630  49.5432840  84.2018470  39.1334910
  50.9790540  83.7800500  39.3626800  49.8017610  85.8303890  43.8681120
  50.2574560  85.0493270  44.1819740  50.1410130  86.5410710  44.4122300
  54.5494420  74.7602740  54.2005560  53.9338690  75.2682410  53.6721020
  54.2290840  73.8601070  54.1431500  37.5520160  81.6020350  51.0271860
  37.7151200  81.1325710  50.2091230  38.0172610  81.0943910  51.6920700
  46.6108740  73.5994630  51.6667750  46.1488110  73.8077650  52.4787690
  46.2086850  72.7853980  51.3638420  51.6113250  74.8203580  52.7964410
  50.7606840  74.5209330  53.1173480  51.4515040  75.0645590  51.8848230
  48.7062960  76.3205330  54.8963200  49.0316370  75.4869080  54.5565430
  49.4943290  76.8433850  55.0441530  42.1153150  75.8559680  43.7913680
  41.8894070  75.6396850  44.6960300  41.3345680  76.2888140  43.4459650
  49.3450910  75.8623050  42.3904330  48.7459800  76.5858850  42.2067950
  49.8930520  75.7999830  41.6080780  44.5552360  76.7545260  54.4573950
  44.4595960  75.8139990  54.3074350  45.3984340  76.9760330  54.0622020
  47.9515780  74.4986590  44.4207610  48.3445350  74.8158790  43.6076300
  48.3132630  73.6198470  44.5352130  39.6862900  73.1658930  52.6107730
  39.2926290  74.0134140  52.8180510  38.9981300  72.5285300  52.8016370
  46.2607950  73.2493900  55.6804470  45.5706270  73.0566100  56.3150560
  47.0040250  73.5328540  56.2128770  36.9879950  71.0887390  46.6437810
  36.6993000  71.6590250  47.3562790  37.7325710  70.6091840  47.0069040
  37.1750180  75.0307510  37.8540530  37.0924850  75.9738270  37.9955520
  36.8233240  74.8882420  36.9752880  48.5370920  77.0892340  48.5158390
  47.8052040  77.5979150  48.8648490  48.1395260  76.2722320  48.2147170
  44.9748310  73.7646540  46.9210880  44.9784370  73.3236490  46.0715420
  45.8699430  74.0863870  47.0282700  40.8250690  73.6473030  45.8805090
  40.4850740  74.1248260  46.6372140  40.0628010  73.1938150  45.5206190
  45.0368460  74.7658620  39.9117640  45.1581280  74.7245100  40.8603460
  44.6516970  75.6282770  39.7564370  48.9996830  72.5426020  47.9281330
  49.0169570  72.9934670  48.7723180  48.7512410  71.6431660  48.1414770
  44.0489960  77.0759760  39.3100940  43.4806860  76.6278010  38.6836850
  44.7578960  77.4352540  38.7766090  52.4267580  69.9558200  53.7667710
  52.7513350  69.2247860  54.2925690  52.4624090  69.6371840  52.8648700
  39.1259140  80.9771780  53.1867670  38.7413930  80.3365450  53.7850630
  39.4371330  81.6807900  53.7562400  45.2756280  77.8248320  48.6676290
  45.6426410  77.3506890  49.4137630  45.0861340  78.6989890  49.0084630
  38.1396770  72.5692010  44.7969760  37.8543690  72.2047680  45.6348380
  38.0775630  71.8372470  44.1832900  43.0655650  76.8656960  50.9860500
  42.7612720  77.7448940  51.2110860  44.0202110  76.9256750  51.0217940
  41.5937440  81.0717950  41.5827350  40.8199700  80.5315570  41.4226070
  42.3232070  80.5524560  41.2445110  52.3525420  80.0683310  47.3753740
  53.0724540  80.5638600  46.9849850  52.1507240  79.3901200  46.7307610
  47.7344220  80.1392370  53.2622740  47.6681530  79.2188040  53.0080330
  47.1049360  80.2367810  53.9767380  41.6374840  80.7398330  45.2206160
  42.1553510  79.9366590  45.1663050  41.1858860  80.6777470  46.0622990
  46.5244340  82.0064610  40.4933460  46.8660040  82.7506840  39.9976780
  45.6957050  82.3195730  40.8558290  39.1219380  77.7059700  52.1331860
  38.7634320  78.3713550  52.7205200  38.8273940  76.8743250  52.5044480
  42.3232500  78.1643940  55.0171410  42.0232640  78.3101120  54.1199230
  43.0943740  77.6049230  54.9244800  47.6660950  82.9612940  53.0126540
  47.6805490  82.0293900  52.7945450  46.9586050  83.0472700  53.6516310
  53.8772160  79.6020280  52.3595120  53.1520350  80.1949060  52.1624510
  54.4047620  79.5943820  51.5608490  53.8285270  83.9995020  42.0107280
  53.1861430  83.3450640  42.2851000  53.4415930  84.4050110  41.2347950
  49.4071750  81.3280450  45.8578970  49.7595570  80.7308580  45.1980340
  48.5234080  81.0024680  46.0287220  45.4935030  82.0878140  43.2649380
  46.1806160  82.6347350  43.6456970  44.7067450  82.6318870  43.2998990
  37.6327430  77.7050960  38.7566460  38.5022280  77.9875760  39.0402380
  37.1417750  78.5186830  38.6415270  44.7962240  79.0924170  42.8774740
  45.2525020  79.9029420  43.1034930  44.4450450  78.7747310  43.7093230
  47.0994850  84.6030510  50.1067040  47.7437070  84.8089890  50.7840460
  47.4624290  83.8418910  49.6537890  48.3726930  82.6062860  48.8244490
  49.0149160  81.9056020  48.9376660  48.8976280  83.3861300  48.6441380
  52.2182650  82.8911480  38.5483630  51.9920230  82.1741920  39.1408270
  51.8278850  82.6423920  37.7105380  50.1464550  83.4057760  52.0280550
  50.4820790  83.9924450  52.7058470  49.2264890  83.2750470  52.2578340
  37.9998680  86.9178340  39.3228090  38.3596320  87.5167680  38.6685360
  37.8591020  87.4638230  40.0963120  37.6967950  71.1952940  52.8103960
  36.9826470  71.3949860  53.4156570  38.1162990  70.4192510  53.1818760
  51.7998900  80.8083420  40.2097790  51.5120600  81.2696110  40.9975670
  52.5951070  80.3481190  40.4782010  37.9840540  85.1833200  53.7970490
  38.0931660  84.2427940  53.6565880  37.3321100  85.4487950  53.1484220
  45.9753130  83.4549090  55.1968610  45.6550000  82.7358330  55.7414300
  45.3011490  84.1304160  55.2704670  44.0167300  84.3009540  40.1401760
  44.0077400  85.0339230  39.5246270  43.0965660  84.0541120  40.2328720
  39.6173940  79.5224430  40.8848520  39.0101890  80.2623330  40.8943820
  40.0923290  79.6123790  40.0586720  49.1906730  73.6875250  50.5605410
  49.5587550  72.8670460  50.8884980  48.3304930  73.7477140  50.9761060
  47.0026900  84.3637780  38.8026950  47.1038880  84.1601770  37.8728930
  46.1028640  84.1096060  39.0074730  44.5252790  74.9218140  42.7850850
  43.8168940  75.3904480  43.2264460  44.8097270  74.2640150  43.4196040
  46.1508720  76.3414840  50.7843380  46.6493970  76.8160660  51.4495230
  46.2931670  75.4178360  50.9913410  45.6445010  86.8824100  43.4974620
  45.8986510  86.8445490  42.5753990  44.6957490  86.7557430  43.4902870
  42.7287810  73.2303220  40.1601560  43.5778340  73.6673370  40.0941750
  42.3619080  73.5423480  40.9873620  53.3575580  72.5582800  51.6271770
  52.8549180  73.2988200  51.9665580  54.1732240  72.9466800  51.3108560
  41.6279230  79.4835580  38.6337090  42.3942500  79.3716940  39.1962520
  41.7053920  78.7873550  37.9813860  40.3225990  76.9160650  39.3169980
  40.4029580  75.9688160  39.4287380  41.2145740  77.2467530  39.4230640
  53.6523170  84.9724830  46.7487390  53.7770590  85.7956000  47.2211200
  54.5188730  84.7615560  46.4011540  41.1240700  87.0656040  46.4204520
  41.8603180  86.5171500  46.6913090  41.5081620  87.9312050  46.2810510
  38.0086180  83.1329610  42.2946030  37.0825960  83.3750750  42.2851440
  38.4742610  83.9603870  42.1730780  40.1298980  86.2502110  55.6090100
  40.9311710  86.5714160  56.0225500  39.6150800  85.8897690  56.3310010
  44.2343010  86.2386350  38.2430090  45.0271620  86.5275180  37.7911880
  43.7147360  85.8078520  37.5642570  48.9663610  82.3581980  55.5565510
  48.3601770  82.3813580  54.8161260  48.6617720  81.6265020  56.0932760
  50.3963980  86.0862270  54.1674920  51.3485730  86.0020290  54.1175160
  50.2492200  86.7503980  54.8408710  53.2873180  85.4656480  39.6666830
  53.0014690  85.0521620  38.8521010  53.0892730  86.3944190  39.5467350
  37.8496790  78.7375570  54.5526150  38.3535810  78.1582850  55.1242380
  37.1104210  79.0215800  55.0902520  44.7520410  81.4589760  38.1072440
  44.6471050  80.8442110  38.8333820  44.5844630  80.9355650  37.3235450
  44.9034730  80.1446560  54.0861670  44.1380400  80.7131560  54.0016340
  45.0850690  79.8522770  53.1929900  47.9923140  80.5209790  38.7114430
  47.4433240  80.9679090  39.3557170  48.6142400  80.0159040  39.2352100
  52.0458080  81.8751890  54.6436690  52.7867550  82.2127650  54.1404150
  51.2830760  82.0443950  54.0906460  39.8819870  76.8805160  55.4476220
  39.9225210  76.5819030  56.3561450  40.7365370  77.2812770  55.2883740
  43.6598260  79.4800710  40.6079730  44.0814680  79.3140580  41.4511120
  43.7849100  78.6700940  40.1134870  41.8225680  75.4597260  53.4150710
  41.2922140  74.9688210  52.7874050  42.4913750  75.8881460  52.8808640
  46.1725900  78.5038320  37.8556830  46.6931560  77.7887340  37.4897980
  46.8194300  79.1424190  38.1557340  50.7203740  79.9266720  53.1791900
  51.1344760  80.0811800  54.0282320  49.7854740  80.0521940  53.3417680
  51.1925910  77.2662880  55.1831050  51.7746680  76.5115200  55.0951530
  51.3687680  77.7970320  54.4062530  42.3097980  72.4259630  53.4948000
  42.2154850  71.8080380  52.7698870  41.7295370  73.1525920  53.2677910
  45.0759420  70.9832870  50.5275390  44.6276720  71.0057130  49.6820940
  44.4424620  70.5851890  51.1245690  45.4818970  79.8787200  51.1487830
  45.9007080  80.7219930  50.9764070  44.5627600  80.0159240  50.9194610
  47.8182870  77.6103380  52.5325670  47.9379080  77.0144520  53.2720510
  48.6776870  77.6473070  52.1126970  50.1570770  78.1640570  51.1088180
  49.6305990  78.6883190  50.5053320  50.5002110  78.7967960  51.7397910
  42.5557160  75.5533940  37.5537890  42.3546220  74.6901300  37.9151230
  42.3849210  75.4667300  36.6159490  43.3326390  86.1840210  52.2645560
  42.7947480  86.9086270  51.9454260  43.5860350  85.7070550  51.4742900
  44.5851640  74.1524730  53.7901490  45.1751330  73.8440580  54.4779310
  43.7671880  73.6804480  53.9461390  49.4045070  73.7690540  54.0234510
  48.7160590  73.1072080  53.9584500  50.1251090  73.3228810  54.4682970
  41.3539960  72.6534560  37.5415770  41.6565860  72.6601990  36.6334920
  42.0934550  72.3032420  38.0383430  46.1888600  87.4191420  52.5232210
  46.1147300  88.3226560  52.8304580  45.2867440  87.1003320  52.4954280
  46.7373930  86.5849930  40.1458570  47.6324720  86.9234900  40.1677330
  46.7691560  85.8629340  39.5182850  40.3770090  81.9576980  38.3745570
  40.8144960  82.5006650  39.0303150  40.8617820  81.1323930  38.3841910
  37.5915890  84.7466010  45.8265830  37.9218900  83.8787070  45.5944470
  38.0206890  84.9524530  46.6570790  42.1877810  83.0775020  43.4867800
  41.8873350  82.9539990  44.3871710  42.0815300  82.2183610  43.0783530
  38.0806100  85.6136600  48.5647460  37.6437090  85.7937400  49.3971610
  38.6483780  86.3711220  48.4229180  53.7168280  85.1153600  52.8524770
  53.1170270  85.1746160  52.1088690  53.8462180  84.1758580  52.9821620
  54.9569730  82.8571420  38.1894480  54.1262690  82.9248070  38.6601710
  55.1341560  83.7475540  37.8861340  37.9130530  78.1256830  44.9236340
  37.2579370  77.8568470  44.2796040  38.7508480  78.0161310  44.4738320
  52.4019920  81.8405580  50.9500930  51.5879760  82.2702740  51.2126720
  52.8094120  82.4523990  50.3369980  54.4645360  79.8953270  37.8501200
  54.7394200  80.8032150  37.7220420  54.2756100  79.8315800  38.7863190
  38.9506460  78.5109400  49.4639680  39.3179500  78.4236800  50.3435700
  38.3817280  77.7475950  49.3646540  53.7510320  76.9793780  52.4770150
  53.5196410  76.7506530  51.5768100  54.0114870  77.8993330  52.4315040
  38.5022460  75.4218490  53.3698100  37.6078510  75.3885250  53.7091810
  39.0420010  75.6205280  54.1349350  52.1898390  72.2050210  55.2549850
  53.0668570  72.2133610  55.6383850  52.2019230  71.4681050  54.6442200
  37.1268610  75.3355760  40.8661670  36.2232690  75.5985960  40.6913330
  37.6109230  75.6066930  40.0861630  39.6695820  74.3921300  38.7756050
  40.3787520  73.9704520  38.2903330  38.9535760  74.4596530  38.1439400
  52.4595970  86.5924180  44.4769200  53.0555040  86.2708750  43.8003620
  52.7174120  86.1196000  45.2682470  38.7594170  69.8522490  50.4606640
  38.4108990  70.3086310  51.2264820  38.4281870  68.9579620  50.5429070
  40.3658540  83.0242090  54.6259830  40.3228170  82.6535000  55.5074290
  40.4969550  83.9619660  54.7661650  44.0664570  84.5801680  50.2269550
  43.8255930  84.8476240  49.3400070  45.0067210  84.7507410  50.2820410
  46.2718990  71.0434370  53.9826060  46.2107880  71.6356200  54.7321470
  47.2119370  70.9360330  53.8376320  48.9093550  70.7004430  53.6218350
  49.5233960  71.0183720  52.9599430  49.4543110  70.2153020  54.2414210
  55.3268730  86.5996060  51.0280190  54.8327010  86.9964930  50.3107320
  54.7182020  85.9745270  51.4217470  39.4314810  69.3798690  53.7357410
  39.9797800  69.1986740  52.9723520  39.4970120  68.5892800  54.2713720
  40.2046570  85.9704340  51.7457610  39.6106890  85.8389040  52.4847650
  40.1970410  85.1342480  51.2799710  50.5573570  71.4707440  51.3329360
  50.2286930  70.6559200  50.9531090  51.5055870  71.4277250  51.2095050
  53.0108180  87.2419480  48.3066930  52.5511150  87.9935290  47.9324950
  52.3820640  86.5225950  48.2481730  39.8358800  83.3362720  50.6965650
  39.1092860  82.7168010  50.6291600  39.8967950  83.7303330  49.8263730
  43.4403900  85.5507720  47.4815060  43.9568920  84.9395080  46.9563320
  44.0901280  86.0536500  47.9726070  46.1799400  86.4416210  48.3084040
  46.4677210  86.1870510  47.4317050  46.6922620  85.8893570  48.8989610
  38.1188800  86.6537110  43.9062410  37.9510840  86.0207790  44.6044300
  37.2523310  86.8596510  43.5556600  39.7251500  85.3470340  41.3512550
  39.1999120  85.7278370  40.6474510  39.6496080  85.9721110  42.0722260
  46.2471760  87.3632310  55.6752240  47.1739070  87.1276580  55.7188200
  46.2322190  88.1904310  55.1938270  54.4816820  86.9057880  42.6726490
  54.6569010  86.2195620  42.0287410  53.7838390  87.4304930  42.2803160
  43.4335370  70.0277060  55.4394120  43.1519640  70.5310660  54.6754940
  43.8155070  69.2298810  55.0736250  42.3244470  87.2952720  40.2261800
  43.0563290  87.0112000  39.6785690  42.5838140  87.0566000  41.1161180
  41.4859260  83.4117450  40.2308130  40.8568140  83.8802550  40.7793960
  41.6007090  82.5666670  40.6654320  50.0350830  69.4430640  56.0174590
  49.9216280  69.7625250  56.9126110  50.8520570  69.8443150  55.7211870
  52.8149320  86.5902170  55.4993280  53.6074640  86.0951400  55.2919240
  53.1082470  87.2692310  56.1068890  48.9408980  77.4623110  26.3809330
  48.8603030  76.5477720  26.1101040  48.5273400  77.9590180  25.6749040
  47.0727020  79.2402130  28.2618600  46.2969120  78.7602570  28.5517170
  47.7239950  78.5607780  28.0874760  41.0892850  79.5521940  29.1394360
  40.2577730  79.2970650  29.5390870  41.6973830  79.6232710  29.8752280
  51.0934450  83.6462320  27.0417730  50.6315980  82.8749560  27.3704900
  51.9060000  83.6728390  27.5470180  41.0694110  83.5862030  29.3352380
  41.3722150  82.6959770  29.1562600  41.8137700  84.1432250  29.1074630
  39.4984800  74.5123830  22.9236750  38.6101500  74.8539800  22.8216630
  39.7825990  74.3124150  22.0317580  37.4617810  77.1129480  28.8076450
  38.0333920  76.3451680  28.8080090  37.4619350  77.4118240  27.8983060
  47.3197760  85.9320330  26.6621720  46.7009200  86.3877830  26.0916160
  48.1749540  86.0871790  26.2611420  46.5136010  81.9159320  28.2688760
  46.4444290  80.9749260  28.1077890  47.2755870  82.0060730  28.8411330
  38.7042680  72.5213840  30.5945380  38.5245520  71.6239590  30.8748140
  38.3022760  73.0685710  31.2692330  47.5441180  74.7229700  28.4957690
  47.9206000  73.8501580  28.3831360  47.4460690  75.0588400  27.6048130
  41.6746190  73.0955330  23.9575130  41.7812940  73.9959060  24.2643890
  40.7638550  73.0473300  23.6669780  51.3265300  72.2180140  25.4286030
  52.1474920  71.7276710  25.4711510  51.3599380  72.8077800  26.1817870
  39.3229350  75.0174340  29.2027720  40.0039460  75.2812710  29.8215120
  39.0077400  74.1775210  29.5365730  43.5153920  76.0641700  28.2900310
  44.0232140  76.5622670  28.9305330  44.0467160  75.2876900  28.1139670
  48.1861110  80.8159570  24.0553630  47.5678380  81.2809020  23.4916350
  48.6984360  81.5087050  24.4723140  43.0492870  80.3435440  30.7337230
  42.7162250  80.9704360  31.3758300  43.2259550  80.8697320  29.9538900
  42.2611970  82.3116240  32.5486410  42.8785970  82.9867320  32.2670860
  41.4005090  82.7204220  32.4573910  37.5544310  81.5016100  21.4293260
  37.1772290  81.9903200  20.6978160  37.8117380  82.1741380  22.0599790
  53.1789560  83.7755650  30.4641050  52.4953080  84.4454760  30.4557720
  53.7183850  83.9736300  29.6985910  50.7148300  85.6199780  29.1786230
  50.7275460  85.2162070  28.3108490  50.1623520  86.3947070  29.0747660
  52.0093720  82.3416000  24.2676400  51.8990050  81.3990330  24.3925820
  52.0061970  82.7031640  25.1539160  50.1133740  80.5229620  30.5068840
  50.5302530  80.3089730  29.6722300  50.8373560  80.7802410  31.0777460
  47.5514000  77.9681320  23.6238890  46.6243280  77.9018700  23.8527360
  47.7038820  78.9061450  23.5094130  47.5383080  74.2398320  20.6206050
  46.5986750  74.4012280  20.7058510  47.8566340  74.9584000  20.0742040
  51.5811290  79.5301620  24.1274140  50.9623710  79.1921170  23.4800440
  51.5635740  78.8861380  24.8353330  43.1570640  78.4946060  26.4058620
  42.7527640  77.7823310  25.9104520  43.2433760  78.1499300  27.2946660
  43.6252340  82.1813620  28.5697830  43.3280630  81.5759090  27.8905610
  44.5752160  82.2190930  28.4587190  41.8699260  75.2689270  30.1857660
  42.4213850  75.3784610  29.4110910  42.3842770  75.6426870  30.9012890
  51.7137950  85.7545490  32.2320930  51.2368510  86.5617680  32.0393540
  51.0299740  85.1023820  32.3847140  42.7170770  81.9195310  35.2205630
  41.8199300  82.1435280  35.4679030  42.7423640  82.0430250  34.2717030
  49.7575990  78.7688430  21.1346890  50.1969270  77.9310860  20.9884710
  50.4704410  79.4017830  21.2211030  41.5441990  78.7908630  33.7963000
  41.4049760  79.6631430  34.1650400  40.6623350  78.4481440  33.6510940
  47.8671370  83.7084500  25.1028130  48.3067280  84.4508830  24.6883520
  47.8058260  83.9511070  26.0267090  43.3422340  84.7330330  36.0048150
  43.3137770  85.1373280  35.1376580  43.1787310  83.8040690  35.8419750
  53.3393130  70.0231240  19.4487930  53.0265790  70.1158070  20.3487000
  54.1005600  70.6012270  19.3985360  39.8575270  77.3891040  23.9065270
  39.7372870  78.1153130  23.2946540  39.5476160  76.6193950  23.4293180
  55.2937160  85.5157430  37.3012320  55.7696880  85.9940320  37.9801400
  55.9144320  85.4474920  36.5757820  37.4960640  80.5606180  29.7133910
  37.5741060  80.6954950  28.7689630  38.1102320  79.8522070  29.9062030
  38.7408270  82.2606370  26.1240090  38.3336350  82.4020960  25.2693690
  39.6321280  81.9766530  25.9211300  54.6970410  82.7070280  34.4612330
  54.8233470  82.4682160  33.5429510  54.7391790  81.8754820  34.9334410
  48.5587150  86.4098280  33.0307140  49.0731820  86.3206290  33.8329570
  47.7156230  86.7557980  33.3235050  50.5341550  86.6953620  22.4591140
  50.3742690  86.4056560  23.3572970  50.3688260  85.9193750  21.9236370
  43.0129930  86.4752150  24.2362760  42.8372410  85.5587690  24.0230560
  42.1585670  86.8339440  24.4760560  50.2367680  84.2041180  21.0189140
  49.5432840  84.2018470  20.3591420  50.9790540  83.7800500  20.5883310
  49.8017610  85.8303890  25.0937630  50.2574560  85.0493270  25.4076250
  50.1410130  86.5410710  25.6378810  37.5520160  81.6020350  32.2528370
  37.7151200  81.1325710  31.4347740  38.0172610  81.0943910  32.9177210
  48.7062960  76.3205330  36.1219710  49.0316370  75.4869080  35.7821940
  49.4943290  76.8433850  36.2698040  42.1153150  75.8559680  25.0170190
  41.8894070  75.6396850  25.9216810  41.3345680  76.2888140  24.6716160
  49.3450910  75.8623050  23.6160840  48.7459800  76.5858850  23.4324460
  49.8930520  75.7999830  22.8337290  44.5552360  76.7545260  35.6830460
  44.4595960  75.8139990  35.5330860  45.3984340  76.9760330  35.2878530
  47.9515780  74.4986590  25.6464120  48.3445350  74.8158790  24.8332810
  48.3132630  73.6198470  25.7608640  39.6862900  73.1658930  33.8364240
  39.2926290  74.0134140  34.0437020  38.9981300  72.5285300  34.0272880
  37.1750180  75.0307510  19.0797040  37.0924850  75.9738270  19.2212030
  36.8233240  74.8882420  18.2009390  48.5370920  77.0892340  29.7414900
  47.8052040  77.5979150  30.0905000  48.1395260  76.2722320  29.4403680
  44.9748310  73.7646540  28.1467390  44.9784370  73.3236490  27.2971930
  45.8699430  74.0863870  28.2539210  40.8250690  73.6473030  27.1061600
  40.4850740  74.1248260  27.8628650  40.0628010  73.1938150  26.7462700
  45.0368460  74.7658620  21.1374150  45.1581280  74.7245100  22.0859970
  44.6516970  75.6282770  20.9820880  48.9996830  72.5426020  29.1537840
  49.0169570  72.9934670  29.9979690  48.7512410  71.6431660  29.3671280
  44.0489960  77.0759760  20.5357450  43.4806860  76.6278010  19.9093360
  44.7578960  77.4352540  20.0022600  39.1259140  80.9771780  34.4124180
  38.7413930  80.3365450  35.0107140  39.4371330  81.6807900  34.9818910
  45.2756280  77.8248320  29.8932800  45.6426410  77.3506890  30.6394140
  45.0861340  78.6989890  30.2341140  38.1396770  72.5692010  26.0226270
  37.8543690  72.2047680  26.8604890  38.0775630  71.8372470  25.4089410
  43.0655650  76.8656960  32.2117010  42.7612720  77.7448940  32.4367370
  44.0202110  76.9256750  32.2474450  41.5937440  81.0717950  22.8083860
  40.8199700  80.5315570  22.6482580  42.3232070  80.5524560  22.4701620
  52.3525420  80.0683310  28.6010250  53.0724540  80.5638600  28.2106360
  52.1507240  79.3901200  27.9564120  47.8135360  71.4621270  22.7439640
  46.9999970  70.9634440  22.6684950  47.6197310  72.3019520  22.3275990
  47.7344220  80.1392370  34.4879250  47.6681530  79.2188040  34.2336840
  47.1049360  80.2367810  35.2023890  50.5283750  75.8340920  21.0401800
  51.4163370  76.1458150  20.8653140  50.4988840  74.9613170  20.6482380
  41.6374840  80.7398330  26.4462670  42.1553510  79.9366590  26.3919560
  41.1858860  80.6777470  27.2879500  46.5244340  82.0064610  21.7189970
  46.8660040  82.7506840  21.2233290  45.6957050  82.3195730  22.0814800
  39.1219380  77.7059700  33.3588370  38.7634320  78.3713550  33.9461710
  38.8273940  76.8743250  33.7300990  42.3232500  78.1643940  36.2427920
  42.0232640  78.3101120  35.3455740  43.0943740  77.6049230  36.1501310
  47.6660950  82.9612940  34.2383050  47.6805490  82.0293900  34.0201960
  46.9586050  83.0472700  34.8772820  52.7998020  77.1452760  20.5081660
  52.7161740  77.5766980  19.6578100  53.5192210  77.6051110  20.9408480
  53.8772160  79.6020280  33.5851630  53.1520350  80.1949060  33.3881020
  54.4047620  79.5943820  32.7865000  53.8285270  83.9995020  23.2363790
  53.1861430  83.3450640  23.5107510  53.4415930  84.4050110  22.4604460
  49.4071750  81.3280450  27.0835480  49.7595570  80.7308580  26.4236850
  48.5234080  81.0024680  27.2543730  45.4935030  82.0878140  24.4905890
  46.1806160  82.6347350  24.8713480  44.7067450  82.6318870  24.5255500
  37.6327430  77.7050960  19.9822970  38.5022280  77.9875760  20.2658890
  37.1417750  78.5186830  19.8671780  44.7962240  79.0924170  24.1031250
  45.2525020  79.9029420  24.3291440  44.4450450  78.7747310  24.9349740
  47.0994850  84.6030510  31.3323550  47.7437070  84.8089890  32.0096970
  47.4624290  83.8418910  30.8794400  48.3726930  82.6062860  30.0501000
  49.0149160  81.9056020  30.1633170  48.8976280  83.3861300  29.8697890
  52.2182650  82.8911480  19.7740140  51.9920230  82.1741920  20.3664780
  51.8278850  82.6423920  18.9361890  50.1464550  83.4057760  33.2537060
  50.4820790  83.9924450  33.9314980  49.2264890  83.2750470  33.4834850
  37.9998680  86.9178340  20.5484600  38.3596320  87.5167680  19.8941870
  37.8591020  87.4638230  21.3219630  51.7998900  80.8083420  21.4354300
  51.5120600  81.2696110  22.2232180  52.5951070  80.3481190  21.7038520
  37.9840540  85.1833200  35.0227000  38.0931660  84.2427940  34.8822390
  37.3321100  85.4487950  34.3740730  45.9753130  83.4549090  36.4225120
  45.6550000  82.7358330  36.9670810  45.3011490  84.1304160  36.4961180
  44.0167300  84.3009540  21.3658270  44.0077400  85.0339230  20.7502780
  43.0965660  84.0541120  21.4585230  39.6173940  79.5224430  22.1105030
  39.0101890  80.2623330  22.1200330  40.0923290  79.6123790  21.2843230
  49.1906730  73.6875250  31.7861920  49.5587550  72.8670460  32.1141490
  48.3304930  73.7477140  32.2017570  52.5568760  72.6432190  22.5949480
  51.9281920  72.7477860  21.8807710  52.0620680  72.8628970  23.3843360
  47.0026900  84.3637780  20.0283460  47.1038880  84.1601770  19.0985440
  46.1028640  84.1096060  20.2331240  44.5252790  74.9218140  24.0107360
  43.8168940  75.3904480  24.4520970  44.8097270  74.2640150  24.6452550
  46.1508720  76.3414840  32.0099890  46.6493970  76.8160660  32.6751740
  46.2931670  75.4178360  32.2169920  45.6445010  86.8824100  24.7231130
  45.8986510  86.8445490  23.8010500  44.6957490  86.7557430  24.7159380
  42.7287810  73.2303220  21.3858070  43.5778340  73.6673370  21.3198260
  42.3619080  73.5423480  22.2130130  41.6279230  79.4835580  19.8593600
  42.3942500  79.3716940  20.4219030  41.7053920  78.7873550  19.2070370
  40.3225990  76.9160650  20.5426490  40.4029580  75.9688160  20.6543890
  41.2145740  77.2467530  20.6487150  53.6523170  84.9724830  27.9743900
  53.7770590  85.7956000  28.4467710  54.5188730  84.7615560  27.6268050
  41.1240700  87.0656040  27.6461030  41.8603180  86.5171500  27.9169600
  41.5081620  87.9312050  27.5067020  38.0086180  83.1329610  23.5202540
  37.0825960  83.3750750  23.5107950  38.4742610  83.9603870  23.3987290
  40.1298980  86.2502110  36.8346610  40.9311710  86.5714160  37.2482010
  39.6150800  85.8897690  37.5566520  44.2343010  86.2386350  19.4686600
  45.0271620  86.5275180  19.0168390  43.7147360  85.8078520  18.7899080
  48.9663610  82.3581980  36.7822020  48.3601770  82.3813580  36.0417770
  48.6617720  81.6265020  37.3189270  50.3963980  86.0862270  35.3931430
  51.3485730  86.0020290  35.3431670  50.2492200  86.7503980  36.0665220
  53.2873180  85.4656480  20.8923340  53.0014690  85.0521620  20.0777520
  53.0892730  86.3944190  20.7723860  37.8496790  78.7375570  35.7782660
  38.3535810  78.1582850  36.3498890  37.1104210  79.0215800  36.3159030
  44.7520410  81.4589760  19.3328950  44.6471050  80.8442110  20.0590330
  44.5844630  80.9355650  18.5491960  44.9034730  80.1446560  35.3118180
  44.1380400  80.7131560  35.2272850  45.0850690  79.8522770  34.4186410
  47.9923140  80.5209790  19.9370940  47.4433240  80.9679090  20.5813680
  48.6142400  80.0159040  20.4608610  52.0458080  81.8751890  35.8693200
  52.7867550  82.2127650  35.3660660  51.2830760  82.0443950  35.3162970
  39.8819870  76.8805160  36.6732730  39.9225210  76.5819030  37.5817960
  40.7365370  77.2812770  36.5140250  43.6598260  79.4800710  21.8336240
  44.0814680  79.3140580  22.6767630  43.7849100  78.6700940  21.3391380
  41.8225680  75.4597260  34.6407220  41.2922140  74.9688210  34.0130560
  42.4913750  75.8881460  34.1065150  46.1725900  78.5038320  19.0813340
  46.6931560  77.7887340  18.7154490  46.8194300  79.1424190  19.3813850
  50.7203740  79.9266720  34.4048410  51.1344760  80.0811800  35.2538830
  49.7854740  80.0521940  34.5674190  42.3097980  72.4259630  34.7204510
  42.2154850  71.8080380  33.9955380  41.7295370  73.1525920  34.4934420
  45.4818970  79.8787200  32.3744340  45.9007080  80.7219930  32.2020580
  44.5627600  80.0159240  32.1451120  47.8182870  77.6103380  33.7582180
  47.9379080  77.0144520  34.4977020  48.6776870  77.6473070  33.3383480
  50.1570770  78.1640570  32.3344690  49.6305990  78.6883190  31.7309830
  50.5002110  78.7967960  32.9654420  42.5557160  75.5533940  18.7794400
  42.3546220  74.6901300  19.1407740  42.3849210  75.4667300  17.8416000
  43.3326390  86.1840210  33.4902070  42.7947480  86.9086270  33.1710770
  43.5860350  85.7070550  32.6999410  44.5851640  74.1524730  35.0158000
  45.1751330  73.8440580  35.7035820  43.7671880  73.6804480  35.1717900
  49.4045070  73.7690540  35.2491020  48.7160590  73.1072080  35.1841010
  50.1251090  73.3228810  35.6939480  50.0345470  70.3642170  21.3081280
  50.3147760  69.5210070  21.6640700  49.2611200  70.5965280  21.8220030
  41.3539960  72.6534560  18.7672280  41.6565860  72.6601990  17.8591430
  42.0934550  72.3032420  19.2639940  46.1888600  87.4191420  33.7488720
  46.1147300  88.3226560  34.0561090  45.2867440  87.1003320  33.7210790
  44.5724890  71.5969180  19.7528480  44.2246890  70.9193170  19.1730930
  44.7737660  71.1358690  20.5671870  46.7373930  86.5849930  21.3715080
  47.6324720  86.9234900  21.3933840  46.7691560  85.8629340  20.7439360
  40.3770090  81.9576980  19.6002080  40.8144960  82.5006650  20.2559660
  40.8617820  81.1323930  19.6098420  37.5915890  84.7466010  27.0522340
  37.9218900  83.8787070  26.8200980  38.0206890  84.9524530  27.8827300
  42.1877810  83.0775020  24.7124310  41.8873350  82.9539990  25.6128220
  42.0815300  82.2183610  24.3040040  38.0806100  85.6136600  29.7903970
  37.6437090  85.7937400  30.6228120  38.6483780  86.3711220  29.6485690
  53.7168280  85.1153600  34.0781280  53.1170270  85.1746160  33.3345200
  53.8462180  84.1758580  34.2078130  54.9569730  82.8571420  19.4150990
  54.1262690  82.9248070  19.8858220  55.1341560  83.7475540  19.1117850
  54.4126190  79.6018900  21.9185190  55.1745100  80.1715550  22.0244880
  54.4280560  79.0346100  22.6893500  37.9130530  78.1256830  26.1492850
  37.2579370  77.8568470  25.5052550  38.7508480  78.0161310  25.6994830
  55.4186160  80.4569000  26.7627120  55.7894990  79.6736320  26.3563090
  56.0588090  81.1458100  26.5844420  52.4019920  81.8405580  32.1757440
  51.5879760  82.2702740  32.4383230  52.8094120  82.4523990  31.5626490
  54.4645360  79.8953270  19.0757710  54.7394200  80.8032150  18.9476930
  54.2756100  79.8315800  20.0119700  50.8620970  72.9198120  20.3711340
  51.2805850  72.7329100  19.5308000  50.5557030  72.0677170  20.6814270
  54.3610700  77.8322260  24.0687140  53.9854300  77.0650190  23.6368430
  53.6313820  78.2144960  24.5562070  38.9506460  78.5109400  30.6896190
  39.3179500  78.4236800  31.5692210  38.3817280  77.7475950  30.5903050
  38.5022460  75.4218490  34.5954610  37.6078510  75.3885250  34.9348320
  39.0420010  75.6205280  35.3605860  37.1268610  75.3355760  22.0918180
  36.2232690  75.5985960  21.9169840  37.6109230  75.6066930  21.3118140
  39.6695820  74.3921300  20.0012560  40.3787520  73.9704520  19.5159840
  38.9535760  74.4596530  19.3695910  39.3169980  70.4460630  19.0415210
  40.0398110  70.9869570  19.3596430  39.5894500  70.1724050  18.1656750
  53.1261630  75.3153100  23.3086790  53.6220750  75.0823970  24.0935670
  52.9277700  74.4764940  22.8924430  55.4439060  71.7821970  19.0830610
  56.3688370  71.6503150  18.8748900  55.4214850  71.8614790  20.0367060
  55.5177550  72.5532630  21.7087320  54.7229050  72.4877750  22.2380230
  55.7220830  73.4883270  21.6972670  52.4595970  86.5924180  25.7025710
  53.0555040  86.2708750  25.0260130  52.7174120  86.1196000  26.4938980
  40.3658540  83.0242090  35.8516340  40.3228170  82.6535000  36.7330800
  40.4969550  83.9619660  35.9918160  44.0664570  84.5801680  31.4526060
  43.8255930  84.8476240  30.5656580  45.0067210  84.7507410  31.5076920
  55.3268730  86.5996060  32.2536700  54.8327010  86.9964930  31.5363830
  54.7182020  85.9745270  32.6473980  40.2046570  85.9704340  32.9714120
  39.6106890  85.8389040  33.7104160  40.1970410  85.1342480  32.5056220
  53.0108180  87.2419480  29.5323440  52.5511150  87.9935290  29.1581460
  52.3820640  86.5225950  29.4738240  39.8358800  83.3362720  31.9222160
  39.1092860  82.7168010  31.8548110  39.8967950  83.7303330  31.0520240
  43.4403900  85.5507720  28.7071570  43.9568920  84.9395080  28.1819830
  44.0901280  86.0536500  29.1982580  46.1799400  86.4416210  29.5340550
  46.4677210  86.1870510  28.6573560  46.6922620  85.8893570  30.1246120
  38.1188800  86.6537110  25.1318920  37.9510840  86.0207790  25.8300810
  37.2523310  86.8596510  24.7813110  38.7416820  70.4853890  22.6350780
  39.4996180  70.5982770  22.0614810  38.2793990  71.3223090  22.5894210
  52.9290210  69.6657170  22.1376440  53.1240840  70.5640620  22.4043870
  52.1420080  69.4344250  22.6309390  39.7251500  85.3470340  22.5769060
  39.1999120  85.7278370  21.8731020  39.6496080  85.9721110  23.2978770
  41.1141970  71.0117940  21.1752750  41.6434730  70.2247740  21.0460700
  41.7470290  71.6909130  21.4088280  46.2471760  87.3632310  36.9008750
  47.1739070  87.1276580  36.9444710  46.2322190  88.1904310  36.4194780
  54.4816820  86.9057880  23.8983000  54.6569010  86.2195620  23.2543920
  53.7838390  87.4304930  23.5059670  42.3244470  87.2952720  21.4518310
  43.0563290  87.0112000  20.9042200  42.5838140  87.0566000  22.3417690
  41.4859260  83.4117450  21.4564640  40.8568140  83.8802550  22.0050470
  41.6007090  82.5666670  21.8910830  52.8149320  86.5902170  36.7249790
  53.6074640  86.0951400  36.5175750  53.1082470  87.2692310  37.3325400
  48.9408980  77.4623110   7.6065840  48.8603030  76.5477720   7.3357550
  48.5273400  77.9590180   6.9005550  47.0727020  79.2402130   9.4875110
  46.2969120  78.7602570   9.7773680  47.7239950  78.5607780   9.3131270
  41.0892850  79.5521940  10.3650870  40.2577730  79.2970650  10.7647380
  41.6973830  79.6232710  11.1008790  51.0934450  83.6462320   8.2674240
  50.6315980  82.8749560   8.5961410  51.9060000  83.6728390   8.7726690
  41.0694110  83.5862030  10.5608890  41.3722150  82.6959770  10.3819110
  41.8137700  84.1432250  10.3331140  39.4984800  74.5123830   4.1493260
  38.6101500  74.8539800   4.0473140  39.7825990  74.3124150   3.2574090
  37.4617810  77.1129480  10.0332960  38.0333920  76.3451680  10.0336600
  37.4619350  77.4118240   9.1239570  47.3197760  85.9320330   7.8878230
  46.7009200  86.3877830   7.3172670  48.1749540  86.0871790   7.4867930
  46.5136010  81.9159320   9.4945270  46.4444290  80.9749260   9.3334400
  47.2755870  82.0060730  10.0667840  38.7042680  72.5213840  11.8201890
  38.5245520  71.6239590  12.1004650  38.3022760  73.0685710  12.4948840
  47.5441180  74.7229700   9.7214200  47.9206000  73.8501580   9.6087870
  47.4460690  75.0588400   8.8304640  41.6746190  73.0955330   5.1831640
  41.7812940  73.9959060   5.4900400  40.7638550  73.0473300   4.8926290
  51.3265300  72.2180140   6.6542540  52.1474920  71.7276710   6.6968020
  51.3599380  72.8077800   7.4074380  39.3229350  75.0174340  10.4284230
  40.0039460  75.2812710  11.0471630  39.0077400  74.1775210  10.7622240
  43.5153920  76.0641700   9.5156820  44.0232140  76.5622670  10.1561840
  44.0467160  75.2876900   9.3396180  55.6164850  74.2346890  13.2186170
  54.9117020  74.6228600  12.7001280  55.8822770  74.9297180  13.8207100
  41.7990020  70.7040260  13.7820240  41.8008460  71.2212650  12.9766140
  40.9694330  70.2270440  13.7590170  48.1861110  80.8159570   5.2810140
  47.5678380  81.2809020   4.7172860  48.6984360  81.5087050   5.6979650
  43.0492870  80.3435440  11.9593740  42.7162250  80.9704360  12.6014810
  43.2259550  80.8697320  11.1795410  51.5626780  74.1580520   9.4270080
  50.8582350  74.4465410  10.0073190  51.9238940  74.9680630   9.0669640
  41.4805350  72.4150220  11.7890690  41.8222160  73.2592270  11.4944560
  40.5421160  72.5633960  11.9056030  42.2611970  82.3116240  13.7742920
  42.8785970  82.9867320  13.4927370  41.4005090  82.7204220  13.6830420
  37.5544310  81.5016100   2.6549770  37.1772290  81.9903200   1.9234670
  37.8117380  82.1741380   3.2856300  53.1789560  83.7755650  11.6897560
  52.4953080  84.4454760  11.6814230  53.7183850  83.9736300  10.9242420
  54.6313700  73.6035310   9.8179290  53.6838610  73.6374290   9.9494720
  54.9563690  74.4174260  10.2028650  45.1633240  69.9032490   8.1135280
  45.4708220  69.3479380   7.3970780  44.2333940  70.0376950   7.9308270
  50.7148300  85.6199780  10.4042740  50.7275460  85.2162070   9.5365000
  50.1623520  86.3947070  10.3004170  52.0093720  82.3416000   5.4932910
  51.8990050  81.3990330   5.6182330  52.0061970  82.7031640   6.3795670
  50.1133740  80.5229620  11.7325350  50.5302530  80.3089730  10.8978810
  50.8373560  80.7802410  12.3033970  47.5514000  77.9681320   4.8495400
  46.6243280  77.9018700   5.0783870  47.7038820  78.9061450   4.7350640
  54.0595840  78.9216840  11.8241590  53.2314470  78.9909930  11.3491720
  54.6546320  79.5071150  11.3557420  51.5811290  79.5301620   5.3530650
  50.9623710  79.1921170   4.7056950  51.5635740  78.8861380   6.0609840
  51.0237850  75.7086160  12.7696460  50.6109030  76.5339870  13.0236450
  50.2913800  75.1231200  12.5772820  43.1570640  78.4946060   7.6315130
  42.7527640  77.7823310   7.1361030  43.2433760  78.1499300   8.5203170
  43.6252340  82.1813620   9.7954340  43.3280630  81.5759090   9.1162120
  44.5752160  82.2190930   9.6843700  41.8699260  75.2689270  11.4114170
  42.4213850  75.3784610  10.6367420  42.3842770  75.6426870  12.1269400
  51.7137950  85.7545490  13.4577440  51.2368510  86.5617680  13.2650050
  51.0299740  85.1023820  13.6103650  42.7170770  81.9195310  16.4462140
  41.8199300  82.1435280  16.6935540  42.7423640  82.0430250  15.4973540
  49.7575990  78.7688430   2.3603400  50.1969270  77.9310860   2.2141220
  50.4704410  79.4017830   2.4467540  41.5441990  78.7908630  15.0219510
  41.4049760  79.6631430  15.3906910  40.6623350  78.4481440  14.8767450
  47.8671370  83.7084500   6.3284640  48.3067280  84.4508830   5.9140030
  47.8058260  83.9511070   7.2523600  43.3422340  84.7330330  17.2304660
  43.3137770  85.1373280  16.3633090  43.1787310  83.8040690  17.0676260
  39.8575270  77.3891040   5.1321780  39.7372870  78.1153130   4.5203050
  39.5476160  76.6193950   4.6549690  55.2937160  85.5157430  18.5268830
  55.7696880  85.9940320  19.2057910  55.9144320  85.4474920  17.8014330
  37.4960640  80.5606180  10.9390420  37.5741060  80.6954950   9.9946140
  38.1102320  79.8522070  11.1318540  38.7408270  82.2606370   7.3496600
  38.3336350  82.4020960   6.4950200  39.6321280  81.9766530   7.1467810
  54.6970410  82.7070280  15.6868840  54.8233470  82.4682160  14.7686020
  54.7391790  81.8754820  16.1590920  48.5587150  86.4098280  14.2563650
  49.0731820  86.3206290  15.0586080  47.7156230  86.7557980  14.5491560
  50.5341550  86.6953620   3.6847650  50.3742690  86.4056560   4.5829480
  50.3688260  85.9193750   3.1492880  43.0129930  86.4752150   5.4619270
  42.8372410  85.5587690   5.2487070  42.1585670  86.8339440   5.7017070
  49.8017610  85.8303890   6.3194140  50.2574560  85.0493270   6.6332760
  50.1410130  86.5410710   6.8635320  54.5494420  74.7602740  16.6518580
  53.9338690  75.2682410  16.1234040  54.2290840  73.8601070  16.5944520
  37.5520160  81.6020350  13.4784880  37.7151200  81.1325710  12.6604250
  38.0172610  81.0943910  14.1433720  42.3238930  70.7326110   8.5145450
  41.8807080  71.5135650   8.1829970  42.8823920  71.0556000   9.2216390
  46.6108740  73.5994630  14.1180770  46.1488110  73.8077650  14.9300710
  46.2086850  72.7853980  13.8151440  51.6113250  74.8203580  15.2477430
  50.7606840  74.5209330  15.5686500  51.4515040  75.0645590  14.3361250
  48.7062960  76.3205330  17.3476220  49.0316370  75.4869080  17.0078450
  49.4943290  76.8433850  17.4954550  45.4397750  70.3536810   3.3951280
  44.8151930  70.3496680   4.1204590  45.3527870  69.4867770   2.9987250
  44.3614830  71.2773440  10.3735050  44.6587160  72.1836270  10.2927070
  44.9100390  70.7892220   9.7594620  42.1153150  75.8559680   6.2426700
  41.8894070  75.6396850   7.1473320  41.3345680  76.2888140   5.8972670
  49.3450910  75.8623050   4.8417350  48.7459800  76.5858850   4.6580970
  49.8930520  75.7999830   4.0593800  44.5552360  76.7545260  16.9086970
  44.4595960  75.8139990  16.7587370  45.3984340  76.9760330  16.5135040
  47.9515780  74.4986590   6.8720630  48.3445350  74.8158790   6.0589320
  48.3132630  73.6198470   6.9865150  39.6862900  73.1658930  15.0620750
  39.2926290  74.0134140  15.2693530  38.9981300  72.5285300  15.2529390
  46.2607950  73.2493900  18.1317490  45.5706270  73.0566100  18.7663580
  47.0040250  73.5328540  18.6641790  36.9879950  71.0887390   9.0950830
  36.6993000  71.6590250   9.8075810  37.7325710  70.6091840   9.4582060
  48.5370920  77.0892340  10.9671410  47.8052040  77.5979150  11.3161510
  48.1395260  76.2722320  10.6660190  44.9748310  73.7646540   9.3723900
  44.9784370  73.3236490   8.5228440  45.8699430  74.0863870   9.4795720
  40.8250690  73.6473030   8.3318110  40.4850740  74.1248260   9.0885160
  40.0628010  73.1938150   7.9719210  45.0368460  74.7658620   2.3630660
  45.1581280  74.7245100   3.3116480  44.6516970  75.6282770   2.2077390
  48.9996830  72.5426020  10.3794350  49.0169570  72.9934670  11.2236200
  48.7512410  71.6431660  10.5927790  52.4267580  69.9558200  16.2180730
  52.7513350  69.2247860  16.7438710  52.4624090  69.6371840  15.3161720
  39.1259140  80.9771780  15.6380690  38.7413930  80.3365450  16.2363650
  39.4371330  81.6807900  16.2075420  45.2756280  77.8248320  11.1189310
  45.6426410  77.3506890  11.8650650  45.0861340  78.6989890  11.4597650
  38.1396770  72.5692010   7.2482780  37.8543690  72.2047680   8.0861400
  38.0775630  71.8372470   6.6345920  43.0655650  76.8656960  13.4373520
  42.7612720  77.7448940  13.6623880  44.0202110  76.9256750  13.4730960
  41.5937440  81.0717950   4.0340370  40.8199700  80.5315570   3.8739090
  42.3232070  80.5524560   3.6958130  52.3525420  80.0683310   9.8266760
  53.0724540  80.5638600   9.4362870  52.1507240  79.3901200   9.1820630
  47.8135360  71.4621270   3.9696150  46.9999970  70.9634440   3.8941460
  47.6197310  72.3019520   3.5532500  47.7344220  80.1392370  15.7135760
  47.6681530  79.2188040  15.4593350  47.1049360  80.2367810  16.4280400
  50.5283750  75.8340920   2.2658310  51.4163370  76.1458150   2.0909650
  50.4988840  74.9613170   1.8738890  41.6374840  80.7398330   7.6719180
  42.1553510  79.9366590   7.6176070  41.1858860  80.6777470   8.5136010
  46.5244340  82.0064610   2.9446480  46.8660040  82.7506840   2.4489800
  45.6957050  82.3195730   3.3071310  39.1219380  77.7059700  14.5844880
  38.7634320  78.3713550  15.1718220  38.8273940  76.8743250  14.9557500
  42.3232500  78.1643940  17.4684430  42.0232640  78.3101120  16.5712250
  43.0943740  77.6049230  17.3757820  47.6660950  82.9612940  15.4639560
  47.6805490  82.0293900  15.2458470  46.9586050  83.0472700  16.1029330
  53.8772160  79.6020280  14.8108140  53.1520350  80.1949060  14.6137530
  54.4047620  79.5943820  14.0121510  53.8285270  83.9995020   4.4620300
  53.1861430  83.3450640   4.7364020  53.4415930  84.4050110   3.6860970
  49.4071750  81.3280450   8.3091990  49.7595570  80.7308580   7.6493360
  48.5234080  81.0024680   8.4800240  45.4935030  82.0878140   5.7162400
  46.1806160  82.6347350   6.0969990  44.7067450  82.6318870   5.7512010
  44.7962240  79.0924170   5.3287760  45.2525020  79.9029420   5.5547950
  44.4450450  78.7747310   6.1606250  47.0994850  84.6030510  12.5580060
  47.7437070  84.8089890  13.2353480  47.4624290  83.8418910  12.1050910
  40.6974020  69.4361820   5.8010280  40.5688650  69.4279720   6.7495200
  39.8736040  69.7744910   5.4501290  48.3726930  82.6062860  11.2757510
  49.0149160  81.9056020  11.3889680  48.8976280  83.3861300  11.0954400
  50.1464550  83.4057760  14.4793570  50.4820790  83.9924450  15.1571490
  49.2264890  83.2750470  14.7091360  37.6967950  71.1952940  15.2616980
  36.9826470  71.3949860  15.8669590  38.1162990  70.4192510  15.6331780
  51.7998900  80.8083420   2.6610810  51.5120600  81.2696110   3.4488690
  52.5951070  80.3481190   2.9295030  37.9840540  85.1833200  16.2483510
  38.0931660  84.2427940  16.1078900  37.3321100  85.4487950  15.5997240
  45.9753130  83.4549090  17.6481630  45.6550000  82.7358330  18.1927320
  45.3011490  84.1304160  17.7217690  44.0167300  84.3009540   2.5914780
  44.0077400  85.0339230   1.9759290  43.0965660  84.0541120   2.6841740
  39.6173940  79.5224430   3.3361540  39.0101890  80.2623330   3.3456840
  40.0923290  79.6123790   2.5099740  49.1906730  73.6875250  13.0118430
  49.5587550  72.8670460  13.3398000  48.3304930  73.7477140  13.4274080
  52.5568760  72.6432190   3.8205990  51.9281920  72.7477860   3.1064220
  52.0620680  72.8628970   4.6099870  44.5252790  74.9218140   5.2363870
  43.8168940  75.3904480   5.6777480  44.8097270  74.2640150   5.8709060
  46.1508720  76.3414840  13.2356400  46.6493970  76.8160660  13.9008250
  46.2931670  75.4178360  13.4426430  48.5568220  71.6468800   6.6759660
  48.4336000  71.6654930   5.7269170  49.5052780  71.6947740   6.7958060
  45.6445010  86.8824100   5.9487640  45.8986510  86.8445490   5.0267010
  44.6957490  86.7557430   5.9415890  42.7287810  73.2303220   2.6114580
  43.5778340  73.6673370   2.5454770  42.3619080  73.5423480   3.4386640
  53.3575580  72.5582800  14.0784790  52.8549180  73.2988200  14.4178600
  54.1732240  72.9466800  13.7621580  51.6497590  77.8015980   7.5246150
  50.7087730  77.8166210   7.6993840  51.9641660  77.0151940   7.9706450
  40.3225990  76.9160650   1.7683000  40.4029580  75.9688160   1.8800400
  41.2145740  77.2467530   1.8743660  53.6523170  84.9724830   9.2000410
  53.7770590  85.7956000   9.6724220  54.5188730  84.7615560   8.8524560
  41.1240700  87.0656040   8.8717540  41.8603180  86.5171500   9.1426110
  41.5081620  87.9312050   8.7323530  38.0086180  83.1329610   4.7459050
  37.0825960  83.3750750   4.7364460  38.4742610  83.9603870   4.6243800
  40.1298980  86.2502110  18.0603120  40.9311710  86.5714160  18.4738520
  39.6150800  85.8897690  18.7823030  48.9663610  82.3581980  18.0078530
  48.3601770  82.3813580  17.2674280  48.6617720  81.6265020  18.5445780
  50.3963980  86.0862270  16.6187940  51.3485730  86.0020290  16.5688180
  50.2492200  86.7503980  17.2921730  37.8496790  78.7375570  17.0039170
  38.3535810  78.1582850  17.5755400  37.1104210  79.0215800  17.5415540
  44.9034730  80.1446560  16.5374690  44.1380400  80.7131560  16.4529360
  45.0850690  79.8522770  15.6442920  52.0458080  81.8751890  17.0949710
  52.7867550  82.2127650  16.5917170  51.2830760  82.0443950  16.5419480
  39.8819870  76.8805160  17.8989240  39.9225210  76.5819030  18.8074470
  40.7365370  77.2812770  17.7396760  43.6598260  79.4800710   3.0592750
  44.0814680  79.3140580   3.9024140  43.7849100  78.6700940   2.5647890
  41.8225680  75.4597260  15.8663730  41.2922140  74.9688210  15.2387070
  42.4913750  75.8881460  15.3321660  50.7203740  79.9266720  15.6304920
  51.1344760  80.0811800  16.4795340  49.7854740  80.0521940  15.7930700
  51.1925910  77.2662880  17.6344070  51.7746680  76.5115200  17.5464550
  51.3687680  77.7970320  16.8575550  42.3097980  72.4259630  15.9461020
  42.2154850  71.8080380  15.2211890  41.7295370  73.1525920  15.7190930
  45.0759420  70.9832870  12.9788410  44.6276720  71.0057130  12.1333960
  44.4424620  70.5851890  13.5758710  45.4818970  79.8787200  13.6000850
  45.9007080  80.7219930  13.4277090  44.5627600  80.0159240  13.3707630
  47.8182870  77.6103380  14.9838690  47.9379080  77.0144520  15.7233530
  48.6776870  77.6473070  14.5639990  50.1570770  78.1640570  13.5601200
  49.6305990  78.6883190  12.9566340  50.5002110  78.7967960  14.1910930
  43.3326390  86.1840210  14.7158580  42.7947480  86.9086270  14.3967280
  43.5860350  85.7070550  13.9255920  44.5851640  74.1524730  16.2414510
  45.1751330  73.8440580  16.9292330  43.7671880  73.6804480  16.3974410
  49.4045070  73.7690540  16.4747530  48.7160590  73.1072080  16.4097520
  50.1251090  73.3228810  16.9195990  50.0345470  70.3642170   2.5337790
  50.3147760  69.5210070   2.8897210  49.2611200  70.5965280   3.0476540
  46.1888600  87.4191420  14.9745230  46.1147300  88.3226560  15.2817600
  45.2867440  87.1003320  14.9467300  46.7373930  86.5849930   2.5971590
  47.6324720  86.9234900   2.6190350  46.7691560  85.8629340   1.9695870
  37.5915890  84.7466010   8.2778850  37.9218900  83.8787070   8.0457490
  38.0206890  84.9524530   9.1083810  42.1877810  83.0775020   5.9380820
  41.8873350  82.9539990   6.8384730  42.0815300  82.2183610   5.5296550
  38.0806100  85.6136600  11.0160480  37.6437090  85.7937400  11.8484630
  38.6483780  86.3711220  10.8742200  53.7168280  85.1153600  15.3037790
  53.1170270  85.1746160  14.5601710  53.8462180  84.1758580  15.4334640
  54.4126190  79.6018900   3.1441700  55.1745100  80.1715550   3.2501390
  54.4280560  79.0346100   3.9150010  37.9130530  78.1256830   7.3749360
  37.2579370  77.8568470   6.7309060  38.7508480  78.0161310   6.9251340
  55.4186160  80.4569000   7.9883630  55.7894990  79.6736320   7.5819600
  56.0588090  81.1458100   7.8100930  52.4019920  81.8405580  13.4013950
  51.5879760  82.2702740  13.6639740  52.8094120  82.4523990  12.7883000
  54.3610700  77.8322260   5.2943650  53.9854300  77.0650190   4.8624940
  53.6313820  78.2144960   5.7818580  38.9506460  78.5109400  11.9152700
  39.3179500  78.4236800  12.7948720  38.3817280  77.7475950  11.8159560
  53.7510320  76.9793780  14.9283170  53.5196410  76.7506530  14.0281120
  54.0114870  77.8993330  14.8828060  38.5022460  75.4218490  15.8211120
  37.6078510  75.3885250  16.1604830  39.0420010  75.6205280  16.5862370
  52.1898390  72.2050210  17.7062870  53.0668570  72.2133610  18.0896870
  52.2019230  71.4681050  17.0955220  37.1268610  75.3355760   3.3174690
  36.2232690  75.5985960   3.1426350  37.6109230  75.6066930   2.5374650
  53.6361660  76.0579750   8.5950890  54.1599140  75.5642400   7.9641060
  54.2221080  76.1930110   9.3398460  53.8151380  76.1419620  12.1170440
  52.8654090  76.1083160  12.2315430  53.9964390  77.0519730  11.8820210
  53.1261630  75.3153100   4.5343300  53.6220750  75.0823970   5.3192180
  52.9277700  74.4764940   4.1180940  39.0062170  69.6966820  10.1694340
  39.6538360  69.1464200   9.7289500  39.4264010  69.9509970  10.9910150
  54.5548790  73.9514050   7.0680980  54.4448070  73.7970090   8.0063250
  55.3156380  73.4234990   6.8256390  52.9014510  69.8908180  13.5263980
  53.5386730  70.5042320  13.8923170  53.0489400  69.9268840  12.5813210
  55.5177550  72.5532630   2.9343830  54.7229050  72.4877750   3.4636740
  55.7220830  73.4883270   2.9229180  52.4595970  86.5924180   6.9282220
  53.0555040  86.2708750   6.2516640  52.7174120  86.1196000   7.7195490
  38.7594170  69.8522490  12.9119660  38.4108990  70.3086310  13.6777840
  38.4281870  68.9579620  12.9942090  40.3658540  83.0242090  17.0772850
  40.3228170  82.6535000  17.9587310  40.4969550  83.9619660  17.2174670
  44.0664570  84.5801680  12.6782570  43.8255930  84.8476240  11.7913090
  45.0067210  84.7507410  12.7333430  46.2718990  71.0434370  16.4339080
  46.2107880  71.6356200  17.1834490  47.2119370  70.9360330  16.2889340
  48.9093550  70.7004430  16.0731370  49.5233960  71.0183720  15.4112450
  49.4543110  70.2153020  16.6927230  55.3268730  86.5996060  13.4793210
  54.8327010  86.9964930  12.7620340  54.7182020  85.9745270  13.8730490
  39.4314810  69.3798690  16.1870430  39.9797800  69.1986740  15.4236540
  39.4970120  68.5892800  16.7226740  40.2046570  85.9704340  14.1970630
  39.6106890  85.8389040  14.9360670  40.1970410  85.1342480  13.7312730
  49.6501590  69.2636570  12.4000660  48.7761430  69.5971680  12.1973590
  49.5412340  68.7909750  13.2252530  50.5573570  71.4707440  13.7842380
  50.2286930  70.6559200  13.4044110  51.5055870  71.4277250  13.6608070
  53.0108180  87.2419480  10.7579950  52.5511150  87.9935290  10.3837970
  52.3820640  86.5225950  10.6994750  39.8358800  83.3362720  13.1478670
  39.1092860  82.7168010  13.0804620  39.8967950  83.7303330  12.2776750
  43.4403900  85.5507720   9.9328080  43.9568920  84.9395080   9.4076340
  44.0901280  86.0536500  10.4239090  46.1799400  86.4416210  10.7597060
  46.4677210  86.1870510   9.8830070  46.6922620  85.8893570  11.3502630
  47.3976410  70.1806410  11.3393570  46.6148200  70.6551910  11.6190330
  47.1039340  69.2761240  11.2306750  51.9497480  70.8829510   9.3842660
  52.3905570  70.8274610   8.5364260  51.6805070  71.7987520   9.4552840
  53.8136050  70.5144750   7.3951480  53.7524450  69.5705970   7.2482500
  54.5928080  70.6224840   7.9404940  38.1188800  86.6537110   6.3575430
  37.9510840  86.0207790   7.0557320  37.2523310  86.8596510   6.0069620
  38.7416820  70.4853890   3.8607290  39.4996180  70.5982770   3.2871320
  38.2793990  71.3223090   3.8150720  45.2830630  72.5993160   6.8509600
  44.4705140  72.2250050   6.5105480  45.7872270  71.8438240   7.1530790
  49.7855610  69.2635610   8.0892670  50.3884980  69.8355820   8.5641190
  49.0448600  69.8275050   7.8666570  52.9290210  69.6657170   3.3632950
  53.1240840  70.5640620   3.6300380  52.1420080  69.4344250   3.8565900
  39.7251500  85.3470340   3.8025570  39.1999120  85.7278370   3.0987530
  39.6496080  85.9721110   4.5235280  41.1141970  71.0117940   2.4009260
  41.6434730  70.2247740   2.2717210  41.7470290  71.6909130   2.6344790
  43.3079810  70.7493080   5.4554650  42.6782550  70.0480390   5.6224780
  42.7684950  71.5097210   5.2387810  46.2471760  87.3632310  18.1265260
  47.1739070  87.1276580  18.1701220  46.2322190  88.1904310  17.6451290
  54.4816820  86.9057880   5.1239510  54.6569010  86.2195620   4.4800430
  53.7838390  87.4304930   4.7316180  43.4335370  70.0277060  17.8907140
  43.1519640  70.5310660  17.1267960  43.8155070  69.2298810  17.5249270
  42.3244470  87.2952720   2.6774820  43.0563290  87.0112000   2.1298710
  42.5838140  87.0566000   3.5674200  41.4859260  83.4117450   2.6821150
  40.8568140  83.8802550   3.2306980  41.6007090  82.5666670   3.1167340
  50.0350830  69.4430640  18.4687610  49.9216280  69.7625250  19.3639130
  50.8520570  69.8443150  18.1724890  52.8149320  86.5902170  17.9506300
  53.6074640  86.0951400  17.7432260  53.1082470  87.2692310  18.5581910
  48.9408980  58.6879620  63.9296310  48.8603030  57.7734230  63.6588020
  48.5273400  59.1846690  63.2236020  47.0727020  60.4658640  65.8105580
  46.2969120  59.9859080  66.1004150  47.7239950  59.7864290  65.6361740
  41.0892850  60.7778450  66.6881340  40.2577730  60.5227160  67.0877850
  41.6973830  60.8489220  67.4239260  51.0934450  64.8718830  64.5904710
  50.6315980  64.1006070  64.9191880  51.9060000  64.8984900  65.0957160
  41.0694110  64.8118540  66.8839360  41.3722150  63.9216280  66.7049580
  41.8137700  65.3688760  66.6561610  39.4984800  55.7380340  60.4723730
  38.6101500  56.0796310  60.3703610  39.7825990  55.5380660  59.5804560
  37.4617810  58.3385990  66.3563430  38.0333920  57.5708190  66.3567070
  37.4619350  58.6374750  65.4470040  47.3197760  67.1576840  64.2108700
  46.7009200  67.6134340  63.6403140  48.1749540  67.3128300  63.8098400
  46.5136010  63.1415830  65.8175740  46.4444290  62.2005770  65.6564870
  47.2755870  63.2317240  66.3898310  38.7042680  53.7470350  68.1432360
  38.5245520  52.8496100  68.4235120  38.3022760  54.2942220  68.8179310
  47.5441180  55.9486210  66.0444670  47.9206000  55.0758090  65.9318340
  47.4460690  56.2844910  65.1535110  41.6746190  54.3211840  61.5062110
  41.7812940  55.2215570  61.8130870  40.7638550  54.2729810  61.2156760
  51.3265300  53.4436650  62.9773010  52.1474920  52.9533220  63.0198490
  51.3599380  54.0334310  63.7304850  39.3229350  56.2430850  66.7514700
  40.0039460  56.5069220  67.3702100  39.0077400  55.4031720  67.0852710
  43.5153920  57.2898210  65.8387290  44.0232140  57.7879180  66.4792310
  44.0467160  56.5133410  65.6626650  55.6164850  55.4603400  69.5416640
  54.9117020  55.8485110  69.0231750  55.8822770  56.1553690  70.1437570
  41.7990020  51.9296770  70.1050710  41.8008460  52.4469160  69.2996610
  40.9694330  51.4526950  70.0820640  48.1861110  62.0416080  61.6040610
  47.5678380  62.5065530  61.0403330  48.6984360  62.7343560  62.0210120
  43.0492870  61.5691950  68.2824210  42.7162250  62.1960870  68.9245280
  43.2259550  62.0953830  67.5025880  51.5626780  55.3837030  65.7500550
  50.8582350  55.6721920  66.3303660  51.9238940  56.1937140  65.3900110
  41.4805350  53.6406730  68.1121160  41.8222160  54.4848780  67.8175030
  40.5421160  53.7890470  68.2286500  42.2611970  63.5372750  70.0973390
  42.8785970  64.2123830  69.8157840  41.4005090  63.9460730  70.0060890
  37.5544310  62.7272610  58.9780240  37.1772290  63.2159710  58.2465140
  37.8117380  63.3997890  59.6086770  53.1789560  65.0012160  68.0128030
  52.4953080  65.6711270  68.0044700  53.7183850  65.1992810  67.2472890
  54.6313700  54.8291820  66.1409760  53.6838610  54.8630800  66.2725190
  54.9563690  55.6430770  66.5259120  45.1633240  51.1289000  64.4365750
  45.4708220  50.5735890  63.7201250  44.2333940  51.2633460  64.2538740
  50.7148300  66.8456290  66.7273210  50.7275460  66.4418580  65.8595470
  50.1623520  67.6203580  66.6234640  52.0093720  63.5672510  61.8163380
  51.8990050  62.6246840  61.9412800  52.0061970  63.9288150  62.7026140
  50.1133740  61.7486130  68.0555820  50.5302530  61.5346240  67.2209280
  50.8373560  62.0058920  68.6264440  47.5514000  59.1937830  61.1725870
  46.6243280  59.1275210  61.4014340  47.7038820  60.1317960  61.0581110
  47.5383080  55.4654830  58.1693030  46.5986750  55.6268790  58.2545490
  47.8566340  56.1840510  57.6229020  54.0595840  60.1473350  68.1472060
  53.2314470  60.2166440  67.6722190  54.6546320  60.7327660  67.6787890
  51.5811290  60.7558130  61.6761120  50.9623710  60.4177680  61.0287420
  51.5635740  60.1117890  62.3840310  51.0237850  56.9342670  69.0926930
  50.6109030  57.7596380  69.3466920  50.2913800  56.3487710  68.9003290
  43.1570640  59.7202570  63.9545600  42.7527640  59.0079820  63.4591500
  43.2433760  59.3755810  64.8433640  43.6252340  63.4070130  66.1184810
  43.3280630  62.8015600  65.4392590  44.5752160  63.4447440  66.0074170
  41.8699260  56.4945780  67.7344640  42.4213850  56.6041120  66.9597890
  42.3842770  56.8683380  68.4499870  51.7137950  66.9802000  69.7807910
  51.2368510  67.7874190  69.5880520  51.0299740  66.3280330  69.9334120
  49.7575990  59.9944940  58.6833870  50.1969270  59.1567370  58.5371690
  50.4704410  60.6274340  58.7698010  41.5441990  60.0165140  71.3449980
  41.4049760  60.8887940  71.7137380  40.6623350  59.6737950  71.1997920
  47.8671370  64.9341010  62.6515110  48.3067280  65.6765340  62.2370500
  47.8058260  65.1767580  63.5754070  53.3393130  51.2487750  56.9974910
  53.0265790  51.3414580  57.8973980  54.1005600  51.8268780  56.9472340
  39.8575270  58.6147550  61.4552250  39.7372870  59.3409640  60.8433520
  39.5476160  57.8450460  60.9780160  37.4960640  61.7862690  67.2620890
  37.5741060  61.9211460  66.3176610  38.1102320  61.0778580  67.4549010
  38.7408270  63.4862880  63.6727070  38.3336350  63.6277470  62.8180670
  39.6321280  63.2023040  63.4698280  54.6970410  63.9326790  72.0099310
  54.8233470  63.6938670  71.0916490  54.7391790  63.1011330  72.4821390
  48.5587150  67.6354790  70.5794120  49.0731820  67.5462800  71.3816550
  47.7156230  67.9814490  70.8722030  50.5341550  67.9210130  60.0078120
  50.3742690  67.6313070  60.9059950  50.3688260  67.1450260  59.4723350
  43.0129930  67.7008660  61.7849740  42.8372410  66.7844200  61.5717540
  42.1585670  68.0595950  62.0247540  50.2367680  65.4297690  58.5676120
  49.5432840  65.4274980  57.9078400  50.9790540  65.0057010  58.1370290
  49.8017610  67.0560400  62.6424610  50.2574560  66.2749780  62.9563230
  50.1410130  67.7667220  63.1865790  54.5494420  55.9859250  72.9749050
  53.9338690  56.4938920  72.4464510  54.2290840  55.0857580  72.9174990
  37.5520160  62.8276860  69.8015350  37.7151200  62.3582220  68.9834720
  38.0172610  62.3200420  70.4664190  42.3238930  51.9582620  64.8375920
  41.8807080  52.7392160  64.5060440  42.8823920  52.2812510  65.5446860
  46.6108740  54.8251140  70.4411240  46.1488110  55.0334160  71.2531180
  46.2086850  54.0110490  70.1381910  51.6113250  56.0460090  71.5707900
  50.7606840  55.7465840  71.8916970  51.4515040  56.2902100  70.6591720
  45.4397750  51.5793320  59.7181750  44.8151930  51.5753190  60.4435060
  45.3527870  50.7124280  59.3217720  44.3614830  52.5029950  66.6965520
  44.6587160  53.4092780  66.6157540  44.9100390  52.0148730  66.0825090
  42.1153150  57.0816190  62.5657170  41.8894070  56.8653360  63.4703790
  41.3345680  57.5144650  62.2203140  49.3450910  57.0879560  61.1647820
  48.7459800  57.8115360  60.9811440  49.8930520  57.0256340  60.3824270
  47.9515780  55.7243100  63.1951100  48.3445350  56.0415300  62.3819790
  48.3132630  54.8454980  63.3095620  39.6862900  54.3915440  71.3851220
  39.2926290  55.2390650  71.5924000  38.9981300  53.7541810  71.5759860
  36.9879950  52.3143900  65.4181300  36.6993000  52.8846760  66.1306280
  37.7325710  51.8348350  65.7812530  37.1750180  56.2564020  56.6284020
  37.0924850  57.1994780  56.7699010  36.8233240  56.1138930  55.7496370
  48.5370920  58.3148850  67.2901880  47.8052040  58.8235660  67.6391980
  48.1395260  57.4978830  66.9890660  44.9748310  54.9903050  65.6954370
  44.9784370  54.5493000  64.8458910  45.8699430  55.3120380  65.8026190
  40.8250690  54.8729540  64.6548580  40.4850740  55.3504770  65.4115630
  40.0628010  54.4194660  64.2949680  45.0368460  55.9915130  58.6861130
  45.1581280  55.9501610  59.6346950  44.6516970  56.8539280  58.5307860
  48.9996830  53.7682530  66.7024820  49.0169570  54.2191180  67.5466670
  48.7512410  52.8688170  66.9158260  44.0489960  58.3016270  58.0844430
  43.4806860  57.8534520  57.4580340  44.7578960  58.6609050  57.5509580
  39.1259140  62.2028290  71.9611160  38.7413930  61.5621960  72.5594120
  39.4371330  62.9064410  72.5305890  45.2756280  59.0504830  67.4419780
  45.6426410  58.5763400  68.1881120  45.0861340  59.9246400  67.7828120
  38.1396770  53.7948520  63.5713250  37.8543690  53.4304190  64.4091870
  38.0775630  53.0628980  62.9576390  43.0655650  58.0913470  69.7603990
  42.7612720  58.9705450  69.9854350  44.0202110  58.1513260  69.7961430
  41.5937440  62.2974460  60.3570840  40.8199700  61.7572080  60.1969560
  42.3232070  61.7781070  60.0188600  52.3525420  61.2939820  66.1497230
  53.0724540  61.7895110  65.7593340  52.1507240  60.6157710  65.5051100
  47.8135360  52.6877780  60.2926620  46.9999970  52.1890950  60.2171930
  47.6197310  53.5276030  59.8762970  47.7344220  61.3648880  72.0366230
  47.6681530  60.4444550  71.7823820  47.1049360  61.4624320  72.7510870
  50.5283750  57.0597430  58.5888780  51.4163370  57.3714660  58.4140120
  50.4988840  56.1869680  58.1969360  41.6374840  61.9654840  63.9949650
  42.1553510  61.1623100  63.9406540  41.1858860  61.9033980  64.8366480
  46.5244340  63.2321120  59.2676950  46.8660040  63.9763350  58.7720270
  45.6957050  63.5452240  59.6301780  39.1219380  58.9316210  70.9075350
  38.7634320  59.5970060  71.4948690  38.8273940  58.0999760  71.2787970
  47.6660950  64.1869450  71.7870030  47.6805490  63.2550410  71.5688940
  46.9586050  64.2729210  72.4259800  52.7998020  58.3709270  58.0568640
  52.7161740  58.8023490  57.2065080  53.5192210  58.8307620  58.4895460
  53.8772160  60.8276790  71.1338610  53.1520350  61.4205570  70.9368000
  54.4047620  60.8200330  70.3351980  53.8285270  65.2251530  60.7850770
  53.1861430  64.5707150  61.0594490  53.4415930  65.6306620  60.0091440
  49.4071750  62.5536960  64.6322460  49.7595570  61.9565090  63.9723830
  48.5234080  62.2281190  64.8030710  45.4935030  63.3134650  62.0392870
  46.1806160  63.8603860  62.4200460  44.7067450  63.8575380  62.0742480
  37.6327430  58.9307470  57.5309950  38.5022280  59.2132270  57.8145870
  37.1417750  59.7443340  57.4158760  44.7962240  60.3180680  61.6518230
  45.2525020  61.1285930  61.8778420  44.4450450  60.0003820  62.4836720
  47.0994850  65.8287020  68.8810530  47.7437070  66.0346400  69.5583950
  47.4624290  65.0675420  68.4281380  40.6974020  50.6618330  62.1240750
  40.5688650  50.6536230  63.0725670  39.8736040  51.0001420  61.7731760
  48.3726930  63.8319370  67.5987980  49.0149160  63.1312530  67.7120150
  48.8976280  64.6117810  67.4184870  52.2182650  64.1167990  57.3227120
  51.9920230  63.3998430  57.9151760  51.8278850  63.8680430  56.4848870
  50.1464550  64.6314270  70.8024040  50.4820790  65.2180960  71.4801960
  49.2264890  64.5006980  71.0321830  37.9998680  68.1434850  58.0971580
  38.3596320  68.7424190  57.4428850  37.8591020  68.6894740  58.8706610
  37.6967950  52.4209450  71.5847450  36.9826470  52.6206370  72.1900060
  38.1162990  51.6449020  71.9562250  51.7998900  62.0339930  58.9841280
  51.5120600  62.4952620  59.7719160  52.5951070  61.5737700  59.2525500
  37.9840540  66.4089710  72.5713980  38.0931660  65.4684450  72.4309370
  37.3321100  66.6744460  71.9227710  44.0167300  65.5266050  58.9145250
  44.0077400  66.2595740  58.2989760  43.0965660  65.2797630  59.0072210
  39.6173940  60.7480940  59.6592010  39.0101890  61.4879840  59.6687310
  40.0923290  60.8380300  58.8330210  49.1906730  54.9131760  69.3348900
  49.5587550  54.0926970  69.6628470  48.3304930  54.9733650  69.7504550
  52.5568760  53.8688700  60.1436460  51.9281920  53.9734370  59.4294690
  52.0620680  54.0885480  60.9330340  47.0026900  65.5894290  57.5770440
  47.1038880  65.3858280  56.6472420  46.1028640  65.3352570  57.7818220
  44.5252790  56.1474650  61.5594340  43.8168940  56.6160990  62.0007950
  44.8097270  55.4896660  62.1939530  46.1508720  57.5671350  69.5586870
  46.6493970  58.0417170  70.2238720  46.2931670  56.6434870  69.7656900
  48.5568220  52.8725310  62.9990130  48.4336000  52.8911440  62.0499640
  49.5052780  52.9204250  63.1188530  45.6445010  68.1080610  62.2718110
  45.8986510  68.0702000  61.3497480  44.6957490  67.9813940  62.2646360
  42.7287810  54.4559730  58.9345050  43.5778340  54.8929880  58.8685240
  42.3619080  54.7679990  59.7617110  53.3575580  53.7839310  70.4015260
  52.8549180  54.5244710  70.7409070  54.1732240  54.1723310  70.0852050
  51.6497590  59.0272490  63.8476620  50.7087730  59.0422720  64.0224310
  51.9641660  58.2408450  64.2936920  41.6279230  60.7092090  57.4080580
  42.3942500  60.5973450  57.9706010  41.7053920  60.0130060  56.7557350
  40.3225990  58.1417160  58.0913470  40.4029580  57.1944670  58.2030870
  41.2145740  58.4724040  58.1974130  53.6523170  66.1981340  65.5230880
  53.7770590  67.0212510  65.9954690  54.5188730  65.9872070  65.1755030
  41.1240700  68.2912550  65.1948010  41.8603180  67.7428010  65.4656580
  41.5081620  69.1568560  65.0554000  38.0086180  64.3586120  61.0689520
  37.0825960  64.6007260  61.0594930  38.4742610  65.1860380  60.9474270
  44.2343010  67.4642860  57.0173580  45.0271620  67.7531690  56.5655370
  43.7147360  67.0335030  56.3386060  53.2873180  66.6912990  58.4410320
  53.0014690  66.2778130  57.6264500  53.0892730  67.6200700  58.3210840
  44.7520410  62.6846270  56.8815930  44.6471050  62.0698620  57.6077310
  44.5844630  62.1612160  56.0978940  44.9034730  61.3703070  72.8605160
  44.1380400  61.9388070  72.7759830  45.0850690  61.0779280  71.9673390
  47.9923140  61.7466300  57.4857920  47.4433240  62.1935600  58.1300660
  48.6142400  61.2415550  58.0095590  43.6598260  60.7057220  59.3823220
  44.0814680  60.5397090  60.2254610  43.7849100  59.8957450  58.8878360
  41.8225680  56.6853770  72.1894200  41.2922140  56.1944720  71.5617540
  42.4913750  57.1137970  71.6552130  46.1725900  59.7294830  56.6300320
  46.6931560  59.0143850  56.2641470  46.8194300  60.3680700  56.9300830
  50.7203740  61.1523230  71.9535390  51.1344760  61.3068310  72.8025810
  49.7854740  61.2778450  72.1161170  42.3097980  53.6516140  72.2691490
  42.2154850  53.0336890  71.5442360  41.7295370  54.3782430  72.0421400
  45.0759420  52.2089380  69.3018880  44.6276720  52.2313640  68.4564430
  44.4424620  51.8108400  69.8989180  45.4818970  61.1043710  69.9231320
  45.9007080  61.9476440  69.7507560  44.5627600  61.2415750  69.6938100
  47.8182870  58.8359890  71.3069160  47.9379080  58.2401030  72.0464000
  48.6776870  58.8729580  70.8870460  50.1570770  59.3897080  69.8831670
  49.6305990  59.9139700  69.2796810  50.5002110  60.0224470  70.5141400
  42.5557160  56.7790450  56.3281380  42.3546220  55.9157810  56.6894720
  42.3849210  56.6923810  55.3902980  43.3326390  67.4096720  71.0389050
  42.7947480  68.1342780  70.7197750  43.5860350  66.9327060  70.2486390
  50.0345470  51.5898680  58.8568260  50.3147760  50.7466580  59.2127680
  49.2611200  51.8221790  59.3707010  41.3539960  53.8791070  56.3159260
  41.6565860  53.8858500  55.4078410  42.0934550  53.5288930  56.8126920
  46.1888600  68.6447930  71.2975700  46.1147300  69.5483070  71.6048070
  45.2867440  68.3259830  71.2697770  44.5724890  52.8225690  57.3015460
  44.2246890  52.1449680  56.7217910  44.7737660  52.3615200  58.1158850
  46.7373930  67.8106440  58.9202060  47.6324720  68.1491410  58.9420820
  46.7691560  67.0885850  58.2926340  40.3770090  63.1833490  57.1489060
  40.8144960  63.7263160  57.8046640  40.8617820  62.3580440  57.1585400
  37.5915890  65.9722520  64.6009320  37.9218900  65.1043580  64.3687960
  38.0206890  66.1781040  65.4314280  42.1877810  64.3031530  62.2611290
  41.8873350  64.1796500  63.1615200  42.0815300  63.4440120  61.8527020
  38.0806100  66.8393110  67.3390950  37.6437090  67.0193910  68.1715100
  38.6483780  67.5967730  67.1972670  53.7168280  66.3410110  71.6268260
  53.1170270  66.4002670  70.8832180  53.8462180  65.4015090  71.7565110
  54.9569730  64.0827930  56.9637970  54.1262690  64.1504580  57.4345200
  55.1341560  64.9732050  56.6604830  54.4126190  60.8275410  59.4672170
  55.1745100  61.3972060  59.5731860  54.4280560  60.2602610  60.2380480
  37.9130530  59.3513340  63.6979830  37.2579370  59.0824980  63.0539530
  38.7508480  59.2417820  63.2481810  55.4186160  61.6825510  64.3114100
  55.7894990  60.8992830  63.9050070  56.0588090  62.3714610  64.1331400
  52.4019920  63.0662090  69.7244420  51.5879760  63.4959250  69.9870210
  52.8094120  63.6780500  69.1113470  54.4645360  61.1209780  56.6244690
  54.7394200  62.0288660  56.4963910  54.2756100  61.0572310  57.5606680
  50.8620970  54.1454630  57.9198320  51.2805850  53.9585610  57.0794980
  50.5557030  53.2933680  58.2301250  54.3610700  59.0578770  61.6174120
  53.9854300  58.2906700  61.1855410  53.6313820  59.4401470  62.1049050
  38.9506460  59.7365910  68.2383170  39.3179500  59.6493310  69.1179190
  38.3817280  58.9732460  68.1390030  53.7510320  58.2050290  71.2513640
  53.5196410  57.9763040  70.3511590  54.0114870  59.1249840  71.2058530
  38.5022460  56.6475000  72.1441590  37.6078510  56.6141760  72.4835300
  39.0420010  56.8461790  72.9092840  37.1268610  56.5612270  59.6405160
  36.2232690  56.8242470  59.4656820  37.6109230  56.8323440  58.8605120
  53.6361660  57.2836260  64.9181360  54.1599140  56.7898910  64.2871530
  54.2221080  57.4186620  65.6628930  53.8151380  57.3676130  68.4400910
  52.8654090  57.3339670  68.5545900  53.9964390  58.2776240  68.2050680
  39.6695820  55.6177810  57.5499540  40.3787520  55.1961030  57.0646820
  38.9535760  55.6853040  56.9182890  39.3169980  51.6717140  56.5902190
  40.0398110  52.2126080  56.9083410  39.5894500  51.3980560  55.7143730
  53.1261630  56.5409610  60.8573770  53.6220750  56.3080480  61.6422650
  52.9277700  55.7021450  60.4411410  39.0062170  50.9223330  66.4924810
  39.6538360  50.3720710  66.0519970  39.4264010  51.1766480  67.3140620
  54.5548790  55.1770560  63.3911450  54.4448070  55.0226600  64.3293720
  55.3156380  54.6491500  63.1486860  52.9014510  51.1164690  69.8494450
  53.5386730  51.7298830  70.2153640  53.0489400  51.1525350  68.9043680
  55.4439060  53.0078480  56.6317590  56.3688370  52.8759660  56.4235880
  55.4214850  53.0871300  57.5854040  55.5177550  53.7789140  59.2574300
  54.7229050  53.7134260  59.7867210  55.7220830  54.7139780  59.2459650
  52.4595970  67.8180690  63.2512690  53.0555040  67.4965260  62.5747110
  52.7174120  67.3452510  64.0425960  38.7594170  51.0779000  69.2350130
  38.4108990  51.5342820  70.0008310  38.4281870  50.1836130  69.3172560
  44.0664570  65.8058190  69.0013040  43.8255930  66.0732750  68.1143560
  45.0067210  65.9763920  69.0563900  55.3268730  67.8252570  69.8023680
  54.8327010  68.2221440  69.0850810  54.7182020  67.2001780  70.1960960
  40.2046570  67.1960850  70.5201100  39.6106890  67.0645550  71.2591140
  40.1970410  66.3598990  70.0543200  49.6501590  50.4893080  68.7231130
  48.7761430  50.8228190  68.5204060  49.5412340  50.0166260  69.5483000
  50.5573570  52.6963950  70.1072850  50.2286930  51.8815710  69.7274580
  51.5055870  52.6533760  69.9838540  53.0108180  68.4675990  67.0810420
  52.5511150  69.2191800  66.7068440  52.3820640  67.7482460  67.0225220
  39.8358800  64.5619230  69.4709140  39.1092860  63.9424520  69.4035090
  39.8967950  64.9559840  68.6007220  43.4403900  66.7764230  66.2558550
  43.9568920  66.1651590  65.7306810  44.0901280  67.2793010  66.7469560
  46.1799400  67.6672720  67.0827530  46.4677210  67.4127020  66.2060540
  46.6922620  67.1150080  67.6733100  47.3976410  51.4062920  67.6624040
  46.6148200  51.8808420  67.9420800  47.1039340  50.5017750  67.5537220
  51.9497480  52.1086020  65.7073130  52.3905570  52.0531120  64.8594730
  51.6805070  53.0244030  65.7783310  53.8136050  51.7401260  63.7181950
  53.7524450  50.7962480  63.5712970  54.5928080  51.8481350  64.2635410
  38.1188800  67.8793620  62.6805900  37.9510840  67.2464300  63.3787790
  37.2523310  68.0853020  62.3300090  38.7416820  51.7110400  60.1837760
  39.4996180  51.8239280  59.6101790  38.2793990  52.5479600  60.1381190
  45.2830630  53.8249670  63.1740070  44.4705140  53.4506560  62.8335950
  45.7872270  53.0694750  63.4761260  49.7855610  50.4892120  64.4123140
  50.3884980  51.0612330  64.8871660  49.0448600  51.0531560  64.1897040
  52.9290210  50.8913680  59.6863420  53.1240840  51.7897130  59.9530850
  52.1420080  50.6600760  60.1796370  39.7251500  66.5726850  60.1256040
  39.1999120  66.9534880  59.4218000  39.6496080  67.1977620  60.8465750
  41.1141970  52.2374450  58.7239730  41.6434730  51.4504250  58.5947680
  41.7470290  52.9165640  58.9575260  43.3079810  51.9749590  61.7785120
  42.6782550  51.2736900  61.9455250  42.7684950  52.7353720  61.5618280
  54.4816820  68.1314390  61.4469980  54.6569010  67.4452130  60.8030900
  53.7838390  68.6561440  61.0546650  42.3244470  68.5209230  59.0005290
  43.0563290  68.2368510  58.4529180  42.5838140  68.2822510  59.8904670
  41.4859260  64.6373960  59.0051620  40.8568140  65.1059060  59.5537450
  41.6007090  63.7923180  59.4397810  55.6164850  55.4603400  50.7673150
  54.9117020  55.8485110  50.2488260  55.8822770  56.1553690  51.3694080
  41.7990020  51.9296770  51.3307220  41.8008460  52.4469160  50.5253120
  40.9694330  51.4526950  51.3077150  42.2611970  63.5372750  51.3229900
  42.8785970  64.2123830  51.0414350  41.4005090  63.9460730  51.2317400
  54.6313700  54.8291820  47.3666270  53.6838610  54.8630800  47.4981700
  54.9563690  55.6430770  47.7515630  42.7170770  63.1451820  53.9949120
  41.8199300  63.3691790  54.2422520  42.7423640  63.2686760  53.0460520
  41.5441990  60.0165140  52.5706490  41.4049760  60.8887940  52.9393890
  40.6623350  59.6737950  52.4254430  43.3422340  65.9586840  54.7791640
  43.3137770  66.3629790  53.9120070  43.1787310  65.0297200  54.6163240
  53.3393130  51.2487750  38.2231420  53.0265790  51.3414580  39.1230490
  54.1005600  51.8268780  38.1728850  55.2937160  66.7413940  56.0755810
  55.7696880  67.2196830  56.7544890  55.9144320  66.6731430  55.3501310
  54.6970410  63.9326790  53.2355820  54.8233470  63.6938670  52.3173000
  54.7391790  63.1011330  53.7077900  48.5587150  67.6354790  51.8050630
  49.0731820  67.5462800  52.6073060  47.7156230  67.9814490  52.0978540
  54.5494420  55.9859250  54.2005560  53.9338690  56.4938920  53.6721020
  54.2290840  55.0857580  54.1431500  37.5520160  62.8276860  51.0271860
  37.7151200  62.3582220  50.2091230  38.0172610  62.3200420  51.6920700
  46.6108740  54.8251140  51.6667750  46.1488110  55.0334160  52.4787690
  46.2086850  54.0110490  51.3638420  51.6113250  56.0460090  52.7964410
  50.7606840  55.7465840  53.1173480  51.4515040  56.2902100  51.8848230
  48.7062960  57.5461840  54.8963200  49.0316370  56.7125590  54.5565430
  49.4943290  58.0690360  55.0441530  44.5552360  57.9801770  54.4573950
  44.4595960  57.0396500  54.3074350  45.3984340  58.2016840  54.0622020
  39.6862900  54.3915440  52.6107730  39.2926290  55.2390650  52.8180510
  38.9981300  53.7541810  52.8016370  46.2607950  54.4750410  55.6804470
  45.5706270  54.2822610  56.3150560  47.0040250  54.7585050  56.2128770
  52.4267580  51.1814710  53.7667710  52.7513350  50.4504370  54.2925690
  52.4624090  50.8628350  52.8648700  39.1259140  62.2028290  53.1867670
  38.7413930  61.5621960  53.7850630  39.4371330  62.9064410  53.7562400
  43.0655650  58.0913470  50.9860500  42.7612720  58.9705450  51.2110860
  44.0202110  58.1513260  51.0217940  47.7344220  61.3648880  53.2622740
  47.6681530  60.4444550  53.0080330  47.1049360  61.4624320  53.9767380
  39.1219380  58.9316210  52.1331860  38.7634320  59.5970060  52.7205200
  38.8273940  58.0999760  52.5044480  42.3232500  59.3900450  55.0171410
  42.0232640  59.5357630  54.1199230  43.0943740  58.8305740  54.9244800
  47.6660950  64.1869450  53.0126540  47.6805490  63.2550410  52.7945450
  46.9586050  64.2729210  53.6516310  52.7998020  58.3709270  39.2825150
  52.7161740  58.8023490  38.4321590  53.5192210  58.8307620  39.7151970
  53.8772160  60.8276790  52.3595120  53.1520350  61.4205570  52.1624510
  54.4047620  60.8200330  51.5608490  50.1464550  64.6314270  52.0280550
  50.4820790  65.2180960  52.7058470  49.2264890  64.5006980  52.2578340
  37.6967950  52.4209450  52.8103960  36.9826470  52.6206370  53.4156570
  38.1162990  51.6449020  53.1818760  37.9840540  66.4089710  53.7970490
  38.0931660  65.4684450  53.6565880  37.3321100  66.6744460  53.1484220
  45.9753130  64.6805600  55.1968610  45.6550000  63.9614840  55.7414300
  45.3011490  65.3560670  55.2704670  52.5568760  53.8688700  41.3692970
  51.9281920  53.9734370  40.6551200  52.0620680  54.0885480  42.1586850
  53.3575580  53.7839310  51.6271770  52.8549180  54.5244710  51.9665580
  54.1732240  54.1723310  51.3108560  40.1298980  67.4758620  55.6090100
  40.9311710  67.7970670  56.0225500  39.6150800  67.1154200  56.3310010
  48.9663610  63.5838490  55.5565510  48.3601770  63.6070090  54.8161260
  48.6617720  62.8521530  56.0932760  50.3963980  67.3118780  54.1674920
  51.3485730  67.2276800  54.1175160  50.2492200  67.9760490  54.8408710
  37.8496790  59.9632080  54.5526150  38.3535810  59.3839360  55.1242380
  37.1104210  60.2472310  55.0902520  44.9034730  61.3703070  54.0861670
  44.1380400  61.9388070  54.0016340  45.0850690  61.0779280  53.1929900
  52.0458080  63.1008400  54.6436690  52.7867550  63.4384160  54.1404150
  51.2830760  63.2700460  54.0906460  39.8819870  58.1061670  55.4476220
  39.9225210  57.8075540  56.3561450  40.7365370  58.5069280  55.2883740
  41.8225680  56.6853770  53.4150710  41.2922140  56.1944720  52.7874050
  42.4913750  57.1137970  52.8808640  50.7203740  61.1523230  53.1791900
  51.1344760  61.3068310  54.0282320  49.7854740  61.2778450  53.3417680
  51.1925910  58.4919390  55.1831050  51.7746680  57.7371710  55.0951530
  51.3687680  59.0226830  54.4062530  42.3097980  53.6516140  53.4948000
  42.2154850  53.0336890  52.7698870  41.7295370  54.3782430  53.2677910
  45.0759420  52.2089380  50.5275390  44.6276720  52.2313640  49.6820940
  44.4424620  51.8108400  51.1245690  45.4818970  61.1043710  51.1487830
  45.9007080  61.9476440  50.9764070  44.5627600  61.2415750  50.9194610
  47.8182870  58.8359890  52.5325670  47.9379080  58.2401030  53.2720510
  48.6776870  58.8729580  52.1126970  50.1570770  59.3897080  51.1088180
  49.6305990  59.9139700  50.5053320  50.5002110  60.0224470  51.7397910
  43.3326390  67.4096720  52.2645560  42.7947480  68.1342780  51.9454260
  43.5860350  66.9327060  51.4742900  44.5851640  55.3781240  53.7901490
  45.1751330  55.0697090  54.4779310  43.7671880  54.9060990  53.9461390
  49.4045070  54.9947050  54.0234510  48.7160590  54.3328590  53.9584500
  50.1251090  54.5485320  54.4682970  46.1888600  68.6447930  52.5232210
  46.1147300  69.5483070  52.8304580  45.2867440  68.3259830  52.4954280
  53.7168280  66.3410110  52.8524770  53.1170270  66.4002670  52.1088690
  53.8462180  65.4015090  52.9821620  53.7510320  58.2050290  52.4770150
  53.5196410  57.9763040  51.5768100  54.0114870  59.1249840  52.4315040
  38.5022460  56.6475000  53.3698100  37.6078510  56.6141760  53.7091810
  39.0420010  56.8461790  54.1349350  52.1898390  53.4306720  55.2549850
  53.0668570  53.4390120  55.6383850  52.2019230  52.6937560  54.6442200
  53.6361660  57.2836260  46.1437870  54.1599140  56.7898910  45.5128040
  54.2221080  57.4186620  46.8885440  53.8151380  57.3676130  49.6657420
  52.8654090  57.3339670  49.7802410  53.9964390  58.2776240  49.4307190
  54.5548790  55.1770560  44.6167960  54.4448070  55.0226600  45.5550230
  55.3156380  54.6491500  44.3743370  52.9014510  51.1164690  51.0750960
  53.5386730  51.7298830  51.4410150  53.0489400  51.1525350  50.1300190
  55.4439060  53.0078480  37.8574100  56.3688370  52.8759660  37.6492390
  55.4214850  53.0871300  38.8110550  55.5177550  53.7789140  40.4830810
  54.7229050  53.7134260  41.0123720  55.7220830  54.7139780  40.4716160
  38.7594170  51.0779000  50.4606640  38.4108990  51.5342820  51.2264820
  38.4281870  50.1836130  50.5429070  40.3658540  64.2498600  54.6259830
  40.3228170  63.8791510  55.5074290  40.4969550  65.1876170  54.7661650
  44.0664570  65.8058190  50.2269550  43.8255930  66.0732750  49.3400070
  45.0067210  65.9763920  50.2820410  46.2718990  52.2690880  53.9826060
  46.2107880  52.8612710  54.7321470  47.2119370  52.1616840  53.8376320
  48.9093550  51.9260940  53.6218350  49.5233960  52.2440230  52.9599430
  49.4543110  51.4409530  54.2414210  39.4314810  50.6055200  53.7357410
  39.9797800  50.4243250  52.9723520  39.4970120  49.8149310  54.2713720
  40.2046570  67.1960850  51.7457610  39.6106890  67.0645550  52.4847650
  40.1970410  66.3598990  51.2799710  50.5573570  52.6963950  51.3329360
  50.2286930  51.8815710  50.9531090  51.5055870  52.6533760  51.2095050
  39.8358800  64.5619230  50.6965650  39.1092860  63.9424520  50.6291600
  39.8967950  64.9559840  49.8263730  53.8136050  51.7401260  44.9438460
  53.7524450  50.7962480  44.7969480  54.5928080  51.8481350  45.4891920
  46.2471760  68.5888820  55.6752240  47.1739070  68.3533090  55.7188200
  46.2322190  69.4160820  55.1938270  43.4335370  51.2533570  55.4394120
  43.1519640  51.7567170  54.6754940  43.8155070  50.4555320  55.0736250
  50.0350830  50.6687150  56.0174590  49.9216280  50.9881760  56.9126110
  50.8520570  51.0699660  55.7211870  52.8149320  67.8158680  55.4993280
  53.6074640  67.3207910  55.2919240  53.1082470  68.4948820  56.1068890
  39.4984800  55.7380340  22.9236750  38.6101500  56.0796310  22.8216630
  39.7825990  55.5380660  22.0317580  51.3265300  53.4436650  25.4286030
  52.1474920  52.9533220  25.4711510  51.3599380  54.0334310  26.1817870
  55.6164850  55.4603400  31.9929660  54.9117020  55.8485110  31.4744770
  55.8822770  56.1553690  32.5950590  37.5544310  62.7272610  21.4293260
  37.1772290  63.2159710  20.6978160  37.8117380  63.3997890  22.0599790
  54.6313700  54.8291820  28.5922780  53.6838610  54.8630800  28.7238210
  54.9563690  55.6430770  28.9772140  47.5383080  55.4654830  20.6206050
  46.5986750  55.6268790  20.7058510  47.8566340  56.1840510  20.0742040
  49.7575990  59.9944940  21.1346890  50.1969270  59.1567370  20.9884710
  50.4704410  60.6274340  21.2211030  53.3393130  51.2487750  19.4487930
  53.0265790  51.3414580  20.3487000  54.1005600  51.8268780  19.3985360
  50.5341550  67.9210130  22.4591140  50.3742690  67.6313070  23.3572970
  50.3688260  67.1450260  21.9236370  50.2367680  65.4297690  21.0189140
  49.5432840  65.4274980  20.3591420  50.9790540  65.0057010  20.5883310
  54.5494420  55.9859250  35.4262070  53.9338690  56.4938920  34.8977530
  54.2290840  55.0857580  35.3688010  45.4397750  51.5793320  22.1694770
  44.8151930  51.5753190  22.8948080  45.3527870  50.7124280  21.7730740
  37.1750180  56.2564020  19.0797040  37.0924850  57.1994780  19.2212030
  36.8233240  56.1138930  18.2009390  45.0368460  55.9915130  21.1374150
  45.1581280  55.9501610  22.0859970  44.6516970  56.8539280  20.9820880
  44.0489960  58.3016270  20.5357450  43.4806860  57.8534520  19.9093360
  44.7578960  58.6609050  20.0022600  52.4267580  51.1814710  34.9924220
  52.7513350  50.4504370  35.5182200  52.4624090  50.8628350  34.0905210
  41.5937440  62.2974460  22.8083860  40.8199700  61.7572080  22.6482580
  42.3232070  61.7781070  22.4701620  47.8135360  52.6877780  22.7439640
  46.9999970  52.1890950  22.6684950  47.6197310  53.5276030  22.3275990
  50.5283750  57.0597430  21.0401800  51.4163370  57.3714660  20.8653140
  50.4988840  56.1869680  20.6482380  46.5244340  63.2321120  21.7189970
  46.8660040  63.9763350  21.2233290  45.6957050  63.5452240  22.0814800
  52.7998020  58.3709270  20.5081660  52.7161740  58.8023490  19.6578100
  53.5192210  58.8307620  20.9408480  53.8285270  65.2251530  23.2363790
  53.1861430  64.5707150  23.5107510  53.4415930  65.6306620  22.4604460
  37.6327430  58.9307470  19.9822970  38.5022280  59.2132270  20.2658890
  37.1417750  59.7443340  19.8671780  52.2182650  64.1167990  19.7740140
  51.9920230  63.3998430  20.3664780  51.8278850  63.8680430  18.9361890
  37.9998680  68.1434850  20.5484600  38.3596320  68.7424190  19.8941870
  37.8591020  68.6894740  21.3219630  51.7998900  62.0339930  21.4354300
  51.5120600  62.4952620  22.2232180  52.5951070  61.5737700  21.7038520
  44.0167300  65.5266050  21.3658270  44.0077400  66.2595740  20.7502780
  43.0965660  65.2797630  21.4585230  39.6173940  60.7480940  22.1105030
  39.0101890  61.4879840  22.1200330  40.0923290  60.8380300  21.2843230
  52.5568760  53.8688700  22.5949480  51.9281920  53.9734370  21.8807710
  52.0620680  54.0885480  23.3843360  47.0026900  65.5894290  20.0283460
  47.1038880  65.3858280  19.0985440  46.1028640  65.3352570  20.2331240
  42.7287810  54.4559730  21.3858070  43.5778340  54.8929880  21.3198260
  42.3619080  54.7679990  22.2130130  53.3575580  53.7839310  32.8528280
  52.8549180  54.5244710  33.1922090  54.1732240  54.1723310  32.5365070
  41.6279230  60.7092090  19.8593600  42.3942500  60.5973450  20.4219030
  41.7053920  60.0130060  19.2070370  40.3225990  58.1417160  20.5426490
  40.4029580  57.1944670  20.6543890  41.2145740  58.4724040  20.6487150
  44.2343010  67.4642860  19.4686600  45.0271620  67.7531690  19.0168390
  43.7147360  67.0335030  18.7899080  53.2873180  66.6912990  20.8923340
  53.0014690  66.2778130  20.0777520  53.0892730  67.6200700  20.7723860
  44.7520410  62.6846270  19.3328950  44.6471050  62.0698620  20.0590330
  44.5844630  62.1612160  18.5491960  47.9923140  61.7466300  19.9370940
  47.4433240  62.1935600  20.5813680  48.6142400  61.2415550  20.4608610
  43.6598260  60.7057220  21.8336240  44.0814680  60.5397090  22.6767630
  43.7849100  59.8957450  21.3391380  46.1725900  59.7294830  19.0813340
  46.6931560  59.0143850  18.7154490  46.8194300  60.3680700  19.3813850
  42.5557160  56.7790450  18.7794400  42.3546220  55.9157810  19.1407740
  42.3849210  56.6923810  17.8416000  50.0345470  51.5898680  21.3081280
  50.3147760  50.7466580  21.6640700  49.2611200  51.8221790  21.8220030
  41.3539960  53.8791070  18.7672280  41.6565860  53.8858500  17.8591430
  42.0934550  53.5288930  19.2639940  44.5724890  52.8225690  19.7528480
  44.2246890  52.1449680  19.1730930  44.7737660  52.3615200  20.5671870
  46.7373930  67.8106440  21.3715080  47.6324720  68.1491410  21.3933840
  46.7691560  67.0885850  20.7439360  40.3770090  63.1833490  19.6002080
  40.8144960  63.7263160  20.2559660  40.8617820  62.3580440  19.6098420
  54.9569730  64.0827930  19.4150990  54.1262690  64.1504580  19.8858220
  55.1341560  64.9732050  19.1117850  54.4126190  60.8275410  21.9185190
  55.1745100  61.3972060  22.0244880  54.4280560  60.2602610  22.6893500
  54.4645360  61.1209780  19.0757710  54.7394200  62.0288660  18.9476930
  54.2756100  61.0572310  20.0119700  50.8620970  54.1454630  20.3711340
  51.2805850  53.9585610  19.5308000  50.5557030  53.2933680  20.6814270
  54.3610700  59.0578770  24.0687140  53.9854300  58.2906700  23.6368430
  53.6313820  59.4401470  24.5562070  53.7510320  58.2050290  33.7026660
  53.5196410  57.9763040  32.8024610  54.0114870  59.1249840  33.6571550
  52.1898390  53.4306720  36.4806360  53.0668570  53.4390120  36.8640360
  52.2019230  52.6937560  35.8698710  37.1268610  56.5612270  22.0918180
  36.2232690  56.8242470  21.9169840  37.6109230  56.8323440  21.3118140
  53.6361660  57.2836260  27.3694380  54.1599140  56.7898910  26.7384550
  54.2221080  57.4186620  28.1141950  53.8151380  57.3676130  30.8913930
  52.8654090  57.3339670  31.0058920  53.9964390  58.2776240  30.6563700
  39.6695820  55.6177810  20.0012560  40.3787520  55.1961030  19.5159840
  38.9535760  55.6853040  19.3695910  39.3169980  51.6717140  19.0415210
  40.0398110  52.2126080  19.3596430  39.5894500  51.3980560  18.1656750
  53.1261630  56.5409610  23.3086790  53.6220750  56.3080480  24.0935670
  52.9277700  55.7021450  22.8924430  54.5548790  55.1770560  25.8424470
  54.4448070  55.0226600  26.7806740  55.3156380  54.6491500  25.5999880
  52.9014510  51.1164690  32.3007470  53.5386730  51.7298830  32.6666660
  53.0489400  51.1525350  31.3556700  55.4439060  53.0078480  19.0830610
  56.3688370  52.8759660  18.8748900  55.4214850  53.0871300  20.0367060
  55.5177550  53.7789140  21.7087320  54.7229050  53.7134260  22.2380230
  55.7220830  54.7139780  21.6972670  51.9497480  52.1086020  28.1586150
  52.3905570  52.0531120  27.3107750  51.6805070  53.0244030  28.2296330
  53.8136050  51.7401260  26.1694970  53.7524450  50.7962480  26.0225990
  54.5928080  51.8481350  26.7148430  38.7416820  51.7110400  22.6350780
  39.4996180  51.8239280  22.0614810  38.2793990  52.5479600  22.5894210
  52.9290210  50.8913680  22.1376440  53.1240840  51.7897130  22.4043870
  52.1420080  50.6600760  22.6309390  39.7251500  66.5726850  22.5769060
  39.1999120  66.9534880  21.8731020  39.6496080  67.1977620  23.2978770
  41.1141970  52.2374450  21.1752750  41.6434730  51.4504250  21.0460700
  41.7470290  52.9165640  21.4088280  54.4816820  68.1314390  23.8983000
  54.6569010  67.4452130  23.2543920  53.7838390  68.6561440  23.5059670
  42.3244470  68.5209230  21.4518310  43.0563290  68.2368510  20.9042200
  42.5838140  68.2822510  22.3417690  41.4859260  64.6373960  21.4564640
  40.8568140  65.1059060  22.0050470  41.6007090  63.7923180  21.8910830
  48.9408980  58.6879620   7.6065840  48.8603030  57.7734230   7.3357550
  48.5273400  59.1846690   6.9005550  47.0727020  60.4658640   9.4875110
  46.2969120  59.9859080   9.7773680  47.7239950  59.7864290   9.3131270
  41.0892850  60.7778450  10.3650870  40.2577730  60.5227160  10.7647380
  41.6973830  60.8489220  11.1008790  51.0934450  64.8718830   8.2674240
  50.6315980  64.1006070   8.5961410  51.9060000  64.8984900   8.7726690
  41.0694110  64.8118540  10.5608890  41.3722150  63.9216280  10.3819110
  41.8137700  65.3688760  10.3331140  39.4984800  55.7380340   4.1493260
  38.6101500  56.0796310   4.0473140  39.7825990  55.5380660   3.2574090
  37.4617810  58.3385990  10.0332960  38.0333920  57.5708190  10.0336600
  37.4619350  58.6374750   9.1239570  47.3197760  67.1576840   7.8878230
  46.7009200  67.6134340   7.3172670  48.1749540  67.3128300   7.4867930
  46.5136010  63.1415830   9.4945270  46.4444290  62.2005770   9.3334400
  47.2755870  63.2317240  10.0667840  38.7042680  53.7470350  11.8201890
  38.5245520  52.8496100  12.1004650  38.3022760  54.2942220  12.4948840
  47.5441180  55.9486210   9.7214200  47.9206000  55.0758090   9.6087870
  47.4460690  56.2844910   8.8304640  41.6746190  54.3211840   5.1831640
  41.7812940  55.2215570   5.4900400  40.7638550  54.2729810   4.8926290
  51.3265300  53.4436650   6.6542540  52.1474920  52.9533220   6.6968020
  51.3599380  54.0334310   7.4074380  39.3229350  56.2430850  10.4284230
  40.0039460  56.5069220  11.0471630  39.0077400  55.4031720  10.7622240
  43.5153920  57.2898210   9.5156820  44.0232140  57.7879180  10.1561840
  44.0467160  56.5133410   9.3396180  55.6164850  55.4603400  13.2186170
  54.9117020  55.8485110  12.7001280  55.8822770  56.1553690  13.8207100
  41.7990020  51.9296770  13.7820240  41.8008460  52.4469160  12.9766140
  40.9694330  51.4526950  13.7590170  48.1861110  62.0416080   5.2810140
  47.5678380  62.5065530   4.7172860  48.6984360  62.7343560   5.6979650
  43.0492870  61.5691950  11.9593740  42.7162250  62.1960870  12.6014810
  43.2259550  62.0953830  11.1795410  51.5626780  55.3837030   9.4270080
  50.8582350  55.6721920  10.0073190  51.9238940  56.1937140   9.0669640
  41.4805350  53.6406730  11.7890690  41.8222160  54.4848780  11.4944560
  40.5421160  53.7890470  11.9056030  42.2611970  63.5372750  13.7742920
  42.8785970  64.2123830  13.4927370  41.4005090  63.9460730  13.6830420
  37.5544310  62.7272610   2.6549770  37.1772290  63.2159710   1.9234670
  37.8117380  63.3997890   3.2856300  53.1789560  65.0012160  11.6897560
  52.4953080  65.6711270  11.6814230  53.7183850  65.1992810  10.9242420
  54.6313700  54.8291820   9.8179290  53.6838610  54.8630800   9.9494720
  54.9563690  55.6430770  10.2028650  45.1633240  51.1289000   8.1135280
  45.4708220  50.5735890   7.3970780  44.2333940  51.2633460   7.9308270
  50.7148300  66.8456290  10.4042740  50.7275460  66.4418580   9.5365000
  50.1623520  67.6203580  10.3004170  52.0093720  63.5672510   5.4932910
  51.8990050  62.6246840   5.6182330  52.0061970  63.9288150   6.3795670
  50.1133740  61.7486130  11.7325350  50.5302530  61.5346240  10.8978810
  50.8373560  62.0058920  12.3033970  47.5514000  59.1937830   4.8495400
  46.6243280  59.1275210   5.0783870  47.7038820  60.1317960   4.7350640
  54.0595840  60.1473350  11.8241590  53.2314470  60.2166440  11.3491720
  54.6546320  60.7327660  11.3557420  51.5811290  60.7558130   5.3530650
  50.9623710  60.4177680   4.7056950  51.5635740  60.1117890   6.0609840
  51.0237850  56.9342670  12.7696460  50.6109030  57.7596380  13.0236450
  50.2913800  56.3487710  12.5772820  43.1570640  59.7202570   7.6315130
  42.7527640  59.0079820   7.1361030  43.2433760  59.3755810   8.5203170
  43.6252340  63.4070130   9.7954340  43.3280630  62.8015600   9.1162120
  44.5752160  63.4447440   9.6843700  41.8699260  56.4945780  11.4114170
  42.4213850  56.6041120  10.6367420  42.3842770  56.8683380  12.1269400
  51.7137950  66.9802000  13.4577440  51.2368510  67.7874190  13.2650050
  51.0299740  66.3280330  13.6103650  42.7170770  63.1451820  16.4462140
  41.8199300  63.3691790  16.6935540  42.7423640  63.2686760  15.4973540
  49.7575990  59.9944940   2.3603400  50.1969270  59.1567370   2.2141220
  50.4704410  60.6274340   2.4467540  41.5441990  60.0165140  15.0219510
  41.4049760  60.8887940  15.3906910  40.6623350  59.6737950  14.8767450
  47.8671370  64.9341010   6.3284640  48.3067280  65.6765340   5.9140030
  47.8058260  65.1767580   7.2523600  43.3422340  65.9586840  17.2304660
  43.3137770  66.3629790  16.3633090  43.1787310  65.0297200  17.0676260
  39.8575270  58.6147550   5.1321780  39.7372870  59.3409640   4.5203050
  39.5476160  57.8450460   4.6549690  55.2937160  66.7413940  18.5268830
  55.7696880  67.2196830  19.2057910  55.9144320  66.6731430  17.8014330
  37.4960640  61.7862690  10.9390420  37.5741060  61.9211460   9.9946140
  38.1102320  61.0778580  11.1318540  38.7408270  63.4862880   7.3496600
  38.3336350  63.6277470   6.4950200  39.6321280  63.2023040   7.1467810
  54.6970410  63.9326790  15.6868840  54.8233470  63.6938670  14.7686020
  54.7391790  63.1011330  16.1590920  48.5587150  67.6354790  14.2563650
  49.0731820  67.5462800  15.0586080  47.7156230  67.9814490  14.5491560
  50.5341550  67.9210130   3.6847650  50.3742690  67.6313070   4.5829480
  50.3688260  67.1450260   3.1492880  43.0129930  67.7008660   5.4619270
  42.8372410  66.7844200   5.2487070  42.1585670  68.0595950   5.7017070
  49.8017610  67.0560400   6.3194140  50.2574560  66.2749780   6.6332760
  50.1410130  67.7667220   6.8635320  54.5494420  55.9859250  16.6518580
  53.9338690  56.4938920  16.1234040  54.2290840  55.0857580  16.5944520
  37.5520160  62.8276860  13.4784880  37.7151200  62.3582220  12.6604250
  38.0172610  62.3200420  14.1433720  42.3238930  51.9582620   8.5145450
  41.8807080  52.7392160   8.1829970  42.8823920  52.2812510   9.2216390
  46.6108740  54.8251140  14.1180770  46.1488110  55.0334160  14.9300710
  46.2086850  54.0110490  13.8151440  51.6113250  56.0460090  15.2477430
  50.7606840  55.7465840  15.5686500  51.4515040  56.2902100  14.3361250
  48.7062960  57.5461840  17.3476220  49.0316370  56.7125590  17.0078450
  49.4943290  58.0690360  17.4954550  45.4397750  51.5793320   3.3951280
  44.8151930  51.5753190   4.1204590  45.3527870  50.7124280   2.9987250
  44.3614830  52.5029950  10.3735050  44.6587160  53.4092780  10.2927070
  44.9100390  52.0148730   9.7594620  42.1153150  57.0816190   6.2426700
  41.8894070  56.8653360   7.1473320  41.3345680  57.5144650   5.8972670
  49.3450910  57.0879560   4.8417350  48.7459800  57.8115360   4.6580970
  49.8930520  57.0256340   4.0593800  44.5552360  57.9801770  16.9086970
  44.4595960  57.0396500  16.7587370  45.3984340  58.2016840  16.5135040
  47.9515780  55.7243100   6.8720630  48.3445350  56.0415300   6.0589320
  48.3132630  54.8454980   6.9865150  39.6862900  54.3915440  15.0620750
  39.2926290  55.2390650  15.2693530  38.9981300  53.7541810  15.2529390
  46.2607950  54.4750410  18.1317490  45.5706270  54.2822610  18.7663580
  47.0040250  54.7585050  18.6641790  36.9879950  52.3143900   9.0950830
  36.6993000  52.8846760   9.8075810  37.7325710  51.8348350   9.4582060
  48.5370920  58.3148850  10.9671410  47.8052040  58.8235660  11.3161510
  48.1395260  57.4978830  10.6660190  44.9748310  54.9903050   9.3723900
  44.9784370  54.5493000   8.5228440  45.8699430  55.3120380   9.4795720
  40.8250690  54.8729540   8.3318110  40.4850740  55.3504770   9.0885160
  40.0628010  54.4194660   7.9719210  45.0368460  55.9915130   2.3630660
  45.1581280  55.9501610   3.3116480  44.6516970  56.8539280   2.2077390
  48.9996830  53.7682530  10.3794350  49.0169570  54.2191180  11.2236200
  48.7512410  52.8688170  10.5927790  52.4267580  51.1814710  16.2180730
  52.7513350  50.4504370  16.7438710  52.4624090  50.8628350  15.3161720
  39.1259140  62.2028290  15.6380690  38.7413930  61.5621960  16.2363650
  39.4371330  62.9064410  16.2075420  45.2756280  59.0504830  11.1189310
  45.6426410  58.5763400  11.8650650  45.0861340  59.9246400  11.4597650
  38.1396770  53.7948520   7.2482780  37.8543690  53.4304190   8.0861400
  38.0775630  53.0628980   6.6345920  43.0655650  58.0913470  13.4373520
  42.7612720  58.9705450  13.6623880  44.0202110  58.1513260  13.4730960
  41.5937440  62.2974460   4.0340370  40.8199700  61.7572080   3.8739090
  42.3232070  61.7781070   3.6958130  52.3525420  61.2939820   9.8266760
  53.0724540  61.7895110   9.4362870  52.1507240  60.6157710   9.1820630
  47.8135360  52.6877780   3.9696150  46.9999970  52.1890950   3.8941460
  47.6197310  53.5276030   3.5532500  47.7344220  61.3648880  15.7135760
  47.6681530  60.4444550  15.4593350  47.1049360  61.4624320  16.4280400
  50.5283750  57.0597430   2.2658310  51.4163370  57.3714660   2.0909650
  50.4988840  56.1869680   1.8738890  41.6374840  61.9654840   7.6719180
  42.1553510  61.1623100   7.6176070  41.1858860  61.9033980   8.5136010
  46.5244340  63.2321120   2.9446480  46.8660040  63.9763350   2.4489800
  45.6957050  63.5452240   3.3071310  39.1219380  58.9316210  14.5844880
  38.7634320  59.5970060  15.1718220  38.8273940  58.0999760  14.9557500
  42.3232500  59.3900450  17.4684430  42.0232640  59.5357630  16.5712250
  43.0943740  58.8305740  17.3757820  47.6660950  64.1869450  15.4639560
  47.6805490  63.2550410  15.2458470  46.9586050  64.2729210  16.1029330
  53.8772160  60.8276790  14.8108140  53.1520350  61.4205570  14.6137530
  54.4047620  60.8200330  14.0121510  53.8285270  65.2251530   4.4620300
  53.1861430  64.5707150   4.7364020  53.4415930  65.6306620   3.6860970
  49.4071750  62.5536960   8.3091990  49.7595570  61.9565090   7.6493360
  48.5234080  62.2281190   8.4800240  45.4935030  63.3134650   5.7162400
  46.1806160  63.8603860   6.0969990  44.7067450  63.8575380   5.7512010
  44.7962240  60.3180680   5.3287760  45.2525020  61.1285930   5.5547950
  44.4450450  60.0003820   6.1606250  47.0994850  65.8287020  12.5580060
  47.7437070  66.0346400  13.2353480  47.4624290  65.0675420  12.1050910
  40.6974020  50.6618330   5.8010280  40.5688650  50.6536230   6.7495200
  39.8736040  51.0001420   5.4501290  48.3726930  63.8319370  11.2757510
  49.0149160  63.1312530  11.3889680  48.8976280  64.6117810  11.0954400
  50.1464550  64.6314270  14.4793570  50.4820790  65.2180960  15.1571490
  49.2264890  64.5006980  14.7091360  37.6967950  52.4209450  15.2616980
  36.9826470  52.6206370  15.8669590  38.1162990  51.6449020  15.6331780
  51.7998900  62.0339930   2.6610810  51.5120600  62.4952620   3.4488690
  52.5951070  61.5737700   2.9295030  37.9840540  66.4089710  16.2483510
  38.0931660  65.4684450  16.1078900  37.3321100  66.6744460  15.5997240
  45.9753130  64.6805600  17.6481630  45.6550000  63.9614840  18.1927320
  45.3011490  65.3560670  17.7217690  44.0167300  65.5266050   2.5914780
  44.0077400  66.2595740   1.9759290  43.0965660  65.2797630   2.6841740
  39.6173940  60.7480940   3.3361540  39.0101890  61.4879840   3.3456840
  40.0923290  60.8380300   2.5099740  49.1906730  54.9131760  13.0118430
  49.5587550  54.0926970  13.3398000  48.3304930  54.9733650  13.4274080
  52.5568760  53.8688700   3.8205990  51.9281920  53.9734370   3.1064220
  52.0620680  54.0885480   4.6099870  44.5252790  56.1474650   5.2363870
  43.8168940  56.6160990   5.6777480  44.8097270  55.4896660   5.8709060
  46.1508720  57.5671350  13.2356400  46.6493970  58.0417170  13.9008250
  46.2931670  56.6434870  13.4426430  48.5568220  52.8725310   6.6759660
  48.4336000  52.8911440   5.7269170  49.5052780  52.9204250   6.7958060
  45.6445010  68.1080610   5.9487640  45.8986510  68.0702000   5.0267010
  44.6957490  67.9813940   5.9415890  42.7287810  54.4559730   2.6114580
  43.5778340  54.8929880   2.5454770  42.3619080  54.7679990   3.4386640
  53.3575580  53.7839310  14.0784790  52.8549180  54.5244710  14.4178600
  54.1732240  54.1723310  13.7621580  51.6497590  59.0272490   7.5246150
  50.7087730  59.0422720   7.6993840  51.9641660  58.2408450   7.9706450
  40.3225990  58.1417160   1.7683000  40.4029580  57.1944670   1.8800400
  41.2145740  58.4724040   1.8743660  53.6523170  66.1981340   9.2000410
  53.7770590  67.0212510   9.6724220  54.5188730  65.9872070   8.8524560
  41.1240700  68.2912550   8.8717540  41.8603180  67.7428010   9.1426110
  41.5081620  69.1568560   8.7323530  38.0086180  64.3586120   4.7459050
  37.0825960  64.6007260   4.7364460  38.4742610  65.1860380   4.6243800
  40.1298980  67.4758620  18.0603120  40.9311710  67.7970670  18.4738520
  39.6150800  67.1154200  18.7823030  48.9663610  63.5838490  18.0078530
  48.3601770  63.6070090  17.2674280  48.6617720  62.8521530  18.5445780
  50.3963980  67.3118780  16.6187940  51.3485730  67.2276800  16.5688180
  50.2492200  67.9760490  17.2921730  37.8496790  59.9632080  17.0039170
  38.3535810  59.3839360  17.5755400  37.1104210  60.2472310  17.5415540
  44.9034730  61.3703070  16.5374690  44.1380400  61.9388070  16.4529360
  45.0850690  61.0779280  15.6442920  52.0458080  63.1008400  17.0949710
  52.7867550  63.4384160  16.5917170  51.2830760  63.2700460  16.5419480
  39.8819870  58.1061670  17.8989240  39.9225210  57.8075540  18.8074470
  40.7365370  58.5069280  17.7396760  43.6598260  60.7057220   3.0592750
  44.0814680  60.5397090   3.9024140  43.7849100  59.8957450   2.5647890
  41.8225680  56.6853770  15.8663730  41.2922140  56.1944720  15.2387070
  42.4913750  57.1137970  15.3321660  50.7203740  61.1523230  15.6304920
  51.1344760  61.3068310  16.4795340  49.7854740  61.2778450  15.7930700
  51.1925910  58.4919390  17.6344070  51.7746680  57.7371710  17.5464550
  51.3687680  59.0226830  16.8575550  42.3097980  53.6516140  15.9461020
  42.2154850  53.0336890  15.2211890  41.7295370  54.3782430  15.7190930
  45.0759420  52.2089380  12.9788410  44.6276720  52.2313640  12.1333960
  44.4424620  51.8108400  13.5758710  45.4818970  61.1043710  13.6000850
  45.9007080  61.9476440  13.4277090  44.5627600  61.2415750  13.3707630
  47.8182870  58.8359890  14.9838690  47.9379080  58.2401030  15.7233530
  48.6776870  58.8729580  14.5639990  50.1570770  59.3897080  13.5601200
  49.6305990  59.9139700  12.9566340  50.5002110  60.0224470  14.1910930
  43.3326390  67.4096720  14.7158580  42.7947480  68.1342780  14.3967280
  43.5860350  66.9327060  13.9255920  44.5851640  55.3781240  16.2414510
  45.1751330  55.0697090  16.9292330  43.7671880  54.9060990  16.3974410
  49.4045070  54.9947050  16.4747530  48.7160590  54.3328590  16.4097520
  50.1251090  54.5485320  16.9195990  50.0345470  51.5898680   2.5337790
  50.3147760  50.7466580   2.8897210  49.2611200  51.8221790   3.0476540
  46.1888600  68.6447930  14.9745230  46.1147300  69.5483070  15.2817600
  45.2867440  68.3259830  14.9467300  46.7373930  67.8106440   2.5971590
  47.6324720  68.1491410   2.6190350  46.7691560  67.0885850   1.9695870
  37.5915890  65.9722520   8.2778850  37.9218900  65.1043580   8.0457490
  38.0206890  66.1781040   9.1083810  42.1877810  64.3031530   5.9380820
  41.8873350  64.1796500   6.8384730  42.0815300  63.4440120   5.5296550
  38.0806100  66.8393110  11.0160480  37.6437090  67.0193910  11.8484630
  38.6483780  67.5967730  10.8742200  53.7168280  66.3410110  15.3037790
  53.1170270  66.4002670  14.5601710  53.8462180  65.4015090  15.4334640
  54.4126190  60.8275410   3.1441700  55.1745100  61.3972060   3.2501390
  54.4280560  60.2602610   3.9150010  37.9130530  59.3513340   7.3749360
  37.2579370  59.0824980   6.7309060  38.7508480  59.2417820   6.9251340
  55.4186160  61.6825510   7.9883630  55.7894990  60.8992830   7.5819600
  56.0588090  62.3714610   7.8100930  52.4019920  63.0662090  13.4013950
  51.5879760  63.4959250  13.6639740  52.8094120  63.6780500  12.7883000
  54.3610700  59.0578770   5.2943650  53.9854300  58.2906700   4.8624940
  53.6313820  59.4401470   5.7818580  38.9506460  59.7365910  11.9152700
  39.3179500  59.6493310  12.7948720  38.3817280  58.9732460  11.8159560
  53.7510320  58.2050290  14.9283170  53.5196410  57.9763040  14.0281120
  54.0114870  59.1249840  14.8828060  38.5022460  56.6475000  15.8211120
  37.6078510  56.6141760  16.1604830  39.0420010  56.8461790  16.5862370
  52.1898390  53.4306720  17.7062870  53.0668570  53.4390120  18.0896870
  52.2019230  52.6937560  17.0955220  37.1268610  56.5612270   3.3174690
  36.2232690  56.8242470   3.1426350  37.6109230  56.8323440   2.5374650
  53.6361660  57.2836260   8.5950890  54.1599140  56.7898910   7.9641060
  54.2221080  57.4186620   9.3398460  53.8151380  57.3676130  12.1170440
  52.8654090  57.3339670  12.2315430  53.9964390  58.2776240  11.8820210
  53.1261630  56.5409610   4.5343300  53.6220750  56.3080480   5.3192180
  52.9277700  55.7021450   4.1180940  39.0062170  50.9223330  10.1694340
  39.6538360  50.3720710   9.7289500  39.4264010  51.1766480  10.9910150
  54.5548790  55.1770560   7.0680980  54.4448070  55.0226600   8.0063250
  55.3156380  54.6491500   6.8256390  52.9014510  51.1164690  13.5263980
  53.5386730  51.7298830  13.8923170  53.0489400  51.1525350  12.5813210
  55.5177550  53.7789140   2.9343830  54.7229050  53.7134260   3.4636740
  55.7220830  54.7139780   2.9229180  52.4595970  67.8180690   6.9282220
  53.0555040  67.4965260   6.2516640  52.7174120  67.3452510   7.7195490
  38.7594170  51.0779000  12.9119660  38.4108990  51.5342820  13.6777840
  38.4281870  50.1836130  12.9942090  40.3658540  64.2498600  17.0772850
  40.3228170  63.8791510  17.9587310  40.4969550  65.1876170  17.2174670
  44.0664570  65.8058190  12.6782570  43.8255930  66.0732750  11.7913090
  45.0067210  65.9763920  12.7333430  46.2718990  52.2690880  16.4339080
  46.2107880  52.8612710  17.1834490  47.2119370  52.1616840  16.2889340
  48.9093550  51.9260940  16.0731370  49.5233960  52.2440230  15.4112450
  49.4543110  51.4409530  16.6927230  55.3268730  67.8252570  13.4793210
  54.8327010  68.2221440  12.7620340  54.7182020  67.2001780  13.8730490
  39.4314810  50.6055200  16.1870430  39.9797800  50.4243250  15.4236540
  39.4970120  49.8149310  16.7226740  40.2046570  67.1960850  14.1970630
  39.6106890  67.0645550  14.9360670  40.1970410  66.3598990  13.7312730
  49.6501590  50.4893080  12.4000660  48.7761430  50.8228190  12.1973590
  49.5412340  50.0166260  13.2252530  50.5573570  52.6963950  13.7842380
  50.2286930  51.8815710  13.4044110  51.5055870  52.6533760  13.6608070
  53.0108180  68.4675990  10.7579950  52.5511150  69.2191800  10.3837970
  52.3820640  67.7482460  10.6994750  39.8358800  64.5619230  13.1478670
  39.1092860  63.9424520  13.0804620  39.8967950  64.9559840  12.2776750
  43.4403900  66.7764230   9.9328080  43.9568920  66.1651590   9.4076340
  44.0901280  67.2793010  10.4239090  46.1799400  67.6672720  10.7597060
  46.4677210  67.4127020   9.8830070  46.6922620  67.1150080  11.3502630
  47.3976410  51.4062920  11.3393570  46.6148200  51.8808420  11.6190330
  47.1039340  50.5017750  11.2306750  51.9497480  52.1086020   9.3842660
  52.3905570  52.0531120   8.5364260  51.6805070  53.0244030   9.4552840
  53.8136050  51.7401260   7.3951480  53.7524450  50.7962480   7.2482500
  54.5928080  51.8481350   7.9404940  38.1188800  67.8793620   6.3575430
  37.9510840  67.2464300   7.0557320  37.2523310  68.0853020   6.0069620
  38.7416820  51.7110400   3.8607290  39.4996180  51.8239280   3.2871320
  38.2793990  52.5479600   3.8150720  45.2830630  53.8249670   6.8509600
  44.4705140  53.4506560   6.5105480  45.7872270  53.0694750   7.1530790
  49.7855610  50.4892120   8.0892670  50.3884980  51.0612330   8.5641190
  49.0448600  51.0531560   7.8666570  52.9290210  50.8913680   3.3632950
  53.1240840  51.7897130   3.6300380  52.1420080  50.6600760   3.8565900
  39.7251500  66.5726850   3.8025570  39.1999120  66.9534880   3.0987530
  39.6496080  67.1977620   4.5235280  41.1141970  52.2374450   2.4009260
  41.6434730  51.4504250   2.2717210  41.7470290  52.9165640   2.6344790
  43.3079810  51.9749590   5.4554650  42.6782550  51.2736900   5.6224780
  42.7684950  52.7353720   5.2387810  46.2471760  68.5888820  18.1265260
  47.1739070  68.3533090  18.1701220  46.2322190  69.4160820  17.6451290
  54.4816820  68.1314390   5.1239510  54.6569010  67.4452130   4.4800430
  53.7838390  68.6561440   4.7316180  43.4335370  51.2533570  17.8907140
  43.1519640  51.7567170  17.1267960  43.8155070  50.4555320  17.5249270
  42.3244470  68.5209230   2.6774820  43.0563290  68.2368510   2.1298710
  42.5838140  68.2822510   3.5674200  41.4859260  64.6373960   2.6821150
  40.8568140  65.1059060   3.2306980  41.6007090  63.7923180   3.1167340
  50.0350830  50.6687150  18.4687610  49.9216280  50.9881760  19.3639130
  50.8520570  51.0699660  18.1724890  52.8149320  67.8158680  17.9506300
  53.6074640  67.3207910  17.7432260  53.1082470  68.4948820  18.5581910
  48.9408980  39.9136130  63.9296310  48.8603030  38.9990740  63.6588020
  48.5273400  40.4103200  63.2236020  47.0727020  41.6915150  65.8105580
  46.2969120  41.2115590  66.1004150  47.7239950  41.0120800  65.6361740
  41.0892850  42.0034960  66.6881340  40.2577730  41.7483670  67.0877850
  41.6973830  42.0745730  67.4239260  51.0934450  46.0975340  64.5904710
  50.6315980  45.3262580  64.9191880  51.9060000  46.1241410  65.0957160
  41.0694110  46.0375050  66.8839360  41.3722150  45.1472790  66.7049580
  41.8137700  46.5945270  66.6561610  39.4984800  36.9636850  60.4723730
  38.6101500  37.3052820  60.3703610  39.7825990  36.7637170  59.5804560
  37.4617810  39.5642500  66.3563430  38.0333920  38.7964700  66.3567070
  37.4619350  39.8631260  65.4470040  47.3197760  48.3833350  64.2108700
  46.7009200  48.8390850  63.6403140  48.1749540  48.5384810  63.8098400
  46.5136010  44.3672340  65.8175740  46.4444290  43.4262280  65.6564870
  47.2755870  44.4573750  66.3898310  38.7042680  34.9726860  68.1432360
  38.5245520  34.0752610  68.4235120  38.3022760  35.5198730  68.8179310
  47.5441180  37.1742720  66.0444670  47.9206000  36.3014600  65.9318340
  47.4460690  37.5101420  65.1535110  41.6746190  35.5468350  61.5062110
  41.7812940  36.4472080  61.8130870  40.7638550  35.4986320  61.2156760
  51.3265300  34.6693160  62.9773010  52.1474920  34.1789730  63.0198490
  51.3599380  35.2590820  63.7304850  39.3229350  37.4687360  66.7514700
  40.0039460  37.7325730  67.3702100  39.0077400  36.6288230  67.0852710
  43.5153920  38.5154720  65.8387290  44.0232140  39.0135690  66.4792310
  44.0467160  37.7389920  65.6626650  55.6164850  36.6859910  69.5416640
  54.9117020  37.0741620  69.0231750  55.8822770  37.3810200  70.1437570
  41.7990020  33.1553280  70.1050710  41.8008460  33.6725670  69.2996610
  40.9694330  32.6783460  70.0820640  48.1861110  43.2672590  61.6040610
  47.5678380  43.7322040  61.0403330  48.6984360  43.9600070  62.0210120
  43.0492870  42.7948460  68.2824210  42.7162250  43.4217380  68.9245280
  43.2259550  43.3210340  67.5025880  51.5626780  36.6093540  65.7500550
  50.8582350  36.8978430  66.3303660  51.9238940  37.4193650  65.3900110
  41.4805350  34.8663240  68.1121160  41.8222160  35.7105290  67.8175030
  40.5421160  35.0146980  68.2286500  42.2611970  44.7629260  70.0973390
  42.8785970  45.4380340  69.8157840  41.4005090  45.1717240  70.0060890
  37.5544310  43.9529120  58.9780240  37.1772290  44.4416220  58.2465140
  37.8117380  44.6254400  59.6086770  53.1789560  46.2268670  68.0128030
  52.4953080  46.8967780  68.0044700  53.7183850  46.4249320  67.2472890
  54.6313700  36.0548330  66.1409760  53.6838610  36.0887310  66.2725190
  54.9563690  36.8687280  66.5259120  45.1633240  32.3545510  64.4365750
  45.4708220  31.7992400  63.7201250  44.2333940  32.4889970  64.2538740
  50.7148300  48.0712800  66.7273210  50.7275460  47.6675090  65.8595470
  50.1623520  48.8460090  66.6234640  52.0093720  44.7929020  61.8163380
  51.8990050  43.8503350  61.9412800  52.0061970  45.1544660  62.7026140
  50.1133740  42.9742640  68.0555820  50.5302530  42.7602750  67.2209280
  50.8373560  43.2315430  68.6264440  47.5514000  40.4194340  61.1725870
  46.6243280  40.3531720  61.4014340  47.7038820  41.3574470  61.0581110
  47.5383080  36.6911340  58.1693030  46.5986750  36.8525300  58.2545490
  47.8566340  37.4097020  57.6229020  54.0595840  41.3729860  68.1472060
  53.2314470  41.4422950  67.6722190  54.6546320  41.9584170  67.6787890
  51.5811290  41.9814640  61.6761120  50.9623710  41.6434190  61.0287420
  51.5635740  41.3374400  62.3840310  51.0237850  38.1599180  69.0926930
  50.6109030  38.9852890  69.3466920  50.2913800  37.5744220  68.9003290
  43.1570640  40.9459080  63.9545600  42.7527640  40.2336330  63.4591500
  43.2433760  40.6012320  64.8433640  43.6252340  44.6326640  66.1184810
  43.3280630  44.0272110  65.4392590  44.5752160  44.6703950  66.0074170
  41.8699260  37.7202290  67.7344640  42.4213850  37.8297630  66.9597890
  42.3842770  38.0939890  68.4499870  51.7137950  48.2058510  69.7807910
  51.2368510  49.0130700  69.5880520  51.0299740  47.5536840  69.9334120
  49.7575990  41.2201450  58.6833870  50.1969270  40.3823880  58.5371690
  50.4704410  41.8530850  58.7698010  41.5441990  41.2421650  71.3449980
  41.4049760  42.1144450  71.7137380  40.6623350  40.8994460  71.1997920
  47.8671370  46.1597520  62.6515110  48.3067280  46.9021850  62.2370500
  47.8058260  46.4024090  63.5754070  53.3393130  32.4744260  56.9974910
  53.0265790  32.5671090  57.8973980  54.1005600  33.0525290  56.9472340
  39.8575270  39.8404060  61.4552250  39.7372870  40.5666150  60.8433520
  39.5476160  39.0706970  60.9780160  37.4960640  43.0119200  67.2620890
  37.5741060  43.1467970  66.3176610  38.1102320  42.3035090  67.4549010
  38.7408270  44.7119390  63.6727070  38.3336350  44.8533980  62.8180670
  39.6321280  44.4279550  63.4698280  54.6970410  45.1583300  72.0099310
  54.8233470  44.9195180  71.0916490  54.7391790  44.3267840  72.4821390
  48.5587150  48.8611300  70.5794120  49.0731820  48.7719310  71.3816550
  47.7156230  49.2071000  70.8722030  50.5341550  49.1466640  60.0078120
  50.3742690  48.8569580  60.9059950  50.3688260  48.3706770  59.4723350
  43.0129930  48.9265170  61.7849740  42.8372410  48.0100710  61.5717540
  42.1585670  49.2852460  62.0247540  50.2367680  46.6554200  58.5676120
  49.5432840  46.6531490  57.9078400  50.9790540  46.2313520  58.1370290
  49.8017610  48.2816910  62.6424610  50.2574560  47.5006290  62.9563230
  50.1410130  48.9923730  63.1865790  54.5494420  37.2115760  72.9749050
  53.9338690  37.7195430  72.4464510  54.2290840  36.3114090  72.9174990
  37.5520160  44.0533370  69.8015350  37.7151200  43.5838730  68.9834720
  38.0172610  43.5456930  70.4664190  42.3238930  33.1839130  64.8375920
  41.8807080  33.9648670  64.5060440  42.8823920  33.5069020  65.5446860
  46.6108740  36.0507650  70.4411240  46.1488110  36.2590670  71.2531180
  46.2086850  35.2367000  70.1381910  51.6113250  37.2716600  71.5707900
  50.7606840  36.9722350  71.8916970  51.4515040  37.5158610  70.6591720
  45.4397750  32.8049830  59.7181750  44.8151930  32.8009700  60.4435060
  45.3527870  31.9380790  59.3217720  44.3614830  33.7286460  66.6965520
  44.6587160  34.6349290  66.6157540  44.9100390  33.2405240  66.0825090
  42.1153150  38.3072700  62.5657170  41.8894070  38.0909870  63.4703790
  41.3345680  38.7401160  62.2203140  49.3450910  38.3136070  61.1647820
  48.7459800  39.0371870  60.9811440  49.8930520  38.2512850  60.3824270
  47.9515780  36.9499610  63.1951100  48.3445350  37.2671810  62.3819790
  48.3132630  36.0711490  63.3095620  39.6862900  35.6171950  71.3851220
  39.2926290  36.4647160  71.5924000  38.9981300  34.9798320  71.5759860
  36.9879950  33.5400410  65.4181300  36.6993000  34.1103270  66.1306280
  37.7325710  33.0604860  65.7812530  37.1750180  37.4820530  56.6284020
  37.0924850  38.4251290  56.7699010  36.8233240  37.3395440  55.7496370
  48.5370920  39.5405360  67.2901880  47.8052040  40.0492170  67.6391980
  48.1395260  38.7235340  66.9890660  44.9748310  36.2159560  65.6954370
  44.9784370  35.7749510  64.8458910  45.8699430  36.5376890  65.8026190
  40.8250690  36.0986050  64.6548580  40.4850740  36.5761280  65.4115630
  40.0628010  35.6451170  64.2949680  45.0368460  37.2171640  58.6861130
  45.1581280  37.1758120  59.6346950  44.6516970  38.0795790  58.5307860
  48.9996830  34.9939040  66.7024820  49.0169570  35.4447690  67.5466670
  48.7512410  34.0944680  66.9158260  44.0489960  39.5272780  58.0844430
  43.4806860  39.0791030  57.4580340  44.7578960  39.8865560  57.5509580
  39.1259140  43.4284800  71.9611160  38.7413930  42.7878470  72.5594120
  39.4371330  44.1320920  72.5305890  45.2756280  40.2761340  67.4419780
  45.6426410  39.8019910  68.1881120  45.0861340  41.1502910  67.7828120
  38.1396770  35.0205030  63.5713250  37.8543690  34.6560700  64.4091870
  38.0775630  34.2885490  62.9576390  43.0655650  39.3169980  69.7603990
  42.7612720  40.1961960  69.9854350  44.0202110  39.3769770  69.7961430
  41.5937440  43.5230970  60.3570840  40.8199700  42.9828590  60.1969560
  42.3232070  43.0037580  60.0188600  52.3525420  42.5196330  66.1497230
  53.0724540  43.0151620  65.7593340  52.1507240  41.8414220  65.5051100
  47.8135360  33.9134290  60.2926620  46.9999970  33.4147460  60.2171930
  47.6197310  34.7532540  59.8762970  47.7344220  42.5905390  72.0366230
  47.6681530  41.6701060  71.7823820  47.1049360  42.6880830  72.7510870
  50.5283750  38.2853940  58.5888780  51.4163370  38.5971170  58.4140120
  50.4988840  37.4126190  58.1969360  41.6374840  43.1911350  63.9949650
  42.1553510  42.3879610  63.9406540  41.1858860  43.1290490  64.8366480
  46.5244340  44.4577630  59.2676950  46.8660040  45.2019860  58.7720270
  45.6957050  44.7708750  59.6301780  39.1219380  40.1572720  70.9075350
  38.7634320  40.8226570  71.4948690  38.8273940  39.3256270  71.2787970
  47.6660950  45.4125960  71.7870030  47.6805490  44.4806920  71.5688940
  46.9586050  45.4985720  72.4259800  52.7998020  39.5965780  58.0568640
  52.7161740  40.0280000  57.2065080  53.5192210  40.0564130  58.4895460
  53.8772160  42.0533300  71.1338610  53.1520350  42.6462080  70.9368000
  54.4047620  42.0456840  70.3351980  53.8285270  46.4508040  60.7850770
  53.1861430  45.7963660  61.0594490  53.4415930  46.8563130  60.0091440
  49.4071750  43.7793470  64.6322460  49.7595570  43.1821600  63.9723830
  48.5234080  43.4537700  64.8030710  45.4935030  44.5391160  62.0392870
  46.1806160  45.0860370  62.4200460  44.7067450  45.0831890  62.0742480
  37.6327430  40.1563980  57.5309950  38.5022280  40.4388780  57.8145870
  37.1417750  40.9699850  57.4158760  44.7962240  41.5437190  61.6518230
  45.2525020  42.3542440  61.8778420  44.4450450  41.2260330  62.4836720
  47.0994850  47.0543530  68.8810530  47.7437070  47.2602910  69.5583950
  47.4624290  46.2931930  68.4281380  40.6974020  31.8874840  62.1240750
  40.5688650  31.8792740  63.0725670  39.8736040  32.2257930  61.7731760
  48.3726930  45.0575880  67.5987980  49.0149160  44.3569040  67.7120150
  48.8976280  45.8374320  67.4184870  52.2182650  45.3424500  57.3227120
  51.9920230  44.6254940  57.9151760  51.8278850  45.0936940  56.4848870
  50.1464550  45.8570780  70.8024040  50.4820790  46.4437470  71.4801960
  49.2264890  45.7263490  71.0321830  37.9998680  49.3691360  58.0971580
  38.3596320  49.9680700  57.4428850  37.8591020  49.9151250  58.8706610
  37.6967950  33.6465960  71.5847450  36.9826470  33.8462880  72.1900060
  38.1162990  32.8705530  71.9562250  51.7998900  43.2596440  58.9841280
  51.5120600  43.7209130  59.7719160  52.5951070  42.7994210  59.2525500
  37.9840540  47.6346220  72.5713980  38.0931660  46.6940960  72.4309370
  37.3321100  47.9000970  71.9227710  44.0167300  46.7522560  58.9145250
  44.0077400  47.4852250  58.2989760  43.0965660  46.5054140  59.0072210
  39.6173940  41.9737450  59.6592010  39.0101890  42.7136350  59.6687310
  40.0923290  42.0636810  58.8330210  49.1906730  36.1388270  69.3348900
  49.5587550  35.3183480  69.6628470  48.3304930  36.1990160  69.7504550
  52.5568760  35.0945210  60.1436460  51.9281920  35.1990880  59.4294690
  52.0620680  35.3141990  60.9330340  47.0026900  46.8150800  57.5770440
  47.1038880  46.6114790  56.6472420  46.1028640  46.5609080  57.7818220
  44.5252790  37.3731160  61.5594340  43.8168940  37.8417500  62.0007950
  44.8097270  36.7153170  62.1939530  46.1508720  38.7927860  69.5586870
  46.6493970  39.2673680  70.2238720  46.2931670  37.8691380  69.7656900
  48.5568220  34.0981820  62.9990130  48.4336000  34.1167950  62.0499640
  49.5052780  34.1460760  63.1188530  45.6445010  49.3337120  62.2718110
  45.8986510  49.2958510  61.3497480  44.6957490  49.2070450  62.2646360
  42.7287810  35.6816240  58.9345050  43.5778340  36.1186390  58.8685240
  42.3619080  35.9936500  59.7617110  53.3575580  35.0095820  70.4015260
  52.8549180  35.7501220  70.7409070  54.1732240  35.3979820  70.0852050
  51.6497590  40.2529000  63.8476620  50.7087730  40.2679230  64.0224310
  51.9641660  39.4664960  64.2936920  41.6279230  41.9348600  57.4080580
  42.3942500  41.8229960  57.9706010  41.7053920  41.2386570  56.7557350
  40.3225990  39.3673670  58.0913470  40.4029580  38.4201180  58.2030870
  41.2145740  39.6980550  58.1974130  53.6523170  47.4237850  65.5230880
  53.7770590  48.2469020  65.9954690  54.5188730  47.2128580  65.1755030
  41.1240700  49.5169060  65.1948010  41.8603180  48.9684520  65.4656580
  41.5081620  50.3825070  65.0554000  38.0086180  45.5842630  61.0689520
  37.0825960  45.8263770  61.0594930  38.4742610  46.4116890  60.9474270
  44.2343010  48.6899370  57.0173580  45.0271620  48.9788200  56.5655370
  43.7147360  48.2591540  56.3386060  53.2873180  47.9169500  58.4410320
  53.0014690  47.5034640  57.6264500  53.0892730  48.8457210  58.3210840
  44.7520410  43.9102780  56.8815930  44.6471050  43.2955130  57.6077310
  44.5844630  43.3868670  56.0978940  44.9034730  42.5959580  72.8605160
  44.1380400  43.1644580  72.7759830  45.0850690  42.3035790  71.9673390
  47.9923140  42.9722810  57.4857920  47.4433240  43.4192110  58.1300660
  48.6142400  42.4672060  58.0095590  43.6598260  41.9313730  59.3823220
  44.0814680  41.7653600  60.2254610  43.7849100  41.1213960  58.8878360
  41.8225680  37.9110280  72.1894200  41.2922140  37.4201230  71.5617540
  42.4913750  38.3394480  71.6552130  46.1725900  40.9551340  56.6300320
  46.6931560  40.2400360  56.2641470  46.8194300  41.5937210  56.9300830
  50.7203740  42.3779740  71.9535390  51.1344760  42.5324820  72.8025810
  49.7854740  42.5034960  72.1161170  42.3097980  34.8772650  72.2691490
  42.2154850  34.2593400  71.5442360  41.7295370  35.6038940  72.0421400
  45.0759420  33.4345890  69.3018880  44.6276720  33.4570150  68.4564430
  44.4424620  33.0364910  69.8989180  45.4818970  42.3300220  69.9231320
  45.9007080  43.1732950  69.7507560  44.5627600  42.4672260  69.6938100
  47.8182870  40.0616400  71.3069160  47.9379080  39.4657540  72.0464000
  48.6776870  40.0986090  70.8870460  50.1570770  40.6153590  69.8831670
  49.6305990  41.1396210  69.2796810  50.5002110  41.2480980  70.5141400
  42.5557160  38.0046960  56.3281380  42.3546220  37.1414320  56.6894720
  42.3849210  37.9180320  55.3902980  43.3326390  48.6353230  71.0389050
  42.7947480  49.3599290  70.7197750  43.5860350  48.1583570  70.2486390
  50.0345470  32.8155190  58.8568260  50.3147760  31.9723090  59.2127680
  49.2611200  33.0478300  59.3707010  41.3539960  35.1047580  56.3159260
  41.6565860  35.1115010  55.4078410  42.0934550  34.7545440  56.8126920
  46.1888600  49.8704440  71.2975700  46.1147300  50.7739580  71.6048070
  45.2867440  49.5516340  71.2697770  44.5724890  34.0482200  57.3015460
  44.2246890  33.3706190  56.7217910  44.7737660  33.5871710  58.1158850
  46.7373930  49.0362950  58.9202060  47.6324720  49.3747920  58.9420820
  46.7691560  48.3142360  58.2926340  40.3770090  44.4090000  57.1489060
  40.8144960  44.9519670  57.8046640  40.8617820  43.5836950  57.1585400
  37.5915890  47.1979030  64.6009320  37.9218900  46.3300090  64.3687960
  38.0206890  47.4037550  65.4314280  42.1877810  45.5288040  62.2611290
  41.8873350  45.4053010  63.1615200  42.0815300  44.6696630  61.8527020
  38.0806100  48.0649620  67.3390950  37.6437090  48.2450420  68.1715100
  38.6483780  48.8224240  67.1972670  53.7168280  47.5666620  71.6268260
  53.1170270  47.6259180  70.8832180  53.8462180  46.6271600  71.7565110
  54.9569730  45.3084440  56.9637970  54.1262690  45.3761090  57.4345200
  55.1341560  46.1988560  56.6604830  54.4126190  42.0531920  59.4672170
  55.1745100  42.6228570  59.5731860  54.4280560  41.4859120  60.2380480
  37.9130530  40.5769850  63.6979830  37.2579370  40.3081490  63.0539530
  38.7508480  40.4674330  63.2481810  55.4186160  42.9082020  64.3114100
  55.7894990  42.1249340  63.9050070  56.0588090  43.5971120  64.1331400
  52.4019920  44.2918600  69.7244420  51.5879760  44.7215760  69.9870210
  52.8094120  44.9037010  69.1113470  54.4645360  42.3466290  56.6244690
  54.7394200  43.2545170  56.4963910  54.2756100  42.2828820  57.5606680
  50.8620970  35.3711140  57.9198320  51.2805850  35.1842120  57.0794980
  50.5557030  34.5190190  58.2301250  54.3610700  40.2835280  61.6174120
  53.9854300  39.5163210  61.1855410  53.6313820  40.6657980  62.1049050
  38.9506460  40.9622420  68.2383170  39.3179500  40.8749820  69.1179190
  38.3817280  40.1988970  68.1390030  53.7510320  39.4306800  71.2513640
  53.5196410  39.2019550  70.3511590  54.0114870  40.3506350  71.2058530
  38.5022460  37.8731510  72.1441590  37.6078510  37.8398270  72.4835300
  39.0420010  38.0718300  72.9092840  37.1268610  37.7868780  59.6405160
  36.2232690  38.0498980  59.4656820  37.6109230  38.0579950  58.8605120
  53.6361660  38.5092770  64.9181360  54.1599140  38.0155420  64.2871530
  54.2221080  38.6443130  65.6628930  53.8151380  38.5932640  68.4400910
  52.8654090  38.5596180  68.5545900  53.9964390  39.5032750  68.2050680
  39.6695820  36.8434320  57.5499540  40.3787520  36.4217540  57.0646820
  38.9535760  36.9109550  56.9182890  39.3169980  32.8973650  56.5902190
  40.0398110  33.4382590  56.9083410  39.5894500  32.6237070  55.7143730
  53.1261630  37.7666120  60.8573770  53.6220750  37.5336990  61.6422650
  52.9277700  36.9277960  60.4411410  39.0062170  32.1479840  66.4924810
  39.6538360  31.5977220  66.0519970  39.4264010  32.4022990  67.3140620
  54.5548790  36.4027070  63.3911450  54.4448070  36.2483110  64.3293720
  55.3156380  35.8748010  63.1486860  52.9014510  32.3421200  69.8494450
  53.5386730  32.9555340  70.2153640  53.0489400  32.3781860  68.9043680
  55.4439060  34.2334990  56.6317590  56.3688370  34.1016170  56.4235880
  55.4214850  34.3127810  57.5854040  55.5177550  35.0045650  59.2574300
  54.7229050  34.9390770  59.7867210  55.7220830  35.9396290  59.2459650
  52.4595970  49.0437200  63.2512690  53.0555040  48.7221770  62.5747110
  52.7174120  48.5709020  64.0425960  38.7594170  32.3035510  69.2350130
  38.4108990  32.7599330  70.0008310  38.4281870  31.4092640  69.3172560
  44.0664570  47.0314700  69.0013040  43.8255930  47.2989260  68.1143560
  45.0067210  47.2020430  69.0563900  55.3268730  49.0509080  69.8023680
  54.8327010  49.4477950  69.0850810  54.7182020  48.4258290  70.1960960
  40.2046570  48.4217360  70.5201100  39.6106890  48.2902060  71.2591140
  40.1970410  47.5855500  70.0543200  49.6501590  31.7149590  68.7231130
  48.7761430  32.0484700  68.5204060  49.5412340  31.2422770  69.5483000
  50.5573570  33.9220460  70.1072850  50.2286930  33.1072220  69.7274580
  51.5055870  33.8790270  69.9838540  53.0108180  49.6932500  67.0810420
  52.5511150  50.4448310  66.7068440  52.3820640  48.9738970  67.0225220
  39.8358800  45.7875740  69.4709140  39.1092860  45.1681030  69.4035090
  39.8967950  46.1816350  68.6007220  43.4403900  48.0020740  66.2558550
  43.9568920  47.3908100  65.7306810  44.0901280  48.5049520  66.7469560
  46.1799400  48.8929230  67.0827530  46.4677210  48.6383530  66.2060540
  46.6922620  48.3406590  67.6733100  47.3976410  32.6319430  67.6624040
  46.6148200  33.1064930  67.9420800  47.1039340  31.7274260  67.5537220
  51.9497480  33.3342530  65.7073130  52.3905570  33.2787630  64.8594730
  51.6805070  34.2500540  65.7783310  53.8136050  32.9657770  63.7181950
  53.7524450  32.0218990  63.5712970  54.5928080  33.0737860  64.2635410
  38.1188800  49.1050130  62.6805900  37.9510840  48.4720810  63.3787790
  37.2523310  49.3109530  62.3300090  38.7416820  32.9366910  60.1837760
  39.4996180  33.0495790  59.6101790  38.2793990  33.7736110  60.1381190
  45.2830630  35.0506180  63.1740070  44.4705140  34.6763070  62.8335950
  45.7872270  34.2951260  63.4761260  49.7855610  31.7148630  64.4123140
  50.3884980  32.2868840  64.8871660  49.0448600  32.2788070  64.1897040
  52.9290210  32.1170190  59.6863420  53.1240840  33.0153640  59.9530850
  52.1420080  31.8857270  60.1796370  39.7251500  47.7983360  60.1256040
  39.1999120  48.1791390  59.4218000  39.6496080  48.4234130  60.8465750
  41.1141970  33.4630960  58.7239730  41.6434730  32.6760760  58.5947680
  41.7470290  34.1422150  58.9575260  43.3079810  33.2006100  61.7785120
  42.6782550  32.4993410  61.9455250  42.7684950  33.9610230  61.5618280
  54.4816820  49.3570900  61.4469980  54.6569010  48.6708640  60.8030900
  53.7838390  49.8817950  61.0546650  42.3244470  49.7465740  59.0005290
  43.0563290  49.4625020  58.4529180  42.5838140  49.5079020  59.8904670
  41.4859260  45.8630470  59.0051620  40.8568140  46.3315570  59.5537450
  41.6007090  45.0179690  59.4397810  55.6164850  36.6859910  50.7673150
  54.9117020  37.0741620  50.2488260  55.8822770  37.3810200  51.3694080
  41.7990020  33.1553280  51.3307220  41.8008460  33.6725670  50.5253120
  40.9694330  32.6783460  51.3077150  42.2611970  44.7629260  51.3229900
  42.8785970  45.4380340  51.0414350  41.4005090  45.1717240  51.2317400
  53.1789560  46.2268670  49.2384540  52.4953080  46.8967780  49.2301210
  53.7183850  46.4249320  48.4729400  54.6313700  36.0548330  47.3666270
  53.6838610  36.0887310  47.4981700  54.9563690  36.8687280  47.7515630
  50.1133740  42.9742640  49.2812330  50.5302530  42.7602750  48.4465790
  50.8373560  43.2315430  49.8520950  54.0595840  41.3729860  49.3728570
  53.2314470  41.4422950  48.8978700  54.6546320  41.9584170  48.9044400
  51.5811290  41.9814640  42.9017630  50.9623710  41.6434190  42.2543930
  51.5635740  41.3374400  43.6096820  51.0237850  38.1599180  50.3183440
  50.6109030  38.9852890  50.5723430  50.2913800  37.5744220  50.1259800
  41.8699260  37.7202290  48.9601150  42.4213850  37.8297630  48.1854400
  42.3842770  38.0939890  49.6756380  51.7137950  48.2058510  51.0064420
  51.2368510  49.0130700  50.8137030  51.0299740  47.5536840  51.1590630
  42.7170770  44.3708330  53.9949120  41.8199300  44.5948300  54.2422520
  42.7423640  44.4943270  53.0460520  41.5441990  41.2421650  52.5706490
  41.4049760  42.1144450  52.9393890  40.6623350  40.8994460  52.4254430
  43.3422340  47.1843350  54.7791640  43.3137770  47.5886300  53.9120070
  43.1787310  46.2553710  54.6163240  53.3393130  32.4744260  38.2231420
  53.0265790  32.5671090  39.1230490  54.1005600  33.0525290  38.1728850
  55.2937160  47.9670450  56.0755810  55.7696880  48.4453340  56.7544890
  55.9144320  47.8987940  55.3501310  54.6970410  45.1583300  53.2355820
  54.8233470  44.9195180  52.3173000  54.7391790  44.3267840  53.7077900
  48.5587150  48.8611300  51.8050630  49.0731820  48.7719310  52.6073060
  47.7156230  49.2071000  52.0978540  54.5494420  37.2115760  54.2005560
  53.9338690  37.7195430  53.6721020  54.2290840  36.3114090  54.1431500
  37.5520160  44.0533370  51.0271860  37.7151200  43.5838730  50.2091230
  38.0172610  43.5456930  51.6920700  46.6108740  36.0507650  51.6667750
  46.1488110  36.2590670  52.4787690  46.2086850  35.2367000  51.3638420
  51.6113250  37.2716600  52.7964410  50.7606840  36.9722350  53.1173480
  51.4515040  37.5158610  51.8848230  48.7062960  38.7718350  54.8963200
  49.0316370  37.9382100  54.5565430  49.4943290  39.2946870  55.0441530
  44.5552360  39.2058280  54.4573950  44.4595960  38.2653010  54.3074350
  45.3984340  39.4273350  54.0622020  39.6862900  35.6171950  52.6107730
  39.2926290  36.4647160  52.8180510  38.9981300  34.9798320  52.8016370
  46.2607950  35.7006920  55.6804470  45.5706270  35.5079120  56.3150560
  47.0040250  35.9841560  56.2128770  52.4267580  32.4071220  53.7667710
  52.7513350  31.6760880  54.2925690  52.4624090  32.0884860  52.8648700
  39.1259140  43.4284800  53.1867670  38.7413930  42.7878470  53.7850630
  39.4371330  44.1320920  53.7562400  43.0655650  39.3169980  50.9860500
  42.7612720  40.1961960  51.2110860  44.0202110  39.3769770  51.0217940
  52.3525420  42.5196330  47.3753740  53.0724540  43.0151620  46.9849850
  52.1507240  41.8414220  46.7307610  47.7344220  42.5905390  53.2622740
  47.6681530  41.6701060  53.0080330  47.1049360  42.6880830  53.9767380
  39.1219380  40.1572720  52.1331860  38.7634320  40.8226570  52.7205200
  38.8273940  39.3256270  52.5044480  42.3232500  40.6156960  55.0171410
  42.0232640  40.7614140  54.1199230  43.0943740  40.0562250  54.9244800
  47.6660950  45.4125960  53.0126540  47.6805490  44.4806920  52.7945450
  46.9586050  45.4985720  53.6516310  52.7998020  39.5965780  39.2825150
  52.7161740  40.0280000  38.4321590  53.5192210  40.0564130  39.7151970
  53.8772160  42.0533300  52.3595120  53.1520350  42.6462080  52.1624510
  54.4047620  42.0456840  51.5608490  53.8285270  46.4508040  42.0107280
  53.1861430  45.7963660  42.2851000  53.4415930  46.8563130  41.2347950
  47.0994850  47.0543530  50.1067040  47.7437070  47.2602910  50.7840460
  47.4624290  46.2931930  49.6537890  50.1464550  45.8570780  52.0280550
  50.4820790  46.4437470  52.7058470  49.2264890  45.7263490  52.2578340
  37.6967950  33.6465960  52.8103960  36.9826470  33.8462880  53.4156570
  38.1162990  32.8705530  53.1818760  51.7998900  43.2596440  40.2097790
  51.5120600  43.7209130  40.9975670  52.5951070  42.7994210  40.4782010
  37.9840540  47.6346220  53.7970490  38.0931660  46.6940960  53.6565880
  37.3321100  47.9000970  53.1484220  45.9753130  45.9062110  55.1968610
  45.6550000  45.1871350  55.7414300  45.3011490  46.5817180  55.2704670
  49.1906730  36.1388270  50.5605410  49.5587550  35.3183480  50.8884980
  48.3304930  36.1990160  50.9761060  46.1508720  38.7927860  50.7843380
  46.6493970  39.2673680  51.4495230  46.2931670  37.8691380  50.9913410
  53.3575580  35.0095820  51.6271770  52.8549180  35.7501220  51.9665580
  54.1732240  35.3979820  51.3108560  40.1298980  48.7015130  55.6090100
  40.9311710  49.0227180  56.0225500  39.6150800  48.3410710  56.3310010
  48.9663610  44.8095000  55.5565510  48.3601770  44.8326600  54.8161260
  48.6617720  44.0778040  56.0932760  50.3963980  48.5375290  54.1674920
  51.3485730  48.4533310  54.1175160  50.2492200  49.2017000  54.8408710
  53.2873180  47.9169500  39.6666830  53.0014690  47.5034640  38.8521010
  53.0892730  48.8457210  39.5467350  37.8496790  41.1888590  54.5526150
  38.3535810  40.6095870  55.1242380  37.1104210  41.4728820  55.0902520
  44.9034730  42.5959580  54.0861670  44.1380400  43.1644580  54.0016340
  45.0850690  42.3035790  53.1929900  52.0458080  44.3264910  54.6436690
  52.7867550  44.6640670  54.1404150  51.2830760  44.4956970  54.0906460
  39.8819870  39.3318180  55.4476220  39.9225210  39.0332050  56.3561450
  40.7365370  39.7325790  55.2883740  41.8225680  37.9110280  53.4150710
  41.2922140  37.4201230  52.7874050  42.4913750  38.3394480  52.8808640
  50.7203740  42.3779740  53.1791900  51.1344760  42.5324820  54.0282320
  49.7854740  42.5034960  53.3417680  51.1925910  39.7175900  55.1831050
  51.7746680  38.9628220  55.0951530  51.3687680  40.2483340  54.4062530
  42.3097980  34.8772650  53.4948000  42.2154850  34.2593400  52.7698870
  41.7295370  35.6038940  53.2677910  45.0759420  33.4345890  50.5275390
  44.6276720  33.4570150  49.6820940  44.4424620  33.0364910  51.1245690
  45.4818970  42.3300220  51.1487830  45.9007080  43.1732950  50.9764070
  44.5627600  42.4672260  50.9194610  47.8182870  40.0616400  52.5325670
  47.9379080  39.4657540  53.2720510  48.6776870  40.0986090  52.1126970
  50.1570770  40.6153590  51.1088180  49.6305990  41.1396210  50.5053320
  50.5002110  41.2480980  51.7397910  43.3326390  48.6353230  52.2645560
  42.7947480  49.3599290  51.9454260  43.5860350  48.1583570  51.4742900
  44.5851640  36.6037750  53.7901490  45.1751330  36.2953600  54.4779310
  43.7671880  36.1317500  53.9461390  49.4045070  36.2203560  54.0234510
  48.7160590  35.5585100  53.9584500  50.1251090  35.7741830  54.4682970
  46.1888600  49.8704440  52.5232210  46.1147300  50.7739580  52.8304580
  45.2867440  49.5516340  52.4954280  53.7168280  47.5666620  52.8524770
  53.1170270  47.6259180  52.1088690  53.8462180  46.6271600  52.9821620
  54.9569730  45.3084440  38.1894480  54.1262690  45.3761090  38.6601710
  55.1341560  46.1988560  37.8861340  54.4126190  42.0531920  40.6928680
  55.1745100  42.6228570  40.7988370  54.4280560  41.4859120  41.4636990
  55.4186160  42.9082020  45.5370610  55.7894990  42.1249340  45.1306580
  56.0588090  43.5971120  45.3587910  52.4019920  44.2918600  50.9500930
  51.5879760  44.7215760  51.2126720  52.8094120  44.9037010  50.3369980
  54.4645360  42.3466290  37.8501200  54.7394200  43.2545170  37.7220420
  54.2756100  42.2828820  38.7863190  50.8620970  35.3711140  39.1454830
  51.2805850  35.1842120  38.3051490  50.5557030  34.5190190  39.4557760
  54.3610700  40.2835280  42.8430630  53.9854300  39.5163210  42.4111920
  53.6313820  40.6657980  43.3305560  53.7510320  39.4306800  52.4770150
  53.5196410  39.2019550  51.5768100  54.0114870  40.3506350  52.4315040
  38.5022460  37.8731510  53.3698100  37.6078510  37.8398270  53.7091810
  39.0420010  38.0718300  54.1349350  52.1898390  34.6563230  55.2549850
  53.0668570  34.6646630  55.6383850  52.2019230  33.9194070  54.6442200
  53.6361660  38.5092770  46.1437870  54.1599140  38.0155420  45.5128040
  54.2221080  38.6443130  46.8885440  53.8151380  38.5932640  49.6657420
  52.8654090  38.5596180  49.7802410  53.9964390  39.5032750  49.4307190
  53.1261630  37.7666120  42.0830280  53.6220750  37.5336990  42.8679160
  52.9277700  36.9277960  41.6667920  54.5548790  36.4027070  44.6167960
  54.4448070  36.2483110  45.5550230  55.3156380  35.8748010  44.3743370
  52.9014510  32.3421200  51.0750960  53.5386730  32.9555340  51.4410150
  53.0489400  32.3781860  50.1300190  55.4439060  34.2334990  37.8574100
  56.3688370  34.1016170  37.6492390  55.4214850  34.3127810  38.8110550
  55.5177550  35.0045650  40.4830810  54.7229050  34.9390770  41.0123720
  55.7220830  35.9396290  40.4716160  38.7594170  32.3035510  50.4606640
  38.4108990  32.7599330  51.2264820  38.4281870  31.4092640  50.5429070
  40.3658540  45.4755110  54.6259830  40.3228170  45.1048020  55.5074290
  40.4969550  46.4132680  54.7661650  44.0664570  47.0314700  50.2269550
  43.8255930  47.2989260  49.3400070  45.0067210  47.2020430  50.2820410
  46.2718990  33.4947390  53.9826060  46.2107880  34.0869220  54.7321470
  47.2119370  33.3873350  53.8376320  48.9093550  33.1517450  53.6218350
  49.5233960  33.4696740  52.9599430  49.4543110  32.6666040  54.2414210
  55.3268730  49.0509080  51.0280190  54.8327010  49.4477950  50.3107320
  54.7182020  48.4258290  51.4217470  39.4314810  31.8311710  53.7357410
  39.9797800  31.6499760  52.9723520  39.4970120  31.0405820  54.2713720
  40.2046570  48.4217360  51.7457610  39.6106890  48.2902060  52.4847650
  40.1970410  47.5855500  51.2799710  49.6501590  31.7149590  49.9487640
  48.7761430  32.0484700  49.7460570  49.5412340  31.2422770  50.7739510
  50.5573570  33.9220460  51.3329360  50.2286930  33.1072220  50.9531090
  51.5055870  33.8790270  51.2095050  39.8358800  45.7875740  50.6965650
  39.1092860  45.1681030  50.6291600  39.8967950  46.1816350  49.8263730
  46.2471760  49.8145330  55.6752240  47.1739070  49.5789600  55.7188200
  46.2322190  50.6417330  55.1938270  54.4816820  49.3570900  42.6726490
  54.6569010  48.6708640  42.0287410  53.7838390  49.8817950  42.2803160
  43.4335370  32.4790080  55.4394120  43.1519640  32.9823680  54.6754940
  43.8155070  31.6811830  55.0736250  50.0350830  31.8943660  56.0174590
  49.9216280  32.2138270  56.9126110  50.8520570  32.2956170  55.7211870
  52.8149320  49.0415190  55.4993280  53.6074640  48.5464420  55.2919240
  53.1082470  49.7205330  56.1068890  51.3265300  34.6693160  25.4286030
  52.1474920  34.1789730  25.4711510  51.3599380  35.2590820  26.1817870
  55.6164850  36.6859910  31.9929660  54.9117020  37.0741620  31.4744770
  55.8822770  37.3810200  32.5950590  48.1861110  43.2672590  24.0553630
  47.5678380  43.7322040  23.4916350  48.6984360  43.9600070  24.4723140
  51.5626780  36.6093540  28.2013570  50.8582350  36.8978430  28.7816680
  51.9238940  37.4193650  27.8413130  37.5544310  43.9529120  21.4293260
  37.1772290  44.4416220  20.6978160  37.8117380  44.6254400  22.0599790
  53.1789560  46.2268670  30.4641050  52.4953080  46.8967780  30.4557720
  53.7183850  46.4249320  29.6985910  54.6313700  36.0548330  28.5922780
  53.6838610  36.0887310  28.7238210  54.9563690  36.8687280  28.9772140
  52.0093720  44.7929020  24.2676400  51.8990050  43.8503350  24.3925820
  52.0061970  45.1544660  25.1539160  50.1133740  42.9742640  30.5068840
  50.5302530  42.7602750  29.6722300  50.8373560  43.2315430  31.0777460
  47.5514000  40.4194340  23.6238890  46.6243280  40.3531720  23.8527360
  47.7038820  41.3574470  23.5094130  47.5383080  36.6911340  20.6206050
  46.5986750  36.8525300  20.7058510  47.8566340  37.4097020  20.0742040
  54.0595840  41.3729860  30.5985080  53.2314470  41.4422950  30.1235210
  54.6546320  41.9584170  30.1300910  51.5811290  41.9814640  24.1274140
  50.9623710  41.6434190  23.4800440  51.5635740  41.3374400  24.8353330
  51.0237850  38.1599180  31.5439950  50.6109030  38.9852890  31.7979940
  50.2913800  37.5744220  31.3516310  49.7575990  41.2201450  21.1346890
  50.1969270  40.3823880  20.9884710  50.4704410  41.8530850  21.2211030
  53.3393130  32.4744260  19.4487930  53.0265790  32.5671090  20.3487000
  54.1005600  33.0525290  19.3985360  55.2937160  47.9670450  37.3012320
  55.7696880  48.4453340  37.9801400  55.9144320  47.8987940  36.5757820
  54.6970410  45.1583300  34.4612330  54.8233470  44.9195180  33.5429510
  54.7391790  44.3267840  34.9334410  50.5341550  49.1466640  22.4591140
  50.3742690  48.8569580  23.3572970  50.3688260  48.3706770  21.9236370
  50.2367680  46.6554200  21.0189140  49.5432840  46.6531490  20.3591420
  50.9790540  46.2313520  20.5883310  54.5494420  37.2115760  35.4262070
  53.9338690  37.7195430  34.8977530  54.2290840  36.3114090  35.3688010
  51.6113250  37.2716600  34.0220920  50.7606840  36.9722350  34.3429990
  51.4515040  37.5158610  33.1104740  45.4397750  32.8049830  22.1694770
  44.8151930  32.8009700  22.8948080  45.3527870  31.9380790  21.7730740
  49.3450910  38.3136070  23.6160840  48.7459800  39.0371870  23.4324460
  49.8930520  38.2512850  22.8337290  37.1750180  37.4820530  19.0797040
  37.0924850  38.4251290  19.2212030  36.8233240  37.3395440  18.2009390
  45.0368460  37.2171640  21.1374150  45.1581280  37.1758120  22.0859970
  44.6516970  38.0795790  20.9820880  44.0489960  39.5272780  20.5357450
  43.4806860  39.0791030  19.9093360  44.7578960  39.8865560  20.0022600
  41.5937440  43.5230970  22.8083860  40.8199700  42.9828590  22.6482580
  42.3232070  43.0037580  22.4701620  52.3525420  42.5196330  28.6010250
  53.0724540  43.0151620  28.2106360  52.1507240  41.8414220  27.9564120
  47.8135360  33.9134290  22.7439640  46.9999970  33.4147460  22.6684950
  47.6197310  34.7532540  22.3275990  50.5283750  38.2853940  21.0401800
  51.4163370  38.5971170  20.8653140  50.4988840  37.4126190  20.6482380
  46.5244340  44.4577630  21.7189970  46.8660040  45.2019860  21.2233290
  45.6957050  44.7708750  22.0814800  52.7998020  39.5965780  20.5081660
  52.7161740  40.0280000  19.6578100  53.5192210  40.0564130  20.9408480
  53.8772160  42.0533300  33.5851630  53.1520350  42.6462080  33.3881020
  54.4047620  42.0456840  32.7865000  53.8285270  46.4508040  23.2363790
  53.1861430  45.7963660  23.5107510  53.4415930  46.8563130  22.4604460
  49.4071750  43.7793470  27.0835480  49.7595570  43.1821600  26.4236850
  48.5234080  43.4537700  27.2543730  37.6327430  40.1563980  19.9822970
  38.5022280  40.4388780  20.2658890  37.1417750  40.9699850  19.8671780
  52.2182650  45.3424500  19.7740140  51.9920230  44.6254940  20.3664780
  51.8278850  45.0936940  18.9361890  37.9998680  49.3691360  20.5484600
  38.3596320  49.9680700  19.8941870  37.8591020  49.9151250  21.3219630
  51.7998900  43.2596440  21.4354300  51.5120600  43.7209130  22.2232180
  52.5951070  42.7994210  21.7038520  44.0167300  46.7522560  21.3658270
  44.0077400  47.4852250  20.7502780  43.0965660  46.5054140  21.4585230
  39.6173940  41.9737450  22.1105030  39.0101890  42.7136350  22.1200330
  40.0923290  42.0636810  21.2843230  52.5568760  35.0945210  22.5949480
  51.9281920  35.1990880  21.8807710  52.0620680  35.3141990  23.3843360
  47.0026900  46.8150800  20.0283460  47.1038880  46.6114790  19.0985440
  46.1028640  46.5609080  20.2331240  42.7287810  35.6816240  21.3858070
  43.5778340  36.1186390  21.3198260  42.3619080  35.9936500  22.2130130
  53.3575580  35.0095820  32.8528280  52.8549180  35.7501220  33.1922090
  54.1732240  35.3979820  32.5365070  51.6497590  40.2529000  26.2989640
  50.7087730  40.2679230  26.4737330  51.9641660  39.4664960  26.7449940
  41.6279230  41.9348600  19.8593600  42.3942500  41.8229960  20.4219030
  41.7053920  41.2386570  19.2070370  40.3225990  39.3673670  20.5426490
  40.4029580  38.4201180  20.6543890  41.2145740  39.6980550  20.6487150
  53.6523170  47.4237850  27.9743900  53.7770590  48.2469020  28.4467710
  54.5188730  47.2128580  27.6268050  38.0086180  45.5842630  23.5202540
  37.0825960  45.8263770  23.5107950  38.4742610  46.4116890  23.3987290
  44.2343010  48.6899370  19.4686600  45.0271620  48.9788200  19.0168390
  43.7147360  48.2591540  18.7899080  53.2873180  47.9169500  20.8923340
  53.0014690  47.5034640  20.0777520  53.0892730  48.8457210  20.7723860
  44.7520410  43.9102780  19.3328950  44.6471050  43.2955130  20.0590330
  44.5844630  43.3868670  18.5491960  47.9923140  42.9722810  19.9370940
  47.4433240  43.4192110  20.5813680  48.6142400  42.4672060  20.4608610
  52.0458080  44.3264910  35.8693200  52.7867550  44.6640670  35.3660660
  51.2830760  44.4956970  35.3162970  43.6598260  41.9313730  21.8336240
  44.0814680  41.7653600  22.6767630  43.7849100  41.1213960  21.3391380
  46.1725900  40.9551340  19.0813340  46.6931560  40.2400360  18.7154490
  46.8194300  41.5937210  19.3813850  50.7203740  42.3779740  34.4048410
  51.1344760  42.5324820  35.2538830  49.7854740  42.5034960  34.5674190
  51.1925910  39.7175900  36.4087560  51.7746680  38.9628220  36.3208040
  51.3687680  40.2483340  35.6319040  50.1570770  40.6153590  32.3344690
  49.6305990  41.1396210  31.7309830  50.5002110  41.2480980  32.9654420
  42.5557160  38.0046960  18.7794400  42.3546220  37.1414320  19.1407740
  42.3849210  37.9180320  17.8416000  50.0345470  32.8155190  21.3081280
  50.3147760  31.9723090  21.6640700  49.2611200  33.0478300  21.8220030
  41.3539960  35.1047580  18.7672280  41.6565860  35.1115010  17.8591430
  42.0934550  34.7545440  19.2639940  44.5724890  34.0482200  19.7528480
  44.2246890  33.3706190  19.1730930  44.7737660  33.5871710  20.5671870
  46.7373930  49.0362950  21.3715080  47.6324720  49.3747920  21.3933840
  46.7691560  48.3142360  20.7439360  40.3770090  44.4090000  19.6002080
  40.8144960  44.9519670  20.2559660  40.8617820  43.5836950  19.6098420
  53.7168280  47.5666620  34.0781280  53.1170270  47.6259180  33.3345200
  53.8462180  46.6271600  34.2078130  54.9569730  45.3084440  19.4150990
  54.1262690  45.3761090  19.8858220  55.1341560  46.1988560  19.1117850
  54.4126190  42.0531920  21.9185190  55.1745100  42.6228570  22.0244880
  54.4280560  41.4859120  22.6893500  55.4186160  42.9082020  26.7627120
  55.7894990  42.1249340  26.3563090  56.0588090  43.5971120  26.5844420
  52.4019920  44.2918600  32.1757440  51.5879760  44.7215760  32.4383230
  52.8094120  44.9037010  31.5626490  54.4645360  42.3466290  19.0757710
  54.7394200  43.2545170  18.9476930  54.2756100  42.2828820  20.0119700
  50.8620970  35.3711140  20.3711340  51.2805850  35.1842120  19.5308000
  50.5557030  34.5190190  20.6814270  54.3610700  40.2835280  24.0687140
  53.9854300  39.5163210  23.6368430  53.6313820  40.6657980  24.5562070
  53.7510320  39.4306800  33.7026660  53.5196410  39.2019550  32.8024610
  54.0114870  40.3506350  33.6571550  52.1898390  34.6563230  36.4806360
  53.0668570  34.6646630  36.8640360  52.2019230  33.9194070  35.8698710
  53.6361660  38.5092770  27.3694380  54.1599140  38.0155420  26.7384550
  54.2221080  38.6443130  28.1141950  53.8151380  38.5932640  30.8913930
  52.8654090  38.5596180  31.0058920  53.9964390  39.5032750  30.6563700
  39.6695820  36.8434320  20.0012560  40.3787520  36.4217540  19.5159840
  38.9535760  36.9109550  19.3695910  39.3169980  32.8973650  19.0415210
  40.0398110  33.4382590  19.3596430  39.5894500  32.6237070  18.1656750
  53.1261630  37.7666120  23.3086790  53.6220750  37.5336990  24.0935670
  52.9277700  36.9277960  22.8924430  54.5548790  36.4027070  25.8424470
  54.4448070  36.2483110  26.7806740  55.3156380  35.8748010  25.5999880
  52.9014510  32.3421200  32.3007470  53.5386730  32.9555340  32.6666660
  53.0489400  32.3781860  31.3556700  55.4439060  34.2334990  19.0830610
  56.3688370  34.1016170  18.8748900  55.4214850  34.3127810  20.0367060
  55.5177550  35.0045650  21.7087320  54.7229050  34.9390770  22.2380230
  55.7220830  35.9396290  21.6972670  52.4595970  49.0437200  25.7025710
  53.0555040  48.7221770  25.0260130  52.7174120  48.5709020  26.4938980
  55.3268730  49.0509080  32.2536700  54.8327010  49.4477950  31.5363830
  54.7182020  48.4258290  32.6473980  53.0108180  49.6932500  29.5323440
  52.5511150  50.4448310  29.1581460  52.3820640  48.9738970  29.4738240
  51.9497480  33.3342530  28.1586150  52.3905570  33.2787630  27.3107750
  51.6805070  34.2500540  28.2296330  53.8136050  32.9657770  26.1694970
  53.7524450  32.0218990  26.0225990  54.5928080  33.0737860  26.7148430
  52.9290210  32.1170190  22.1376440  53.1240840  33.0153640  22.4043870
  52.1420080  31.8857270  22.6309390  39.7251500  47.7983360  22.5769060
  39.1999120  48.1791390  21.8731020  39.6496080  48.4234130  23.2978770
  41.1141970  33.4630960  21.1752750  41.6434730  32.6760760  21.0460700
  41.7470290  34.1422150  21.4088280  54.4816820  49.3570900  23.8983000
  54.6569010  48.6708640  23.2543920  53.7838390  49.8817950  23.5059670
  42.3244470  49.7465740  21.4518310  43.0563290  49.4625020  20.9042200
  42.5838140  49.5079020  22.3417690  41.4859260  45.8630470  21.4564640
  40.8568140  46.3315570  22.0050470  41.6007090  45.0179690  21.8910830
  48.9408980  39.9136130   7.6065840  48.8603030  38.9990740   7.3357550
  48.5273400  40.4103200   6.9005550  47.0727020  41.6915150   9.4875110
  46.2969120  41.2115590   9.7773680  47.7239950  41.0120800   9.3131270
  41.0892850  42.0034960  10.3650870  40.2577730  41.7483670  10.7647380
  41.6973830  42.0745730  11.1008790  51.0934450  46.0975340   8.2674240
  50.6315980  45.3262580   8.5961410  51.9060000  46.1241410   8.7726690
  41.0694110  46.0375050  10.5608890  41.3722150  45.1472790  10.3819110
  41.8137700  46.5945270  10.3331140  39.4984800  36.9636850   4.1493260
  38.6101500  37.3052820   4.0473140  39.7825990  36.7637170   3.2574090
  37.4617810  39.5642500  10.0332960  38.0333920  38.7964700  10.0336600
  37.4619350  39.8631260   9.1239570  47.3197760  48.3833350   7.8878230
  46.7009200  48.8390850   7.3172670  48.1749540  48.5384810   7.4867930
  46.5136010  44.3672340   9.4945270  46.4444290  43.4262280   9.3334400
  47.2755870  44.4573750  10.0667840  38.7042680  34.9726860  11.8201890
  38.5245520  34.0752610  12.1004650  38.3022760  35.5198730  12.4948840
  47.5441180  37.1742720   9.7214200  47.9206000  36.3014600   9.6087870
  47.4460690  37.5101420   8.8304640  41.6746190  35.5468350   5.1831640
  41.7812940  36.4472080   5.4900400  40.7638550  35.4986320   4.8926290
  51.3265300  34.6693160   6.6542540  52.1474920  34.1789730   6.6968020
  51.3599380  35.2590820   7.4074380  39.3229350  37.4687360  10.4284230
  40.0039460  37.7325730  11.0471630  39.0077400  36.6288230  10.7622240
  43.5153920  38.5154720   9.5156820  44.0232140  39.0135690  10.1561840
  44.0467160  37.7389920   9.3396180  55.6164850  36.6859910  13.2186170
  54.9117020  37.0741620  12.7001280  55.8822770  37.3810200  13.8207100
  41.7990020  33.1553280  13.7820240  41.8008460  33.6725670  12.9766140
  40.9694330  32.6783460  13.7590170  48.1861110  43.2672590   5.2810140
  47.5678380  43.7322040   4.7172860  48.6984360  43.9600070   5.6979650
  43.0492870  42.7948460  11.9593740  42.7162250  43.4217380  12.6014810
  43.2259550  43.3210340  11.1795410  51.5626780  36.6093540   9.4270080
  50.8582350  36.8978430  10.0073190  51.9238940  37.4193650   9.0669640
  41.4805350  34.8663240  11.7890690  41.8222160  35.7105290  11.4944560
  40.5421160  35.0146980  11.9056030  42.2611970  44.7629260  13.7742920
  42.8785970  45.4380340  13.4927370  41.4005090  45.1717240  13.6830420
  37.5544310  43.9529120   2.6549770  37.1772290  44.4416220   1.9234670
  37.8117380  44.6254400   3.2856300  53.1789560  46.2268670  11.6897560
  52.4953080  46.8967780  11.6814230  53.7183850  46.4249320  10.9242420
  54.6313700  36.0548330   9.8179290  53.6838610  36.0887310   9.9494720
  54.9563690  36.8687280  10.2028650  45.1633240  32.3545510   8.1135280
  45.4708220  31.7992400   7.3970780  44.2333940  32.4889970   7.9308270
  50.7148300  48.0712800  10.4042740  50.7275460  47.6675090   9.5365000
  50.1623520  48.8460090  10.3004170  52.0093720  44.7929020   5.4932910
  51.8990050  43.8503350   5.6182330  52.0061970  45.1544660   6.3795670
  50.1133740  42.9742640  11.7325350  50.5302530  42.7602750  10.8978810
  50.8373560  43.2315430  12.3033970  47.5514000  40.4194340   4.8495400
  46.6243280  40.3531720   5.0783870  47.7038820  41.3574470   4.7350640
  54.0595840  41.3729860  11.8241590  53.2314470  41.4422950  11.3491720
  54.6546320  41.9584170  11.3557420  51.5811290  41.9814640   5.3530650
  50.9623710  41.6434190   4.7056950  51.5635740  41.3374400   6.0609840
  51.0237850  38.1599180  12.7696460  50.6109030  38.9852890  13.0236450
  50.2913800  37.5744220  12.5772820  43.1570640  40.9459080   7.6315130
  42.7527640  40.2336330   7.1361030  43.2433760  40.6012320   8.5203170
  43.6252340  44.6326640   9.7954340  43.3280630  44.0272110   9.1162120
  44.5752160  44.6703950   9.6843700  41.8699260  37.7202290  11.4114170
  42.4213850  37.8297630  10.6367420  42.3842770  38.0939890  12.1269400
  51.7137950  48.2058510  13.4577440  51.2368510  49.0130700  13.2650050
  51.0299740  47.5536840  13.6103650  42.7170770  44.3708330  16.4462140
  41.8199300  44.5948300  16.6935540  42.7423640  44.4943270  15.4973540
  49.7575990  41.2201450   2.3603400  50.1969270  40.3823880   2.2141220
  50.4704410  41.8530850   2.4467540  41.5441990  41.2421650  15.0219510
  41.4049760  42.1144450  15.3906910  40.6623350  40.8994460  14.8767450
  47.8671370  46.1597520   6.3284640  48.3067280  46.9021850   5.9140030
  47.8058260  46.4024090   7.2523600  43.3422340  47.1843350  17.2304660
  43.3137770  47.5886300  16.3633090  43.1787310  46.2553710  17.0676260
  39.8575270  39.8404060   5.1321780  39.7372870  40.5666150   4.5203050
  39.5476160  39.0706970   4.6549690  55.2937160  47.9670450  18.5268830
  55.7696880  48.4453340  19.2057910  55.9144320  47.8987940  17.8014330
  37.4960640  43.0119200  10.9390420  37.5741060  43.1467970   9.9946140
  38.1102320  42.3035090  11.1318540  38.7408270  44.7119390   7.3496600
  38.3336350  44.8533980   6.4950200  39.6321280  44.4279550   7.1467810
  54.6970410  45.1583300  15.6868840  54.8233470  44.9195180  14.7686020
  54.7391790  44.3267840  16.1590920  48.5587150  48.8611300  14.2563650
  49.0731820  48.7719310  15.0586080  47.7156230  49.2071000  14.5491560
  50.5341550  49.1466640   3.6847650  50.3742690  48.8569580   4.5829480
  50.3688260  48.3706770   3.1492880  43.0129930  48.9265170   5.4619270
  42.8372410  48.0100710   5.2487070  42.1585670  49.2852460   5.7017070
  49.8017610  48.2816910   6.3194140  50.2574560  47.5006290   6.6332760
  50.1410130  48.9923730   6.8635320  54.5494420  37.2115760  16.6518580
  53.9338690  37.7195430  16.1234040  54.2290840  36.3114090  16.5944520
  37.5520160  44.0533370  13.4784880  37.7151200  43.5838730  12.6604250
  38.0172610  43.5456930  14.1433720  42.3238930  33.1839130   8.5145450
  41.8807080  33.9648670   8.1829970  42.8823920  33.5069020   9.2216390
  46.6108740  36.0507650  14.1180770  46.1488110  36.2590670  14.9300710
  46.2086850  35.2367000  13.8151440  51.6113250  37.2716600  15.2477430
  50.7606840  36.9722350  15.5686500  51.4515040  37.5158610  14.3361250
  48.7062960  38.7718350  17.3476220  49.0316370  37.9382100  17.0078450
  49.4943290  39.2946870  17.4954550  45.4397750  32.8049830   3.3951280
  44.8151930  32.8009700   4.1204590  45.3527870  31.9380790   2.9987250
  44.3614830  33.7286460  10.3735050  44.6587160  34.6349290  10.2927070
  44.9100390  33.2405240   9.7594620  42.1153150  38.3072700   6.2426700
  41.8894070  38.0909870   7.1473320  41.3345680  38.7401160   5.8972670
  49.3450910  38.3136070   4.8417350  48.7459800  39.0371870   4.6580970
  49.8930520  38.2512850   4.0593800  44.5552360  39.2058280  16.9086970
  44.4595960  38.2653010  16.7587370  45.3984340  39.4273350  16.5135040
  47.9515780  36.9499610   6.8720630  48.3445350  37.2671810   6.0589320
  48.3132630  36.0711490   6.9865150  39.6862900  35.6171950  15.0620750
  39.2926290  36.4647160  15.2693530  38.9981300  34.9798320  15.2529390
  46.2607950  35.7006920  18.1317490  45.5706270  35.5079120  18.7663580
  47.0040250  35.9841560  18.6641790  36.9879950  33.5400410   9.0950830
  36.6993000  34.1103270   9.8075810  37.7325710  33.0604860   9.4582060
  48.5370920  39.5405360  10.9671410  47.8052040  40.0492170  11.3161510
  48.1395260  38.7235340  10.6660190  44.9748310  36.2159560   9.3723900
  44.9784370  35.7749510   8.5228440  45.8699430  36.5376890   9.4795720
  40.8250690  36.0986050   8.3318110  40.4850740  36.5761280   9.0885160
  40.0628010  35.6451170   7.9719210  45.0368460  37.2171640   2.3630660
  45.1581280  37.1758120   3.3116480  44.6516970  38.0795790   2.2077390
  48.9996830  34.9939040  10.3794350  49.0169570  35.4447690  11.2236200
  48.7512410  34.0944680  10.5927790  52.4267580  32.4071220  16.2180730
  52.7513350  31.6760880  16.7438710  52.4624090  32.0884860  15.3161720
  39.1259140  43.4284800  15.6380690  38.7413930  42.7878470  16.2363650
  39.4371330  44.1320920  16.2075420  45.2756280  40.2761340  11.1189310
  45.6426410  39.8019910  11.8650650  45.0861340  41.1502910  11.4597650
  38.1396770  35.0205030   7.2482780  37.8543690  34.6560700   8.0861400
  38.0775630  34.2885490   6.6345920  43.0655650  39.3169980  13.4373520
  42.7612720  40.1961960  13.6623880  44.0202110  39.3769770  13.4730960
  41.5937440  43.5230970   4.0340370  40.8199700  42.9828590   3.8739090
  42.3232070  43.0037580   3.6958130  52.3525420  42.5196330   9.8266760
  53.0724540  43.0151620   9.4362870  52.1507240  41.8414220   9.1820630
  47.8135360  33.9134290   3.9696150  46.9999970  33.4147460   3.8941460
  47.6197310  34.7532540   3.5532500  47.7344220  42.5905390  15.7135760
  47.6681530  41.6701060  15.4593350  47.1049360  42.6880830  16.4280400
  50.5283750  38.2853940   2.2658310  51.4163370  38.5971170   2.0909650
  50.4988840  37.4126190   1.8738890  41.6374840  43.1911350   7.6719180
  42.1553510  42.3879610   7.6176070  41.1858860  43.1290490   8.5136010
  46.5244340  44.4577630   2.9446480  46.8660040  45.2019860   2.4489800
  45.6957050  44.7708750   3.3071310  39.1219380  40.1572720  14.5844880
  38.7634320  40.8226570  15.1718220  38.8273940  39.3256270  14.9557500
  42.3232500  40.6156960  17.4684430  42.0232640  40.7614140  16.5712250
  43.0943740  40.0562250  17.3757820  47.6660950  45.4125960  15.4639560
  47.6805490  44.4806920  15.2458470  46.9586050  45.4985720  16.1029330
  53.8772160  42.0533300  14.8108140  53.1520350  42.6462080  14.6137530
  54.4047620  42.0456840  14.0121510  53.8285270  46.4508040   4.4620300
  53.1861430  45.7963660   4.7364020  53.4415930  46.8563130   3.6860970
  49.4071750  43.7793470   8.3091990  49.7595570  43.1821600   7.6493360
  48.5234080  43.4537700   8.4800240  45.4935030  44.5391160   5.7162400
  46.1806160  45.0860370   6.0969990  44.7067450  45.0831890   5.7512010
  44.7962240  41.5437190   5.3287760  45.2525020  42.3542440   5.5547950
  44.4450450  41.2260330   6.1606250  47.0994850  47.0543530  12.5580060
  47.7437070  47.2602910  13.2353480  47.4624290  46.2931930  12.1050910
  40.6974020  31.8874840   5.8010280  40.5688650  31.8792740   6.7495200
  39.8736040  32.2257930   5.4501290  48.3726930  45.0575880  11.2757510
  49.0149160  44.3569040  11.3889680  48.8976280  45.8374320  11.0954400
  50.1464550  45.8570780  14.4793570  50.4820790  46.4437470  15.1571490
  49.2264890  45.7263490  14.7091360  37.6967950  33.6465960  15.2616980
  36.9826470  33.8462880  15.8669590  38.1162990  32.8705530  15.6331780
  51.7998900  43.2596440   2.6610810  51.5120600  43.7209130   3.4488690
  52.5951070  42.7994210   2.9295030  37.9840540  47.6346220  16.2483510
  38.0931660  46.6940960  16.1078900  37.3321100  47.9000970  15.5997240
  45.9753130  45.9062110  17.6481630  45.6550000  45.1871350  18.1927320
  45.3011490  46.5817180  17.7217690  44.0167300  46.7522560   2.5914780
  44.0077400  47.4852250   1.9759290  43.0965660  46.5054140   2.6841740
  39.6173940  41.9737450   3.3361540  39.0101890  42.7136350   3.3456840
  40.0923290  42.0636810   2.5099740  49.1906730  36.1388270  13.0118430
  49.5587550  35.3183480  13.3398000  48.3304930  36.1990160  13.4274080
  52.5568760  35.0945210   3.8205990  51.9281920  35.1990880   3.1064220
  52.0620680  35.3141990   4.6099870  44.5252790  37.3731160   5.2363870
  43.8168940  37.8417500   5.6777480  44.8097270  36.7153170   5.8709060
  46.1508720  38.7927860  13.2356400  46.6493970  39.2673680  13.9008250
  46.2931670  37.8691380  13.4426430  48.5568220  34.0981820   6.6759660
  48.4336000  34.1167950   5.7269170  49.5052780  34.1460760   6.7958060
  45.6445010  49.3337120   5.9487640  45.8986510  49.2958510   5.0267010
  44.6957490  49.2070450   5.9415890  42.7287810  35.6816240   2.6114580
  43.5778340  36.1186390   2.5454770  42.3619080  35.9936500   3.4386640
  53.3575580  35.0095820  14.0784790  52.8549180  35.7501220  14.4178600
  54.1732240  35.3979820  13.7621580  51.6497590  40.2529000   7.5246150
  50.7087730  40.2679230   7.6993840  51.9641660  39.4664960   7.9706450
  40.3225990  39.3673670   1.7683000  40.4029580  38.4201180   1.8800400
  41.2145740  39.6980550   1.8743660  53.6523170  47.4237850   9.2000410
  53.7770590  48.2469020   9.6724220  54.5188730  47.2128580   8.8524560
  41.1240700  49.5169060   8.8717540  41.8603180  48.9684520   9.1426110
  41.5081620  50.3825070   8.7323530  38.0086180  45.5842630   4.7459050
  37.0825960  45.8263770   4.7364460  38.4742610  46.4116890   4.6243800
  40.1298980  48.7015130  18.0603120  40.9311710  49.0227180  18.4738520
  39.6150800  48.3410710  18.7823030  48.9663610  44.8095000  18.0078530
  48.3601770  44.8326600  17.2674280  48.6617720  44.0778040  18.5445780
  50.3963980  48.5375290  16.6187940  51.3485730  48.4533310  16.5688180
  50.2492200  49.2017000  17.2921730  37.8496790  41.1888590  17.0039170
  38.3535810  40.6095870  17.5755400  37.1104210  41.4728820  17.5415540
  44.9034730  42.5959580  16.5374690  44.1380400  43.1644580  16.4529360
  45.0850690  42.3035790  15.6442920  52.0458080  44.3264910  17.0949710
  52.7867550  44.6640670  16.5917170  51.2830760  44.4956970  16.5419480
  39.8819870  39.3318180  17.8989240  39.9225210  39.0332050  18.8074470
  40.7365370  39.7325790  17.7396760  43.6598260  41.9313730   3.0592750
  44.0814680  41.7653600   3.9024140  43.7849100  41.1213960   2.5647890
  41.8225680  37.9110280  15.8663730  41.2922140  37.4201230  15.2387070
  42.4913750  38.3394480  15.3321660  50.7203740  42.3779740  15.6304920
  51.1344760  42.5324820  16.4795340  49.7854740  42.5034960  15.7930700
  51.1925910  39.7175900  17.6344070  51.7746680  38.9628220  17.5464550
  51.3687680  40.2483340  16.8575550  42.3097980  34.8772650  15.9461020
  42.2154850  34.2593400  15.2211890  41.7295370  35.6038940  15.7190930
  45.0759420  33.4345890  12.9788410  44.6276720  33.4570150  12.1333960
  44.4424620  33.0364910  13.5758710  45.4818970  42.3300220  13.6000850
  45.9007080  43.1732950  13.4277090  44.5627600  42.4672260  13.3707630
  47.8182870  40.0616400  14.9838690  47.9379080  39.4657540  15.7233530
  48.6776870  40.0986090  14.5639990  50.1570770  40.6153590  13.5601200
  49.6305990  41.1396210  12.9566340  50.5002110  41.2480980  14.1910930
  43.3326390  48.6353230  14.7158580  42.7947480  49.3599290  14.3967280
  43.5860350  48.1583570  13.9255920  44.5851640  36.6037750  16.2414510
  45.1751330  36.2953600  16.9292330  43.7671880  36.1317500  16.3974410
  49.4045070  36.2203560  16.4747530  48.7160590  35.5585100  16.4097520
  50.1251090  35.7741830  16.9195990  50.0345470  32.8155190   2.5337790
  50.3147760  31.9723090   2.8897210  49.2611200  33.0478300   3.0476540
  46.1888600  49.8704440  14.9745230  46.1147300  50.7739580  15.2817600
  45.2867440  49.5516340  14.9467300  46.7373930  49.0362950   2.5971590
  47.6324720  49.3747920   2.6190350  46.7691560  48.3142360   1.9695870
  37.5915890  47.1979030   8.2778850  37.9218900  46.3300090   8.0457490
  38.0206890  47.4037550   9.1083810  42.1877810  45.5288040   5.9380820
  41.8873350  45.4053010   6.8384730  42.0815300  44.6696630   5.5296550
  38.0806100  48.0649620  11.0160480  37.6437090  48.2450420  11.8484630
  38.6483780  48.8224240  10.8742200  53.7168280  47.5666620  15.3037790
  53.1170270  47.6259180  14.5601710  53.8462180  46.6271600  15.4334640
  54.4126190  42.0531920   3.1441700  55.1745100  42.6228570   3.2501390
  54.4280560  41.4859120   3.9150010  37.9130530  40.5769850   7.3749360
  37.2579370  40.3081490   6.7309060  38.7508480  40.4674330   6.9251340
  55.4186160  42.9082020   7.9883630  55.7894990  42.1249340   7.5819600
  56.0588090  43.5971120   7.8100930  52.4019920  44.2918600  13.4013950
  51.5879760  44.7215760  13.6639740  52.8094120  44.9037010  12.7883000
  54.3610700  40.2835280   5.2943650  53.9854300  39.5163210   4.8624940
  53.6313820  40.6657980   5.7818580  38.9506460  40.9622420  11.9152700
  39.3179500  40.8749820  12.7948720  38.3817280  40.1988970  11.8159560
  53.7510320  39.4306800  14.9283170  53.5196410  39.2019550  14.0281120
  54.0114870  40.3506350  14.8828060  38.5022460  37.8731510  15.8211120
  37.6078510  37.8398270  16.1604830  39.0420010  38.0718300  16.5862370
  52.1898390  34.6563230  17.7062870  53.0668570  34.6646630  18.0896870
  52.2019230  33.9194070  17.0955220  37.1268610  37.7868780   3.3174690
  36.2232690  38.0498980   3.1426350  37.6109230  38.0579950   2.5374650
  53.6361660  38.5092770   8.5950890  54.1599140  38.0155420   7.9641060
  54.2221080  38.6443130   9.3398460  53.8151380  38.5932640  12.1170440
  52.8654090  38.5596180  12.2315430  53.9964390  39.5032750  11.8820210
  53.1261630  37.7666120   4.5343300  53.6220750  37.5336990   5.3192180
  52.9277700  36.9277960   4.1180940  39.0062170  32.1479840  10.1694340
  39.6538360  31.5977220   9.7289500  39.4264010  32.4022990  10.9910150
  54.5548790  36.4027070   7.0680980  54.4448070  36.2483110   8.0063250
  55.3156380  35.8748010   6.8256390  52.9014510  32.3421200  13.5263980
  53.5386730  32.9555340  13.8923170  53.0489400  32.3781860  12.5813210
  55.5177550  35.0045650   2.9343830  54.7229050  34.9390770   3.4636740
  55.7220830  35.9396290   2.9229180  52.4595970  49.0437200   6.9282220
  53.0555040  48.7221770   6.2516640  52.7174120  48.5709020   7.7195490
  38.7594170  32.3035510  12.9119660  38.4108990  32.7599330  13.6777840
  38.4281870  31.4092640  12.9942090  40.3658540  45.4755110  17.0772850
  40.3228170  45.1048020  17.9587310  40.4969550  46.4132680  17.2174670
  44.0664570  47.0314700  12.6782570  43.8255930  47.2989260  11.7913090
  45.0067210  47.2020430  12.7333430  46.2718990  33.4947390  16.4339080
  46.2107880  34.0869220  17.1834490  47.2119370  33.3873350  16.2889340
  48.9093550  33.1517450  16.0731370  49.5233960  33.4696740  15.4112450
  49.4543110  32.6666040  16.6927230  55.3268730  49.0509080  13.4793210
  54.8327010  49.4477950  12.7620340  54.7182020  48.4258290  13.8730490
  39.4314810  31.8311710  16.1870430  39.9797800  31.6499760  15.4236540
  39.4970120  31.0405820  16.7226740  40.2046570  48.4217360  14.1970630
  39.6106890  48.2902060  14.9360670  40.1970410  47.5855500  13.7312730
  49.6501590  31.7149590  12.4000660  48.7761430  32.0484700  12.1973590
  49.5412340  31.2422770  13.2252530  50.5573570  33.9220460  13.7842380
  50.2286930  33.1072220  13.4044110  51.5055870  33.8790270  13.6608070
  53.0108180  49.6932500  10.7579950  52.5511150  50.4448310  10.3837970
  52.3820640  48.9738970  10.6994750  39.8358800  45.7875740  13.1478670
  39.1092860  45.1681030  13.0804620  39.8967950  46.1816350  12.2776750
  43.4403900  48.0020740   9.9328080  43.9568920  47.3908100   9.4076340
  44.0901280  48.5049520  10.4239090  46.1799400  48.8929230  10.7597060
  46.4677210  48.6383530   9.8830070  46.6922620  48.3406590  11.3502630
  47.3976410  32.6319430  11.3393570  46.6148200  33.1064930  11.6190330
  47.1039340  31.7274260  11.2306750  51.9497480  33.3342530   9.3842660
  52.3905570  33.2787630   8.5364260  51.6805070  34.2500540   9.4552840
  53.8136050  32.9657770   7.3951480  53.7524450  32.0218990   7.2482500
  54.5928080  33.0737860   7.9404940  38.1188800  49.1050130   6.3575430
  37.9510840  48.4720810   7.0557320  37.2523310  49.3109530   6.0069620
  38.7416820  32.9366910   3.8607290  39.4996180  33.0495790   3.2871320
  38.2793990  33.7736110   3.8150720  45.2830630  35.0506180   6.8509600
  44.4705140  34.6763070   6.5105480  45.7872270  34.2951260   7.1530790
  49.7855610  31.7148630   8.0892670  50.3884980  32.2868840   8.5641190
  49.0448600  32.2788070   7.8666570  52.9290210  32.1170190   3.3632950
  53.1240840  33.0153640   3.6300380  52.1420080  31.8857270   3.8565900
  39.7251500  47.7983360   3.8025570  39.1999120  48.1791390   3.0987530
  39.6496080  48.4234130   4.5235280  41.1141970  33.4630960   2.4009260
  41.6434730  32.6760760   2.2717210  41.7470290  34.1422150   2.6344790
  43.3079810  33.2006100   5.4554650  42.6782550  32.4993410   5.6224780
  42.7684950  33.9610230   5.2387810  46.2471760  49.8145330  18.1265260
  47.1739070  49.5789600  18.1701220  46.2322190  50.6417330  17.6451290
  54.4816820  49.3570900   5.1239510  54.6569010  48.6708640   4.4800430
  53.7838390  49.8817950   4.7316180  43.4335370  32.4790080  17.8907140
  43.1519640  32.9823680  17.1267960  43.8155070  31.6811830  17.5249270
  42.3244470  49.7465740   2.6774820  43.0563290  49.4625020   2.1298710
  42.5838140  49.5079020   3.5674200  41.4859260  45.8630470   2.6821150
  40.8568140  46.3315570   3.2306980  41.6007090  45.0179690   3.1167340
  50.0350830  31.8943660  18.4687610  49.9216280  32.2138270  19.3639130
  50.8520570  32.2956170  18.1724890  52.8149320  49.0415190  17.9506300
  53.6074640  48.5464420  17.7432260  53.1082470  49.7205330  18.5581910
  48.9408980  21.1392640  63.9296310  48.8603030  20.2247250  63.6588020
  48.5273400  21.6359710  63.2236020  47.0727020  22.9171660  65.8105580
  46.2969120  22.4372100  66.1004150  47.7239950  22.2377310  65.6361740
  41.0892850  23.2291470  66.6881340  40.2577730  22.9740180  67.0877850
  41.6973830  23.3002240  67.4239260  51.0934450  27.3231850  64.5904710
  50.6315980  26.5519090  64.9191880  51.9060000  27.3497920  65.0957160
  41.0694110  27.2631560  66.8839360  41.3722150  26.3729300  66.7049580
  41.8137700  27.8201780  66.6561610  39.4984800  18.1893360  60.4723730
  38.6101500  18.5309330  60.3703610  39.7825990  17.9893680  59.5804560
  37.4617810  20.7899010  66.3563430  38.0333920  20.0221210  66.3567070
  37.4619350  21.0887770  65.4470040  47.3197760  29.6089860  64.2108700
  46.7009200  30.0647360  63.6403140  48.1749540  29.7641320  63.8098400
  46.5136010  25.5928850  65.8175740  46.4444290  24.6518790  65.6564870
  47.2755870  25.6830260  66.3898310  38.7042680  16.1983370  68.1432360
  38.5245520  15.3009120  68.4235120  38.3022760  16.7455240  68.8179310
  47.5441180  18.3999230  66.0444670  47.9206000  17.5271110  65.9318340
  47.4460690  18.7357930  65.1535110  41.6746190  16.7724860  61.5062110
  41.7812940  17.6728590  61.8130870  40.7638550  16.7242830  61.2156760
  51.3265300  15.8949670  62.9773010  52.1474920  15.4046240  63.0198490
  51.3599380  16.4847330  63.7304850  39.3229350  18.6943870  66.7514700
  40.0039460  18.9582240  67.3702100  39.0077400  17.8544740  67.0852710
  43.5153920  19.7411230  65.8387290  44.0232140  20.2392200  66.4792310
  44.0467160  18.9646430  65.6626650  55.6164850  17.9116420  69.5416640
  54.9117020  18.2998130  69.0231750  55.8822770  18.6066710  70.1437570
  41.7990020  14.3809790  70.1050710  41.8008460  14.8982180  69.2996610
  40.9694330  13.9039970  70.0820640  48.1861110  24.4929100  61.6040610
  47.5678380  24.9578550  61.0403330  48.6984360  25.1856580  62.0210120
  43.0492870  24.0204970  68.2824210  42.7162250  24.6473890  68.9245280
  43.2259550  24.5466850  67.5025880  51.5626780  17.8350050  65.7500550
  50.8582350  18.1234940  66.3303660  51.9238940  18.6450160  65.3900110
  41.4805350  16.0919750  68.1121160  41.8222160  16.9361800  67.8175030
  40.5421160  16.2403490  68.2286500  42.2611970  25.9885770  70.0973390
  42.8785970  26.6636850  69.8157840  41.4005090  26.3973750  70.0060890
  37.5544310  25.1785630  58.9780240  37.1772290  25.6672730  58.2465140
  37.8117380  25.8510910  59.6086770  53.1789560  27.4525180  68.0128030
  52.4953080  28.1224290  68.0044700  53.7183850  27.6505830  67.2472890
  54.6313700  17.2804840  66.1409760  53.6838610  17.3143820  66.2725190
  54.9563690  18.0943790  66.5259120  45.1633240  13.5802020  64.4365750
  45.4708220  13.0248910  63.7201250  44.2333940  13.7146480  64.2538740
  50.7148300  29.2969310  66.7273210  50.7275460  28.8931600  65.8595470
  50.1623520  30.0716600  66.6234640  52.0093720  26.0185530  61.8163380
  51.8990050  25.0759860  61.9412800  52.0061970  26.3801170  62.7026140
  50.1133740  24.1999150  68.0555820  50.5302530  23.9859260  67.2209280
  50.8373560  24.4571940  68.6264440  47.5514000  21.6450850  61.1725870
  46.6243280  21.5788230  61.4014340  47.7038820  22.5830980  61.0581110
  47.5383080  17.9167850  58.1693030  46.5986750  18.0781810  58.2545490
  47.8566340  18.6353530  57.6229020  54.0595840  22.5986370  68.1472060
  53.2314470  22.6679460  67.6722190  54.6546320  23.1840680  67.6787890
  51.5811290  23.2071150  61.6761120  50.9623710  22.8690700  61.0287420
  51.5635740  22.5630910  62.3840310  51.0237850  19.3855690  69.0926930
  50.6109030  20.2109400  69.3466920  50.2913800  18.8000730  68.9003290
  43.1570640  22.1715590  63.9545600  42.7527640  21.4592840  63.4591500
  43.2433760  21.8268830  64.8433640  43.6252340  25.8583150  66.1184810
  43.3280630  25.2528620  65.4392590  44.5752160  25.8960460  66.0074170
  41.8699260  18.9458800  67.7344640  42.4213850  19.0554140  66.9597890
  42.3842770  19.3196400  68.4499870  51.7137950  29.4315020  69.7807910
  51.2368510  30.2387210  69.5880520  51.0299740  28.7793350  69.9334120
  49.7575990  22.4457960  58.6833870  50.1969270  21.6080390  58.5371690
  50.4704410  23.0787360  58.7698010  41.5441990  22.4678160  71.3449980
  41.4049760  23.3400960  71.7137380  40.6623350  22.1250970  71.1997920
  47.8671370  27.3854030  62.6515110  48.3067280  28.1278360  62.2370500
  47.8058260  27.6280600  63.5754070  53.3393130  13.7000770  56.9974910
  53.0265790  13.7927600  57.8973980  54.1005600  14.2781800  56.9472340
  39.8575270  21.0660570  61.4552250  39.7372870  21.7922660  60.8433520
  39.5476160  20.2963480  60.9780160  37.4960640  24.2375710  67.2620890
  37.5741060  24.3724480  66.3176610  38.1102320  23.5291600  67.4549010
  38.7408270  25.9375900  63.6727070  38.3336350  26.0790490  62.8180670
  39.6321280  25.6536060  63.4698280  54.6970410  26.3839810  72.0099310
  54.8233470  26.1451690  71.0916490  54.7391790  25.5524350  72.4821390
  48.5587150  30.0867810  70.5794120  49.0731820  29.9975820  71.3816550
  47.7156230  30.4327510  70.8722030  50.5341550  30.3723150  60.0078120
  50.3742690  30.0826090  60.9059950  50.3688260  29.5963280  59.4723350
  43.0129930  30.1521680  61.7849740  42.8372410  29.2357220  61.5717540
  42.1585670  30.5108970  62.0247540  50.2367680  27.8810710  58.5676120
  49.5432840  27.8788000  57.9078400  50.9790540  27.4570030  58.1370290
  49.8017610  29.5073420  62.6424610  50.2574560  28.7262800  62.9563230
  50.1410130  30.2180240  63.1865790  54.5494420  18.4372270  72.9749050
  53.9338690  18.9451940  72.4464510  54.2290840  17.5370600  72.9174990
  37.5520160  25.2789880  69.8015350  37.7151200  24.8095240  68.9834720
  38.0172610  24.7713440  70.4664190  42.3238930  14.4095640  64.8375920
  41.8807080  15.1905180  64.5060440  42.8823920  14.7325530  65.5446860
  46.6108740  17.2764160  70.4411240  46.1488110  17.4847180  71.2531180
  46.2086850  16.4623510  70.1381910  51.6113250  18.4973110  71.5707900
  50.7606840  18.1978860  71.8916970  51.4515040  18.7415120  70.6591720
  45.4397750  14.0306340  59.7181750  44.8151930  14.0266210  60.4435060
  45.3527870  13.1637300  59.3217720  44.3614830  14.9542970  66.6965520
  44.6587160  15.8605800  66.6157540  44.9100390  14.4661750  66.0825090
  42.1153150  19.5329210  62.5657170  41.8894070  19.3166380  63.4703790
  41.3345680  19.9657670  62.2203140  49.3450910  19.5392580  61.1647820
  48.7459800  20.2628380  60.9811440  49.8930520  19.4769360  60.3824270
  47.9515780  18.1756120  63.1951100  48.3445350  18.4928320  62.3819790
  48.3132630  17.2968000  63.3095620  39.6862900  16.8428460  71.3851220
  39.2926290  17.6903670  71.5924000  38.9981300  16.2054830  71.5759860
  36.9879950  14.7656920  65.4181300  36.6993000  15.3359780  66.1306280
  37.7325710  14.2861370  65.7812530  37.1750180  18.7077040  56.6284020
  37.0924850  19.6507800  56.7699010  36.8233240  18.5651950  55.7496370
  48.5370920  20.7661870  67.2901880  47.8052040  21.2748680  67.6391980
  48.1395260  19.9491850  66.9890660  44.9748310  17.4416070  65.6954370
  44.9784370  17.0006020  64.8458910  45.8699430  17.7633400  65.8026190
  40.8250690  17.3242560  64.6548580  40.4850740  17.8017790  65.4115630
  40.0628010  16.8707680  64.2949680  45.0368460  18.4428150  58.6861130
  45.1581280  18.4014630  59.6346950  44.6516970  19.3052300  58.5307860
  48.9996830  16.2195550  66.7024820  49.0169570  16.6704200  67.5466670
  48.7512410  15.3201190  66.9158260  44.0489960  20.7529290  58.0844430
  43.4806860  20.3047540  57.4580340  44.7578960  21.1122070  57.5509580
  39.1259140  24.6541310  71.9611160  38.7413930  24.0134980  72.5594120
  39.4371330  25.3577430  72.5305890  45.2756280  21.5017850  67.4419780
  45.6426410  21.0276420  68.1881120  45.0861340  22.3759420  67.7828120
  38.1396770  16.2461540  63.5713250  37.8543690  15.8817210  64.4091870
  38.0775630  15.5142000  62.9576390  43.0655650  20.5426490  69.7603990
  42.7612720  21.4218470  69.9854350  44.0202110  20.6026280  69.7961430
  41.5937440  24.7487480  60.3570840  40.8199700  24.2085100  60.1969560
  42.3232070  24.2294090  60.0188600  52.3525420  23.7452840  66.1497230
  53.0724540  24.2408130  65.7593340  52.1507240  23.0670730  65.5051100
  47.8135360  15.1390800  60.2926620  46.9999970  14.6403970  60.2171930
  47.6197310  15.9789050  59.8762970  47.7344220  23.8161900  72.0366230
  47.6681530  22.8957570  71.7823820  47.1049360  23.9137340  72.7510870
  50.5283750  19.5110450  58.5888780  51.4163370  19.8227680  58.4140120
  50.4988840  18.6382700  58.1969360  41.6374840  24.4167860  63.9949650
  42.1553510  23.6136120  63.9406540  41.1858860  24.3547000  64.8366480
  46.5244340  25.6834140  59.2676950  46.8660040  26.4276370  58.7720270
  45.6957050  25.9965260  59.6301780  39.1219380  21.3829230  70.9075350
  38.7634320  22.0483080  71.4948690  38.8273940  20.5512780  71.2787970
  47.6660950  26.6382470  71.7870030  47.6805490  25.7063430  71.5688940
  46.9586050  26.7242230  72.4259800  52.7998020  20.8222290  58.0568640
  52.7161740  21.2536510  57.2065080  53.5192210  21.2820640  58.4895460
  53.8772160  23.2789810  71.1338610  53.1520350  23.8718590  70.9368000
  54.4047620  23.2713350  70.3351980  53.8285270  27.6764550  60.7850770
  53.1861430  27.0220170  61.0594490  53.4415930  28.0819640  60.0091440
  49.4071750  25.0049980  64.6322460  49.7595570  24.4078110  63.9723830
  48.5234080  24.6794210  64.8030710  45.4935030  25.7647670  62.0392870
  46.1806160  26.3116880  62.4200460  44.7067450  26.3088400  62.0742480
  37.6327430  21.3820490  57.5309950  38.5022280  21.6645290  57.8145870
  37.1417750  22.1956360  57.4158760  44.7962240  22.7693700  61.6518230
  45.2525020  23.5798950  61.8778420  44.4450450  22.4516840  62.4836720
  47.0994850  28.2800040  68.8810530  47.7437070  28.4859420  69.5583950
  47.4624290  27.5188440  68.4281380  40.6974020  13.1131350  62.1240750
  40.5688650  13.1049250  63.0725670  39.8736040  13.4514440  61.7731760
  48.3726930  26.2832390  67.5987980  49.0149160  25.5825550  67.7120150
  48.8976280  27.0630830  67.4184870  52.2182650  26.5681010  57.3227120
  51.9920230  25.8511450  57.9151760  51.8278850  26.3193450  56.4848870
  50.1464550  27.0827290  70.8024040  50.4820790  27.6693980  71.4801960
  49.2264890  26.9520000  71.0321830  37.9998680  30.5947870  58.0971580
  38.3596320  31.1937210  57.4428850  37.8591020  31.1407760  58.8706610
  37.6967950  14.8722470  71.5847450  36.9826470  15.0719390  72.1900060
  38.1162990  14.0962040  71.9562250  51.7998900  24.4852950  58.9841280
  51.5120600  24.9465640  59.7719160  52.5951070  24.0250720  59.2525500
  37.9840540  28.8602730  72.5713980  38.0931660  27.9197470  72.4309370
  37.3321100  29.1257480  71.9227710  44.0167300  27.9779070  58.9145250
  44.0077400  28.7108760  58.2989760  43.0965660  27.7310650  59.0072210
  39.6173940  23.1993960  59.6592010  39.0101890  23.9392860  59.6687310
  40.0923290  23.2893320  58.8330210  49.1906730  17.3644780  69.3348900
  49.5587550  16.5439990  69.6628470  48.3304930  17.4246670  69.7504550
  52.5568760  16.3201720  60.1436460  51.9281920  16.4247390  59.4294690
  52.0620680  16.5398500  60.9330340  47.0026900  28.0407310  57.5770440
  47.1038880  27.8371300  56.6472420  46.1028640  27.7865590  57.7818220
  44.5252790  18.5987670  61.5594340  43.8168940  19.0674010  62.0007950
  44.8097270  17.9409680  62.1939530  46.1508720  20.0184370  69.5586870
  46.6493970  20.4930190  70.2238720  46.2931670  19.0947890  69.7656900
  48.5568220  15.3238330  62.9990130  48.4336000  15.3424460  62.0499640
  49.5052780  15.3717270  63.1188530  45.6445010  30.5593630  62.2718110
  45.8986510  30.5215020  61.3497480  44.6957490  30.4326960  62.2646360
  42.7287810  16.9072750  58.9345050  43.5778340  17.3442900  58.8685240
  42.3619080  17.2193010  59.7617110  53.3575580  16.2352330  70.4015260
  52.8549180  16.9757730  70.7409070  54.1732240  16.6236330  70.0852050
  51.6497590  21.4785510  63.8476620  50.7087730  21.4935740  64.0224310
  51.9641660  20.6921470  64.2936920  41.6279230  23.1605110  57.4080580
  42.3942500  23.0486470  57.9706010  41.7053920  22.4643080  56.7557350
  40.3225990  20.5930180  58.0913470  40.4029580  19.6457690  58.2030870
  41.2145740  20.9237060  58.1974130  53.6523170  28.6494360  65.5230880
  53.7770590  29.4725530  65.9954690  54.5188730  28.4385090  65.1755030
  41.1240700  30.7425570  65.1948010  41.8603180  30.1941030  65.4656580
  41.5081620  31.6081580  65.0554000  38.0086180  26.8099140  61.0689520
  37.0825960  27.0520280  61.0594930  38.4742610  27.6373400  60.9474270
  44.2343010  29.9155880  57.0173580  45.0271620  30.2044710  56.5655370
  43.7147360  29.4848050  56.3386060  53.2873180  29.1426010  58.4410320
  53.0014690  28.7291150  57.6264500  53.0892730  30.0713720  58.3210840
  44.7520410  25.1359290  56.8815930  44.6471050  24.5211640  57.6077310
  44.5844630  24.6125180  56.0978940  44.9034730  23.8216090  72.8605160
  44.1380400  24.3901090  72.7759830  45.0850690  23.5292300  71.9673390
  47.9923140  24.1979320  57.4857920  47.4433240  24.6448620  58.1300660
  48.6142400  23.6928570  58.0095590  43.6598260  23.1570240  59.3823220
  44.0814680  22.9910110  60.2254610  43.7849100  22.3470470  58.8878360
  41.8225680  19.1366790  72.1894200  41.2922140  18.6457740  71.5617540
  42.4913750  19.5650990  71.6552130  46.1725900  22.1807850  56.6300320
  46.6931560  21.4656870  56.2641470  46.8194300  22.8193720  56.9300830
  50.7203740  23.6036250  71.9535390  51.1344760  23.7581330  72.8025810
  49.7854740  23.7291470  72.1161170  42.3097980  16.1029160  72.2691490
  42.2154850  15.4849910  71.5442360  41.7295370  16.8295450  72.0421400
  45.0759420  14.6602400  69.3018880  44.6276720  14.6826660  68.4564430
  44.4424620  14.2621420  69.8989180  45.4818970  23.5556730  69.9231320
  45.9007080  24.3989460  69.7507560  44.5627600  23.6928770  69.6938100
  47.8182870  21.2872910  71.3069160  47.9379080  20.6914050  72.0464000
  48.6776870  21.3242600  70.8870460  50.1570770  21.8410100  69.8831670
  49.6305990  22.3652720  69.2796810  50.5002110  22.4737490  70.5141400
  42.5557160  19.2303470  56.3281380  42.3546220  18.3670830  56.6894720
  42.3849210  19.1436830  55.3902980  43.3326390  29.8609740  71.0389050
  42.7947480  30.5855800  70.7197750  43.5860350  29.3840080  70.2486390
  50.0345470  14.0411700  58.8568260  50.3147760  13.1979600  59.2127680
  49.2611200  14.2734810  59.3707010  41.3539960  16.3304090  56.3159260
  41.6565860  16.3371520  55.4078410  42.0934550  15.9801950  56.8126920
  46.1888600  31.0960950  71.2975700  46.1147300  31.9996090  71.6048070
  45.2867440  30.7772850  71.2697770  44.5724890  15.2738710  57.3015460
  44.2246890  14.5962700  56.7217910  44.7737660  14.8128220  58.1158850
  46.7373930  30.2619460  58.9202060  47.6324720  30.6004430  58.9420820
  46.7691560  29.5398870  58.2926340  40.3770090  25.6346510  57.1489060
  40.8144960  26.1776180  57.8046640  40.8617820  24.8093460  57.1585400
  37.5915890  28.4235540  64.6009320  37.9218900  27.5556600  64.3687960
  38.0206890  28.6294060  65.4314280  42.1877810  26.7544550  62.2611290
  41.8873350  26.6309520  63.1615200  42.0815300  25.8953140  61.8527020
  38.0806100  29.2906130  67.3390950  37.6437090  29.4706930  68.1715100
  38.6483780  30.0480750  67.1972670  53.7168280  28.7923130  71.6268260
  53.1170270  28.8515690  70.8832180  53.8462180  27.8528110  71.7565110
  54.9569730  26.5340950  56.9637970  54.1262690  26.6017600  57.4345200
  55.1341560  27.4245070  56.6604830  54.4126190  23.2788430  59.4672170
  55.1745100  23.8485080  59.5731860  54.4280560  22.7115630  60.2380480
  37.9130530  21.8026360  63.6979830  37.2579370  21.5338000  63.0539530
  38.7508480  21.6930840  63.2481810  55.4186160  24.1338530  64.3114100
  55.7894990  23.3505850  63.9050070  56.0588090  24.8227630  64.1331400
  52.4019920  25.5175110  69.7244420  51.5879760  25.9472270  69.9870210
  52.8094120  26.1293520  69.1113470  54.4645360  23.5722800  56.6244690
  54.7394200  24.4801680  56.4963910  54.2756100  23.5085330  57.5606680
  50.8620970  16.5967650  57.9198320  51.2805850  16.4098630  57.0794980
  50.5557030  15.7446700  58.2301250  54.3610700  21.5091790  61.6174120
  53.9854300  20.7419720  61.1855410  53.6313820  21.8914490  62.1049050
  38.9506460  22.1878930  68.2383170  39.3179500  22.1006330  69.1179190
  38.3817280  21.4245480  68.1390030  53.7510320  20.6563310  71.2513640
  53.5196410  20.4276060  70.3511590  54.0114870  21.5762860  71.2058530
  38.5022460  19.0988020  72.1441590  37.6078510  19.0654780  72.4835300
  39.0420010  19.2974810  72.9092840  37.1268610  19.0125290  59.6405160
  36.2232690  19.2755490  59.4656820  37.6109230  19.2836460  58.8605120
  53.6361660  19.7349280  64.9181360  54.1599140  19.2411930  64.2871530
  54.2221080  19.8699640  65.6628930  53.8151380  19.8189150  68.4400910
  52.8654090  19.7852690  68.5545900  53.9964390  20.7289260  68.2050680
  39.6695820  18.0690830  57.5499540  40.3787520  17.6474050  57.0646820
  38.9535760  18.1366060  56.9182890  39.3169980  14.1230160  56.5902190
  40.0398110  14.6639100  56.9083410  39.5894500  13.8493580  55.7143730
  53.1261630  18.9922630  60.8573770  53.6220750  18.7593500  61.6422650
  52.9277700  18.1534470  60.4411410  39.0062170  13.3736350  66.4924810
  39.6538360  12.8233730  66.0519970  39.4264010  13.6279500  67.3140620
  54.5548790  17.6283580  63.3911450  54.4448070  17.4739620  64.3293720
  55.3156380  17.1004520  63.1486860  52.9014510  13.5677710  69.8494450
  53.5386730  14.1811850  70.2153640  53.0489400  13.6038370  68.9043680
  55.4439060  15.4591500  56.6317590  56.3688370  15.3272680  56.4235880
  55.4214850  15.5384320  57.5854040  55.5177550  16.2302160  59.2574300
  54.7229050  16.1647280  59.7867210  55.7220830  17.1652800  59.2459650
  52.4595970  30.2693710  63.2512690  53.0555040  29.9478280  62.5747110
  52.7174120  29.7965530  64.0425960  38.7594170  13.5292020  69.2350130
  38.4108990  13.9855840  70.0008310  38.4281870  12.6349150  69.3172560
  44.0664570  28.2571210  69.0013040  43.8255930  28.5245770  68.1143560
  45.0067210  28.4276940  69.0563900  55.3268730  30.2765590  69.8023680
  54.8327010  30.6734460  69.0850810  54.7182020  29.6514800  70.1960960
  40.2046570  29.6473870  70.5201100  39.6106890  29.5158570  71.2591140
  40.1970410  28.8112010  70.0543200  49.6501590  12.9406100  68.7231130
  48.7761430  13.2741210  68.5204060  49.5412340  12.4679280  69.5483000
  50.5573570  15.1476970  70.1072850  50.2286930  14.3328730  69.7274580
  51.5055870  15.1046780  69.9838540  53.0108180  30.9189010  67.0810420
  52.5511150  31.6704820  66.7068440  52.3820640  30.1995480  67.0225220
  39.8358800  27.0132250  69.4709140  39.1092860  26.3937540  69.4035090
  39.8967950  27.4072860  68.6007220  43.4403900  29.2277250  66.2558550
  43.9568920  28.6164610  65.7306810  44.0901280  29.7306030  66.7469560
  46.1799400  30.1185740  67.0827530  46.4677210  29.8640040  66.2060540
  46.6922620  29.5663100  67.6733100  47.3976410  13.8575940  67.6624040
  46.6148200  14.3321440  67.9420800  47.1039340  12.9530770  67.5537220
  51.9497480  14.5599040  65.7073130  52.3905570  14.5044140  64.8594730
  51.6805070  15.4757050  65.7783310  53.8136050  14.1914280  63.7181950
  53.7524450  13.2475500  63.5712970  54.5928080  14.2994370  64.2635410
  38.1188800  30.3306640  62.6805900  37.9510840  29.6977320  63.3787790
  37.2523310  30.5366040  62.3300090  38.7416820  14.1623420  60.1837760
  39.4996180  14.2752300  59.6101790  38.2793990  14.9992620  60.1381190
  45.2830630  16.2762690  63.1740070  44.4705140  15.9019580  62.8335950
  45.7872270  15.5207770  63.4761260  49.7855610  12.9405140  64.4123140
  50.3884980  13.5125350  64.8871660  49.0448600  13.5044580  64.1897040
  52.9290210  13.3426700  59.6863420  53.1240840  14.2410150  59.9530850
  52.1420080  13.1113780  60.1796370  39.7251500  29.0239870  60.1256040
  39.1999120  29.4047900  59.4218000  39.6496080  29.6490640  60.8465750
  41.1141970  14.6887470  58.7239730  41.6434730  13.9017270  58.5947680
  41.7470290  15.3678660  58.9575260  43.3079810  14.4262610  61.7785120
  42.6782550  13.7249920  61.9455250  42.7684950  15.1866740  61.5618280
  54.4816820  30.5827410  61.4469980  54.6569010  29.8965150  60.8030900
  53.7838390  31.1074460  61.0546650  42.3244470  30.9722250  59.0005290
  43.0563290  30.6881530  58.4529180  42.5838140  30.7335530  59.8904670
  41.4859260  27.0886980  59.0051620  40.8568140  27.5572080  59.5537450
  41.6007090  26.2436200  59.4397810  48.9408980  21.1392640  45.1552820
  48.8603030  20.2247250  44.8844530  48.5273400  21.6359710  44.4492530
  47.0727020  22.9171660  47.0362090  46.2969120  22.4372100  47.3260660
  47.7239950  22.2377310  46.8618250  41.0892850  23.2291470  47.9137850
  40.2577730  22.9740180  48.3134360  41.6973830  23.3002240  48.6495770
  51.0934450  27.3231850  45.8161220  50.6315980  26.5519090  46.1448390
  51.9060000  27.3497920  46.3213670  39.4984800  18.1893360  41.6980240
  38.6101500  18.5309330  41.5960120  39.7825990  17.9893680  40.8061070
  38.7042680  16.1983370  49.3688870  38.5245520  15.3009120  49.6491630
  38.3022760  16.7455240  50.0435820  47.5441180  18.3999230  47.2701180
  47.9206000  17.5271110  47.1574850  47.4460690  18.7357930  46.3791620
  41.6746190  16.7724860  42.7318620  41.7812940  17.6728590  43.0387380
  40.7638550  16.7242830  42.4413270  51.3265300  15.8949670  44.2029520
  52.1474920  15.4046240  44.2455000  51.3599380  16.4847330  44.9561360
  39.3229350  18.6943870  47.9771210  40.0039460  18.9582240  48.5958610
  39.0077400  17.8544740  48.3109220  43.5153920  19.7411230  47.0643800
  44.0232140  20.2392200  47.7048820  44.0467160  18.9646430  46.8883160
  55.6164850  17.9116420  50.7673150  54.9117020  18.2998130  50.2488260
  55.8822770  18.6066710  51.3694080  41.7990020  14.3809790  51.3307220
  41.8008460  14.8982180  50.5253120  40.9694330  13.9039970  51.3077150
  48.1861110  24.4929100  42.8297120  47.5678380  24.9578550  42.2659840
  48.6984360  25.1856580  43.2466630  51.5626780  17.8350050  46.9757060
  50.8582350  18.1234940  47.5560170  51.9238940  18.6450160  46.6156620
  41.4805350  16.0919750  49.3377670  41.8222160  16.9361800  49.0431540
  40.5421160  16.2403490  49.4543010  53.1789560  27.4525180  49.2384540
  52.4953080  28.1224290  49.2301210  53.7183850  27.6505830  48.4729400
  54.6313700  17.2804840  47.3666270  53.6838610  17.3143820  47.4981700
  54.9563690  18.0943790  47.7515630  45.1633240  13.5802020  45.6622260
  45.4708220  13.0248910  44.9457760  44.2333940  13.7146480  45.4795250
  52.0093720  26.0185530  43.0419890  51.8990050  25.0759860  43.1669310
  52.0061970  26.3801170  43.9282650  50.1133740  24.1999150  49.2812330
  50.5302530  23.9859260  48.4465790  50.8373560  24.4571940  49.8520950
  47.5514000  21.6450850  42.3982380  46.6243280  21.5788230  42.6270850
  47.7038820  22.5830980  42.2837620  47.5383080  17.9167850  39.3949540
  46.5986750  18.0781810  39.4802000  47.8566340  18.6353530  38.8485530
  54.0595840  22.5986370  49.3728570  53.2314470  22.6679460  48.8978700
  54.6546320  23.1840680  48.9044400  51.5811290  23.2071150  42.9017630
  50.9623710  22.8690700  42.2543930  51.5635740  22.5630910  43.6096820
  51.0237850  19.3855690  50.3183440  50.6109030  20.2109400  50.5723430
  50.2913800  18.8000730  50.1259800  43.1570640  22.1715590  45.1802110
  42.7527640  21.4592840  44.6848010  43.2433760  21.8268830  46.0690150
  41.8699260  18.9458800  48.9601150  42.4213850  19.0554140  48.1854400
  42.3842770  19.3196400  49.6756380  51.7137950  29.4315020  51.0064420
  51.2368510  30.2387210  50.8137030  51.0299740  28.7793350  51.1590630
  42.7170770  25.5964840  53.9949120  41.8199300  25.8204810  54.2422520
  42.7423640  25.7199780  53.0460520  49.7575990  22.4457960  39.9090380
  50.1969270  21.6080390  39.7628200  50.4704410  23.0787360  39.9954520
  41.5441990  22.4678160  52.5706490  41.4049760  23.3400960  52.9393890
  40.6623350  22.1250970  52.4254430  47.8671370  27.3854030  43.8771620
  48.3067280  28.1278360  43.4627010  47.8058260  27.6280600  44.8010580
  43.3422340  28.4099860  54.7791640  43.3137770  28.8142810  53.9120070
  43.1787310  27.4810220  54.6163240  53.3393130  13.7000770  38.2231420
  53.0265790  13.7927600  39.1230490  54.1005600  14.2781800  38.1728850
  39.8575270  21.0660570  42.6808760  39.7372870  21.7922660  42.0690030
  39.5476160  20.2963480  42.2036670  55.2937160  29.1926960  56.0755810
  55.7696880  29.6709850  56.7544890  55.9144320  29.1244450  55.3501310
  54.6970410  26.3839810  53.2355820  54.8233470  26.1451690  52.3173000
  54.7391790  25.5524350  53.7077900  48.5587150  30.0867810  51.8050630
  49.0731820  29.9975820  52.6073060  47.7156230  30.4327510  52.0978540
  54.5494420  18.4372270  54.2005560  53.9338690  18.9451940  53.6721020
  54.2290840  17.5370600  54.1431500  37.5520160  25.2789880  51.0271860
  37.7151200  24.8095240  50.2091230  38.0172610  24.7713440  51.6920700
  42.3238930  14.4095640  46.0632430  41.8807080  15.1905180  45.7316950
  42.8823920  14.7325530  46.7703370  46.6108740  17.2764160  51.6667750
  46.1488110  17.4847180  52.4787690  46.2086850  16.4623510  51.3638420
  51.6113250  18.4973110  52.7964410  50.7606840  18.1978860  53.1173480
  51.4515040  18.7415120  51.8848230  48.7062960  19.9974860  54.8963200
  49.0316370  19.1638610  54.5565430  49.4943290  20.5203380  55.0441530
  45.4397750  14.0306340  40.9438260  44.8151930  14.0266210  41.6691570
  45.3527870  13.1637300  40.5474230  44.3614830  14.9542970  47.9222030
  44.6587160  15.8605800  47.8414050  44.9100390  14.4661750  47.3081600
  42.1153150  19.5329210  43.7913680  41.8894070  19.3166380  44.6960300
  41.3345680  19.9657670  43.4459650  49.3450910  19.5392580  42.3904330
  48.7459800  20.2628380  42.2067950  49.8930520  19.4769360  41.6080780
  44.5552360  20.4314790  54.4573950  44.4595960  19.4909520  54.3074350
  45.3984340  20.6529860  54.0622020  47.9515780  18.1756120  44.4207610
  48.3445350  18.4928320  43.6076300  48.3132630  17.2968000  44.5352130
  39.6862900  16.8428460  52.6107730  39.2926290  17.6903670  52.8180510
  38.9981300  16.2054830  52.8016370  46.2607950  16.9263430  55.6804470
  45.5706270  16.7335630  56.3150560  47.0040250  17.2098070  56.2128770
  36.9879950  14.7656920  46.6437810  36.6993000  15.3359780  47.3562790
  37.7325710  14.2861370  47.0069040  37.1750180  18.7077040  37.8540530
  37.0924850  19.6507800  37.9955520  36.8233240  18.5651950  36.9752880
  48.5370920  20.7661870  48.5158390  47.8052040  21.2748680  48.8648490
  48.1395260  19.9491850  48.2147170  44.9748310  17.4416070  46.9210880
  44.9784370  17.0006020  46.0715420  45.8699430  17.7633400  47.0282700
  40.8250690  17.3242560  45.8805090  40.4850740  17.8017790  46.6372140
  40.0628010  16.8707680  45.5206190  45.0368460  18.4428150  39.9117640
  45.1581280  18.4014630  40.8603460  44.6516970  19.3052300  39.7564370
  48.9996830  16.2195550  47.9281330  49.0169570  16.6704200  48.7723180
  48.7512410  15.3201190  48.1414770  44.0489960  20.7529290  39.3100940
  43.4806860  20.3047540  38.6836850  44.7578960  21.1122070  38.7766090
  52.4267580  13.6327730  53.7667710  52.7513350  12.9017390  54.2925690
  52.4624090  13.3141370  52.8648700  39.1259140  24.6541310  53.1867670
  38.7413930  24.0134980  53.7850630  39.4371330  25.3577430  53.7562400
  45.2756280  21.5017850  48.6676290  45.6426410  21.0276420  49.4137630
  45.0861340  22.3759420  49.0084630  38.1396770  16.2461540  44.7969760
  37.8543690  15.8817210  45.6348380  38.0775630  15.5142000  44.1832900
  43.0655650  20.5426490  50.9860500  42.7612720  21.4218470  51.2110860
  44.0202110  20.6026280  51.0217940  52.3525420  23.7452840  47.3753740
  53.0724540  24.2408130  46.9849850  52.1507240  23.0670730  46.7307610
  47.8135360  15.1390800  41.5183130  46.9999970  14.6403970  41.4428440
  47.6197310  15.9789050  41.1019480  47.7344220  23.8161900  53.2622740
  47.6681530  22.8957570  53.0080330  47.1049360  23.9137340  53.9767380
  50.5283750  19.5110450  39.8145290  51.4163370  19.8227680  39.6396630
  50.4988840  18.6382700  39.4225870  46.5244340  25.6834140  40.4933460
  46.8660040  26.4276370  39.9976780  45.6957050  25.9965260  40.8558290
  39.1219380  21.3829230  52.1331860  38.7634320  22.0483080  52.7205200
  38.8273940  20.5512780  52.5044480  42.3232500  21.8413470  55.0171410
  42.0232640  21.9870650  54.1199230  43.0943740  21.2818760  54.9244800
  47.6660950  26.6382470  53.0126540  47.6805490  25.7063430  52.7945450
  46.9586050  26.7242230  53.6516310  52.7998020  20.8222290  39.2825150
  52.7161740  21.2536510  38.4321590  53.5192210  21.2820640  39.7151970
  53.8772160  23.2789810  52.3595120  53.1520350  23.8718590  52.1624510
  54.4047620  23.2713350  51.5608490  53.8285270  27.6764550  42.0107280
  53.1861430  27.0220170  42.2851000  53.4415930  28.0819640  41.2347950
  49.4071750  25.0049980  45.8578970  49.7595570  24.4078110  45.1980340
  48.5234080  24.6794210  46.0287220  37.6327430  21.3820490  38.7566460
  38.5022280  21.6645290  39.0402380  37.1417750  22.1956360  38.6415270
  44.7962240  22.7693700  42.8774740  45.2525020  23.5798950  43.1034930
  44.4450450  22.4516840  43.7093230  40.6974020  13.1131350  43.3497260
  40.5688650  13.1049250  44.2982180  39.8736040  13.4514440  42.9988270
  48.3726930  26.2832390  48.8244490  49.0149160  25.5825550  48.9376660
  48.8976280  27.0630830  48.6441380  52.2182650  26.5681010  38.5483630
  51.9920230  25.8511450  39.1408270  51.8278850  26.3193450  37.7105380
  50.1464550  27.0827290  52.0280550  50.4820790  27.6693980  52.7058470
  49.2264890  26.9520000  52.2578340  37.6967950  14.8722470  52.8103960
  36.9826470  15.0719390  53.4156570  38.1162990  14.0962040  53.1818760
  51.7998900  24.4852950  40.2097790  51.5120600  24.9465640  40.9975670
  52.5951070  24.0250720  40.4782010  37.9840540  28.8602730  53.7970490
  38.0931660  27.9197470  53.6565880  37.3321100  29.1257480  53.1484220
  45.9753130  27.1318620  55.1968610  45.6550000  26.4127860  55.7414300
  45.3011490  27.8073690  55.2704670  49.1906730  17.3644780  50.5605410
  49.5587550  16.5439990  50.8884980  48.3304930  17.4246670  50.9761060
  52.5568760  16.3201720  41.3692970  51.9281920  16.4247390  40.6551200
  52.0620680  16.5398500  42.1586850  44.5252790  18.5987670  42.7850850
  43.8168940  19.0674010  43.2264460  44.8097270  17.9409680  43.4196040
  46.1508720  20.0184370  50.7843380  46.6493970  20.4930190  51.4495230
  46.2931670  19.0947890  50.9913410  48.5568220  15.3238330  44.2246640
  48.4336000  15.3424460  43.2756150  49.5052780  15.3717270  44.3445040
  42.7287810  16.9072750  40.1601560  43.5778340  17.3442900  40.0941750
  42.3619080  17.2193010  40.9873620  53.3575580  16.2352330  51.6271770
  52.8549180  16.9757730  51.9665580  54.1732240  16.6236330  51.3108560
  51.6497590  21.4785510  45.0733130  50.7087730  21.4935740  45.2480820
  51.9641660  20.6921470  45.5193430  41.6279230  23.1605110  38.6337090
  42.3942500  23.0486470  39.1962520  41.7053920  22.4643080  37.9813860
  40.3225990  20.5930180  39.3169980  40.4029580  19.6457690  39.4287380
  41.2145740  20.9237060  39.4230640  40.1298980  29.9271640  55.6090100
  40.9311710  30.2483690  56.0225500  39.6150800  29.5667220  56.3310010
  48.9663610  26.0351510  55.5565510  48.3601770  26.0583110  54.8161260
  48.6617720  25.3034550  56.0932760  50.3963980  29.7631800  54.1674920
  51.3485730  29.6789820  54.1175160  50.2492200  30.4273510  54.8408710
  53.2873180  29.1426010  39.6666830  53.0014690  28.7291150  38.8521010
  53.0892730  30.0713720  39.5467350  37.8496790  22.4145100  54.5526150
  38.3535810  21.8352380  55.1242380  37.1104210  22.6985330  55.0902520
  44.9034730  23.8216090  54.0861670  44.1380400  24.3901090  54.0016340
  45.0850690  23.5292300  53.1929900  47.9923140  24.1979320  38.7114430
  47.4433240  24.6448620  39.3557170  48.6142400  23.6928570  39.2352100
  52.0458080  25.5521420  54.6436690  52.7867550  25.8897180  54.1404150
  51.2830760  25.7213480  54.0906460  39.8819870  20.5574690  55.4476220
  39.9225210  20.2588560  56.3561450  40.7365370  20.9582300  55.2883740
  43.6598260  23.1570240  40.6079730  44.0814680  22.9910110  41.4511120
  43.7849100  22.3470470  40.1134870  41.8225680  19.1366790  53.4150710
  41.2922140  18.6457740  52.7874050  42.4913750  19.5650990  52.8808640
  46.1725900  22.1807850  37.8556830  46.6931560  21.4656870  37.4897980
  46.8194300  22.8193720  38.1557340  50.7203740  23.6036250  53.1791900
  51.1344760  23.7581330  54.0282320  49.7854740  23.7291470  53.3417680
  51.1925910  20.9432410  55.1831050  51.7746680  20.1884730  55.0951530
  51.3687680  21.4739850  54.4062530  42.3097980  16.1029160  53.4948000
  42.2154850  15.4849910  52.7698870  41.7295370  16.8295450  53.2677910
  45.0759420  14.6602400  50.5275390  44.6276720  14.6826660  49.6820940
  44.4424620  14.2621420  51.1245690  45.4818970  23.5556730  51.1487830
  45.9007080  24.3989460  50.9764070  44.5627600  23.6928770  50.9194610
  47.8182870  21.2872910  52.5325670  47.9379080  20.6914050  53.2720510
  48.6776870  21.3242600  52.1126970  50.1570770  21.8410100  51.1088180
  49.6305990  22.3652720  50.5053320  50.5002110  22.4737490  51.7397910
  42.5557160  19.2303470  37.5537890  42.3546220  18.3670830  37.9151230
  42.3849210  19.1436830  36.6159490  43.3326390  29.8609740  52.2645560
  42.7947480  30.5855800  51.9454260  43.5860350  29.3840080  51.4742900
  44.5851640  17.8294260  53.7901490  45.1751330  17.5210110  54.4779310
  43.7671880  17.3574010  53.9461390  49.4045070  17.4460070  54.0234510
  48.7160590  16.7841610  53.9584500  50.1251090  16.9998340  54.4682970
  50.0345470  14.0411700  40.0824770  50.3147760  13.1979600  40.4384190
  49.2611200  14.2734810  40.5963520  41.3539960  16.3304090  37.5415770
  41.6565860  16.3371520  36.6334920  42.0934550  15.9801950  38.0383430
  46.1888600  31.0960950  52.5232210  46.1147300  31.9996090  52.8304580
  45.2867440  30.7772850  52.4954280  44.5724890  15.2738710  38.5271970
  44.2246890  14.5962700  37.9474420  44.7737660  14.8128220  39.3415360
  53.7168280  28.7923130  52.8524770  53.1170270  28.8515690  52.1088690
  53.8462180  27.8528110  52.9821620  54.9569730  26.5340950  38.1894480
  54.1262690  26.6017600  38.6601710  55.1341560  27.4245070  37.8861340
  54.4126190  23.2788430  40.6928680  55.1745100  23.8485080  40.7988370
  54.4280560  22.7115630  41.4636990  55.4186160  24.1338530  45.5370610
  55.7894990  23.3505850  45.1306580  56.0588090  24.8227630  45.3587910
  52.4019920  25.5175110  50.9500930  51.5879760  25.9472270  51.2126720
  52.8094120  26.1293520  50.3369980  54.4645360  23.5722800  37.8501200
  54.7394200  24.4801680  37.7220420  54.2756100  23.5085330  38.7863190
  50.8620970  16.5967650  39.1454830  51.2805850  16.4098630  38.3051490
  50.5557030  15.7446700  39.4557760  54.3610700  21.5091790  42.8430630
  53.9854300  20.7419720  42.4111920  53.6313820  21.8914490  43.3305560
  38.9506460  22.1878930  49.4639680  39.3179500  22.1006330  50.3435700
  38.3817280  21.4245480  49.3646540  53.7510320  20.6563310  52.4770150
  53.5196410  20.4276060  51.5768100  54.0114870  21.5762860  52.4315040
  38.5022460  19.0988020  53.3698100  37.6078510  19.0654780  53.7091810
  39.0420010  19.2974810  54.1349350  52.1898390  15.8819740  55.2549850
  53.0668570  15.8903140  55.6383850  52.2019230  15.1450580  54.6442200
  37.1268610  19.0125290  40.8661670  36.2232690  19.2755490  40.6913330
  37.6109230  19.2836460  40.0861630  53.6361660  19.7349280  46.1437870
  54.1599140  19.2411930  45.5128040  54.2221080  19.8699640  46.8885440
  53.8151380  19.8189150  49.6657420  52.8654090  19.7852690  49.7802410
  53.9964390  20.7289260  49.4307190  39.6695820  18.0690830  38.7756050
  40.3787520  17.6474050  38.2903330  38.9535760  18.1366060  38.1439400
  39.3169980  14.1230160  37.8158700  40.0398110  14.6639100  38.1339920
  39.5894500  13.8493580  36.9400240  53.1261630  18.9922630  42.0830280
  53.6220750  18.7593500  42.8679160  52.9277700  18.1534470  41.6667920
  39.0062170  13.3736350  47.7181320  39.6538360  12.8233730  47.2776480
  39.4264010  13.6279500  48.5397130  54.5548790  17.6283580  44.6167960
  54.4448070  17.4739620  45.5550230  55.3156380  17.1004520  44.3743370
  52.9014510  13.5677710  51.0750960  53.5386730  14.1811850  51.4410150
  53.0489400  13.6038370  50.1300190  55.4439060  15.4591500  37.8574100
  56.3688370  15.3272680  37.6492390  55.4214850  15.5384320  38.8110550
  55.5177550  16.2302160  40.4830810  54.7229050  16.1647280  41.0123720
  55.7220830  17.1652800  40.4716160  38.7594170  13.5292020  50.4606640
  38.4108990  13.9855840  51.2264820  38.4281870  12.6349150  50.5429070
  40.3658540  26.7011620  54.6259830  40.3228170  26.3304530  55.5074290
  40.4969550  27.6389190  54.7661650  46.2718990  14.7203900  53.9826060
  46.2107880  15.3125730  54.7321470  47.2119370  14.6129860  53.8376320
  48.9093550  14.3773960  53.6218350  49.5233960  14.6953250  52.9599430
  49.4543110  13.8922550  54.2414210  55.3268730  30.2765590  51.0280190
  54.8327010  30.6734460  50.3107320  54.7182020  29.6514800  51.4217470
  39.4314810  13.0568220  53.7357410  39.9797800  12.8756270  52.9723520
  39.4970120  12.2662330  54.2713720  40.2046570  29.6473870  51.7457610
  39.6106890  29.5158570  52.4847650  40.1970410  28.8112010  51.2799710
  49.6501590  12.9406100  49.9487640  48.7761430  13.2741210  49.7460570
  49.5412340  12.4679280  50.7739510  50.5573570  15.1476970  51.3329360
  50.2286930  14.3328730  50.9531090  51.5055870  15.1046780  51.2095050
  39.8358800  27.0132250  50.6965650  39.1092860  26.3937540  50.6291600
  39.8967950  27.4072860  49.8263730  47.3976410  13.8575940  48.8880550
  46.6148200  14.3321440  49.1677310  47.1039340  12.9530770  48.7793730
  51.9497480  14.5599040  46.9329640  52.3905570  14.5044140  46.0851240
  51.6805070  15.4757050  47.0039820  53.8136050  14.1914280  44.9438460
  53.7524450  13.2475500  44.7969480  54.5928080  14.2994370  45.4891920
  38.7416820  14.1623420  41.4094270  39.4996180  14.2752300  40.8358300
  38.2793990  14.9992620  41.3637700  45.2830630  16.2762690  44.3996580
  44.4705140  15.9019580  44.0592460  45.7872270  15.5207770  44.7017770
  49.7855610  12.9405140  45.6379650  50.3884980  13.5125350  46.1128170
  49.0448600  13.5044580  45.4153550  52.9290210  13.3426700  40.9119930
  53.1240840  14.2410150  41.1787360  52.1420080  13.1113780  41.4052880
  41.1141970  14.6887470  39.9496240  41.6434730  13.9017270  39.8204190
  41.7470290  15.3678660  40.1831770  43.3079810  14.4262610  43.0041630
  42.6782550  13.7249920  43.1711760  42.7684950  15.1866740  42.7874790
  46.2471760  31.0401840  55.6752240  47.1739070  30.8046110  55.7188200
  46.2322190  31.8673840  55.1938270  54.4816820  30.5827410  42.6726490
  54.6569010  29.8965150  42.0287410  53.7838390  31.1074460  42.2803160
  43.4335370  13.7046590  55.4394120  43.1519640  14.2080190  54.6754940
  43.8155070  12.9068340  55.0736250  50.0350830  13.1200170  56.0174590
  49.9216280  13.4394780  56.9126110  50.8520570  13.5212680  55.7211870
  52.8149320  30.2671700  55.4993280  53.6074640  29.7720930  55.2919240
  53.1082470  30.9461840  56.1068890  48.9408980  21.1392640  26.3809330
  48.8603030  20.2247250  26.1101040  48.5273400  21.6359710  25.6749040
  47.0727020  22.9171660  28.2618600  46.2969120  22.4372100  28.5517170
  47.7239950  22.2377310  28.0874760  41.0892850  23.2291470  29.1394360
  40.2577730  22.9740180  29.5390870  41.6973830  23.3002240  29.8752280
  51.0934450  27.3231850  27.0417730  50.6315980  26.5519090  27.3704900
  51.9060000  27.3497920  27.5470180  39.4984800  18.1893360  22.9236750
  38.6101500  18.5309330  22.8216630  39.7825990  17.9893680  22.0317580
  37.4617810  20.7899010  28.8076450  38.0333920  20.0221210  28.8080090
  37.4619350  21.0887770  27.8983060  46.5136010  25.5928850  28.2688760
  46.4444290  24.6518790  28.1077890  47.2755870  25.6830260  28.8411330
  38.7042680  16.1983370  30.5945380  38.5245520  15.3009120  30.8748140
  38.3022760  16.7455240  31.2692330  47.5441180  18.3999230  28.4957690
  47.9206000  17.5271110  28.3831360  47.4460690  18.7357930  27.6048130
  41.6746190  16.7724860  23.9575130  41.7812940  17.6728590  24.2643890
  40.7638550  16.7242830  23.6669780  51.3265300  15.8949670  25.4286030
  52.1474920  15.4046240  25.4711510  51.3599380  16.4847330  26.1817870
  39.3229350  18.6943870  29.2027720  40.0039460  18.9582240  29.8215120
  39.0077400  17.8544740  29.5365730  43.5153920  19.7411230  28.2900310
  44.0232140  20.2392200  28.9305330  44.0467160  18.9646430  28.1139670
  55.6164850  17.9116420  31.9929660  54.9117020  18.2998130  31.4744770
  55.8822770  18.6066710  32.5950590  41.7990020  14.3809790  32.5563730
  41.8008460  14.8982180  31.7509630  40.9694330  13.9039970  32.5333660
  48.1861110  24.4929100  24.0553630  47.5678380  24.9578550  23.4916350
  48.6984360  25.1856580  24.4723140  43.0492870  24.0204970  30.7337230
  42.7162250  24.6473890  31.3758300  43.2259550  24.5466850  29.9538900
  51.5626780  17.8350050  28.2013570  50.8582350  18.1234940  28.7816680
  51.9238940  18.6450160  27.8413130  41.4805350  16.0919750  30.5634180
  41.8222160  16.9361800  30.2688050  40.5421160  16.2403490  30.6799520
  37.5544310  25.1785630  21.4293260  37.1772290  25.6672730  20.6978160
  37.8117380  25.8510910  22.0599790  53.1789560  27.4525180  30.4641050
  52.4953080  28.1224290  30.4557720  53.7183850  27.6505830  29.6985910
  54.6313700  17.2804840  28.5922780  53.6838610  17.3143820  28.7238210
  54.9563690  18.0943790  28.9772140  45.1633240  13.5802020  26.8878770
  45.4708220  13.0248910  26.1714270  44.2333940  13.7146480  26.7051760
  52.0093720  26.0185530  24.2676400  51.8990050  25.0759860  24.3925820
  52.0061970  26.3801170  25.1539160  50.1133740  24.1999150  30.5068840
  50.5302530  23.9859260  29.6722300  50.8373560  24.4571940  31.0777460
  47.5514000  21.6450850  23.6238890  46.6243280  21.5788230  23.8527360
  47.7038820  22.5830980  23.5094130  47.5383080  17.9167850  20.6206050
  46.5986750  18.0781810  20.7058510  47.8566340  18.6353530  20.0742040
  54.0595840  22.5986370  30.5985080  53.2314470  22.6679460  30.1235210
  54.6546320  23.1840680  30.1300910  51.5811290  23.2071150  24.1274140
  50.9623710  22.8690700  23.4800440  51.5635740  22.5630910  24.8353330
  51.0237850  19.3855690  31.5439950  50.6109030  20.2109400  31.7979940
  50.2913800  18.8000730  31.3516310  43.1570640  22.1715590  26.4058620
  42.7527640  21.4592840  25.9104520  43.2433760  21.8268830  27.2946660
  41.8699260  18.9458800  30.1857660  42.4213850  19.0554140  29.4110910
  42.3842770  19.3196400  30.9012890  49.7575990  22.4457960  21.1346890
  50.1969270  21.6080390  20.9884710  50.4704410  23.0787360  21.2211030
  41.5441990  22.4678160  33.7963000  41.4049760  23.3400960  34.1650400
  40.6623350  22.1250970  33.6510940  47.8671370  27.3854030  25.1028130
  48.3067280  28.1278360  24.6883520  47.8058260  27.6280600  26.0267090
  53.3393130  13.7000770  19.4487930  53.0265790  13.7927600  20.3487000
  54.1005600  14.2781800  19.3985360  39.8575270  21.0660570  23.9065270
  39.7372870  21.7922660  23.2946540  39.5476160  20.2963480  23.4293180
  55.2937160  29.1926960  37.3012320  55.7696880  29.6709850  37.9801400
  55.9144320  29.1244450  36.5757820  37.4960640  24.2375710  29.7133910
  37.5741060  24.3724480  28.7689630  38.1102320  23.5291600  29.9062030
  38.7408270  25.9375900  26.1240090  38.3336350  26.0790490  25.2693690
  39.6321280  25.6536060  25.9211300  54.6970410  26.3839810  34.4612330
  54.8233470  26.1451690  33.5429510  54.7391790  25.5524350  34.9334410
  50.5341550  30.3723150  22.4591140  50.3742690  30.0826090  23.3572970
  50.3688260  29.5963280  21.9236370  50.2367680  27.8810710  21.0189140
  49.5432840  27.8788000  20.3591420  50.9790540  27.4570030  20.5883310
  54.5494420  18.4372270  35.4262070  53.9338690  18.9451940  34.8977530
  54.2290840  17.5370600  35.3688010  42.3238930  14.4095640  27.2888940
  41.8807080  15.1905180  26.9573460  42.8823920  14.7325530  27.9959880
  46.6108740  17.2764160  32.8924260  46.1488110  17.4847180  33.7044200
  46.2086850  16.4623510  32.5894930  51.6113250  18.4973110  34.0220920
  50.7606840  18.1978860  34.3429990  51.4515040  18.7415120  33.1104740
  48.7062960  19.9974860  36.1219710  49.0316370  19.1638610  35.7821940
  49.4943290  20.5203380  36.2698040  45.4397750  14.0306340  22.1694770
  44.8151930  14.0266210  22.8948080  45.3527870  13.1637300  21.7730740
  44.3614830  14.9542970  29.1478540  44.6587160  15.8605800  29.0670560
  44.9100390  14.4661750  28.5338110  42.1153150  19.5329210  25.0170190
  41.8894070  19.3166380  25.9216810  41.3345680  19.9657670  24.6716160
  49.3450910  19.5392580  23.6160840  48.7459800  20.2628380  23.4324460
  49.8930520  19.4769360  22.8337290  44.5552360  20.4314790  35.6830460
  44.4595960  19.4909520  35.5330860  45.3984340  20.6529860  35.2878530
  47.9515780  18.1756120  25.6464120  48.3445350  18.4928320  24.8332810
  48.3132630  17.2968000  25.7608640  39.6862900  16.8428460  33.8364240
  39.2926290  17.6903670  34.0437020  38.9981300  16.2054830  34.0272880
  46.2607950  16.9263430  36.9060980  45.5706270  16.7335630  37.5407070
  47.0040250  17.2098070  37.4385280  36.9879950  14.7656920  27.8694320
  36.6993000  15.3359780  28.5819300  37.7325710  14.2861370  28.2325550
  37.1750180  18.7077040  19.0797040  37.0924850  19.6507800  19.2212030
  36.8233240  18.5651950  18.2009390  48.5370920  20.7661870  29.7414900
  47.8052040  21.2748680  30.0905000  48.1395260  19.9491850  29.4403680
  44.9748310  17.4416070  28.1467390  44.9784370  17.0006020  27.2971930
  45.8699430  17.7633400  28.2539210  40.8250690  17.3242560  27.1061600
  40.4850740  17.8017790  27.8628650  40.0628010  16.8707680  26.7462700
  45.0368460  18.4428150  21.1374150  45.1581280  18.4014630  22.0859970
  44.6516970  19.3052300  20.9820880  48.9996830  16.2195550  29.1537840
  49.0169570  16.6704200  29.9979690  48.7512410  15.3201190  29.3671280
  44.0489960  20.7529290  20.5357450  43.4806860  20.3047540  19.9093360
  44.7578960  21.1122070  20.0022600  52.4267580  13.6327730  34.9924220
  52.7513350  12.9017390  35.5182200  52.4624090  13.3141370  34.0905210
  45.2756280  21.5017850  29.8932800  45.6426410  21.0276420  30.6394140
  45.0861340  22.3759420  30.2341140  38.1396770  16.2461540  26.0226270
  37.8543690  15.8817210  26.8604890  38.0775630  15.5142000  25.4089410
  43.0655650  20.5426490  32.2117010  42.7612720  21.4218470  32.4367370
  44.0202110  20.6026280  32.2474450  41.5937440  24.7487480  22.8083860
  40.8199700  24.2085100  22.6482580  42.3232070  24.2294090  22.4701620
  52.3525420  23.7452840  28.6010250  53.0724540  24.2408130  28.2106360
  52.1507240  23.0670730  27.9564120  47.8135360  15.1390800  22.7439640
  46.9999970  14.6403970  22.6684950  47.6197310  15.9789050  22.3275990
  47.7344220  23.8161900  34.4879250  47.6681530  22.8957570  34.2336840
  47.1049360  23.9137340  35.2023890  50.5283750  19.5110450  21.0401800
  51.4163370  19.8227680  20.8653140  50.4988840  18.6382700  20.6482380
  41.6374840  24.4167860  26.4462670  42.1553510  23.6136120  26.3919560
  41.1858860  24.3547000  27.2879500  46.5244340  25.6834140  21.7189970
  46.8660040  26.4276370  21.2233290  45.6957050  25.9965260  22.0814800
  39.1219380  21.3829230  33.3588370  38.7634320  22.0483080  33.9461710
  38.8273940  20.5512780  33.7300990  42.3232500  21.8413470  36.2427920
  42.0232640  21.9870650  35.3455740  43.0943740  21.2818760  36.1501310
  47.6660950  26.6382470  34.2383050  47.6805490  25.7063430  34.0201960
  46.9586050  26.7242230  34.8772820  52.7998020  20.8222290  20.5081660
  52.7161740  21.2536510  19.6578100  53.5192210  21.2820640  20.9408480
  53.8772160  23.2789810  33.5851630  53.1520350  23.8718590  33.3881020
  54.4047620  23.2713350  32.7865000  53.8285270  27.6764550  23.2363790
  53.1861430  27.0220170  23.5107510  53.4415930  28.0819640  22.4604460
  49.4071750  25.0049980  27.0835480  49.7595570  24.4078110  26.4236850
  48.5234080  24.6794210  27.2543730  45.4935030  25.7647670  24.4905890
  46.1806160  26.3116880  24.8713480  44.7067450  26.3088400  24.5255500
  37.6327430  21.3820490  19.9822970  38.5022280  21.6645290  20.2658890
  37.1417750  22.1956360  19.8671780  44.7962240  22.7693700  24.1031250
  45.2525020  23.5798950  24.3291440  44.4450450  22.4516840  24.9349740
  40.6974020  13.1131350  24.5753770  40.5688650  13.1049250  25.5238690
  39.8736040  13.4514440  24.2244780  48.3726930  26.2832390  30.0501000
  49.0149160  25.5825550  30.1633170  48.8976280  27.0630830  29.8697890
  52.2182650  26.5681010  19.7740140  51.9920230  25.8511450  20.3664780
  51.8278850  26.3193450  18.9361890  50.1464550  27.0827290  33.2537060
  50.4820790  27.6693980  33.9314980  49.2264890  26.9520000  33.4834850
  37.9998680  30.5947870  20.5484600  38.3596320  31.1937210  19.8941870
  37.8591020  31.1407760  21.3219630  37.6967950  14.8722470  34.0360470
  36.9826470  15.0719390  34.6413080  38.1162990  14.0962040  34.4075270
  51.7998900  24.4852950  21.4354300  51.5120600  24.9465640  22.2232180
  52.5951070  24.0250720  21.7038520  44.0167300  27.9779070  21.3658270
  44.0077400  28.7108760  20.7502780  43.0965660  27.7310650  21.4585230
  39.6173940  23.1993960  22.1105030  39.0101890  23.9392860  22.1200330
  40.0923290  23.2893320  21.2843230  49.1906730  17.3644780  31.7861920
  49.5587550  16.5439990  32.1141490  48.3304930  17.4246670  32.2017570
  52.5568760  16.3201720  22.5949480  51.9281920  16.4247390  21.8807710
  52.0620680  16.5398500  23.3843360  47.0026900  28.0407310  20.0283460
  47.1038880  27.8371300  19.0985440  46.1028640  27.7865590  20.2331240
  44.5252790  18.5987670  24.0107360  43.8168940  19.0674010  24.4520970
  44.8097270  17.9409680  24.6452550  46.1508720  20.0184370  32.0099890
  46.6493970  20.4930190  32.6751740  46.2931670  19.0947890  32.2169920
  48.5568220  15.3238330  25.4503150  48.4336000  15.3424460  24.5012660
  49.5052780  15.3717270  25.5701550  42.7287810  16.9072750  21.3858070
  43.5778340  17.3442900  21.3198260  42.3619080  17.2193010  22.2130130
  53.3575580  16.2352330  32.8528280  52.8549180  16.9757730  33.1922090
  54.1732240  16.6236330  32.5365070  51.6497590  21.4785510  26.2989640
  50.7087730  21.4935740  26.4737330  51.9641660  20.6921470  26.7449940
  41.6279230  23.1605110  19.8593600  42.3942500  23.0486470  20.4219030
  41.7053920  22.4643080  19.2070370  40.3225990  20.5930180  20.5426490
  40.4029580  19.6457690  20.6543890  41.2145740  20.9237060  20.6487150
  53.6523170  28.6494360  27.9743900  53.7770590  29.4725530  28.4467710
  54.5188730  28.4385090  27.6268050  38.0086180  26.8099140  23.5202540
  37.0825960  27.0520280  23.5107950  38.4742610  27.6373400  23.3987290
  44.2343010  29.9155880  19.4686600  45.0271620  30.2044710  19.0168390
  43.7147360  29.4848050  18.7899080  48.9663610  26.0351510  36.7822020
  48.3601770  26.0583110  36.0417770  48.6617720  25.3034550  37.3189270
  53.2873180  29.1426010  20.8923340  53.0014690  28.7291150  20.0777520
  53.0892730  30.0713720  20.7723860  37.8496790  22.4145100  35.7782660
  38.3535810  21.8352380  36.3498890  37.1104210  22.6985330  36.3159030
  44.7520410  25.1359290  19.3328950  44.6471050  24.5211640  20.0590330
  44.5844630  24.6125180  18.5491960  44.9034730  23.8216090  35.3118180
  44.1380400  24.3901090  35.2272850  45.0850690  23.5292300  34.4186410
  47.9923140  24.1979320  19.9370940  47.4433240  24.6448620  20.5813680
  48.6142400  23.6928570  20.4608610  52.0458080  25.5521420  35.8693200
  52.7867550  25.8897180  35.3660660  51.2830760  25.7213480  35.3162970
  39.8819870  20.5574690  36.6732730  39.9225210  20.2588560  37.5817960
  40.7365370  20.9582300  36.5140250  43.6598260  23.1570240  21.8336240
  44.0814680  22.9910110  22.6767630  43.7849100  22.3470470  21.3391380
  41.8225680  19.1366790  34.6407220  41.2922140  18.6457740  34.0130560
  42.4913750  19.5650990  34.1065150  46.1725900  22.1807850  19.0813340
  46.6931560  21.4656870  18.7154490  46.8194300  22.8193720  19.3813850
  50.7203740  23.6036250  34.4048410  51.1344760  23.7581330  35.2538830
  49.7854740  23.7291470  34.5674190  51.1925910  20.9432410  36.4087560
  51.7746680  20.1884730  36.3208040  51.3687680  21.4739850  35.6319040
  42.3097980  16.1029160  34.7204510  42.2154850  15.4849910  33.9955380
  41.7295370  16.8295450  34.4934420  45.0759420  14.6602400  31.7531900
  44.6276720  14.6826660  30.9077450  44.4424620  14.2621420  32.3502200
  45.4818970  23.5556730  32.3744340  45.9007080  24.3989460  32.2020580
  44.5627600  23.6928770  32.1451120  47.8182870  21.2872910  33.7582180
  47.9379080  20.6914050  34.4977020  48.6776870  21.3242600  33.3383480
  50.1570770  21.8410100  32.3344690  49.6305990  22.3652720  31.7309830
  50.5002110  22.4737490  32.9654420  42.5557160  19.2303470  18.7794400
  42.3546220  18.3670830  19.1407740  42.3849210  19.1436830  17.8416000
  44.5851640  17.8294260  35.0158000  45.1751330  17.5210110  35.7035820
  43.7671880  17.3574010  35.1717900  49.4045070  17.4460070  35.2491020
  48.7160590  16.7841610  35.1841010  50.1251090  16.9998340  35.6939480
  50.0345470  14.0411700  21.3081280  50.3147760  13.1979600  21.6640700
  49.2611200  14.2734810  21.8220030  41.3539960  16.3304090  18.7672280
  41.6565860  16.3371520  17.8591430  42.0934550  15.9801950  19.2639940
  44.5724890  15.2738710  19.7528480  44.2246890  14.5962700  19.1730930
  44.7737660  14.8128220  20.5671870  46.7373930  30.2619460  21.3715080
  47.6324720  30.6004430  21.3933840  46.7691560  29.5398870  20.7439360
  40.3770090  25.6346510  19.6002080  40.8144960  26.1776180  20.2559660
  40.8617820  24.8093460  19.6098420  42.1877810  26.7544550  24.7124310
  41.8873350  26.6309520  25.6128220  42.0815300  25.8953140  24.3040040
  53.7168280  28.7923130  34.0781280  53.1170270  28.8515690  33.3345200
  53.8462180  27.8528110  34.2078130  54.9569730  26.5340950  19.4150990
  54.1262690  26.6017600  19.8858220  55.1341560  27.4245070  19.1117850
  54.4126190  23.2788430  21.9185190  55.1745100  23.8485080  22.0244880
  54.4280560  22.7115630  22.6893500  37.9130530  21.8026360  26.1492850
  37.2579370  21.5338000  25.5052550  38.7508480  21.6930840  25.6994830
  55.4186160  24.1338530  26.7627120  55.7894990  23.3505850  26.3563090
  56.0588090  24.8227630  26.5844420  52.4019920  25.5175110  32.1757440
  51.5879760  25.9472270  32.4383230  52.8094120  26.1293520  31.5626490
  54.4645360  23.5722800  19.0757710  54.7394200  24.4801680  18.9476930
  54.2756100  23.5085330  20.0119700  50.8620970  16.5967650  20.3711340
  51.2805850  16.4098630  19.5308000  50.5557030  15.7446700  20.6814270
  54.3610700  21.5091790  24.0687140  53.9854300  20.7419720  23.6368430
  53.6313820  21.8914490  24.5562070  38.9506460  22.1878930  30.6896190
  39.3179500  22.1006330  31.5692210  38.3817280  21.4245480  30.5903050
  53.7510320  20.6563310  33.7026660  53.5196410  20.4276060  32.8024610
  54.0114870  21.5762860  33.6571550  38.5022460  19.0988020  34.5954610
  37.6078510  19.0654780  34.9348320  39.0420010  19.2974810  35.3605860
  52.1898390  15.8819740  36.4806360  53.0668570  15.8903140  36.8640360
  52.2019230  15.1450580  35.8698710  37.1268610  19.0125290  22.0918180
  36.2232690  19.2755490  21.9169840  37.6109230  19.2836460  21.3118140
  53.6361660  19.7349280  27.3694380  54.1599140  19.2411930  26.7384550
  54.2221080  19.8699640  28.1141950  53.8151380  19.8189150  30.8913930
  52.8654090  19.7852690  31.0058920  53.9964390  20.7289260  30.6563700
  39.6695820  18.0690830  20.0012560  40.3787520  17.6474050  19.5159840
  38.9535760  18.1366060  19.3695910  39.3169980  14.1230160  19.0415210
  40.0398110  14.6639100  19.3596430  39.5894500  13.8493580  18.1656750
  53.1261630  18.9922630  23.3086790  53.6220750  18.7593500  24.0935670
  52.9277700  18.1534470  22.8924430  39.0062170  13.3736350  28.9437830
  39.6538360  12.8233730  28.5032990  39.4264010  13.6279500  29.7653640
  54.5548790  17.6283580  25.8424470  54.4448070  17.4739620  26.7806740
  55.3156380  17.1004520  25.5999880  52.9014510  13.5677710  32.3007470
  53.5386730  14.1811850  32.6666660  53.0489400  13.6038370  31.3556700
  55.4439060  15.4591500  19.0830610  56.3688370  15.3272680  18.8748900
  55.4214850  15.5384320  20.0367060  55.5177550  16.2302160  21.7087320
  54.7229050  16.1647280  22.2380230  55.7220830  17.1652800  21.6972670
  52.4595970  30.2693710  25.7025710  53.0555040  29.9478280  25.0260130
  52.7174120  29.7965530  26.4938980  38.7594170  13.5292020  31.6863150
  38.4108990  13.9855840  32.4521330  38.4281870  12.6349150  31.7685580
  46.2718990  14.7203900  35.2082570  46.2107880  15.3125730  35.9577980
  47.2119370  14.6129860  35.0632830  48.9093550  14.3773960  34.8474860
  49.5233960  14.6953250  34.1855940  49.4543110  13.8922550  35.4670720
  55.3268730  30.2765590  32.2536700  54.8327010  30.6734460  31.5363830
  54.7182020  29.6514800  32.6473980  39.4314810  13.0568220  34.9613920
  39.9797800  12.8756270  34.1980030  39.4970120  12.2662330  35.4970230
  49.6501590  12.9406100  31.1744150  48.7761430  13.2741210  30.9717080
  49.5412340  12.4679280  31.9996020  50.5573570  15.1476970  32.5585870
  50.2286930  14.3328730  32.1787600  51.5055870  15.1046780  32.4351560
  53.0108180  30.9189010  29.5323440  52.5511150  31.6704820  29.1581460
  52.3820640  30.1995480  29.4738240  47.3976410  13.8575940  30.1137060
  46.6148200  14.3321440  30.3933820  47.1039340  12.9530770  30.0050240
  51.9497480  14.5599040  28.1586150  52.3905570  14.5044140  27.3107750
  51.6805070  15.4757050  28.2296330  53.8136050  14.1914280  26.1694970
  53.7524450  13.2475500  26.0225990  54.5928080  14.2994370  26.7148430
  38.7416820  14.1623420  22.6350780  39.4996180  14.2752300  22.0614810
  38.2793990  14.9992620  22.5894210  45.2830630  16.2762690  25.6253090
  44.4705140  15.9019580  25.2848970  45.7872270  15.5207770  25.9274280
  49.7855610  12.9405140  26.8636160  50.3884980  13.5125350  27.3384680
  49.0448600  13.5044580  26.6410060  52.9290210  13.3426700  22.1376440
  53.1240840  14.2410150  22.4043870  52.1420080  13.1113780  22.6309390
  39.7251500  29.0239870  22.5769060  39.1999120  29.4047900  21.8731020
  39.6496080  29.6490640  23.2978770  41.1141970  14.6887470  21.1752750
  41.6434730  13.9017270  21.0460700  41.7470290  15.3678660  21.4088280
  43.3079810  14.4262610  24.2298140  42.6782550  13.7249920  24.3968270
  42.7684950  15.1866740  24.0131300  54.4816820  30.5827410  23.8983000
  54.6569010  29.8965150  23.2543920  53.7838390  31.1074460  23.5059670
  43.4335370  13.7046590  36.6650630  43.1519640  14.2080190  35.9011450
  43.8155070  12.9068340  36.2992760  42.3244470  30.9722250  21.4518310
  43.0563290  30.6881530  20.9042200  42.5838140  30.7335530  22.3417690
  41.4859260  27.0886980  21.4564640  40.8568140  27.5572080  22.0050470
  41.6007090  26.2436200  21.8910830  50.0350830  13.1200170  37.2431100
  49.9216280  13.4394780  38.1382620  50.8520570  13.5212680  36.9468380
  48.9408980  21.1392640   7.6065840  48.8603030  20.2247250   7.3357550
  48.5273400  21.6359710   6.9005550  47.0727020  22.9171660   9.4875110
  46.2969120  22.4372100   9.7773680  47.7239950  22.2377310   9.3131270
  41.0892850  23.2291470  10.3650870  40.2577730  22.9740180  10.7647380
  41.6973830  23.3002240  11.1008790  51.0934450  27.3231850   8.2674240
  50.6315980  26.5519090   8.5961410  51.9060000  27.3497920   8.7726690
  41.0694110  27.2631560  10.5608890  41.3722150  26.3729300  10.3819110
  41.8137700  27.8201780  10.3331140  39.4984800  18.1893360   4.1493260
  38.6101500  18.5309330   4.0473140  39.7825990  17.9893680   3.2574090
  37.4617810  20.7899010  10.0332960  38.0333920  20.0221210  10.0336600
  37.4619350  21.0887770   9.1239570  47.3197760  29.6089860   7.8878230
  46.7009200  30.0647360   7.3172670  48.1749540  29.7641320   7.4867930
  46.5136010  25.5928850   9.4945270  46.4444290  24.6518790   9.3334400
  47.2755870  25.6830260  10.0667840  38.7042680  16.1983370  11.8201890
  38.5245520  15.3009120  12.1004650  38.3022760  16.7455240  12.4948840
  47.5441180  18.3999230   9.7214200  47.9206000  17.5271110   9.6087870
  47.4460690  18.7357930   8.8304640  41.6746190  16.7724860   5.1831640
  41.7812940  17.6728590   5.4900400  40.7638550  16.7242830   4.8926290
  51.3265300  15.8949670   6.6542540  52.1474920  15.4046240   6.6968020
  51.3599380  16.4847330   7.4074380  39.3229350  18.6943870  10.4284230
  40.0039460  18.9582240  11.0471630  39.0077400  17.8544740  10.7622240
  43.5153920  19.7411230   9.5156820  44.0232140  20.2392200  10.1561840
  44.0467160  18.9646430   9.3396180  55.6164850  17.9116420  13.2186170
  54.9117020  18.2998130  12.7001280  55.8822770  18.6066710  13.8207100
  41.7990020  14.3809790  13.7820240  41.8008460  14.8982180  12.9766140
  40.9694330  13.9039970  13.7590170  48.1861110  24.4929100   5.2810140
  47.5678380  24.9578550   4.7172860  48.6984360  25.1856580   5.6979650
  43.0492870  24.0204970  11.9593740  42.7162250  24.6473890  12.6014810
  43.2259550  24.5466850  11.1795410  51.5626780  17.8350050   9.4270080
  50.8582350  18.1234940  10.0073190  51.9238940  18.6450160   9.0669640
  41.4805350  16.0919750  11.7890690  41.8222160  16.9361800  11.4944560
  40.5421160  16.2403490  11.9056030  42.2611970  25.9885770  13.7742920
  42.8785970  26.6636850  13.4927370  41.4005090  26.3973750  13.6830420
  37.5544310  25.1785630   2.6549770  37.1772290  25.6672730   1.9234670
  37.8117380  25.8510910   3.2856300  53.1789560  27.4525180  11.6897560
  52.4953080  28.1224290  11.6814230  53.7183850  27.6505830  10.9242420
  54.6313700  17.2804840   9.8179290  53.6838610  17.3143820   9.9494720
  54.9563690  18.0943790  10.2028650  45.1633240  13.5802020   8.1135280
  45.4708220  13.0248910   7.3970780  44.2333940  13.7146480   7.9308270
  50.7148300  29.2969310  10.4042740  50.7275460  28.8931600   9.5365000
  50.1623520  30.0716600  10.3004170  52.0093720  26.0185530   5.4932910
  51.8990050  25.0759860   5.6182330  52.0061970  26.3801170   6.3795670
  50.1133740  24.1999150  11.7325350  50.5302530  23.9859260  10.8978810
  50.8373560  24.4571940  12.3033970  47.5514000  21.6450850   4.8495400
  46.6243280  21.5788230   5.0783870  47.7038820  22.5830980   4.7350640
  54.0595840  22.5986370  11.8241590  53.2314470  22.6679460  11.3491720
  54.6546320  23.1840680  11.3557420  51.5811290  23.2071150   5.3530650
  50.9623710  22.8690700   4.7056950  51.5635740  22.5630910   6.0609840
  51.0237850  19.3855690  12.7696460  50.6109030  20.2109400  13.0236450
  50.2913800  18.8000730  12.5772820  43.1570640  22.1715590   7.6315130
  42.7527640  21.4592840   7.1361030  43.2433760  21.8268830   8.5203170
  43.6252340  25.8583150   9.7954340  43.3280630  25.2528620   9.1162120
  44.5752160  25.8960460   9.6843700  41.8699260  18.9458800  11.4114170
  42.4213850  19.0554140  10.6367420  42.3842770  19.3196400  12.1269400
  51.7137950  29.4315020  13.4577440  51.2368510  30.2387210  13.2650050
  51.0299740  28.7793350  13.6103650  42.7170770  25.5964840  16.4462140
  41.8199300  25.8204810  16.6935540  42.7423640  25.7199780  15.4973540
  49.7575990  22.4457960   2.3603400  50.1969270  21.6080390   2.2141220
  50.4704410  23.0787360   2.4467540  41.5441990  22.4678160  15.0219510
  41.4049760  23.3400960  15.3906910  40.6623350  22.1250970  14.8767450
  47.8671370  27.3854030   6.3284640  48.3067280  28.1278360   5.9140030
  47.8058260  27.6280600   7.2523600  43.3422340  28.4099860  17.2304660
  43.3137770  28.8142810  16.3633090  43.1787310  27.4810220  17.0676260
  39.8575270  21.0660570   5.1321780  39.7372870  21.7922660   4.5203050
  39.5476160  20.2963480   4.6549690  55.2937160  29.1926960  18.5268830
  55.7696880  29.6709850  19.2057910  55.9144320  29.1244450  17.8014330
  37.4960640  24.2375710  10.9390420  37.5741060  24.3724480   9.9946140
  38.1102320  23.5291600  11.1318540  38.7408270  25.9375900   7.3496600
  38.3336350  26.0790490   6.4950200  39.6321280  25.6536060   7.1467810
  54.6970410  26.3839810  15.6868840  54.8233470  26.1451690  14.7686020
  54.7391790  25.5524350  16.1590920  48.5587150  30.0867810  14.2563650
  49.0731820  29.9975820  15.0586080  47.7156230  30.4327510  14.5491560
  50.5341550  30.3723150   3.6847650  50.3742690  30.0826090   4.5829480
  50.3688260  29.5963280   3.1492880  43.0129930  30.1521680   5.4619270
  42.8372410  29.2357220   5.2487070  42.1585670  30.5108970   5.7017070
  49.8017610  29.5073420   6.3194140  50.2574560  28.7262800   6.6332760
  50.1410130  30.2180240   6.8635320  54.5494420  18.4372270  16.6518580
  53.9338690  18.9451940  16.1234040  54.2290840  17.5370600  16.5944520
  37.5520160  25.2789880  13.4784880  37.7151200  24.8095240  12.6604250
  38.0172610  24.7713440  14.1433720  42.3238930  14.4095640   8.5145450
  41.8807080  15.1905180   8.1829970  42.8823920  14.7325530   9.2216390
  46.6108740  17.2764160  14.1180770  46.1488110  17.4847180  14.9300710
  46.2086850  16.4623510  13.8151440  51.6113250  18.4973110  15.2477430
  50.7606840  18.1978860  15.5686500  51.4515040  18.7415120  14.3361250
  48.7062960  19.9974860  17.3476220  49.0316370  19.1638610  17.0078450
  49.4943290  20.5203380  17.4954550  45.4397750  14.0306340   3.3951280
  44.8151930  14.0266210   4.1204590  45.3527870  13.1637300   2.9987250
  44.3614830  14.9542970  10.3735050  44.6587160  15.8605800  10.2927070
  44.9100390  14.4661750   9.7594620  42.1153150  19.5329210   6.2426700
  41.8894070  19.3166380   7.1473320  41.3345680  19.9657670   5.8972670
  49.3450910  19.5392580   4.8417350  48.7459800  20.2628380   4.6580970
  49.8930520  19.4769360   4.0593800  44.5552360  20.4314790  16.9086970
  44.4595960  19.4909520  16.7587370  45.3984340  20.6529860  16.5135040
  47.9515780  18.1756120   6.8720630  48.3445350  18.4928320   6.0589320
  48.3132630  17.2968000   6.9865150  39.6862900  16.8428460  15.0620750
  39.2926290  17.6903670  15.2693530  38.9981300  16.2054830  15.2529390
  46.2607950  16.9263430  18.1317490  45.5706270  16.7335630  18.7663580
  47.0040250  17.2098070  18.6641790  36.9879950  14.7656920   9.0950830
  36.6993000  15.3359780   9.8075810  37.7325710  14.2861370   9.4582060
  48.5370920  20.7661870  10.9671410  47.8052040  21.2748680  11.3161510
  48.1395260  19.9491850  10.6660190  44.9748310  17.4416070   9.3723900
  44.9784370  17.0006020   8.5228440  45.8699430  17.7633400   9.4795720
  40.8250690  17.3242560   8.3318110  40.4850740  17.8017790   9.0885160
  40.0628010  16.8707680   7.9719210  45.0368460  18.4428150   2.3630660
  45.1581280  18.4014630   3.3116480  44.6516970  19.3052300   2.2077390
  48.9996830  16.2195550  10.3794350  49.0169570  16.6704200  11.2236200
  48.7512410  15.3201190  10.5927790  52.4267580  13.6327730  16.2180730
  52.7513350  12.9017390  16.7438710  52.4624090  13.3141370  15.3161720
  39.1259140  24.6541310  15.6380690  38.7413930  24.0134980  16.2363650
  39.4371330  25.3577430  16.2075420  45.2756280  21.5017850  11.1189310
  45.6426410  21.0276420  11.8650650  45.0861340  22.3759420  11.4597650
  38.1396770  16.2461540   7.2482780  37.8543690  15.8817210   8.0861400
  38.0775630  15.5142000   6.6345920  43.0655650  20.5426490  13.4373520
  42.7612720  21.4218470  13.6623880  44.0202110  20.6026280  13.4730960
  41.5937440  24.7487480   4.0340370  40.8199700  24.2085100   3.8739090
  42.3232070  24.2294090   3.6958130  52.3525420  23.7452840   9.8266760
  53.0724540  24.2408130   9.4362870  52.1507240  23.0670730   9.1820630
  47.8135360  15.1390800   3.9696150  46.9999970  14.6403970   3.8941460
  47.6197310  15.9789050   3.5532500  47.7344220  23.8161900  15.7135760
  47.6681530  22.8957570  15.4593350  47.1049360  23.9137340  16.4280400
  50.5283750  19.5110450   2.2658310  51.4163370  19.8227680   2.0909650
  50.4988840  18.6382700   1.8738890  41.6374840  24.4167860   7.6719180
  42.1553510  23.6136120   7.6176070  41.1858860  24.3547000   8.5136010
  46.5244340  25.6834140   2.9446480  46.8660040  26.4276370   2.4489800
  45.6957050  25.9965260   3.3071310  39.1219380  21.3829230  14.5844880
  38.7634320  22.0483080  15.1718220  38.8273940  20.5512780  14.9557500
  42.3232500  21.8413470  17.4684430  42.0232640  21.9870650  16.5712250
  43.0943740  21.2818760  17.3757820  47.6660950  26.6382470  15.4639560
  47.6805490  25.7063430  15.2458470  46.9586050  26.7242230  16.1029330
  53.8772160  23.2789810  14.8108140  53.1520350  23.8718590  14.6137530
  54.4047620  23.2713350  14.0121510  53.8285270  27.6764550   4.4620300
  53.1861430  27.0220170   4.7364020  53.4415930  28.0819640   3.6860970
  49.4071750  25.0049980   8.3091990  49.7595570  24.4078110   7.6493360
  48.5234080  24.6794210   8.4800240  45.4935030  25.7647670   5.7162400
  46.1806160  26.3116880   6.0969990  44.7067450  26.3088400   5.7512010
  44.7962240  22.7693700   5.3287760  45.2525020  23.5798950   5.5547950
  44.4450450  22.4516840   6.1606250  47.0994850  28.2800040  12.5580060
  47.7437070  28.4859420  13.2353480  47.4624290  27.5188440  12.1050910
  40.6974020  13.1131350   5.8010280  40.5688650  13.1049250   6.7495200
  39.8736040  13.4514440   5.4501290  48.3726930  26.2832390  11.2757510
  49.0149160  25.5825550  11.3889680  48.8976280  27.0630830  11.0954400
  50.1464550  27.0827290  14.4793570  50.4820790  27.6693980  15.1571490
  49.2264890  26.9520000  14.7091360  37.6967950  14.8722470  15.2616980
  36.9826470  15.0719390  15.8669590  38.1162990  14.0962040  15.6331780
  51.7998900  24.4852950   2.6610810  51.5120600  24.9465640   3.4488690
  52.5951070  24.0250720   2.9295030  37.9840540  28.8602730  16.2483510
  38.0931660  27.9197470  16.1078900  37.3321100  29.1257480  15.5997240
  45.9753130  27.1318620  17.6481630  45.6550000  26.4127860  18.1927320
  45.3011490  27.8073690  17.7217690  44.0167300  27.9779070   2.5914780
  44.0077400  28.7108760   1.9759290  43.0965660  27.7310650   2.6841740
  39.6173940  23.1993960   3.3361540  39.0101890  23.9392860   3.3456840
  40.0923290  23.2893320   2.5099740  49.1906730  17.3644780  13.0118430
  49.5587550  16.5439990  13.3398000  48.3304930  17.4246670  13.4274080
  52.5568760  16.3201720   3.8205990  51.9281920  16.4247390   3.1064220
  52.0620680  16.5398500   4.6099870  44.5252790  18.5987670   5.2363870
  43.8168940  19.0674010   5.6777480  44.8097270  17.9409680   5.8709060
  46.1508720  20.0184370  13.2356400  46.6493970  20.4930190  13.9008250
  46.2931670  19.0947890  13.4426430  48.5568220  15.3238330   6.6759660
  48.4336000  15.3424460   5.7269170  49.5052780  15.3717270   6.7958060
  45.6445010  30.5593630   5.9487640  45.8986510  30.5215020   5.0267010
  44.6957490  30.4326960   5.9415890  42.7287810  16.9072750   2.6114580
  43.5778340  17.3442900   2.5454770  42.3619080  17.2193010   3.4386640
  53.3575580  16.2352330  14.0784790  52.8549180  16.9757730  14.4178600
  54.1732240  16.6236330  13.7621580  51.6497590  21.4785510   7.5246150
  50.7087730  21.4935740   7.6993840  51.9641660  20.6921470   7.9706450
  40.3225990  20.5930180   1.7683000  40.4029580  19.6457690   1.8800400
  41.2145740  20.9237060   1.8743660  53.6523170  28.6494360   9.2000410
  53.7770590  29.4725530   9.6724220  54.5188730  28.4385090   8.8524560
  41.1240700  30.7425570   8.8717540  41.8603180  30.1941030   9.1426110
  41.5081620  31.6081580   8.7323530  38.0086180  26.8099140   4.7459050
  37.0825960  27.0520280   4.7364460  38.4742610  27.6373400   4.6243800
  40.1298980  29.9271640  18.0603120  40.9311710  30.2483690  18.4738520
  39.6150800  29.5667220  18.7823030  48.9663610  26.0351510  18.0078530
  48.3601770  26.0583110  17.2674280  48.6617720  25.3034550  18.5445780
  50.3963980  29.7631800  16.6187940  51.3485730  29.6789820  16.5688180
  50.2492200  30.4273510  17.2921730  37.8496790  22.4145100  17.0039170
  38.3535810  21.8352380  17.5755400  37.1104210  22.6985330  17.5415540
  44.9034730  23.8216090  16.5374690  44.1380400  24.3901090  16.4529360
  45.0850690  23.5292300  15.6442920  52.0458080  25.5521420  17.0949710
  52.7867550  25.8897180  16.5917170  51.2830760  25.7213480  16.5419480
  39.8819870  20.5574690  17.8989240  39.9225210  20.2588560  18.8074470
  40.7365370  20.9582300  17.7396760  43.6598260  23.1570240   3.0592750
  44.0814680  22.9910110   3.9024140  43.7849100  22.3470470   2.5647890
  41.8225680  19.1366790  15.8663730  41.2922140  18.6457740  15.2387070
  42.4913750  19.5650990  15.3321660  50.7203740  23.6036250  15.6304920
  51.1344760  23.7581330  16.4795340  49.7854740  23.7291470  15.7930700
  51.1925910  20.9432410  17.6344070  51.7746680  20.1884730  17.5464550
  51.3687680  21.4739850  16.8575550  42.3097980  16.1029160  15.9461020
  42.2154850  15.4849910  15.2211890  41.7295370  16.8295450  15.7190930
  45.0759420  14.6602400  12.9788410  44.6276720  14.6826660  12.1333960
  44.4424620  14.2621420  13.5758710  45.4818970  23.5556730  13.6000850
  45.9007080  24.3989460  13.4277090  44.5627600  23.6928770  13.3707630
  47.8182870  21.2872910  14.9838690  47.9379080  20.6914050  15.7233530
  48.6776870  21.3242600  14.5639990  50.1570770  21.8410100  13.5601200
  49.6305990  22.3652720  12.9566340  50.5002110  22.4737490  14.1910930
  43.3326390  29.8609740  14.7158580  42.7947480  30.5855800  14.3967280
  43.5860350  29.3840080  13.9255920  44.5851640  17.8294260  16.2414510
  45.1751330  17.5210110  16.9292330  43.7671880  17.3574010  16.3974410
  49.4045070  17.4460070  16.4747530  48.7160590  16.7841610  16.4097520
  50.1251090  16.9998340  16.9195990  50.0345470  14.0411700   2.5337790
  50.3147760  13.1979600   2.8897210  49.2611200  14.2734810   3.0476540
  46.1888600  31.0960950  14.9745230  46.1147300  31.9996090  15.2817600
  45.2867440  30.7772850  14.9467300  46.7373930  30.2619460   2.5971590
  47.6324720  30.6004430   2.6190350  46.7691560  29.5398870   1.9695870
  37.5915890  28.4235540   8.2778850  37.9218900  27.5556600   8.0457490
  38.0206890  28.6294060   9.1083810  42.1877810  26.7544550   5.9380820
  41.8873350  26.6309520   6.8384730  42.0815300  25.8953140   5.5296550
  38.0806100  29.2906130  11.0160480  37.6437090  29.4706930  11.8484630
  38.6483780  30.0480750  10.8742200  53.7168280  28.7923130  15.3037790
  53.1170270  28.8515690  14.5601710  53.8462180  27.8528110  15.4334640
  54.4126190  23.2788430   3.1441700  55.1745100  23.8485080   3.2501390
  54.4280560  22.7115630   3.9150010  37.9130530  21.8026360   7.3749360
  37.2579370  21.5338000   6.7309060  38.7508480  21.6930840   6.9251340
  55.4186160  24.1338530   7.9883630  55.7894990  23.3505850   7.5819600
  56.0588090  24.8227630   7.8100930  52.4019920  25.5175110  13.4013950
  51.5879760  25.9472270  13.6639740  52.8094120  26.1293520  12.7883000
  54.3610700  21.5091790   5.2943650  53.9854300  20.7419720   4.8624940
  53.6313820  21.8914490   5.7818580  38.9506460  22.1878930  11.9152700
  39.3179500  22.1006330  12.7948720  38.3817280  21.4245480  11.8159560
  53.7510320  20.6563310  14.9283170  53.5196410  20.4276060  14.0281120
  54.0114870  21.5762860  14.8828060  38.5022460  19.0988020  15.8211120
  37.6078510  19.0654780  16.1604830  39.0420010  19.2974810  16.5862370
  52.1898390  15.8819740  17.7062870  53.0668570  15.8903140  18.0896870
  52.2019230  15.1450580  17.0955220  37.1268610  19.0125290   3.3174690
  36.2232690  19.2755490   3.1426350  37.6109230  19.2836460   2.5374650
  53.6361660  19.7349280   8.5950890  54.1599140  19.2411930   7.9641060
  54.2221080  19.8699640   9.3398460  53.8151380  19.8189150  12.1170440
  52.8654090  19.7852690  12.2315430  53.9964390  20.7289260  11.8820210
  53.1261630  18.9922630   4.5343300  53.6220750  18.7593500   5.3192180
  52.9277700  18.1534470   4.1180940  39.0062170  13.3736350  10.1694340
  39.6538360  12.8233730   9.7289500  39.4264010  13.6279500  10.9910150
  54.5548790  17.6283580   7.0680980  54.4448070  17.4739620   8.0063250
  55.3156380  17.1004520   6.8256390  52.9014510  13.5677710  13.5263980
  53.5386730  14.1811850  13.8923170  53.0489400  13.6038370  12.5813210
  55.5177550  16.2302160   2.9343830  54.7229050  16.1647280   3.4636740
  55.7220830  17.1652800   2.9229180  52.4595970  30.2693710   6.9282220
  53.0555040  29.9478280   6.2516640  52.7174120  29.7965530   7.7195490
  38.7594170  13.5292020  12.9119660  38.4108990  13.9855840  13.6777840
  38.4281870  12.6349150  12.9942090  40.3658540  26.7011620  17.0772850
  40.3228170  26.3304530  17.9587310  40.4969550  27.6389190  17.2174670
  44.0664570  28.2571210  12.6782570  43.8255930  28.5245770  11.7913090
  45.0067210  28.4276940  12.7333430  46.2718990  14.7203900  16.4339080
  46.2107880  15.3125730  17.1834490  47.2119370  14.6129860  16.2889340
  48.9093550  14.3773960  16.0731370  49.5233960  14.6953250  15.4112450
  49.4543110  13.8922550  16.6927230  55.3268730  30.2765590  13.4793210
  54.8327010  30.6734460  12.7620340  54.7182020  29.6514800  13.8730490
  39.4314810  13.0568220  16.1870430  39.9797800  12.8756270  15.4236540
  39.4970120  12.2662330  16.7226740  40.2046570  29.6473870  14.1970630
  39.6106890  29.5158570  14.9360670  40.1970410  28.8112010  13.7312730
  49.6501590  12.9406100  12.4000660  48.7761430  13.2741210  12.1973590
  49.5412340  12.4679280  13.2252530  50.5573570  15.1476970  13.7842380
  50.2286930  14.3328730  13.4044110  51.5055870  15.1046780  13.6608070
  53.0108180  30.9189010  10.7579950  52.5511150  31.6704820  10.3837970
  52.3820640  30.1995480  10.6994750  39.8358800  27.0132250  13.1478670
  39.1092860  26.3937540  13.0804620  39.8967950  27.4072860  12.2776750
  43.4403900  29.2277250   9.9328080  43.9568920  28.6164610   9.4076340
  44.0901280  29.7306030  10.4239090  46.1799400  30.1185740  10.7597060
  46.4677210  29.8640040   9.8830070  46.6922620  29.5663100  11.3502630
  47.3976410  13.8575940  11.3393570  46.6148200  14.3321440  11.6190330
  47.1039340  12.9530770  11.2306750  51.9497480  14.5599040   9.3842660
  52.3905570  14.5044140   8.5364260  51.6805070  15.4757050   9.4552840
  53.8136050  14.1914280   7.3951480  53.7524450  13.2475500   7.2482500
  54.5928080  14.2994370   7.9404940  38.1188800  30.3306640   6.3575430
  37.9510840  29.6977320   7.0557320  37.2523310  30.5366040   6.0069620
  38.7416820  14.1623420   3.8607290  39.4996180  14.2752300   3.2871320
  38.2793990  14.9992620   3.8150720  45.2830630  16.2762690   6.8509600
  44.4705140  15.9019580   6.5105480  45.7872270  15.5207770   7.1530790
  49.7855610  12.9405140   8.0892670  50.3884980  13.5125350   8.5641190
  49.0448600  13.5044580   7.8666570  52.9290210  13.3426700   3.3632950
  53.1240840  14.2410150   3.6300380  52.1420080  13.1113780   3.8565900
  39.7251500  29.0239870   3.8025570  39.1999120  29.4047900   3.0987530
  39.6496080  29.6490640   4.5235280  41.1141970  14.6887470   2.4009260
  41.6434730  13.9017270   2.2717210  41.7470290  15.3678660   2.6344790
  43.3079810  14.4262610   5.4554650  42.6782550  13.7249920   5.6224780
  42.7684950  15.1866740   5.2387810  46.2471760  31.0401840  18.1265260
  47.1739070  30.8046110  18.1701220  46.2322190  31.8673840  17.6451290
  54.4816820  30.5827410   5.1239510  54.6569010  29.8965150   4.4800430
  53.7838390  31.1074460   4.7316180  43.4335370  13.7046590  17.8907140
  43.1519640  14.2080190  17.1267960  43.8155070  12.9068340  17.5249270
  42.3244470  30.9722250   2.6774820  43.0563290  30.6881530   2.1298710
  42.5838140  30.7335530   3.5674200  41.4859260  27.0886980   2.6821150
  40.8568140  27.5572080   3.2306980  41.6007090  26.2436200   3.1167340
  50.0350830  13.1200170  18.4687610  49.9216280  13.4394780  19.3639130
  50.8520570  13.5212680  18.1724890  52.8149320  30.2671700  17.9506300
  53.6074640  29.7720930  17.7432260  53.1082470  30.9461840  18.5581910
  47.0727020   4.1428170  65.8105580  46.2969120   3.6628610  66.1004150
  47.7239950   3.4633820  65.6361740  41.0892850   4.4547980  66.6881340
  40.2577730   4.1996690  67.0877850  41.6973830   4.5258750  67.4239260
  51.0934450   8.5488360  64.5904710  50.6315980   7.7775600  64.9191880
  51.9060000   8.5754430  65.0957160  41.0694110   8.4888070  66.8839360
  41.3722150   7.5985810  66.7049580  41.8137700   9.0458290  66.6561610
  47.3197760  10.8346370  64.2108700  46.7009200  11.2903870  63.6403140
  48.1749540  10.9897830  63.8098400  46.5136010   6.8185360  65.8175740
  46.4444290   5.8775300  65.6564870  47.2755870   6.9086770  66.3898310
  48.1861110   5.7185610  61.6040610  47.5678380   6.1835060  61.0403330
  48.6984360   6.4113090  62.0210120  43.0492870   5.2461480  68.2824210
  42.7162250   5.8730400  68.9245280  43.2259550   5.7723360  67.5025880
  42.2611970   7.2142280  70.0973390  42.8785970   7.8893360  69.8157840
  41.4005090   7.6230260  70.0060890  37.5544310   6.4042140  58.9780240
  37.1772290   6.8929240  58.2465140  37.8117380   7.0767420  59.6086770
  53.1789560   8.6781690  68.0128030  52.4953080   9.3480800  68.0044700
  53.7183850   8.8762340  67.2472890  50.7148300  10.5225820  66.7273210
  50.7275460  10.1188110  65.8595470  50.1623520  11.2973110  66.6234640
  52.0093720   7.2442040  61.8163380  51.8990050   6.3016370  61.9412800
  52.0061970   7.6057680  62.7026140  50.1133740   5.4255660  68.0555820
  50.5302530   5.2115770  67.2209280  50.8373560   5.6828450  68.6264440
  47.5514000   2.8707360  61.1725870  46.6243280   2.8044740  61.4014340
  47.7038820   3.8087490  61.0581110  54.0595840   3.8242880  68.1472060
  53.2314470   3.8935970  67.6722190  54.6546320   4.4097190  67.6787890
  51.5811290   4.4327660  61.6761120  50.9623710   4.0947210  61.0287420
  51.5635740   3.7887420  62.3840310  43.1570640   3.3972100  63.9545600
  42.7527640   2.6849350  63.4591500  43.2433760   3.0525340  64.8433640
  43.6252340   7.0839660  66.1184810  43.3280630   6.4785130  65.4392590
  44.5752160   7.1216970  66.0074170  51.7137950  10.6571530  69.7807910
  51.2368510  11.4643720  69.5880520  51.0299740  10.0049860  69.9334120
  49.7575990   3.6714470  58.6833870  50.1969270   2.8336900  58.5371690
  50.4704410   4.3043870  58.7698010  41.5441990   3.6934670  71.3449980
  41.4049760   4.5657470  71.7137380  40.6623350   3.3507480  71.1997920
  47.8671370   8.6110540  62.6515110  48.3067280   9.3534870  62.2370500
  47.8058260   8.8537110  63.5754070  39.8575270   2.2917080  61.4552250
  39.7372870   3.0179170  60.8433520  39.5476160   1.5219990  60.9780160
  37.4960640   5.4632220  67.2620890  37.5741060   5.5980990  66.3176610
  38.1102320   4.7548110  67.4549010  38.7408270   7.1632410  63.6727070
  38.3336350   7.3047000  62.8180670  39.6321280   6.8792570  63.4698280
  54.6970410   7.6096320  72.0099310  54.8233470   7.3708200  71.0916490
  54.7391790   6.7780860  72.4821390  48.5587150  11.3124320  70.5794120
  49.0731820  11.2232330  71.3816550  47.7156230  11.6584020  70.8722030
  50.5341550  11.5979660  60.0078120  50.3742690  11.3082600  60.9059950
  50.3688260  10.8219790  59.4723350  43.0129930  11.3778190  61.7849740
  42.8372410  10.4613730  61.5717540  42.1585670  11.7365480  62.0247540
  50.2367680   9.1067220  58.5676120  49.5432840   9.1044510  57.9078400
  50.9790540   8.6826540  58.1370290  49.8017610  10.7329930  62.6424610
  50.2574560   9.9519310  62.9563230  50.1410130  11.4436750  63.1865790
  37.5520160   6.5046390  69.8015350  37.7151200   6.0351750  68.9834720
  38.0172610   5.9969950  70.4664190  44.0489960   1.9785800  58.0844430
  43.4806860   1.5304050  57.4580340  44.7578960   2.3378580  57.5509580
  39.1259140   5.8797820  71.9611160  38.7413930   5.2391490  72.5594120
  39.4371330   6.5833940  72.5305890  45.2756280   2.7274360  67.4419780
  45.6426410   2.2532930  68.1881120  45.0861340   3.6015930  67.7828120
  43.0655650   1.7683000  69.7603990  42.7612720   2.6474980  69.9854350
  44.0202110   1.8282790  69.7961430  41.5937440   5.9743990  60.3570840
  40.8199700   5.4341610  60.1969560  42.3232070   5.4550600  60.0188600
  52.3525420   4.9709350  66.1497230  53.0724540   5.4664640  65.7593340
  52.1507240   4.2927240  65.5051100  47.7344220   5.0418410  72.0366230
  47.6681530   4.1214080  71.7823820  47.1049360   5.1393850  72.7510870
  41.6374840   5.6424370  63.9949650  42.1553510   4.8392630  63.9406540
  41.1858860   5.5803510  64.8366480  46.5244340   6.9090650  59.2676950
  46.8660040   7.6532880  58.7720270  45.6957050   7.2221770  59.6301780
  39.1219380   2.6085740  70.9075350  38.7634320   3.2739590  71.4948690
  38.8273940   1.7769290  71.2787970  47.6660950   7.8638980  71.7870030
  47.6805490   6.9319940  71.5688940  46.9586050   7.9498740  72.4259800
  52.7998020   2.0478800  58.0568640  52.7161740   2.4793020  57.2065080
  53.5192210   2.5077150  58.4895460  53.8772160   4.5046320  71.1338610
  53.1520350   5.0975100  70.9368000  54.4047620   4.4969860  70.3351980
  53.8285270   8.9021060  60.7850770  53.1861430   8.2476680  61.0594490
  53.4415930   9.3076150  60.0091440  49.4071750   6.2306490  64.6322460
  49.7595570   5.6334620  63.9723830  48.5234080   5.9050720  64.8030710
  45.4935030   6.9904180  62.0392870  46.1806160   7.5373390  62.4200460
  44.7067450   7.5344910  62.0742480  37.6327430   2.6077000  57.5309950
  38.5022280   2.8901800  57.8145870  37.1417750   3.4212870  57.4158760
  44.7962240   3.9950210  61.6518230  45.2525020   4.8055460  61.8778420
  44.4450450   3.6773350  62.4836720  47.0994850   9.5056550  68.8810530
  47.7437070   9.7115930  69.5583950  47.4624290   8.7444950  68.4281380
  48.3726930   7.5088900  67.5987980  49.0149160   6.8082060  67.7120150
  48.8976280   8.2887340  67.4184870  52.2182650   7.7937520  57.3227120
  51.9920230   7.0767960  57.9151760  51.8278850   7.5449960  56.4848870
  50.1464550   8.3083800  70.8024040  50.4820790   8.8950490  71.4801960
  49.2264890   8.1776510  71.0321830  37.9998680  11.8204380  58.0971580
  38.3596320  12.4193720  57.4428850  37.8591020  12.3664270  58.8706610
  51.7998900   5.7109460  58.9841280  51.5120600   6.1722150  59.7719160
  52.5951070   5.2507230  59.2525500  37.9840540  10.0859240  72.5713980
  38.0931660   9.1453980  72.4309370  37.3321100  10.3513990  71.9227710
  44.0167300   9.2035580  58.9145250  44.0077400   9.9365270  58.2989760
  43.0965660   8.9567160  59.0072210  39.6173940   4.4250470  59.6592010
  39.0101890   5.1649370  59.6687310  40.0923290   4.5149830  58.8330210
  47.0026900   9.2663820  57.5770440  47.1038880   9.0627810  56.6472420
  46.1028640   9.0122100  57.7818220  45.6445010  11.7850140  62.2718110
  45.8986510  11.7471530  61.3497480  44.6957490  11.6583470  62.2646360
  51.6497590   2.7042020  63.8476620  50.7087730   2.7192250  64.0224310
  51.9641660   1.9177980  64.2936920  41.6279230   4.3861620  57.4080580
  42.3942500   4.2742980  57.9706010  41.7053920   3.6899590  56.7557350
  53.6523170   9.8750870  65.5230880  53.7770590  10.6982040  65.9954690
  54.5188730   9.6641600  65.1755030  41.1240700  11.9682080  65.1948010
  41.8603180  11.4197540  65.4656580  41.5081620  12.8338090  65.0554000
  38.0086180   8.0355650  61.0689520  37.0825960   8.2776790  61.0594930
  38.4742610   8.8629910  60.9474270  44.2343010  11.1412390  57.0173580
  45.0271620  11.4301220  56.5655370  43.7147360  10.7104560  56.3386060
  53.2873180  10.3682520  58.4410320  53.0014690   9.9547660  57.6264500
  53.0892730  11.2970230  58.3210840  44.7520410   6.3615800  56.8815930
  44.6471050   5.7468150  57.6077310  44.5844630   5.8381690  56.0978940
  44.9034730   5.0472600  72.8605160  44.1380400   5.6157600  72.7759830
  45.0850690   4.7548810  71.9673390  47.9923140   5.4235830  57.4857920
  47.4433240   5.8705130  58.1300660  48.6142400   4.9185080  58.0095590
  43.6598260   4.3826750  59.3823220  44.0814680   4.2166620  60.2254610
  43.7849100   3.5726980  58.8878360  46.1725900   3.4064360  56.6300320
  46.6931560   2.6913380  56.2641470  46.8194300   4.0450230  56.9300830
  50.7203740   4.8292760  71.9535390  51.1344760   4.9837840  72.8025810
  49.7854740   4.9547980  72.1161170  45.4818970   4.7813240  69.9231320
  45.9007080   5.6245970  69.7507560  44.5627600   4.9185280  69.6938100
  47.8182870   2.5129420  71.3069160  47.9379080   1.9170560  72.0464000
  48.6776870   2.5499110  70.8870460  50.1570770   3.0666610  69.8831670
  49.6305990   3.5909230  69.2796810  50.5002110   3.6994000  70.5141400
  43.3326390  11.0866250  71.0389050  42.7947480  11.8112310  70.7197750
  43.5860350  10.6096590  70.2486390  46.1888600  12.3217460  71.2975700
  46.1147300  13.2252600  71.6048070  45.2867440  12.0029360  71.2697770
  46.7373930  11.4875970  58.9202060  47.6324720  11.8260940  58.9420820
  46.7691560  10.7655380  58.2926340  40.3770090   6.8603020  57.1489060
  40.8144960   7.4032690  57.8046640  40.8617820   6.0349970  57.1585400
  37.5915890   9.6492050  64.6009320  37.9218900   8.7813110  64.3687960
  38.0206890   9.8550570  65.4314280  42.1877810   7.9801060  62.2611290
  41.8873350   7.8566030  63.1615200  42.0815300   7.1209650  61.8527020
  38.0806100  10.5162640  67.3390950  37.6437090  10.6963440  68.1715100
  38.6483780  11.2737260  67.1972670  53.7168280  10.0179640  71.6268260
  53.1170270  10.0772200  70.8832180  53.8462180   9.0784620  71.7565110
  54.9569730   7.7597460  56.9637970  54.1262690   7.8274110  57.4345200
  55.1341560   8.6501580  56.6604830  54.4126190   4.5044940  59.4672170
  55.1745100   5.0741590  59.5731860  54.4280560   3.9372140  60.2380480
  37.9130530   3.0282870  63.6979830  37.2579370   2.7594510  63.0539530
  38.7508480   2.9187350  63.2481810  55.4186160   5.3595040  64.3114100
  55.7894990   4.5762360  63.9050070  56.0588090   6.0484140  64.1331400
  52.4019920   6.7431620  69.7244420  51.5879760   7.1728780  69.9870210
  52.8094120   7.3550030  69.1113470  54.4645360   4.7979310  56.6244690
  54.7394200   5.7058190  56.4963910  54.2756100   4.7341840  57.5606680
  54.3610700   2.7348300  61.6174120  53.9854300   1.9676230  61.1855410
  53.6313820   3.1171000  62.1049050  38.9506460   3.4135440  68.2383170
  39.3179500   3.3262840  69.1179190  38.3817280   2.6501990  68.1390030
  53.7510320   1.8819820  71.2513640  53.5196410   1.6532570  70.3511590
  54.0114870   2.8019370  71.2058530  52.4595970  11.4950220  63.2512690
  53.0555040  11.1734790  62.5747110  52.7174120  11.0222040  64.0425960
  44.0664570   9.4827720  69.0013040  43.8255930   9.7502280  68.1143560
  45.0067210   9.6533450  69.0563900  55.3268730  11.5022100  69.8023680
  54.8327010  11.8990970  69.0850810  54.7182020  10.8771310  70.1960960
  40.2046570  10.8730380  70.5201100  39.6106890  10.7415080  71.2591140
  40.1970410  10.0368520  70.0543200  53.0108180  12.1445520  67.0810420
  52.5511150  12.8961330  66.7068440  52.3820640  11.4251990  67.0225220
  39.8358800   8.2388760  69.4709140  39.1092860   7.6194050  69.4035090
  39.8967950   8.6329370  68.6007220  43.4403900  10.4533760  66.2558550
  43.9568920   9.8421120  65.7306810  44.0901280  10.9562540  66.7469560
  46.1799400  11.3442250  67.0827530  46.4677210  11.0896550  66.2060540
  46.6922620  10.7919610  67.6733100  38.1188800  11.5563150  62.6805900
  37.9510840  10.9233830  63.3787790  37.2523310  11.7622550  62.3300090
  39.7251500  10.2496380  60.1256040  39.1999120  10.6304410  59.4218000
  39.6496080  10.8747150  60.8465750  54.4816820  11.8083920  61.4469980
  54.6569010  11.1221660  60.8030900  53.7838390  12.3330970  61.0546650
  42.3244470  12.1978760  59.0005290  43.0563290  11.9138040  58.4529180
  42.5838140  11.9592040  59.8904670  41.4859260   8.3143490  59.0051620
  40.8568140   8.7828590  59.5537450  41.6007090   7.4692710  59.4397810
  47.0727020   4.1428170  47.0362090  46.2969120   3.6628610  47.3260660
  47.7239950   3.4633820  46.8618250  41.0892850   4.4547980  47.9137850
  40.2577730   4.1996690  48.3134360  41.6973830   4.5258750  48.6495770
  51.0934450   8.5488360  45.8161220  50.6315980   7.7775600  46.1448390
  51.9060000   8.5754430  46.3213670  41.0694110   8.4888070  48.1095870
  41.3722150   7.5985810  47.9306090  41.8137700   9.0458290  47.8818120
  47.3197760  10.8346370  45.4365210  46.7009200  11.2903870  44.8659650
  48.1749540  10.9897830  45.0354910  46.5136010   6.8185360  47.0432250
  46.4444290   5.8775300  46.8821380  47.2755870   6.9086770  47.6154820
  48.1861110   5.7185610  42.8297120  47.5678380   6.1835060  42.2659840
  48.6984360   6.4113090  43.2466630  43.0492870   5.2461480  49.5080720
  42.7162250   5.8730400  50.1501790  43.2259550   5.7723360  48.7282390
  42.2611970   7.2142280  51.3229900  42.8785970   7.8893360  51.0414350
  41.4005090   7.6230260  51.2317400  37.5544310   6.4042140  40.2036750
  37.1772290   6.8929240  39.4721650  37.8117380   7.0767420  40.8343280
  53.1789560   8.6781690  49.2384540  52.4953080   9.3480800  49.2301210
  53.7183850   8.8762340  48.4729400  50.7148300  10.5225820  47.9529720
  50.7275460  10.1188110  47.0851980  50.1623520  11.2973110  47.8491150
  52.0093720   7.2442040  43.0419890  51.8990050   6.3016370  43.1669310
  52.0061970   7.6057680  43.9282650  50.1133740   5.4255660  49.2812330
  50.5302530   5.2115770  48.4465790  50.8373560   5.6828450  49.8520950
  47.5514000   2.8707360  42.3982380  46.6243280   2.8044740  42.6270850
  47.7038820   3.8087490  42.2837620  54.0595840   3.8242880  49.3728570
  53.2314470   3.8935970  48.8978700  54.6546320   4.4097190  48.9044400
  51.5811290   4.4327660  42.9017630  50.9623710   4.0947210  42.2543930
  51.5635740   3.7887420  43.6096820  43.1570640   3.3972100  45.1802110
  42.7527640   2.6849350  44.6848010  43.2433760   3.0525340  46.0690150
  43.6252340   7.0839660  47.3441320  43.3280630   6.4785130  46.6649100
  44.5752160   7.1216970  47.2330680  51.7137950  10.6571530  51.0064420
  51.2368510  11.4643720  50.8137030  51.0299740  10.0049860  51.1590630
  42.7170770   6.8221350  53.9949120  41.8199300   7.0461320  54.2422520
  42.7423640   6.9456290  53.0460520  49.7575990   3.6714470  39.9090380
  50.1969270   2.8336900  39.7628200  50.4704410   4.3043870  39.9954520
  41.5441990   3.6934670  52.5706490  41.4049760   4.5657470  52.9393890
  40.6623350   3.3507480  52.4254430  47.8671370   8.6110540  43.8771620
  48.3067280   9.3534870  43.4627010  47.8058260   8.8537110  44.8010580
  43.3422340   9.6356370  54.7791640  43.3137770  10.0399320  53.9120070
  43.1787310   8.7066730  54.6163240  39.8575270   2.2917080  42.6808760
  39.7372870   3.0179170  42.0690030  39.5476160   1.5219990  42.2036670
  55.2937160  10.4183470  56.0755810  55.7696880  10.8966360  56.7544890
  55.9144320  10.3500960  55.3501310  37.4960640   5.4632220  48.4877400
  37.5741060   5.5980990  47.5433120  38.1102320   4.7548110  48.6805520
  38.7408270   7.1632410  44.8983580  38.3336350   7.3047000  44.0437180
  39.6321280   6.8792570  44.6954790  54.6970410   7.6096320  53.2355820
  54.8233470   7.3708200  52.3173000  54.7391790   6.7780860  53.7077900
  48.5587150  11.3124320  51.8050630  49.0731820  11.2232330  52.6073060
  47.7156230  11.6584020  52.0978540  50.5341550  11.5979660  41.2334630
  50.3742690  11.3082600  42.1316460  50.3688260  10.8219790  40.6979860
  43.0129930  11.3778190  43.0106250  42.8372410  10.4613730  42.7974050
  42.1585670  11.7365480  43.2504050  50.2367680   9.1067220  39.7932630
  49.5432840   9.1044510  39.1334910  50.9790540   8.6826540  39.3626800
  49.8017610  10.7329930  43.8681120  50.2574560   9.9519310  44.1819740
  50.1410130  11.4436750  44.4122300  37.5520160   6.5046390  51.0271860
  37.7151200   6.0351750  50.2091230  38.0172610   5.9969950  51.6920700
  44.0489960   1.9785800  39.3100940  43.4806860   1.5304050  38.6836850
  44.7578960   2.3378580  38.7766090  39.1259140   5.8797820  53.1867670
  38.7413930   5.2391490  53.7850630  39.4371330   6.5833940  53.7562400
  45.2756280   2.7274360  48.6676290  45.6426410   2.2532930  49.4137630
  45.0861340   3.6015930  49.0084630  43.0655650   1.7683000  50.9860500
  42.7612720   2.6474980  51.2110860  44.0202110   1.8282790  51.0217940
  41.5937440   5.9743990  41.5827350  40.8199700   5.4341610  41.4226070
  42.3232070   5.4550600  41.2445110  52.3525420   4.9709350  47.3753740
  53.0724540   5.4664640  46.9849850  52.1507240   4.2927240  46.7307610
  47.7344220   5.0418410  53.2622740  47.6681530   4.1214080  53.0080330
  47.1049360   5.1393850  53.9767380  41.6374840   5.6424370  45.2206160
  42.1553510   4.8392630  45.1663050  41.1858860   5.5803510  46.0622990
  46.5244340   6.9090650  40.4933460  46.8660040   7.6532880  39.9976780
  45.6957050   7.2221770  40.8558290  39.1219380   2.6085740  52.1331860
  38.7634320   3.2739590  52.7205200  38.8273940   1.7769290  52.5044480
  42.3232500   3.0669980  55.0171410  42.0232640   3.2127160  54.1199230
  43.0943740   2.5075270  54.9244800  47.6660950   7.8638980  53.0126540
  47.6805490   6.9319940  52.7945450  46.9586050   7.9498740  53.6516310
  52.7998020   2.0478800  39.2825150  52.7161740   2.4793020  38.4321590
  53.5192210   2.5077150  39.7151970  53.8772160   4.5046320  52.3595120
  53.1520350   5.0975100  52.1624510  54.4047620   4.4969860  51.5608490
  53.8285270   8.9021060  42.0107280  53.1861430   8.2476680  42.2851000
  53.4415930   9.3076150  41.2347950  49.4071750   6.2306490  45.8578970
  49.7595570   5.6334620  45.1980340  48.5234080   5.9050720  46.0287220
  45.4935030   6.9904180  43.2649380  46.1806160   7.5373390  43.6456970
  44.7067450   7.5344910  43.2998990  37.6327430   2.6077000  38.7566460
  38.5022280   2.8901800  39.0402380  37.1417750   3.4212870  38.6415270
  44.7962240   3.9950210  42.8774740  45.2525020   4.8055460  43.1034930
  44.4450450   3.6773350  43.7093230  47.0994850   9.5056550  50.1067040
  47.7437070   9.7115930  50.7840460  47.4624290   8.7444950  49.6537890
  48.3726930   7.5088900  48.8244490  49.0149160   6.8082060  48.9376660
  48.8976280   8.2887340  48.6441380  52.2182650   7.7937520  38.5483630
  51.9920230   7.0767960  39.1408270  51.8278850   7.5449960  37.7105380
  50.1464550   8.3083800  52.0280550  50.4820790   8.8950490  52.7058470
  49.2264890   8.1776510  52.2578340  37.9998680  11.8204380  39.3228090
  38.3596320  12.4193720  38.6685360  37.8591020  12.3664270  40.0963120
  51.7998900   5.7109460  40.2097790  51.5120600   6.1722150  40.9975670
  52.5951070   5.2507230  40.4782010  37.9840540  10.0859240  53.7970490
  38.0931660   9.1453980  53.6565880  37.3321100  10.3513990  53.1484220
  45.9753130   8.3575130  55.1968610  45.6550000   7.6384370  55.7414300
  45.3011490   9.0330200  55.2704670  44.0167300   9.2035580  40.1401760
  44.0077400   9.9365270  39.5246270  43.0965660   8.9567160  40.2328720
  39.6173940   4.4250470  40.8848520  39.0101890   5.1649370  40.8943820
  40.0923290   4.5149830  40.0586720  47.0026900   9.2663820  38.8026950
  47.1038880   9.0627810  37.8728930  46.1028640   9.0122100  39.0074730
  45.6445010  11.7850140  43.4974620  45.8986510  11.7471530  42.5753990
  44.6957490  11.6583470  43.4902870  51.6497590   2.7042020  45.0733130
  50.7087730   2.7192250  45.2480820  51.9641660   1.9177980  45.5193430
  41.6279230   4.3861620  38.6337090  42.3942500   4.2742980  39.1962520
  41.7053920   3.6899590  37.9813860  53.6523170   9.8750870  46.7487390
  53.7770590  10.6982040  47.2211200  54.5188730   9.6641600  46.4011540
  41.1240700  11.9682080  46.4204520  41.8603180  11.4197540  46.6913090
  41.5081620  12.8338090  46.2810510  38.0086180   8.0355650  42.2946030
  37.0825960   8.2776790  42.2851440  38.4742610   8.8629910  42.1730780
  40.1298980  11.1528150  55.6090100  40.9311710  11.4740200  56.0225500
  39.6150800  10.7923730  56.3310010  44.2343010  11.1412390  38.2430090
  45.0271620  11.4301220  37.7911880  43.7147360  10.7104560  37.5642570
  48.9663610   7.2608020  55.5565510  48.3601770   7.2839620  54.8161260
  48.6617720   6.5291060  56.0932760  50.3963980  10.9888310  54.1674920
  51.3485730  10.9046330  54.1175160  50.2492200  11.6530020  54.8408710
  53.2873180  10.3682520  39.6666830  53.0014690   9.9547660  38.8521010
  53.0892730  11.2970230  39.5467350  37.8496790   3.6401610  54.5526150
  38.3535810   3.0608890  55.1242380  37.1104210   3.9241840  55.0902520
  44.7520410   6.3615800  38.1072440  44.6471050   5.7468150  38.8333820
  44.5844630   5.8381690  37.3235450  44.9034730   5.0472600  54.0861670
  44.1380400   5.6157600  54.0016340  45.0850690   4.7548810  53.1929900
  47.9923140   5.4235830  38.7114430  47.4433240   5.8705130  39.3557170
  48.6142400   4.9185080  39.2352100  52.0458080   6.7777930  54.6436690
  52.7867550   7.1153690  54.1404150  51.2830760   6.9469990  54.0906460
  39.8819870   1.7831200  55.4476220  39.9225210   1.4845070  56.3561450
  40.7365370   2.1838810  55.2883740  43.6598260   4.3826750  40.6079730
  44.0814680   4.2166620  41.4511120  43.7849100   3.5726980  40.1134870
  46.1725900   3.4064360  37.8556830  46.6931560   2.6913380  37.4897980
  46.8194300   4.0450230  38.1557340  50.7203740   4.8292760  53.1791900
  51.1344760   4.9837840  54.0282320  49.7854740   4.9547980  53.3417680
  45.4818970   4.7813240  51.1487830  45.9007080   5.6245970  50.9764070
  44.5627600   4.9185280  50.9194610  47.8182870   2.5129420  52.5325670
  47.9379080   1.9170560  53.2720510  48.6776870   2.5499110  52.1126970
  50.1570770   3.0666610  51.1088180  49.6305990   3.5909230  50.5053320
  50.5002110   3.6994000  51.7397910  43.3326390  11.0866250  52.2645560
  42.7947480  11.8112310  51.9454260  43.5860350  10.6096590  51.4742900
  46.1888600  12.3217460  52.5232210  46.1147300  13.2252600  52.8304580
  45.2867440  12.0029360  52.4954280  46.7373930  11.4875970  40.1458570
  47.6324720  11.8260940  40.1677330  46.7691560  10.7655380  39.5182850
  40.3770090   6.8603020  38.3745570  40.8144960   7.4032690  39.0303150
  40.8617820   6.0349970  38.3841910  37.5915890   9.6492050  45.8265830
  37.9218900   8.7813110  45.5944470  38.0206890   9.8550570  46.6570790
  42.1877810   7.9801060  43.4867800  41.8873350   7.8566030  44.3871710
  42.0815300   7.1209650  43.0783530  38.0806100  10.5162640  48.5647460
  37.6437090  10.6963440  49.3971610  38.6483780  11.2737260  48.4229180
  53.7168280  10.0179640  52.8524770  53.1170270  10.0772200  52.1088690
  53.8462180   9.0784620  52.9821620  54.9569730   7.7597460  38.1894480
  54.1262690   7.8274110  38.6601710  55.1341560   8.6501580  37.8861340
  54.4126190   4.5044940  40.6928680  55.1745100   5.0741590  40.7988370
  54.4280560   3.9372140  41.4636990  37.9130530   3.0282870  44.9236340
  37.2579370   2.7594510  44.2796040  38.7508480   2.9187350  44.4738320
  55.4186160   5.3595040  45.5370610  55.7894990   4.5762360  45.1306580
  56.0588090   6.0484140  45.3587910  52.4019920   6.7431620  50.9500930
  51.5879760   7.1728780  51.2126720  52.8094120   7.3550030  50.3369980
  54.4645360   4.7979310  37.8501200  54.7394200   5.7058190  37.7220420
  54.2756100   4.7341840  38.7863190  54.3610700   2.7348300  42.8430630
  53.9854300   1.9676230  42.4111920  53.6313820   3.1171000  43.3305560
  38.9506460   3.4135440  49.4639680  39.3179500   3.3262840  50.3435700
  38.3817280   2.6501990  49.3646540  53.7510320   1.8819820  52.4770150
  53.5196410   1.6532570  51.5768100  54.0114870   2.8019370  52.4315040
  52.4595970  11.4950220  44.4769200  53.0555040  11.1734790  43.8003620
  52.7174120  11.0222040  45.2682470  40.3658540   7.9268130  54.6259830
  40.3228170   7.5561040  55.5074290  40.4969550   8.8645700  54.7661650
  44.0664570   9.4827720  50.2269550  43.8255930   9.7502280  49.3400070
  45.0067210   9.6533450  50.2820410  55.3268730  11.5022100  51.0280190
  54.8327010  11.8990970  50.3107320  54.7182020  10.8771310  51.4217470
  40.2046570  10.8730380  51.7457610  39.6106890  10.7415080  52.4847650
  40.1970410  10.0368520  51.2799710  53.0108180  12.1445520  48.3066930
  52.5511150  12.8961330  47.9324950  52.3820640  11.4251990  48.2481730
  39.8358800   8.2388760  50.6965650  39.1092860   7.6194050  50.6291600
  39.8967950   8.6329370  49.8263730  43.4403900  10.4533760  47.4815060
  43.9568920   9.8421120  46.9563320  44.0901280  10.9562540  47.9726070
  46.1799400  11.3442250  48.3084040  46.4677210  11.0896550  47.4317050
  46.6922620  10.7919610  48.8989610  38.1188800  11.5563150  43.9062410
  37.9510840  10.9233830  44.6044300  37.2523310  11.7622550  43.5556600
  39.7251500  10.2496380  41.3512550  39.1999120  10.6304410  40.6474510
  39.6496080  10.8747150  42.0722260  46.2471760  12.2658350  55.6752240
  47.1739070  12.0302620  55.7188200  46.2322190  13.0930350  55.1938270
  54.4816820  11.8083920  42.6726490  54.6569010  11.1221660  42.0287410
  53.7838390  12.3330970  42.2803160  42.3244470  12.1978760  40.2261800
  43.0563290  11.9138040  39.6785690  42.5838140  11.9592040  41.1161180
  41.4859260   8.3143490  40.2308130  40.8568140   8.7828590  40.7793960
  41.6007090   7.4692710  40.6654320  52.8149320  11.4928210  55.4993280
  53.6074640  10.9977440  55.2919240  53.1082470  12.1718350  56.1068890
  47.0727020   4.1428170  28.2618600  46.2969120   3.6628610  28.5517170
  47.7239950   3.4633820  28.0874760  41.0892850   4.4547980  29.1394360
  40.2577730   4.1996690  29.5390870  41.6973830   4.5258750  29.8752280
  51.0934450   8.5488360  27.0417730  50.6315980   7.7775600  27.3704900
  51.9060000   8.5754430  27.5470180  41.0694110   8.4888070  29.3352380
  41.3722150   7.5985810  29.1562600  41.8137700   9.0458290  29.1074630
  47.3197760  10.8346370  26.6621720  46.7009200  11.2903870  26.0916160
  48.1749540  10.9897830  26.2611420  46.5136010   6.8185360  28.2688760
  46.4444290   5.8775300  28.1077890  47.2755870   6.9086770  28.8411330
  48.1861110   5.7185610  24.0553630  47.5678380   6.1835060  23.4916350
  48.6984360   6.4113090  24.4723140  43.0492870   5.2461480  30.7337230
  42.7162250   5.8730400  31.3758300  43.2259550   5.7723360  29.9538900
  42.2611970   7.2142280  32.5486410  42.8785970   7.8893360  32.2670860
  41.4005090   7.6230260  32.4573910  37.5544310   6.4042140  21.4293260
  37.1772290   6.8929240  20.6978160  37.8117380   7.0767420  22.0599790
  53.1789560   8.6781690  30.4641050  52.4953080   9.3480800  30.4557720
  53.7183850   8.8762340  29.6985910  50.7148300  10.5225820  29.1786230
  50.7275460  10.1188110  28.3108490  50.1623520  11.2973110  29.0747660
  52.0093720   7.2442040  24.2676400  51.8990050   6.3016370  24.3925820
  52.0061970   7.6057680  25.1539160  50.1133740   5.4255660  30.5068840
  50.5302530   5.2115770  29.6722300  50.8373560   5.6828450  31.0777460
  47.5514000   2.8707360  23.6238890  46.6243280   2.8044740  23.8527360
  47.7038820   3.8087490  23.5094130  54.0595840   3.8242880  30.5985080
  53.2314470   3.8935970  30.1235210  54.6546320   4.4097190  30.1300910
  51.5811290   4.4327660  24.1274140  50.9623710   4.0947210  23.4800440
  51.5635740   3.7887420  24.8353330  43.1570640   3.3972100  26.4058620
  42.7527640   2.6849350  25.9104520  43.2433760   3.0525340  27.2946660
  43.6252340   7.0839660  28.5697830  43.3280630   6.4785130  27.8905610
  44.5752160   7.1216970  28.4587190  51.7137950  10.6571530  32.2320930
  51.2368510  11.4643720  32.0393540  51.0299740  10.0049860  32.3847140
  42.7170770   6.8221350  35.2205630  41.8199300   7.0461320  35.4679030
  42.7423640   6.9456290  34.2717030  49.7575990   3.6714470  21.1346890
  50.1969270   2.8336900  20.9884710  50.4704410   4.3043870  21.2211030
  41.5441990   3.6934670  33.7963000  41.4049760   4.5657470  34.1650400
  40.6623350   3.3507480  33.6510940  47.8671370   8.6110540  25.1028130
  48.3067280   9.3534870  24.6883520  47.8058260   8.8537110  26.0267090
  43.3422340   9.6356370  36.0048150  43.3137770  10.0399320  35.1376580
  43.1787310   8.7066730  35.8419750  39.8575270   2.2917080  23.9065270
  39.7372870   3.0179170  23.2946540  39.5476160   1.5219990  23.4293180
  55.2937160  10.4183470  37.3012320  55.7696880  10.8966360  37.9801400
  55.9144320  10.3500960  36.5757820  37.4960640   5.4632220  29.7133910
  37.5741060   5.5980990  28.7689630  38.1102320   4.7548110  29.9062030
  38.7408270   7.1632410  26.1240090  38.3336350   7.3047000  25.2693690
  39.6321280   6.8792570  25.9211300  54.6970410   7.6096320  34.4612330
  54.8233470   7.3708200  33.5429510  54.7391790   6.7780860  34.9334410
  48.5587150  11.3124320  33.0307140  49.0731820  11.2232330  33.8329570
  47.7156230  11.6584020  33.3235050  50.5341550  11.5979660  22.4591140
  50.3742690  11.3082600  23.3572970  50.3688260  10.8219790  21.9236370
  43.0129930  11.3778190  24.2362760  42.8372410  10.4613730  24.0230560
  42.1585670  11.7365480  24.4760560  50.2367680   9.1067220  21.0189140
  49.5432840   9.1044510  20.3591420  50.9790540   8.6826540  20.5883310
  49.8017610  10.7329930  25.0937630  50.2574560   9.9519310  25.4076250
  50.1410130  11.4436750  25.6378810  37.5520160   6.5046390  32.2528370
  37.7151200   6.0351750  31.4347740  38.0172610   5.9969950  32.9177210
  44.0489960   1.9785800  20.5357450  43.4806860   1.5304050  19.9093360
  44.7578960   2.3378580  20.0022600  39.1259140   5.8797820  34.4124180
  38.7413930   5.2391490  35.0107140  39.4371330   6.5833940  34.9818910
  45.2756280   2.7274360  29.8932800  45.6426410   2.2532930  30.6394140
  45.0861340   3.6015930  30.2341140  43.0655650   1.7683000  32.2117010
  42.7612720   2.6474980  32.4367370  44.0202110   1.8282790  32.2474450
  41.5937440   5.9743990  22.8083860  40.8199700   5.4341610  22.6482580
  42.3232070   5.4550600  22.4701620  52.3525420   4.9709350  28.6010250
  53.0724540   5.4664640  28.2106360  52.1507240   4.2927240  27.9564120
  47.7344220   5.0418410  34.4879250  47.6681530   4.1214080  34.2336840
  47.1049360   5.1393850  35.2023890  41.6374840   5.6424370  26.4462670
  42.1553510   4.8392630  26.3919560  41.1858860   5.5803510  27.2879500
  46.5244340   6.9090650  21.7189970  46.8660040   7.6532880  21.2233290
  45.6957050   7.2221770  22.0814800  39.1219380   2.6085740  33.3588370
  38.7634320   3.2739590  33.9461710  38.8273940   1.7769290  33.7300990
  42.3232500   3.0669980  36.2427920  42.0232640   3.2127160  35.3455740
  43.0943740   2.5075270  36.1501310  47.6660950   7.8638980  34.2383050
  47.6805490   6.9319940  34.0201960  46.9586050   7.9498740  34.8772820
  52.7998020   2.0478800  20.5081660  52.7161740   2.4793020  19.6578100
  53.5192210   2.5077150  20.9408480  53.8772160   4.5046320  33.5851630
  53.1520350   5.0975100  33.3881020  54.4047620   4.4969860  32.7865000
  53.8285270   8.9021060  23.2363790  53.1861430   8.2476680  23.5107510
  53.4415930   9.3076150  22.4604460  49.4071750   6.2306490  27.0835480
  49.7595570   5.6334620  26.4236850  48.5234080   5.9050720  27.2543730
  45.4935030   6.9904180  24.4905890  46.1806160   7.5373390  24.8713480
  44.7067450   7.5344910  24.5255500  37.6327430   2.6077000  19.9822970
  38.5022280   2.8901800  20.2658890  37.1417750   3.4212870  19.8671780
  44.7962240   3.9950210  24.1031250  45.2525020   4.8055460  24.3291440
  44.4450450   3.6773350  24.9349740  47.0994850   9.5056550  31.3323550
  47.7437070   9.7115930  32.0096970  47.4624290   8.7444950  30.8794400
  48.3726930   7.5088900  30.0501000  49.0149160   6.8082060  30.1633170
  48.8976280   8.2887340  29.8697890  52.2182650   7.7937520  19.7740140
  51.9920230   7.0767960  20.3664780  51.8278850   7.5449960  18.9361890
  50.1464550   8.3083800  33.2537060  50.4820790   8.8950490  33.9314980
  49.2264890   8.1776510  33.4834850  37.9998680  11.8204380  20.5484600
  38.3596320  12.4193720  19.8941870  37.8591020  12.3664270  21.3219630
  51.7998900   5.7109460  21.4354300  51.5120600   6.1722150  22.2232180
  52.5951070   5.2507230  21.7038520  37.9840540  10.0859240  35.0227000
  38.0931660   9.1453980  34.8822390  37.3321100  10.3513990  34.3740730
  45.9753130   8.3575130  36.4225120  45.6550000   7.6384370  36.9670810
  45.3011490   9.0330200  36.4961180  44.0167300   9.2035580  21.3658270
  44.0077400   9.9365270  20.7502780  43.0965660   8.9567160  21.4585230
  39.6173940   4.4250470  22.1105030  39.0101890   5.1649370  22.1200330
  40.0923290   4.5149830  21.2843230  47.0026900   9.2663820  20.0283460
  47.1038880   9.0627810  19.0985440  46.1028640   9.0122100  20.2331240
  45.6445010  11.7850140  24.7231130  45.8986510  11.7471530  23.8010500
  44.6957490  11.6583470  24.7159380  51.6497590   2.7042020  26.2989640
  50.7087730   2.7192250  26.4737330  51.9641660   1.9177980  26.7449940
  41.6279230   4.3861620  19.8593600  42.3942500   4.2742980  20.4219030
  41.7053920   3.6899590  19.2070370  53.6523170   9.8750870  27.9743900
  53.7770590  10.6982040  28.4467710  54.5188730   9.6641600  27.6268050
  41.1240700  11.9682080  27.6461030  41.8603180  11.4197540  27.9169600
  41.5081620  12.8338090  27.5067020  38.0086180   8.0355650  23.5202540
  37.0825960   8.2776790  23.5107950  38.4742610   8.8629910  23.3987290
  40.1298980  11.1528150  36.8346610  40.9311710  11.4740200  37.2482010
  39.6150800  10.7923730  37.5566520  44.2343010  11.1412390  19.4686600
  45.0271620  11.4301220  19.0168390  43.7147360  10.7104560  18.7899080
  48.9663610   7.2608020  36.7822020  48.3601770   7.2839620  36.0417770
  48.6617720   6.5291060  37.3189270  50.3963980  10.9888310  35.3931430
  51.3485730  10.9046330  35.3431670  50.2492200  11.6530020  36.0665220
  53.2873180  10.3682520  20.8923340  53.0014690   9.9547660  20.0777520
  53.0892730  11.2970230  20.7723860  37.8496790   3.6401610  35.7782660
  38.3535810   3.0608890  36.3498890  37.1104210   3.9241840  36.3159030
  44.7520410   6.3615800  19.3328950  44.6471050   5.7468150  20.0590330
  44.5844630   5.8381690  18.5491960  44.9034730   5.0472600  35.3118180
  44.1380400   5.6157600  35.2272850  45.0850690   4.7548810  34.4186410
  47.9923140   5.4235830  19.9370940  47.4433240   5.8705130  20.5813680
  48.6142400   4.9185080  20.4608610  52.0458080   6.7777930  35.8693200
  52.7867550   7.1153690  35.3660660  51.2830760   6.9469990  35.3162970
  39.8819870   1.7831200  36.6732730  39.9225210   1.4845070  37.5817960
  40.7365370   2.1838810  36.5140250  43.6598260   4.3826750  21.8336240
  44.0814680   4.2166620  22.6767630  43.7849100   3.5726980  21.3391380
  46.1725900   3.4064360  19.0813340  46.6931560   2.6913380  18.7154490
  46.8194300   4.0450230  19.3813850  50.7203740   4.8292760  34.4048410
  51.1344760   4.9837840  35.2538830  49.7854740   4.9547980  34.5674190
  45.4818970   4.7813240  32.3744340  45.9007080   5.6245970  32.2020580
  44.5627600   4.9185280  32.1451120  47.8182870   2.5129420  33.7582180
  47.9379080   1.9170560  34.4977020  48.6776870   2.5499110  33.3383480
  50.1570770   3.0666610  32.3344690  49.6305990   3.5909230  31.7309830
  50.5002110   3.6994000  32.9654420  43.3326390  11.0866250  33.4902070
  42.7947480  11.8112310  33.1710770  43.5860350  10.6096590  32.6999410
  46.1888600  12.3217460  33.7488720  46.1147300  13.2252600  34.0561090
  45.2867440  12.0029360  33.7210790  46.7373930  11.4875970  21.3715080
  47.6324720  11.8260940  21.3933840  46.7691560  10.7655380  20.7439360
  40.3770090   6.8603020  19.6002080  40.8144960   7.4032690  20.2559660
  40.8617820   6.0349970  19.6098420  37.5915890   9.6492050  27.0522340
  37.9218900   8.7813110  26.8200980  38.0206890   9.8550570  27.8827300
  42.1877810   7.9801060  24.7124310  41.8873350   7.8566030  25.6128220
  42.0815300   7.1209650  24.3040040  38.0806100  10.5162640  29.7903970
  37.6437090  10.6963440  30.6228120  38.6483780  11.2737260  29.6485690
  53.7168280  10.0179640  34.0781280  53.1170270  10.0772200  33.3345200
  53.8462180   9.0784620  34.2078130  54.9569730   7.7597460  19.4150990
  54.1262690   7.8274110  19.8858220  55.1341560   8.6501580  19.1117850
  54.4126190   4.5044940  21.9185190  55.1745100   5.0741590  22.0244880
  54.4280560   3.9372140  22.6893500  37.9130530   3.0282870  26.1492850
  37.2579370   2.7594510  25.5052550  38.7508480   2.9187350  25.6994830
  55.4186160   5.3595040  26.7627120  55.7894990   4.5762360  26.3563090
  56.0588090   6.0484140  26.5844420  52.4019920   6.7431620  32.1757440
  51.5879760   7.1728780  32.4383230  52.8094120   7.3550030  31.5626490
  54.4645360   4.7979310  19.0757710  54.7394200   5.7058190  18.9476930
  54.2756100   4.7341840  20.0119700  54.3610700   2.7348300  24.0687140
  53.9854300   1.9676230  23.6368430  53.6313820   3.1171000  24.5562070
  38.9506460   3.4135440  30.6896190  39.3179500   3.3262840  31.5692210
  38.3817280   2.6501990  30.5903050  53.7510320   1.8819820  33.7026660
  53.5196410   1.6532570  32.8024610  54.0114870   2.8019370  33.6571550
  52.4595970  11.4950220  25.7025710  53.0555040  11.1734790  25.0260130
  52.7174120  11.0222040  26.4938980  40.3658540   7.9268130  35.8516340
  40.3228170   7.5561040  36.7330800  40.4969550   8.8645700  35.9918160
  44.0664570   9.4827720  31.4526060  43.8255930   9.7502280  30.5656580
  45.0067210   9.6533450  31.5076920  55.3268730  11.5022100  32.2536700
  54.8327010  11.8990970  31.5363830  54.7182020  10.8771310  32.6473980
  40.2046570  10.8730380  32.9714120  39.6106890  10.7415080  33.7104160
  40.1970410  10.0368520  32.5056220  53.0108180  12.1445520  29.5323440
  52.5511150  12.8961330  29.1581460  52.3820640  11.4251990  29.4738240
  39.8358800   8.2388760  31.9222160  39.1092860   7.6194050  31.8548110
  39.8967950   8.6329370  31.0520240  43.4403900  10.4533760  28.7071570
  43.9568920   9.8421120  28.1819830  44.0901280  10.9562540  29.1982580
  46.1799400  11.3442250  29.5340550  46.4677210  11.0896550  28.6573560
  46.6922620  10.7919610  30.1246120  38.1188800  11.5563150  25.1318920
  37.9510840  10.9233830  25.8300810  37.2523310  11.7622550  24.7813110
  39.7251500  10.2496380  22.5769060  39.1999120  10.6304410  21.8731020
  39.6496080  10.8747150  23.2978770  46.2471760  12.2658350  36.9008750
  47.1739070  12.0302620  36.9444710  46.2322190  13.0930350  36.4194780
  54.4816820  11.8083920  23.8983000  54.6569010  11.1221660  23.2543920
  53.7838390  12.3330970  23.5059670  42.3244470  12.1978760  21.4518310
  43.0563290  11.9138040  20.9042200  42.5838140  11.9592040  22.3417690
  41.4859260   8.3143490  21.4564640  40.8568140   8.7828590  22.0050470
  41.6007090   7.4692710  21.8910830  52.8149320  11.4928210  36.7249790
  53.6074640  10.9977440  36.5175750  53.1082470  12.1718350  37.3325400
  47.0727020   4.1428170   9.4875110  46.2969120   3.6628610   9.7773680
  47.7239950   3.4633820   9.3131270  41.0892850   4.4547980  10.3650870
  40.2577730   4.1996690  10.7647380  41.6973830   4.5258750  11.1008790
  51.0934450   8.5488360   8.2674240  50.6315980   7.7775600   8.5961410
  51.9060000   8.5754430   8.7726690  41.0694110   8.4888070  10.5608890
  41.3722150   7.5985810  10.3819110  41.8137700   9.0458290  10.3331140
  47.3197760  10.8346370   7.8878230  46.7009200  11.2903870   7.3172670
  48.1749540  10.9897830   7.4867930  46.5136010   6.8185360   9.4945270
  46.4444290   5.8775300   9.3334400  47.2755870   6.9086770  10.0667840
  48.1861110   5.7185610   5.2810140  47.5678380   6.1835060   4.7172860
  48.6984360   6.4113090   5.6979650  43.0492870   5.2461480  11.9593740
  42.7162250   5.8730400  12.6014810  43.2259550   5.7723360  11.1795410
  42.2611970   7.2142280  13.7742920  42.8785970   7.8893360  13.4927370
  41.4005090   7.6230260  13.6830420  37.5544310   6.4042140   2.6549770
  37.1772290   6.8929240   1.9234670  37.8117380   7.0767420   3.2856300
  53.1789560   8.6781690  11.6897560  52.4953080   9.3480800  11.6814230
  53.7183850   8.8762340  10.9242420  50.7148300  10.5225820  10.4042740
  50.7275460  10.1188110   9.5365000  50.1623520  11.2973110  10.3004170
  52.0093720   7.2442040   5.4932910  51.8990050   6.3016370   5.6182330
  52.0061970   7.6057680   6.3795670  50.1133740   5.4255660  11.7325350
  50.5302530   5.2115770  10.8978810  50.8373560   5.6828450  12.3033970
  47.5514000   2.8707360   4.8495400  46.6243280   2.8044740   5.0783870
  47.7038820   3.8087490   4.7350640  54.0595840   3.8242880  11.8241590
  53.2314470   3.8935970  11.3491720  54.6546320   4.4097190  11.3557420
  51.5811290   4.4327660   5.3530650  50.9623710   4.0947210   4.7056950
  51.5635740   3.7887420   6.0609840  43.1570640   3.3972100   7.6315130
  42.7527640   2.6849350   7.1361030  43.2433760   3.0525340   8.5203170
  43.6252340   7.0839660   9.7954340  43.3280630   6.4785130   9.1162120
  44.5752160   7.1216970   9.6843700  51.7137950  10.6571530  13.4577440
  51.2368510  11.4643720  13.2650050  51.0299740  10.0049860  13.6103650
  42.7170770   6.8221350  16.4462140  41.8199300   7.0461320  16.6935540
  42.7423640   6.9456290  15.4973540  49.7575990   3.6714470   2.3603400
  50.1969270   2.8336900   2.2141220  50.4704410   4.3043870   2.4467540
  41.5441990   3.6934670  15.0219510  41.4049760   4.5657470  15.3906910
  40.6623350   3.3507480  14.8767450  47.8671370   8.6110540   6.3284640
  48.3067280   9.3534870   5.9140030  47.8058260   8.8537110   7.2523600
  43.3422340   9.6356370  17.2304660  43.3137770  10.0399320  16.3633090
  43.1787310   8.7066730  17.0676260  39.8575270   2.2917080   5.1321780
  39.7372870   3.0179170   4.5203050  39.5476160   1.5219990   4.6549690
  55.2937160  10.4183470  18.5268830  55.7696880  10.8966360  19.2057910
  55.9144320  10.3500960  17.8014330  37.4960640   5.4632220  10.9390420
  37.5741060   5.5980990   9.9946140  38.1102320   4.7548110  11.1318540
  38.7408270   7.1632410   7.3496600  38.3336350   7.3047000   6.4950200
  39.6321280   6.8792570   7.1467810  54.6970410   7.6096320  15.6868840
  54.8233470   7.3708200  14.7686020  54.7391790   6.7780860  16.1590920
  48.5587150  11.3124320  14.2563650  49.0731820  11.2232330  15.0586080
  47.7156230  11.6584020  14.5491560  50.5341550  11.5979660   3.6847650
  50.3742690  11.3082600   4.5829480  50.3688260  10.8219790   3.1492880
  43.0129930  11.3778190   5.4619270  42.8372410  10.4613730   5.2487070
  42.1585670  11.7365480   5.7017070  49.8017610  10.7329930   6.3194140
  50.2574560   9.9519310   6.6332760  50.1410130  11.4436750   6.8635320
  37.5520160   6.5046390  13.4784880  37.7151200   6.0351750  12.6604250
  38.0172610   5.9969950  14.1433720  39.1259140   5.8797820  15.6380690
  38.7413930   5.2391490  16.2363650  39.4371330   6.5833940  16.2075420
  45.2756280   2.7274360  11.1189310  45.6426410   2.2532930  11.8650650
  45.0861340   3.6015930  11.4597650  43.0655650   1.7683000  13.4373520
  42.7612720   2.6474980  13.6623880  44.0202110   1.8282790  13.4730960
  41.5937440   5.9743990   4.0340370  40.8199700   5.4341610   3.8739090
  42.3232070   5.4550600   3.6958130  52.3525420   4.9709350   9.8266760
  53.0724540   5.4664640   9.4362870  52.1507240   4.2927240   9.1820630
  47.7344220   5.0418410  15.7135760  47.6681530   4.1214080  15.4593350
  47.1049360   5.1393850  16.4280400  41.6374840   5.6424370   7.6719180
  42.1553510   4.8392630   7.6176070  41.1858860   5.5803510   8.5136010
  46.5244340   6.9090650   2.9446480  46.8660040   7.6532880   2.4489800
  45.6957050   7.2221770   3.3071310  39.1219380   2.6085740  14.5844880
  38.7634320   3.2739590  15.1718220  38.8273940   1.7769290  14.9557500
  42.3232500   3.0669980  17.4684430  42.0232640   3.2127160  16.5712250
  43.0943740   2.5075270  17.3757820  47.6660950   7.8638980  15.4639560
  47.6805490   6.9319940  15.2458470  46.9586050   7.9498740  16.1029330
  53.8772160   4.5046320  14.8108140  53.1520350   5.0975100  14.6137530
  54.4047620   4.4969860  14.0121510  53.8285270   8.9021060   4.4620300
  53.1861430   8.2476680   4.7364020  53.4415930   9.3076150   3.6860970
  49.4071750   6.2306490   8.3091990  49.7595570   5.6334620   7.6493360
  48.5234080   5.9050720   8.4800240  45.4935030   6.9904180   5.7162400
  46.1806160   7.5373390   6.0969990  44.7067450   7.5344910   5.7512010
  44.7962240   3.9950210   5.3287760  45.2525020   4.8055460   5.5547950
  44.4450450   3.6773350   6.1606250  47.0994850   9.5056550  12.5580060
  47.7437070   9.7115930  13.2353480  47.4624290   8.7444950  12.1050910
  48.3726930   7.5088900  11.2757510  49.0149160   6.8082060  11.3889680
  48.8976280   8.2887340  11.0954400  50.1464550   8.3083800  14.4793570
  50.4820790   8.8950490  15.1571490  49.2264890   8.1776510  14.7091360
  51.7998900   5.7109460   2.6610810  51.5120600   6.1722150   3.4488690
  52.5951070   5.2507230   2.9295030  37.9840540  10.0859240  16.2483510
  38.0931660   9.1453980  16.1078900  37.3321100  10.3513990  15.5997240
  45.9753130   8.3575130  17.6481630  45.6550000   7.6384370  18.1927320
  45.3011490   9.0330200  17.7217690  44.0167300   9.2035580   2.5914780
  44.0077400   9.9365270   1.9759290  43.0965660   8.9567160   2.6841740
  39.6173940   4.4250470   3.3361540  39.0101890   5.1649370   3.3456840
  40.0923290   4.5149830   2.5099740  45.6445010  11.7850140   5.9487640
  45.8986510  11.7471530   5.0267010  44.6957490  11.6583470   5.9415890
  51.6497590   2.7042020   7.5246150  50.7087730   2.7192250   7.6993840
  51.9641660   1.9177980   7.9706450  53.6523170   9.8750870   9.2000410
  53.7770590  10.6982040   9.6724220  54.5188730   9.6641600   8.8524560
  41.1240700  11.9682080   8.8717540  41.8603180  11.4197540   9.1426110
  41.5081620  12.8338090   8.7323530  38.0086180   8.0355650   4.7459050
  37.0825960   8.2776790   4.7364460  38.4742610   8.8629910   4.6243800
  40.1298980  11.1528150  18.0603120  40.9311710  11.4740200  18.4738520
  39.6150800  10.7923730  18.7823030  48.9663610   7.2608020  18.0078530
  48.3601770   7.2839620  17.2674280  48.6617720   6.5291060  18.5445780
  50.3963980  10.9888310  16.6187940  51.3485730  10.9046330  16.5688180
  50.2492200  11.6530020  17.2921730  37.8496790   3.6401610  17.0039170
  38.3535810   3.0608890  17.5755400  37.1104210   3.9241840  17.5415540
  44.9034730   5.0472600  16.5374690  44.1380400   5.6157600  16.4529360
  45.0850690   4.7548810  15.6442920  52.0458080   6.7777930  17.0949710
  52.7867550   7.1153690  16.5917170  51.2830760   6.9469990  16.5419480
  39.8819870   1.7831200  17.8989240  39.9225210   1.4845070  18.8074470
  40.7365370   2.1838810  17.7396760  43.6598260   4.3826750   3.0592750
  44.0814680   4.2166620   3.9024140  43.7849100   3.5726980   2.5647890
  50.7203740   4.8292760  15.6304920  51.1344760   4.9837840  16.4795340
  49.7854740   4.9547980  15.7930700  45.4818970   4.7813240  13.6000850
  45.9007080   5.6245970  13.4277090  44.5627600   4.9185280  13.3707630
  47.8182870   2.5129420  14.9838690  47.9379080   1.9170560  15.7233530
  48.6776870   2.5499110  14.5639990  50.1570770   3.0666610  13.5601200
  49.6305990   3.5909230  12.9566340  50.5002110   3.6994000  14.1910930
  43.3326390  11.0866250  14.7158580  42.7947480  11.8112310  14.3967280
  43.5860350  10.6096590  13.9255920  46.1888600  12.3217460  14.9745230
  46.1147300  13.2252600  15.2817600  45.2867440  12.0029360  14.9467300
  46.7373930  11.4875970   2.5971590  47.6324720  11.8260940   2.6190350
  46.7691560  10.7655380   1.9695870  37.5915890   9.6492050   8.2778850
  37.9218900   8.7813110   8.0457490  38.0206890   9.8550570   9.1083810
  42.1877810   7.9801060   5.9380820  41.8873350   7.8566030   6.8384730
  42.0815300   7.1209650   5.5296550  38.0806100  10.5162640  11.0160480
  37.6437090  10.6963440  11.8484630  38.6483780  11.2737260  10.8742200
  53.7168280  10.0179640  15.3037790  53.1170270  10.0772200  14.5601710
  53.8462180   9.0784620  15.4334640  54.4126190   4.5044940   3.1441700
  55.1745100   5.0741590   3.2501390  54.4280560   3.9372140   3.9150010
  37.9130530   3.0282870   7.3749360  37.2579370   2.7594510   6.7309060
  38.7508480   2.9187350   6.9251340  55.4186160   5.3595040   7.9883630
  55.7894990   4.5762360   7.5819600  56.0588090   6.0484140   7.8100930
  52.4019920   6.7431620  13.4013950  51.5879760   7.1728780  13.6639740
  52.8094120   7.3550030  12.7883000  54.3610700   2.7348300   5.2943650
  53.9854300   1.9676230   4.8624940  53.6313820   3.1171000   5.7818580
  38.9506460   3.4135440  11.9152700  39.3179500   3.3262840  12.7948720
  38.3817280   2.6501990  11.8159560  53.7510320   1.8819820  14.9283170
  53.5196410   1.6532570  14.0281120  54.0114870   2.8019370  14.8828060
  52.4595970  11.4950220   6.9282220  53.0555040  11.1734790   6.2516640
  52.7174120  11.0222040   7.7195490  40.3658540   7.9268130  17.0772850
  40.3228170   7.5561040  17.9587310  40.4969550   8.8645700  17.2174670
  44.0664570   9.4827720  12.6782570  43.8255930   9.7502280  11.7913090
  45.0067210   9.6533450  12.7333430  55.3268730  11.5022100  13.4793210
  54.8327010  11.8990970  12.7620340  54.7182020  10.8771310  13.8730490
  40.2046570  10.8730380  14.1970630  39.6106890  10.7415080  14.9360670
  40.1970410  10.0368520  13.7312730  53.0108180  12.1445520  10.7579950
  52.5511150  12.8961330  10.3837970  52.3820640  11.4251990  10.6994750
  39.8358800   8.2388760  13.1478670  39.1092860   7.6194050  13.0804620
  39.8967950   8.6329370  12.2776750  43.4403900  10.4533760   9.9328080
  43.9568920   9.8421120   9.4076340  44.0901280  10.9562540  10.4239090
  46.1799400  11.3442250  10.7597060  46.4677210  11.0896550   9.8830070
  46.6922620  10.7919610  11.3502630  38.1188800  11.5563150   6.3575430
  37.9510840  10.9233830   7.0557320  37.2523310  11.7622550   6.0069620
  39.7251500  10.2496380   3.8025570  39.1999120  10.6304410   3.0987530
  39.6496080  10.8747150   4.5235280  46.2471760  12.2658350  18.1265260
  47.1739070  12.0302620  18.1701220  46.2322190  13.0930350  17.6451290
  54.4816820  11.8083920   5.1239510  54.6569010  11.1221660   4.4800430
  53.7838390  12.3330970   4.7316180  42.3244470  12.1978760   2.6774820
  43.0563290  11.9138040   2.1298710  42.5838140  11.9592040   3.5674200
  41.4859260   8.3143490   2.6821150  40.8568140   8.7828590   3.2306980
  41.6007090   7.4692710   3.1167340  52.8149320  11.4928210  17.9506300
  53.6074640  10.9977440  17.7432260  53.1082470  12.1718350  18.5581910
  30.1665490  96.2366600  63.9296310  30.0859540  95.3221210  63.6588020
  29.7529910  96.7333670  63.2236020  28.2983530  98.0145620  65.8105580
  27.5225630  97.5346060  66.1004150  28.9496460  97.3351270  65.6361740
  22.3149360  98.3265430  66.6881340  21.4834240  98.0714140  67.0877850
  22.9230340  98.3976200  67.4239260  20.7241310  93.2867320  60.4723730
  19.8358010  93.6283290  60.3703610  21.0082500  93.0867640  59.5804560
  18.6874320  95.8872970  66.3563430  19.2590430  95.1195170  66.3567070
  18.6875860  96.1861730  65.4470040  19.9299190  91.2957330  68.1432360
  19.7502030  90.3983080  68.4235120  19.5279270  91.8429200  68.8179310
  28.7697690  93.4973190  66.0444670  29.1462510  92.6245070  65.9318340
  28.6717200  93.8331890  65.1535110  22.9002700  91.8698820  61.5062110
  23.0069450  92.7702550  61.8130870  21.9895060  91.8216790  61.2156760
  32.5521810  90.9923630  62.9773010  33.3731430  90.5020200  63.0198490
  32.5855890  91.5821290  63.7304850  20.5485860  93.7917830  66.7514700
  21.2295970  94.0556200  67.3702100  20.2333910  92.9518700  67.0852710
  24.7410430  94.8385190  65.8387290  25.2488650  95.3366160  66.4792310
  25.2723670  94.0620390  65.6626650  36.8421360  93.0090380  69.5416640
  36.1373530  93.3972090  69.0231750  37.1079280  93.7040670  70.1437570
  23.0246530  89.4783750  70.1050710  23.0264970  89.9956140  69.2996610
  22.1950840  89.0013930  70.0820640  32.7883290  92.9324010  65.7500550
  32.0838860  93.2208900  66.3303660  33.1495450  93.7424120  65.3900110
  22.7061860  91.1893710  68.1121160  23.0478670  92.0335760  67.8175030
  21.7677670  91.3377450  68.2286500  35.8570210  92.3778800  66.1409760
  34.9095120  92.4117780  66.2725190  36.1820200  93.1917750  66.5259120
  26.3889750  88.6775980  64.4365750  26.6964730  88.1222870  63.7201250
  25.4590450  88.8120440  64.2538740  28.7770510  96.7424810  61.1725870
  27.8499790  96.6762190  61.4014340  28.9295330  97.6804940  61.0581110
  28.7639590  93.0141810  58.1693030  27.8243260  93.1755770  58.2545490
  29.0822850  93.7327490  57.6229020  35.2852350  97.6960330  68.1472060
  34.4570980  97.7653420  67.6722190  35.8802830  98.2814640  67.6787890
  32.8067800  98.3045110  61.6761120  32.1880220  97.9664660  61.0287420
  32.7892250  97.6604870  62.3840310  32.2494360  94.4829650  69.0926930
  31.8365540  95.3083360  69.3466920  31.5170310  93.8974690  68.9003290
  24.3827150  97.2689550  63.9545600  23.9784150  96.5566800  63.4591500
  24.4690270  96.9242790  64.8433640  23.0955770  94.0432760  67.7344640
  23.6470360  94.1528100  66.9597890  23.6099280  94.4170360  68.4499870
  30.9832500  97.5431920  58.6833870  31.4225780  96.7054350  58.5371690
  31.6960920  98.1761320  58.7698010  22.7698500  97.5652120  71.3449980
  22.6306270  98.4374920  71.7137380  21.8879860  97.2224930  71.1997920
  34.5649640  88.7974730  56.9974910  34.2522300  88.8901560  57.8973980
  35.3262110  89.3755760  56.9472340  21.0831780  96.1634530  61.4552250
  20.9629380  96.8896620  60.8433520  20.7732670  95.3937440  60.9780160
  35.7750930  93.5346230  72.9749050  35.1595200  94.0425900  72.4464510
  35.4547350  92.6344560  72.9174990  23.5495440  89.5069600  64.8375920
  23.1063590  90.2879140  64.5060440  24.1080430  89.8299490  65.5446860
  27.8365250  92.3738120  70.4411240  27.3744620  92.5821140  71.2531180
  27.4343360  91.5597470  70.1381910  32.8369760  93.5947070  71.5707900
  31.9863350  93.2952820  71.8916970  32.6771550  93.8389080  70.6591720
  26.6654260  89.1280300  59.7181750  26.0408440  89.1240170  60.4435060
  26.5784380  88.2611260  59.3217720  25.5871340  90.0516930  66.6965520
  25.8843670  90.9579760  66.6157540  26.1356900  89.5635710  66.0825090
  23.3409660  94.6303170  62.5657170  23.1150580  94.4140340  63.4703790
  22.5602190  95.0631630  62.2203140  30.5707420  94.6366540  61.1647820
  29.9716310  95.3602340  60.9811440  31.1187030  94.5743320  60.3824270
  29.1772290  93.2730080  63.1951100  29.5701860  93.5902280  62.3819790
  29.5389140  92.3941960  63.3095620  20.9119410  91.9402420  71.3851220
  20.5182800  92.7877630  71.5924000  20.2237810  91.3028790  71.5759860
  18.2136460  89.8630880  65.4181300  17.9249510  90.4333740  66.1306280
  18.9582220  89.3835330  65.7812530  18.4006690  93.8051000  56.6284020
  18.3181360  94.7481760  56.7699010  18.0489750  93.6625910  55.7496370
  29.7627430  95.8635830  67.2901880  29.0308550  96.3722640  67.6391980
  29.3651770  95.0465810  66.9890660  26.2004820  92.5390030  65.6954370
  26.2040880  92.0979980  64.8458910  27.0955940  92.8607360  65.8026190
  22.0507200  92.4216520  64.6548580  21.7107250  92.8991750  65.4115630
  21.2884520  91.9681640  64.2949680  26.2624970  93.5402110  58.6861130
  26.3837790  93.4988590  59.6346950  25.8773480  94.4026260  58.5307860
  30.2253340  91.3169510  66.7024820  30.2426080  91.7678160  67.5466670
  29.9768920  90.4175150  66.9158260  25.2746470  95.8503250  58.0844430
  24.7063370  95.4021500  57.4580340  25.9835470  96.2096030  57.5509580
  26.5012790  96.5991810  67.4419780  26.8682920  96.1250380  68.1881120
  26.3117850  97.4733380  67.7828120  19.3653280  91.3435500  63.5713250
  19.0800200  90.9791170  64.4091870  19.3032140  90.6115960  62.9576390
  24.2912160  95.6400450  69.7603990  23.9869230  96.5192430  69.9854350
  25.2458620  95.7000240  69.7961430  29.0391870  90.2364760  60.2926620
  28.2256480  89.7377930  60.2171930  28.8453820  91.0763010  59.8762970
  31.7540260  94.6084410  58.5888780  32.6419880  94.9201640  58.4140120
  31.7245350  93.7356660  58.1969360  20.3475890  96.4803190  70.9075350
  19.9890830  97.1457040  71.4948690  20.0530450  95.6486740  71.2787970
  34.0254530  95.9196250  58.0568640  33.9418250  96.3510470  57.2065080
  34.7448720  96.3794600  58.4895460  18.8583940  96.4794450  57.5309950
  19.7278790  96.7619250  57.8145870  18.3674260  97.2930320  57.4158760
  26.0218750  97.8667660  61.6518230  26.4781530  98.6772910  61.8778420
  25.6706960  97.5490800  62.4836720  21.9230530  88.2105310  62.1240750
  21.7945160  88.2023210  63.0725670  21.0992550  88.5488400  61.7731760
  18.9224460  89.9696430  71.5847450  18.2082980  90.1693350  72.1900060
  19.3419500  89.1936000  71.9562250  30.4163240  92.4618740  69.3348900
  30.7844060  91.6413950  69.6628470  29.5561440  92.5220630  69.7504550
  33.7825270  91.4175680  60.1436460  33.1538430  91.5221350  59.4294690
  33.2877190  91.6372460  60.9330340  25.7509300  93.6961630  61.5594340
  25.0425450  94.1647970  62.0007950  26.0353780  93.0383640  62.1939530
  27.3765230  95.1158330  69.5586870  27.8750480  95.5904150  70.2238720
  27.5188180  94.1921850  69.7656900  29.7824730  90.4212290  62.9990130
  29.6592510  90.4398420  62.0499640  30.7309290  90.4691230  63.1188530
  23.9544320  92.0046710  58.9345050  24.8034850  92.4416860  58.8685240
  23.5875590  92.3166970  59.7617110  34.5832090  91.3326290  70.4015260
  34.0805690  92.0731690  70.7409070  35.3988750  91.7210290  70.0852050
  32.8754100  96.5759470  63.8476620  31.9344240  96.5909700  64.0224310
  33.1898170  95.7895430  64.2936920  22.8535740  98.2579070  57.4080580
  23.6199010  98.1460430  57.9706010  22.9310430  97.5617040  56.7557350
  21.5482500  95.6904140  58.0913470  21.6286090  94.7431650  58.2030870
  22.4402250  96.0211020  58.1974130  24.8854770  98.2544200  59.3823220
  25.3071190  98.0884070  60.2254610  25.0105610  97.4444430  58.8878360
  23.0482190  94.2340750  72.1894200  22.5178650  93.7431700  71.5617540
  23.7170260  94.6624950  71.6552130  27.3982410  97.2781810  56.6300320
  27.9188070  96.5630830  56.2641470  28.0450810  97.9167680  56.9300830
  23.5354490  91.2003120  72.2691490  23.4411360  90.5823870  71.5442360
  22.9551880  91.9269410  72.0421400  26.3015930  89.7576360  69.3018880
  25.8533230  89.7800620  68.4564430  25.6681130  89.3595380  69.8989180
  29.0439380  96.3846870  71.3069160  29.1635590  95.7888010  72.0464000
  29.9033380  96.4216560  70.8870460  31.3827280  96.9384060  69.8831670
  30.8562500  97.4626680  69.2796810  31.7258620  97.5711450  70.5141400
  23.7813670  94.3277430  56.3281380  23.5802730  93.4644790  56.6894720
  23.6105720  94.2410790  55.3902980  31.2601980  89.1385660  58.8568260
  31.5404270  88.2953560  59.2127680  30.4867710  89.3708770  59.3707010
  22.5796470  91.4278050  56.3159260  22.8822370  91.4345480  55.4078410
  23.3191060  91.0775910  56.8126920  25.7981400  90.3712670  57.3015460
  25.4503400  89.6936660  56.7217910  25.9994170  89.9102180  58.1158850
  19.1387040  96.9000320  63.6979830  18.4835880  96.6311960  63.0539530
  19.9764990  96.7904800  63.2481810  32.0877480  91.6941610  57.9198320
  32.5062360  91.5072590  57.0794980  31.7813540  90.8420660  58.2301250
  35.5867210  96.6065750  61.6174120  35.2110810  95.8393680  61.1855410
  34.8570330  96.9888450  62.1049050  20.1762970  97.2852890  68.2383170
  20.5436010  97.1980290  69.1179190  19.6073790  96.5219440  68.1390030
  34.9766830  95.7537270  71.2513640  34.7452920  95.5250020  70.3511590
  35.2371380  96.6736820  71.2058530  19.7278970  94.1961980  72.1441590
  18.8335020  94.1628740  72.4835300  20.2676520  94.3948770  72.9092840
  18.3525120  94.1099250  59.6405160  17.4489200  94.3729450  59.4656820
  18.8365740  94.3810420  58.8605120  34.8618170  94.8323240  64.9181360
  35.3855650  94.3385890  64.2871530  35.4477590  94.9673600  65.6628930
  35.0407890  94.9163110  68.4400910  34.0910600  94.8826650  68.5545900
  35.2220900  95.8263220  68.2050680  20.8952330  93.1664790  57.5499540
  21.6044030  92.7448010  57.0646820  20.1792270  93.2340020  56.9182890
  20.5426490  89.2204120  56.5902190  21.2654620  89.7613060  56.9083410
  20.8151010  88.9467540  55.7143730  34.3518140  94.0896590  60.8573770
  34.8477260  93.8567460  61.6422650  34.1534210  93.2508430  60.4411410
  20.2318680  88.4710310  66.4924810  20.8794870  87.9207690  66.0519970
  20.6520520  88.7253460  67.3140620  35.7805300  92.7257540  63.3911450
  35.6704580  92.5713580  64.3293720  36.5412890  92.1978480  63.1486860
  34.1271020  88.6651670  69.8494450  34.7643240  89.2785810  70.2153640
  34.2745910  88.7012330  68.9043680  36.6695570  90.5565460  56.6317590
  37.5944880  90.4246640  56.4235880  36.6471360  90.6358280  57.5854040
  36.7434060  91.3276120  59.2574300  35.9485560  91.2621240  59.7867210
  36.9477340  92.2626760  59.2459650  19.9850680  88.6265980  69.2350130
  19.6365500  89.0829800  70.0008310  19.6538380  87.7323110  69.3172560
  30.8758100  88.0380060  68.7231130  30.0017940  88.3715170  68.5204060
  30.7668850  87.5653240  69.5483000  31.7830080  90.2450930  70.1072850
  31.4543440  89.4302690  69.7274580  32.7312380  90.2020740  69.9838540
  28.6232920  88.9549900  67.6624040  27.8404710  89.4295400  67.9420800
  28.3295850  88.0504730  67.5537220  33.1753990  89.6573000  65.7073130
  33.6162080  89.6018100  64.8594730  32.9061580  90.5731010  65.7783310
  35.0392560  89.2888240  63.7181950  34.9780960  88.3449460  63.5712970
  35.8184590  89.3968330  64.2635410  19.9673330  89.2597380  60.1837760
  20.7252690  89.3726260  59.6101790  19.5050500  90.0966580  60.1381190
  26.5087140  91.3736650  63.1740070  25.6961650  90.9993540  62.8335950
  27.0128780  90.6181730  63.4761260  31.0112120  88.0379100  64.4123140
  31.6141490  88.6099310  64.8871660  30.2705110  88.6018540  64.1897040
  34.1546720  88.4400660  59.6863420  34.3497350  89.3384110  59.9530850
  33.3676590  88.2087740  60.1796370  22.3398480  89.7861430  58.7239730
  22.8691240  88.9991230  58.5947680  22.9726800  90.4652620  58.9575260
  24.5336320  89.5236570  61.7785120  23.9039060  88.8223880  61.9455250
  23.9941460  90.2840700  61.5618280  30.1665490  96.2366600  45.1552820
  30.0859540  95.3221210  44.8844530  29.7529910  96.7333670  44.4492530
  28.2983530  98.0145620  47.0362090  27.5225630  97.5346060  47.3260660
  28.9496460  97.3351270  46.8618250  22.3149360  98.3265430  47.9137850
  21.4834240  98.0714140  48.3134360  22.9230340  98.3976200  48.6495770
  20.7241310  93.2867320  41.6980240  19.8358010  93.6283290  41.5960120
  21.0082500  93.0867640  40.8061070  18.6874320  95.8872970  47.5819940
  19.2590430  95.1195170  47.5823580  18.6875860  96.1861730  46.6726550
  19.9299190  91.2957330  49.3688870  19.7502030  90.3983080  49.6491630
  19.5279270  91.8429200  50.0435820  28.7697690  93.4973190  47.2701180
  29.1462510  92.6245070  47.1574850  28.6717200  93.8331890  46.3791620
  22.9002700  91.8698820  42.7318620  23.0069450  92.7702550  43.0387380
  21.9895060  91.8216790  42.4413270  32.5521810  90.9923630  44.2029520
  33.3731430  90.5020200  44.2455000  32.5855890  91.5821290  44.9561360
  20.5485860  93.7917830  47.9771210  21.2295970  94.0556200  48.5958610
  20.2333910  92.9518700  48.3109220  24.7410430  94.8385190  47.0643800
  25.2488650  95.3366160  47.7048820  25.2723670  94.0620390  46.8883160
  36.8421360  93.0090380  50.7673150  36.1373530  93.3972090  50.2488260
  37.1079280  93.7040670  51.3694080  23.0246530  89.4783750  51.3307220
  23.0264970  89.9956140  50.5253120  22.1950840  89.0013930  51.3077150
  32.7883290  92.9324010  46.9757060  32.0838860  93.2208900  47.5560170
  33.1495450  93.7424120  46.6156620  22.7061860  91.1893710  49.3377670
  23.0478670  92.0335760  49.0431540  21.7677670  91.3377450  49.4543010
  35.8570210  92.3778800  47.3666270  34.9095120  92.4117780  47.4981700
  36.1820200  93.1917750  47.7515630  26.3889750  88.6775980  45.6622260
  26.6964730  88.1222870  44.9457760  25.4590450  88.8120440  45.4795250
  28.7770510  96.7424810  42.3982380  27.8499790  96.6762190  42.6270850
  28.9295330  97.6804940  42.2837620  28.7639590  93.0141810  39.3949540
  27.8243260  93.1755770  39.4802000  29.0822850  93.7327490  38.8485530
  35.2852350  97.6960330  49.3728570  34.4570980  97.7653420  48.8978700
  35.8802830  98.2814640  48.9044400  32.8067800  98.3045110  42.9017630
  32.1880220  97.9664660  42.2543930  32.7892250  97.6604870  43.6096820
  32.2494360  94.4829650  50.3183440  31.8365540  95.3083360  50.5723430
  31.5170310  93.8974690  50.1259800  24.3827150  97.2689550  45.1802110
  23.9784150  96.5566800  44.6848010  24.4690270  96.9242790  46.0690150
  23.0955770  94.0432760  48.9601150  23.6470360  94.1528100  48.1854400
  23.6099280  94.4170360  49.6756380  30.9832500  97.5431920  39.9090380
  31.4225780  96.7054350  39.7628200  31.6960920  98.1761320  39.9954520
  22.7698500  97.5652120  52.5706490  22.6306270  98.4374920  52.9393890
  21.8879860  97.2224930  52.4254430  34.5649640  88.7974730  38.2231420
  34.2522300  88.8901560  39.1230490  35.3262110  89.3755760  38.1728850
  21.0831780  96.1634530  42.6808760  20.9629380  96.8896620  42.0690030
  20.7732670  95.3937440  42.2036670  35.7750930  93.5346230  54.2005560
  35.1595200  94.0425900  53.6721020  35.4547350  92.6344560  54.1431500
  23.5495440  89.5069600  46.0632430  23.1063590  90.2879140  45.7316950
  24.1080430  89.8299490  46.7703370  27.8365250  92.3738120  51.6667750
  27.3744620  92.5821140  52.4787690  27.4343360  91.5597470  51.3638420
  32.8369760  93.5947070  52.7964410  31.9863350  93.2952820  53.1173480
  32.6771550  93.8389080  51.8848230  29.9319470  95.0948820  54.8963200
  30.2572880  94.2612570  54.5565430  30.7199800  95.6177340  55.0441530
  26.6654260  89.1280300  40.9438260  26.0408440  89.1240170  41.6691570
  26.5784380  88.2611260  40.5474230  25.5871340  90.0516930  47.9222030
  25.8843670  90.9579760  47.8414050  26.1356900  89.5635710  47.3081600
  23.3409660  94.6303170  43.7913680  23.1150580  94.4140340  44.6960300
  22.5602190  95.0631630  43.4459650  30.5707420  94.6366540  42.3904330
  29.9716310  95.3602340  42.2067950  31.1187030  94.5743320  41.6080780
  25.7808870  95.5288750  54.4573950  25.6852470  94.5883480  54.3074350
  26.6240850  95.7503820  54.0622020  29.1772290  93.2730080  44.4207610
  29.5701860  93.5902280  43.6076300  29.5389140  92.3941960  44.5352130
  20.9119410  91.9402420  52.6107730  20.5182800  92.7877630  52.8180510
  20.2237810  91.3028790  52.8016370  27.4864460  92.0237390  55.6804470
  26.7962780  91.8309590  56.3150560  28.2296760  92.3072030  56.2128770
  18.2136460  89.8630880  46.6437810  17.9249510  90.4333740  47.3562790
  18.9582220  89.3835330  47.0069040  18.4006690  93.8051000  37.8540530
  18.3181360  94.7481760  37.9955520  18.0489750  93.6625910  36.9752880
  29.7627430  95.8635830  48.5158390  29.0308550  96.3722640  48.8648490
  29.3651770  95.0465810  48.2147170  26.2004820  92.5390030  46.9210880
  26.2040880  92.0979980  46.0715420  27.0955940  92.8607360  47.0282700
  22.0507200  92.4216520  45.8805090  21.7107250  92.8991750  46.6372140
  21.2884520  91.9681640  45.5206190  26.2624970  93.5402110  39.9117640
  26.3837790  93.4988590  40.8603460  25.8773480  94.4026260  39.7564370
  30.2253340  91.3169510  47.9281330  30.2426080  91.7678160  48.7723180
  29.9768920  90.4175150  48.1414770  25.2746470  95.8503250  39.3100940
  24.7063370  95.4021500  38.6836850  25.9835470  96.2096030  38.7766090
  33.6524090  88.7301690  53.7667710  33.9769860  87.9991350  54.2925690
  33.6880600  88.4115330  52.8648700  26.5012790  96.5991810  48.6676290
  26.8682920  96.1250380  49.4137630  26.3117850  97.4733380  49.0084630
  19.3653280  91.3435500  44.7969760  19.0800200  90.9791170  45.6348380
  19.3032140  90.6115960  44.1832900  24.2912160  95.6400450  50.9860500
  23.9869230  96.5192430  51.2110860  25.2458620  95.7000240  51.0217940
  29.0391870  90.2364760  41.5183130  28.2256480  89.7377930  41.4428440
  28.8453820  91.0763010  41.1019480  31.7540260  94.6084410  39.8145290
  32.6419880  94.9201640  39.6396630  31.7245350  93.7356660  39.4225870
  20.3475890  96.4803190  52.1331860  19.9890830  97.1457040  52.7205200
  20.0530450  95.6486740  52.5044480  23.5489010  96.9387430  55.0171410
  23.2489150  97.0844610  54.1199230  24.3200250  96.3792720  54.9244800
  34.0254530  95.9196250  39.2825150  33.9418250  96.3510470  38.4321590
  34.7448720  96.3794600  39.7151970  18.8583940  96.4794450  38.7566460
  19.7278790  96.7619250  39.0402380  18.3674260  97.2930320  38.6415270
  26.0218750  97.8667660  42.8774740  26.4781530  98.6772910  43.1034930
  25.6706960  97.5490800  43.7093230  21.9230530  88.2105310  43.3497260
  21.7945160  88.2023210  44.2982180  21.0992550  88.5488400  42.9988270
  18.9224460  89.9696430  52.8103960  18.2082980  90.1693350  53.4156570
  19.3419500  89.1936000  53.1818760  30.4163240  92.4618740  50.5605410
  30.7844060  91.6413950  50.8884980  29.5561440  92.5220630  50.9761060
  33.7825270  91.4175680  41.3692970  33.1538430  91.5221350  40.6551200
  33.2877190  91.6372460  42.1586850  25.7509300  93.6961630  42.7850850
  25.0425450  94.1647970  43.2264460  26.0353780  93.0383640  43.4196040
  27.3765230  95.1158330  50.7843380  27.8750480  95.5904150  51.4495230
  27.5188180  94.1921850  50.9913410  29.7824730  90.4212290  44.2246640
  29.6592510  90.4398420  43.2756150  30.7309290  90.4691230  44.3445040
  23.9544320  92.0046710  40.1601560  24.8034850  92.4416860  40.0941750
  23.5875590  92.3166970  40.9873620  34.5832090  91.3326290  51.6271770
  34.0805690  92.0731690  51.9665580  35.3988750  91.7210290  51.3108560
  32.8754100  96.5759470  45.0733130  31.9344240  96.5909700  45.2480820
  33.1898170  95.7895430  45.5193430  22.8535740  98.2579070  38.6337090
  23.6199010  98.1460430  39.1962520  22.9310430  97.5617040  37.9813860
  21.5482500  95.6904140  39.3169980  21.6286090  94.7431650  39.4287380
  22.4402250  96.0211020  39.4230640  19.0753300  97.5119060  54.5526150
  19.5792320  96.9326340  55.1242380  18.3360720  97.7959290  55.0902520
  21.1076380  95.6548650  55.4476220  21.1481720  95.3562520  56.3561450
  21.9621880  96.0556260  55.2883740  24.8854770  98.2544200  40.6079730
  25.3071190  98.0884070  41.4511120  25.0105610  97.4444430  40.1134870
  23.0482190  94.2340750  53.4150710  22.5178650  93.7431700  52.7874050
  23.7170260  94.6624950  52.8808640  27.3982410  97.2781810  37.8556830
  27.9188070  96.5630830  37.4897980  28.0450810  97.9167680  38.1557340
  32.4182420  96.0406370  55.1831050  33.0003190  95.2858690  55.0951530
  32.5944190  96.5713810  54.4062530  23.5354490  91.2003120  53.4948000
  23.4411360  90.5823870  52.7698870  22.9551880  91.9269410  53.2677910
  26.3015930  89.7576360  50.5275390  25.8533230  89.7800620  49.6820940
  25.6681130  89.3595380  51.1245690  29.0439380  96.3846870  52.5325670
  29.1635590  95.7888010  53.2720510  29.9033380  96.4216560  52.1126970
  31.3827280  96.9384060  51.1088180  30.8562500  97.4626680  50.5053320
  31.7258620  97.5711450  51.7397910  23.7813670  94.3277430  37.5537890
  23.5802730  93.4644790  37.9151230  23.6105720  94.2410790  36.6159490
  25.8108150  92.9268220  53.7901490  26.4007840  92.6184070  54.4779310
  24.9928390  92.4547970  53.9461390  30.6301580  92.5434030  54.0234510
  29.9417100  91.8815570  53.9584500  31.3507600  92.0972300  54.4682970
  31.2601980  89.1385660  40.0824770  31.5404270  88.2953560  40.4384190
  30.4867710  89.3708770  40.5963520  22.5796470  91.4278050  37.5415770
  22.8822370  91.4345480  36.6334920  23.3191060  91.0775910  38.0383430
  25.7981400  90.3712670  38.5271970  25.4503400  89.6936660  37.9474420
  25.9994170  89.9102180  39.3415360  19.1387040  96.9000320  44.9236340
  18.4835880  96.6311960  44.2796040  19.9764990  96.7904800  44.4738320
  32.0877480  91.6941610  39.1454830  32.5062360  91.5072590  38.3051490
  31.7813540  90.8420660  39.4557760  35.5867210  96.6065750  42.8430630
  35.2110810  95.8393680  42.4111920  34.8570330  96.9888450  43.3305560
  20.1762970  97.2852890  49.4639680  20.5436010  97.1980290  50.3435700
  19.6073790  96.5219440  49.3646540  34.9766830  95.7537270  52.4770150
  34.7452920  95.5250020  51.5768100  35.2371380  96.6736820  52.4315040
  19.7278970  94.1961980  53.3698100  18.8335020  94.1628740  53.7091810
  20.2676520  94.3948770  54.1349350  33.4154900  90.9793700  55.2549850
  34.2925080  90.9877100  55.6383850  33.4275740  90.2424540  54.6442200
  18.3525120  94.1099250  40.8661670  17.4489200  94.3729450  40.6913330
  18.8365740  94.3810420  40.0861630  34.8618170  94.8323240  46.1437870
  35.3855650  94.3385890  45.5128040  35.4477590  94.9673600  46.8885440
  35.0407890  94.9163110  49.6657420  34.0910600  94.8826650  49.7802410
  35.2220900  95.8263220  49.4307190  20.8952330  93.1664790  38.7756050
  21.6044030  92.7448010  38.2903330  20.1792270  93.2340020  38.1439400
  20.5426490  89.2204120  37.8158700  21.2654620  89.7613060  38.1339920
  20.8151010  88.9467540  36.9400240  34.3518140  94.0896590  42.0830280
  34.8477260  93.8567460  42.8679160  34.1534210  93.2508430  41.6667920
  20.2318680  88.4710310  47.7181320  20.8794870  87.9207690  47.2776480
  20.6520520  88.7253460  48.5397130  35.7805300  92.7257540  44.6167960
  35.6704580  92.5713580  45.5550230  36.5412890  92.1978480  44.3743370
  34.1271020  88.6651670  51.0750960  34.7643240  89.2785810  51.4410150
  34.2745910  88.7012330  50.1300190  36.6695570  90.5565460  37.8574100
  37.5944880  90.4246640  37.6492390  36.6471360  90.6358280  38.8110550
  36.7434060  91.3276120  40.4830810  35.9485560  91.2621240  41.0123720
  36.9477340  92.2626760  40.4716160  19.9850680  88.6265980  50.4606640
  19.6365500  89.0829800  51.2264820  19.6538380  87.7323110  50.5429070
  27.4975500  89.8177860  53.9826060  27.4364390  90.4099690  54.7321470
  28.4375880  89.7103820  53.8376320  30.1350060  89.4747920  53.6218350
  30.7490470  89.7927210  52.9599430  30.6799620  88.9896510  54.2414210
  20.6571320  88.1542180  53.7357410  21.2054310  87.9730230  52.9723520
  20.7226630  87.3636290  54.2713720  30.8758100  88.0380060  49.9487640
  30.0017940  88.3715170  49.7460570  30.7668850  87.5653240  50.7739510
  31.7830080  90.2450930  51.3329360  31.4543440  89.4302690  50.9531090
  32.7312380  90.2020740  51.2095050  28.6232920  88.9549900  48.8880550
  27.8404710  89.4295400  49.1677310  28.3295850  88.0504730  48.7793730
  33.1753990  89.6573000  46.9329640  33.6162080  89.6018100  46.0851240
  32.9061580  90.5731010  47.0039820  35.0392560  89.2888240  44.9438460
  34.9780960  88.3449460  44.7969480  35.8184590  89.3968330  45.4891920
  19.9673330  89.2597380  41.4094270  20.7252690  89.3726260  40.8358300
  19.5050500  90.0966580  41.3637700  26.5087140  91.3736650  44.3996580
  25.6961650  90.9993540  44.0592460  27.0128780  90.6181730  44.7017770
  31.0112120  88.0379100  45.6379650  31.6141490  88.6099310  46.1128170
  30.2705110  88.6018540  45.4153550  34.1546720  88.4400660  40.9119930
  34.3497350  89.3384110  41.1787360  33.3676590  88.2087740  41.4052880
  22.3398480  89.7861430  39.9496240  22.8691240  88.9991230  39.8204190
  22.9726800  90.4652620  40.1831770  24.5336320  89.5236570  43.0041630
  23.9039060  88.8223880  43.1711760  23.9941460  90.2840700  42.7874790
  24.6591880  88.8020550  55.4394120  24.3776150  89.3054150  54.6754940
  25.0411580  88.0042300  55.0736250  31.2607340  88.2174130  56.0174590
  31.1472790  88.5368740  56.9126110  32.0777080  88.6186640  55.7211870
  30.1665490  96.2366600  26.3809330  30.0859540  95.3221210  26.1101040
  29.7529910  96.7333670  25.6749040  28.2983530  98.0145620  28.2618600
  27.5225630  97.5346060  28.5517170  28.9496460  97.3351270  28.0874760
  22.3149360  98.3265430  29.1394360  21.4834240  98.0714140  29.5390870
  22.9230340  98.3976200  29.8752280  20.7241310  93.2867320  22.9236750
  19.8358010  93.6283290  22.8216630  21.0082500  93.0867640  22.0317580
  18.6874320  95.8872970  28.8076450  19.2590430  95.1195170  28.8080090
  18.6875860  96.1861730  27.8983060  19.9299190  91.2957330  30.5945380
  19.7502030  90.3983080  30.8748140  19.5279270  91.8429200  31.2692330
  28.7697690  93.4973190  28.4957690  29.1462510  92.6245070  28.3831360
  28.6717200  93.8331890  27.6048130  22.9002700  91.8698820  23.9575130
  23.0069450  92.7702550  24.2643890  21.9895060  91.8216790  23.6669780
  32.5521810  90.9923630  25.4286030  33.3731430  90.5020200  25.4711510
  32.5855890  91.5821290  26.1817870  20.5485860  93.7917830  29.2027720
  21.2295970  94.0556200  29.8215120  20.2333910  92.9518700  29.5365730
  24.7410430  94.8385190  28.2900310  25.2488650  95.3366160  28.9305330
  25.2723670  94.0620390  28.1139670  36.8421360  93.0090380  31.9929660
  36.1373530  93.3972090  31.4744770  37.1079280  93.7040670  32.5950590
  23.0246530  89.4783750  32.5563730  23.0264970  89.9956140  31.7509630
  22.1950840  89.0013930  32.5333660  32.7883290  92.9324010  28.2013570
  32.0838860  93.2208900  28.7816680  33.1495450  93.7424120  27.8413130
  22.7061860  91.1893710  30.5634180  23.0478670  92.0335760  30.2688050
  21.7677670  91.3377450  30.6799520  35.8570210  92.3778800  28.5922780
  34.9095120  92.4117780  28.7238210  36.1820200  93.1917750  28.9772140
  26.3889750  88.6775980  26.8878770  26.6964730  88.1222870  26.1714270
  25.4590450  88.8120440  26.7051760  28.7770510  96.7424810  23.6238890
  27.8499790  96.6762190  23.8527360  28.9295330  97.6804940  23.5094130
  28.7639590  93.0141810  20.6206050  27.8243260  93.1755770  20.7058510
  29.0822850  93.7327490  20.0742040  35.2852350  97.6960330  30.5985080
  34.4570980  97.7653420  30.1235210  35.8802830  98.2814640  30.1300910
  32.8067800  98.3045110  24.1274140  32.1880220  97.9664660  23.4800440
  32.7892250  97.6604870  24.8353330  32.2494360  94.4829650  31.5439950
  31.8365540  95.3083360  31.7979940  31.5170310  93.8974690  31.3516310
  24.3827150  97.2689550  26.4058620  23.9784150  96.5566800  25.9104520
  24.4690270  96.9242790  27.2946660  23.0955770  94.0432760  30.1857660
  23.6470360  94.1528100  29.4110910  23.6099280  94.4170360  30.9012890
  30.9832500  97.5431920  21.1346890  31.4225780  96.7054350  20.9884710
  31.6960920  98.1761320  21.2211030  22.7698500  97.5652120  33.7963000
  22.6306270  98.4374920  34.1650400  21.8879860  97.2224930  33.6510940
  34.5649640  88.7974730  19.4487930  34.2522300  88.8901560  20.3487000
  35.3262110  89.3755760  19.3985360  21.0831780  96.1634530  23.9065270
  20.9629380  96.8896620  23.2946540  20.7732670  95.3937440  23.4293180
  35.7750930  93.5346230  35.4262070  35.1595200  94.0425900  34.8977530
  35.4547350  92.6344560  35.3688010  23.5495440  89.5069600  27.2888940
  23.1063590  90.2879140  26.9573460  24.1080430  89.8299490  27.9959880
  27.8365250  92.3738120  32.8924260  27.3744620  92.5821140  33.7044200
  27.4343360  91.5597470  32.5894930  32.8369760  93.5947070  34.0220920
  31.9863350  93.2952820  34.3429990  32.6771550  93.8389080  33.1104740
  29.9319470  95.0948820  36.1219710  30.2572880  94.2612570  35.7821940
  30.7199800  95.6177340  36.2698040  26.6654260  89.1280300  22.1694770
  26.0408440  89.1240170  22.8948080  26.5784380  88.2611260  21.7730740
  25.5871340  90.0516930  29.1478540  25.8843670  90.9579760  29.0670560
  26.1356900  89.5635710  28.5338110  23.3409660  94.6303170  25.0170190
  23.1150580  94.4140340  25.9216810  22.5602190  95.0631630  24.6716160
  30.5707420  94.6366540  23.6160840  29.9716310  95.3602340  23.4324460
  31.1187030  94.5743320  22.8337290  25.7808870  95.5288750  35.6830460
  25.6852470  94.5883480  35.5330860  26.6240850  95.7503820  35.2878530
  29.1772290  93.2730080  25.6464120  29.5701860  93.5902280  24.8332810
  29.5389140  92.3941960  25.7608640  20.9119410  91.9402420  33.8364240
  20.5182800  92.7877630  34.0437020  20.2237810  91.3028790  34.0272880
  27.4864460  92.0237390  36.9060980  26.7962780  91.8309590  37.5407070
  28.2296760  92.3072030  37.4385280  18.2136460  89.8630880  27.8694320
  17.9249510  90.4333740  28.5819300  18.9582220  89.3835330  28.2325550
  18.4006690  93.8051000  19.0797040  18.3181360  94.7481760  19.2212030
  18.0489750  93.6625910  18.2009390  29.7627430  95.8635830  29.7414900
  29.0308550  96.3722640  30.0905000  29.3651770  95.0465810  29.4403680
  26.2004820  92.5390030  28.1467390  26.2040880  92.0979980  27.2971930
  27.0955940  92.8607360  28.2539210  22.0507200  92.4216520  27.1061600
  21.7107250  92.8991750  27.8628650  21.2884520  91.9681640  26.7462700
  26.2624970  93.5402110  21.1374150  26.3837790  93.4988590  22.0859970
  25.8773480  94.4026260  20.9820880  30.2253340  91.3169510  29.1537840
  30.2426080  91.7678160  29.9979690  29.9768920  90.4175150  29.3671280
  25.2746470  95.8503250  20.5357450  24.7063370  95.4021500  19.9093360
  25.9835470  96.2096030  20.0022600  33.6524090  88.7301690  34.9924220
  33.9769860  87.9991350  35.5182200  33.6880600  88.4115330  34.0905210
  26.5012790  96.5991810  29.8932800  26.8682920  96.1250380  30.6394140
  26.3117850  97.4733380  30.2341140  19.3653280  91.3435500  26.0226270
  19.0800200  90.9791170  26.8604890  19.3032140  90.6115960  25.4089410
  24.2912160  95.6400450  32.2117010  23.9869230  96.5192430  32.4367370
  25.2458620  95.7000240  32.2474450  29.0391870  90.2364760  22.7439640
  28.2256480  89.7377930  22.6684950  28.8453820  91.0763010  22.3275990
  31.7540260  94.6084410  21.0401800  32.6419880  94.9201640  20.8653140
  31.7245350  93.7356660  20.6482380  20.3475890  96.4803190  33.3588370
  19.9890830  97.1457040  33.9461710  20.0530450  95.6486740  33.7300990
  23.5489010  96.9387430  36.2427920  23.2489150  97.0844610  35.3455740
  24.3200250  96.3792720  36.1501310  34.0254530  95.9196250  20.5081660
  33.9418250  96.3510470  19.6578100  34.7448720  96.3794600  20.9408480
  18.8583940  96.4794450  19.9822970  19.7278790  96.7619250  20.2658890
  18.3674260  97.2930320  19.8671780  26.0218750  97.8667660  24.1031250
  26.4781530  98.6772910  24.3291440  25.6706960  97.5490800  24.9349740
  21.9230530  88.2105310  24.5753770  21.7945160  88.2023210  25.5238690
  21.0992550  88.5488400  24.2244780  18.9224460  89.9696430  34.0360470
  18.2082980  90.1693350  34.6413080  19.3419500  89.1936000  34.4075270
  30.4163240  92.4618740  31.7861920  30.7844060  91.6413950  32.1141490
  29.5561440  92.5220630  32.2017570  33.7825270  91.4175680  22.5949480
  33.1538430  91.5221350  21.8807710  33.2877190  91.6372460  23.3843360
  25.7509300  93.6961630  24.0107360  25.0425450  94.1647970  24.4520970
  26.0353780  93.0383640  24.6452550  27.3765230  95.1158330  32.0099890
  27.8750480  95.5904150  32.6751740  27.5188180  94.1921850  32.2169920
  29.7824730  90.4212290  25.4503150  29.6592510  90.4398420  24.5012660
  30.7309290  90.4691230  25.5701550  23.9544320  92.0046710  21.3858070
  24.8034850  92.4416860  21.3198260  23.5875590  92.3166970  22.2130130
  34.5832090  91.3326290  32.8528280  34.0805690  92.0731690  33.1922090
  35.3988750  91.7210290  32.5365070  32.8754100  96.5759470  26.2989640
  31.9344240  96.5909700  26.4737330  33.1898170  95.7895430  26.7449940
  22.8535740  98.2579070  19.8593600  23.6199010  98.1460430  20.4219030
  22.9310430  97.5617040  19.2070370  21.5482500  95.6904140  20.5426490
  21.6286090  94.7431650  20.6543890  22.4402250  96.0211020  20.6487150
  19.0753300  97.5119060  35.7782660  19.5792320  96.9326340  36.3498890
  18.3360720  97.7959290  36.3159030  21.1076380  95.6548650  36.6732730
  21.1481720  95.3562520  37.5817960  21.9621880  96.0556260  36.5140250
  24.8854770  98.2544200  21.8336240  25.3071190  98.0884070  22.6767630
  25.0105610  97.4444430  21.3391380  23.0482190  94.2340750  34.6407220
  22.5178650  93.7431700  34.0130560  23.7170260  94.6624950  34.1065150
  27.3982410  97.2781810  19.0813340  27.9188070  96.5630830  18.7154490
  28.0450810  97.9167680  19.3813850  32.4182420  96.0406370  36.4087560
  33.0003190  95.2858690  36.3208040  32.5944190  96.5713810  35.6319040
  23.5354490  91.2003120  34.7204510  23.4411360  90.5823870  33.9955380
  22.9551880  91.9269410  34.4934420  26.3015930  89.7576360  31.7531900
  25.8533230  89.7800620  30.9077450  25.6681130  89.3595380  32.3502200
  29.0439380  96.3846870  33.7582180  29.1635590  95.7888010  34.4977020
  29.9033380  96.4216560  33.3383480  31.3827280  96.9384060  32.3344690
  30.8562500  97.4626680  31.7309830  31.7258620  97.5711450  32.9654420
  23.7813670  94.3277430  18.7794400  23.5802730  93.4644790  19.1407740
  23.6105720  94.2410790  17.8416000  25.8108150  92.9268220  35.0158000
  26.4007840  92.6184070  35.7035820  24.9928390  92.4547970  35.1717900
  30.6301580  92.5434030  35.2491020  29.9417100  91.8815570  35.1841010
  31.3507600  92.0972300  35.6939480  31.2601980  89.1385660  21.3081280
  31.5404270  88.2953560  21.6640700  30.4867710  89.3708770  21.8220030
  22.5796470  91.4278050  18.7672280  22.8822370  91.4345480  17.8591430
  23.3191060  91.0775910  19.2639940  25.7981400  90.3712670  19.7528480
  25.4503400  89.6936660  19.1730930  25.9994170  89.9102180  20.5671870
  19.1387040  96.9000320  26.1492850  18.4835880  96.6311960  25.5052550
  19.9764990  96.7904800  25.6994830  32.0877480  91.6941610  20.3711340
  32.5062360  91.5072590  19.5308000  31.7813540  90.8420660  20.6814270
  35.5867210  96.6065750  24.0687140  35.2110810  95.8393680  23.6368430
  34.8570330  96.9888450  24.5562070  20.1762970  97.2852890  30.6896190
  20.5436010  97.1980290  31.5692210  19.6073790  96.5219440  30.5903050
  34.9766830  95.7537270  33.7026660  34.7452920  95.5250020  32.8024610
  35.2371380  96.6736820  33.6571550  19.7278970  94.1961980  34.5954610
  18.8335020  94.1628740  34.9348320  20.2676520  94.3948770  35.3605860
  33.4154900  90.9793700  36.4806360  34.2925080  90.9877100  36.8640360
  33.4275740  90.2424540  35.8698710  18.3525120  94.1099250  22.0918180
  17.4489200  94.3729450  21.9169840  18.8365740  94.3810420  21.3118140
  34.8618170  94.8323240  27.3694380  35.3855650  94.3385890  26.7384550
  35.4477590  94.9673600  28.1141950  35.0407890  94.9163110  30.8913930
  34.0910600  94.8826650  31.0058920  35.2220900  95.8263220  30.6563700
  20.8952330  93.1664790  20.0012560  21.6044030  92.7448010  19.5159840
  20.1792270  93.2340020  19.3695910  20.5426490  89.2204120  19.0415210
  21.2654620  89.7613060  19.3596430  20.8151010  88.9467540  18.1656750
  34.3518140  94.0896590  23.3086790  34.8477260  93.8567460  24.0935670
  34.1534210  93.2508430  22.8924430  20.2318680  88.4710310  28.9437830
  20.8794870  87.9207690  28.5032990  20.6520520  88.7253460  29.7653640
  35.7805300  92.7257540  25.8424470  35.6704580  92.5713580  26.7806740
  36.5412890  92.1978480  25.5999880  34.1271020  88.6651670  32.3007470
  34.7643240  89.2785810  32.6666660  34.2745910  88.7012330  31.3556700
  36.6695570  90.5565460  19.0830610  37.5944880  90.4246640  18.8748900
  36.6471360  90.6358280  20.0367060  36.7434060  91.3276120  21.7087320
  35.9485560  91.2621240  22.2380230  36.9477340  92.2626760  21.6972670
  19.9850680  88.6265980  31.6863150  19.6365500  89.0829800  32.4521330
  19.6538380  87.7323110  31.7685580  27.4975500  89.8177860  35.2082570
  27.4364390  90.4099690  35.9577980  28.4375880  89.7103820  35.0632830
  30.1350060  89.4747920  34.8474860  30.7490470  89.7927210  34.1855940
  30.6799620  88.9896510  35.4670720  20.6571320  88.1542180  34.9613920
  21.2054310  87.9730230  34.1980030  20.7226630  87.3636290  35.4970230
  30.8758100  88.0380060  31.1744150  30.0017940  88.3715170  30.9717080
  30.7668850  87.5653240  31.9996020  31.7830080  90.2450930  32.5585870
  31.4543440  89.4302690  32.1787600  32.7312380  90.2020740  32.4351560
  28.6232920  88.9549900  30.1137060  27.8404710  89.4295400  30.3933820
  28.3295850  88.0504730  30.0050240  33.1753990  89.6573000  28.1586150
  33.6162080  89.6018100  27.3107750  32.9061580  90.5731010  28.2296330
  35.0392560  89.2888240  26.1694970  34.9780960  88.3449460  26.0225990
  35.8184590  89.3968330  26.7148430  19.9673330  89.2597380  22.6350780
  20.7252690  89.3726260  22.0614810  19.5050500  90.0966580  22.5894210
  26.5087140  91.3736650  25.6253090  25.6961650  90.9993540  25.2848970
  27.0128780  90.6181730  25.9274280  31.0112120  88.0379100  26.8636160
  31.6141490  88.6099310  27.3384680  30.2705110  88.6018540  26.6410060
  34.1546720  88.4400660  22.1376440  34.3497350  89.3384110  22.4043870
  33.3676590  88.2087740  22.6309390  22.3398480  89.7861430  21.1752750
  22.8691240  88.9991230  21.0460700  22.9726800  90.4652620  21.4088280
  24.5336320  89.5236570  24.2298140  23.9039060  88.8223880  24.3968270
  23.9941460  90.2840700  24.0131300  24.6591880  88.8020550  36.6650630
  24.3776150  89.3054150  35.9011450  25.0411580  88.0042300  36.2992760
  31.2607340  88.2174130  37.2431100  31.1472790  88.5368740  38.1382620
  32.0777080  88.6186640  36.9468380  30.1665490  96.2366600   7.6065840
  30.0859540  95.3221210   7.3357550  29.7529910  96.7333670   6.9005550
  28.2983530  98.0145620   9.4875110  27.5225630  97.5346060   9.7773680
  28.9496460  97.3351270   9.3131270  22.3149360  98.3265430  10.3650870
  21.4834240  98.0714140  10.7647380  22.9230340  98.3976200  11.1008790
  20.7241310  93.2867320   4.1493260  19.8358010  93.6283290   4.0473140
  21.0082500  93.0867640   3.2574090  18.6874320  95.8872970  10.0332960
  19.2590430  95.1195170  10.0336600  18.6875860  96.1861730   9.1239570
  19.9299190  91.2957330  11.8201890  19.7502030  90.3983080  12.1004650
  19.5279270  91.8429200  12.4948840  28.7697690  93.4973190   9.7214200
  29.1462510  92.6245070   9.6087870  28.6717200  93.8331890   8.8304640
  22.9002700  91.8698820   5.1831640  23.0069450  92.7702550   5.4900400
  21.9895060  91.8216790   4.8926290  32.5521810  90.9923630   6.6542540
  33.3731430  90.5020200   6.6968020  32.5855890  91.5821290   7.4074380
  20.5485860  93.7917830  10.4284230  21.2295970  94.0556200  11.0471630
  20.2333910  92.9518700  10.7622240  24.7410430  94.8385190   9.5156820
  25.2488650  95.3366160  10.1561840  25.2723670  94.0620390   9.3396180
  36.8421360  93.0090380  13.2186170  36.1373530  93.3972090  12.7001280
  37.1079280  93.7040670  13.8207100  23.0246530  89.4783750  13.7820240
  23.0264970  89.9956140  12.9766140  22.1950840  89.0013930  13.7590170
  32.7883290  92.9324010   9.4270080  32.0838860  93.2208900  10.0073190
  33.1495450  93.7424120   9.0669640  22.7061860  91.1893710  11.7890690
  23.0478670  92.0335760  11.4944560  21.7677670  91.3377450  11.9056030
  35.8570210  92.3778800   9.8179290  34.9095120  92.4117780   9.9494720
  36.1820200  93.1917750  10.2028650  26.3889750  88.6775980   8.1135280
  26.6964730  88.1222870   7.3970780  25.4590450  88.8120440   7.9308270
  28.7770510  96.7424810   4.8495400  27.8499790  96.6762190   5.0783870
  28.9295330  97.6804940   4.7350640  35.2852350  97.6960330  11.8241590
  34.4570980  97.7653420  11.3491720  35.8802830  98.2814640  11.3557420
  32.8067800  98.3045110   5.3530650  32.1880220  97.9664660   4.7056950
  32.7892250  97.6604870   6.0609840  32.2494360  94.4829650  12.7696460
  31.8365540  95.3083360  13.0236450  31.5170310  93.8974690  12.5772820
  24.3827150  97.2689550   7.6315130  23.9784150  96.5566800   7.1361030
  24.4690270  96.9242790   8.5203170  23.0955770  94.0432760  11.4114170
  23.6470360  94.1528100  10.6367420  23.6099280  94.4170360  12.1269400
  30.9832500  97.5431920   2.3603400  31.4225780  96.7054350   2.2141220
  31.6960920  98.1761320   2.4467540  22.7698500  97.5652120  15.0219510
  22.6306270  98.4374920  15.3906910  21.8879860  97.2224930  14.8767450
  21.0831780  96.1634530   5.1321780  20.9629380  96.8896620   4.5203050
  20.7732670  95.3937440   4.6549690  35.7750930  93.5346230  16.6518580
  35.1595200  94.0425900  16.1234040  35.4547350  92.6344560  16.5944520
  23.5495440  89.5069600   8.5145450  23.1063590  90.2879140   8.1829970
  24.1080430  89.8299490   9.2216390  27.8365250  92.3738120  14.1180770
  27.3744620  92.5821140  14.9300710  27.4343360  91.5597470  13.8151440
  32.8369760  93.5947070  15.2477430  31.9863350  93.2952820  15.5686500
  32.6771550  93.8389080  14.3361250  29.9319470  95.0948820  17.3476220
  30.2572880  94.2612570  17.0078450  30.7199800  95.6177340  17.4954550
  26.6654260  89.1280300   3.3951280  26.0408440  89.1240170   4.1204590
  26.5784380  88.2611260   2.9987250  25.5871340  90.0516930  10.3735050
  25.8843670  90.9579760  10.2927070  26.1356900  89.5635710   9.7594620
  23.3409660  94.6303170   6.2426700  23.1150580  94.4140340   7.1473320
  22.5602190  95.0631630   5.8972670  30.5707420  94.6366540   4.8417350
  29.9716310  95.3602340   4.6580970  31.1187030  94.5743320   4.0593800
  25.7808870  95.5288750  16.9086970  25.6852470  94.5883480  16.7587370
  26.6240850  95.7503820  16.5135040  29.1772290  93.2730080   6.8720630
  29.5701860  93.5902280   6.0589320  29.5389140  92.3941960   6.9865150
  20.9119410  91.9402420  15.0620750  20.5182800  92.7877630  15.2693530
  20.2237810  91.3028790  15.2529390  27.4864460  92.0237390  18.1317490
  26.7962780  91.8309590  18.7663580  28.2296760  92.3072030  18.6641790
  18.2136460  89.8630880   9.0950830  17.9249510  90.4333740   9.8075810
  18.9582220  89.3835330   9.4582060  29.7627430  95.8635830  10.9671410
  29.0308550  96.3722640  11.3161510  29.3651770  95.0465810  10.6660190
  26.2004820  92.5390030   9.3723900  26.2040880  92.0979980   8.5228440
  27.0955940  92.8607360   9.4795720  22.0507200  92.4216520   8.3318110
  21.7107250  92.8991750   9.0885160  21.2884520  91.9681640   7.9719210
  26.2624970  93.5402110   2.3630660  26.3837790  93.4988590   3.3116480
  25.8773480  94.4026260   2.2077390  30.2253340  91.3169510  10.3794350
  30.2426080  91.7678160  11.2236200  29.9768920  90.4175150  10.5927790
  33.6524090  88.7301690  16.2180730  33.9769860  87.9991350  16.7438710
  33.6880600  88.4115330  15.3161720  26.5012790  96.5991810  11.1189310
  26.8682920  96.1250380  11.8650650  26.3117850  97.4733380  11.4597650
  19.3653280  91.3435500   7.2482780  19.0800200  90.9791170   8.0861400
  19.3032140  90.6115960   6.6345920  24.2912160  95.6400450  13.4373520
  23.9869230  96.5192430  13.6623880  25.2458620  95.7000240  13.4730960
  29.0391870  90.2364760   3.9696150  28.2256480  89.7377930   3.8941460
  28.8453820  91.0763010   3.5532500  31.7540260  94.6084410   2.2658310
  32.6419880  94.9201640   2.0909650  31.7245350  93.7356660   1.8738890
  20.3475890  96.4803190  14.5844880  19.9890830  97.1457040  15.1718220
  20.0530450  95.6486740  14.9557500  23.5489010  96.9387430  17.4684430
  23.2489150  97.0844610  16.5712250  24.3200250  96.3792720  17.3757820
  26.0218750  97.8667660   5.3287760  26.4781530  98.6772910   5.5547950
  25.6706960  97.5490800   6.1606250  21.9230530  88.2105310   5.8010280
  21.7945160  88.2023210   6.7495200  21.0992550  88.5488400   5.4501290
  18.9224460  89.9696430  15.2616980  18.2082980  90.1693350  15.8669590
  19.3419500  89.1936000  15.6331780  30.4163240  92.4618740  13.0118430
  30.7844060  91.6413950  13.3398000  29.5561440  92.5220630  13.4274080
  33.7825270  91.4175680   3.8205990  33.1538430  91.5221350   3.1064220
  33.2877190  91.6372460   4.6099870  25.7509300  93.6961630   5.2363870
  25.0425450  94.1647970   5.6777480  26.0353780  93.0383640   5.8709060
  27.3765230  95.1158330  13.2356400  27.8750480  95.5904150  13.9008250
  27.5188180  94.1921850  13.4426430  29.7824730  90.4212290   6.6759660
  29.6592510  90.4398420   5.7269170  30.7309290  90.4691230   6.7958060
  23.9544320  92.0046710   2.6114580  24.8034850  92.4416860   2.5454770
  23.5875590  92.3166970   3.4386640  34.5832090  91.3326290  14.0784790
  34.0805690  92.0731690  14.4178600  35.3988750  91.7210290  13.7621580
  32.8754100  96.5759470   7.5246150  31.9344240  96.5909700   7.6993840
  33.1898170  95.7895430   7.9706450  21.5482500  95.6904140   1.7683000
  21.6286090  94.7431650   1.8800400  22.4402250  96.0211020   1.8743660
  19.0753300  97.5119060  17.0039170  19.5792320  96.9326340  17.5755400
  18.3360720  97.7959290  17.5415540  21.1076380  95.6548650  17.8989240
  21.1481720  95.3562520  18.8074470  21.9621880  96.0556260  17.7396760
  24.8854770  98.2544200   3.0592750  25.3071190  98.0884070   3.9024140
  25.0105610  97.4444430   2.5647890  23.0482190  94.2340750  15.8663730
  22.5178650  93.7431700  15.2387070  23.7170260  94.6624950  15.3321660
  32.4182420  96.0406370  17.6344070  33.0003190  95.2858690  17.5464550
  32.5944190  96.5713810  16.8575550  23.5354490  91.2003120  15.9461020
  23.4411360  90.5823870  15.2211890  22.9551880  91.9269410  15.7190930
  26.3015930  89.7576360  12.9788410  25.8533230  89.7800620  12.1333960
  25.6681130  89.3595380  13.5758710  29.0439380  96.3846870  14.9838690
  29.1635590  95.7888010  15.7233530  29.9033380  96.4216560  14.5639990
  31.3827280  96.9384060  13.5601200  30.8562500  97.4626680  12.9566340
  31.7258620  97.5711450  14.1910930  25.8108150  92.9268220  16.2414510
  26.4007840  92.6184070  16.9292330  24.9928390  92.4547970  16.3974410
  30.6301580  92.5434030  16.4747530  29.9417100  91.8815570  16.4097520
  31.3507600  92.0972300  16.9195990  31.2601980  89.1385660   2.5337790
  31.5404270  88.2953560   2.8897210  30.4867710  89.3708770   3.0476540
  19.1387040  96.9000320   7.3749360  18.4835880  96.6311960   6.7309060
  19.9764990  96.7904800   6.9251340  35.5867210  96.6065750   5.2943650
  35.2110810  95.8393680   4.8624940  34.8570330  96.9888450   5.7818580
  20.1762970  97.2852890  11.9152700  20.5436010  97.1980290  12.7948720
  19.6073790  96.5219440  11.8159560  34.9766830  95.7537270  14.9283170
  34.7452920  95.5250020  14.0281120  35.2371380  96.6736820  14.8828060
  19.7278970  94.1961980  15.8211120  18.8335020  94.1628740  16.1604830
  20.2676520  94.3948770  16.5862370  33.4154900  90.9793700  17.7062870
  34.2925080  90.9877100  18.0896870  33.4275740  90.2424540  17.0955220
  18.3525120  94.1099250   3.3174690  17.4489200  94.3729450   3.1426350
  18.8365740  94.3810420   2.5374650  34.8618170  94.8323240   8.5950890
  35.3855650  94.3385890   7.9641060  35.4477590  94.9673600   9.3398460
  35.0407890  94.9163110  12.1170440  34.0910600  94.8826650  12.2315430
  35.2220900  95.8263220  11.8820210  34.3518140  94.0896590   4.5343300
  34.8477260  93.8567460   5.3192180  34.1534210  93.2508430   4.1180940
  20.2318680  88.4710310  10.1694340  20.8794870  87.9207690   9.7289500
  20.6520520  88.7253460  10.9910150  35.7805300  92.7257540   7.0680980
  35.6704580  92.5713580   8.0063250  36.5412890  92.1978480   6.8256390
  34.1271020  88.6651670  13.5263980  34.7643240  89.2785810  13.8923170
  34.2745910  88.7012330  12.5813210  36.7434060  91.3276120   2.9343830
  35.9485560  91.2621240   3.4636740  36.9477340  92.2626760   2.9229180
  19.9850680  88.6265980  12.9119660  19.6365500  89.0829800  13.6777840
  19.6538380  87.7323110  12.9942090  27.4975500  89.8177860  16.4339080
  27.4364390  90.4099690  17.1834490  28.4375880  89.7103820  16.2889340
  30.1350060  89.4747920  16.0731370  30.7490470  89.7927210  15.4112450
  30.6799620  88.9896510  16.6927230  20.6571320  88.1542180  16.1870430
  21.2054310  87.9730230  15.4236540  20.7226630  87.3636290  16.7226740
  30.8758100  88.0380060  12.4000660  30.0017940  88.3715170  12.1973590
  30.7668850  87.5653240  13.2252530  31.7830080  90.2450930  13.7842380
  31.4543440  89.4302690  13.4044110  32.7312380  90.2020740  13.6608070
  28.6232920  88.9549900  11.3393570  27.8404710  89.4295400  11.6190330
  28.3295850  88.0504730  11.2306750  33.1753990  89.6573000   9.3842660
  33.6162080  89.6018100   8.5364260  32.9061580  90.5731010   9.4552840
  35.0392560  89.2888240   7.3951480  34.9780960  88.3449460   7.2482500
  35.8184590  89.3968330   7.9404940  19.9673330  89.2597380   3.8607290
  20.7252690  89.3726260   3.2871320  19.5050500  90.0966580   3.8150720
  26.5087140  91.3736650   6.8509600  25.6961650  90.9993540   6.5105480
  27.0128780  90.6181730   7.1530790  31.0112120  88.0379100   8.0892670
  31.6141490  88.6099310   8.5641190  30.2705110  88.6018540   7.8666570
  34.1546720  88.4400660   3.3632950  34.3497350  89.3384110   3.6300380
  33.3676590  88.2087740   3.8565900  22.3398480  89.7861430   2.4009260
  22.8691240  88.9991230   2.2717210  22.9726800  90.4652620   2.6344790
  24.5336320  89.5236570   5.4554650  23.9039060  88.8223880   5.6224780
  23.9941460  90.2840700   5.2387810  24.6591880  88.8020550  17.8907140
  24.3776150  89.3054150  17.1267960  25.0411580  88.0042300  17.5249270
  31.2607340  88.2174130  18.4687610  31.1472790  88.5368740  19.3639130
  32.0777080  88.6186640  18.1724890  30.1665490  77.4623110  63.9296310
  30.0859540  76.5477720  63.6588020  29.7529910  77.9590180  63.2236020
  28.2983530  79.2402130  65.8105580  27.5225630  78.7602570  66.1004150
  28.9496460  78.5607780  65.6361740  22.3149360  79.5521940  66.6881340
  21.4834240  79.2970650  67.0877850  22.9230340  79.6232710  67.4239260
  32.3190960  83.6462320  64.5904710  31.8572490  82.8749560  64.9191880
  33.1316510  83.6728390  65.0957160  22.2950620  83.5862030  66.8839360
  22.5978660  82.6959770  66.7049580  23.0394210  84.1432250  66.6561610
  20.7241310  74.5123830  60.4723730  19.8358010  74.8539800  60.3703610
  21.0082500  74.3124150  59.5804560  18.6874320  77.1129480  66.3563430
  19.2590430  76.3451680  66.3567070  18.6875860  77.4118240  65.4470040
  28.5454270  85.9320330  64.2108700  27.9265710  86.3877830  63.6403140
  29.4006050  86.0871790  63.8098400  27.7392520  81.9159320  65.8175740
  27.6700800  80.9749260  65.6564870  28.5012380  82.0060730  66.3898310
  19.9299190  72.5213840  68.1432360  19.7502030  71.6239590  68.4235120
  19.5279270  73.0685710  68.8179310  28.7697690  74.7229700  66.0444670
  29.1462510  73.8501580  65.9318340  28.6717200  75.0588400  65.1535110
  22.9002700  73.0955330  61.5062110  23.0069450  73.9959060  61.8130870
  21.9895060  73.0473300  61.2156760  32.5521810  72.2180140  62.9773010
  33.3731430  71.7276710  63.0198490  32.5855890  72.8077800  63.7304850
  20.5485860  75.0174340  66.7514700  21.2295970  75.2812710  67.3702100
  20.2333910  74.1775210  67.0852710  24.7410430  76.0641700  65.8387290
  25.2488650  76.5622670  66.4792310  25.2723670  75.2876900  65.6626650
  36.8421360  74.2346890  69.5416640  36.1373530  74.6228600  69.0231750
  37.1079280  74.9297180  70.1437570  23.0246530  70.7040260  70.1050710
  23.0264970  71.2212650  69.2996610  22.1950840  70.2270440  70.0820640
  29.4117620  80.8159570  61.6040610  28.7934890  81.2809020  61.0403330
  29.9240870  81.5087050  62.0210120  24.2749380  80.3435440  68.2824210
  23.9418760  80.9704360  68.9245280  24.4516060  80.8697320  67.5025880
  32.7883290  74.1580520  65.7500550  32.0838860  74.4465410  66.3303660
  33.1495450  74.9680630  65.3900110  22.7061860  72.4150220  68.1121160
  23.0478670  73.2592270  67.8175030  21.7677670  72.5633960  68.2286500
  23.4868480  82.3116240  70.0973390  24.1042480  82.9867320  69.8157840
  22.6261600  82.7204220  70.0060890  18.7800820  81.5016100  58.9780240
  18.4028800  81.9903200  58.2465140  19.0373890  82.1741380  59.6086770
  34.4046070  83.7755650  68.0128030  33.7209590  84.4454760  68.0044700
  34.9440360  83.9736300  67.2472890  35.8570210  73.6035310  66.1409760
  34.9095120  73.6374290  66.2725190  36.1820200  74.4174260  66.5259120
  26.3889750  69.9032490  64.4365750  26.6964730  69.3479380  63.7201250
  25.4590450  70.0376950  64.2538740  31.9404810  85.6199780  66.7273210
  31.9531970  85.2162070  65.8595470  31.3880030  86.3947070  66.6234640
  33.2350230  82.3416000  61.8163380  33.1246560  81.3990330  61.9412800
  33.2318480  82.7031640  62.7026140  31.3390250  80.5229620  68.0555820
  31.7559040  80.3089730  67.2209280  32.0630070  80.7802410  68.6264440
  28.7770510  77.9681320  61.1725870  27.8499790  77.9018700  61.4014340
  28.9295330  78.9061450  61.0581110  28.7639590  74.2398320  58.1693030
  27.8243260  74.4012280  58.2545490  29.0822850  74.9584000  57.6229020
  35.2852350  78.9216840  68.1472060  34.4570980  78.9909930  67.6722190
  35.8802830  79.5071150  67.6787890  32.8067800  79.5301620  61.6761120
  32.1880220  79.1921170  61.0287420  32.7892250  78.8861380  62.3840310
  32.2494360  75.7086160  69.0926930  31.8365540  76.5339870  69.3466920
  31.5170310  75.1231200  68.9003290  24.3827150  78.4946060  63.9545600
  23.9784150  77.7823310  63.4591500  24.4690270  78.1499300  64.8433640
  24.8508850  82.1813620  66.1184810  24.5537140  81.5759090  65.4392590
  25.8008670  82.2190930  66.0074170  23.0955770  75.2689270  67.7344640
  23.6470360  75.3784610  66.9597890  23.6099280  75.6426870  68.4499870
  32.9394460  85.7545490  69.7807910  32.4625020  86.5617680  69.5880520
  32.2556250  85.1023820  69.9334120  30.9832500  78.7688430  58.6833870
  31.4225780  77.9310860  58.5371690  31.6960920  79.4017830  58.7698010
  22.7698500  78.7908630  71.3449980  22.6306270  79.6631430  71.7137380
  21.8879860  78.4481440  71.1997920  29.0927880  83.7084500  62.6515110
  29.5323790  84.4508830  62.2370500  29.0314770  83.9511070  63.5754070
  34.5649640  70.0231240  56.9974910  34.2522300  70.1158070  57.8973980
  35.3262110  70.6012270  56.9472340  21.0831780  77.3891040  61.4552250
  20.9629380  78.1153130  60.8433520  20.7732670  76.6193950  60.9780160
  18.7217150  80.5606180  67.2620890  18.7997570  80.6954950  66.3176610
  19.3358830  79.8522070  67.4549010  19.9664780  82.2606370  63.6727070
  19.5592860  82.4020960  62.8180670  20.8577790  81.9766530  63.4698280
  35.9226920  82.7070280  72.0099310  36.0489980  82.4682160  71.0916490
  35.9648300  81.8754820  72.4821390  29.7843660  86.4098280  70.5794120
  30.2988330  86.3206290  71.3816550  28.9412740  86.7557980  70.8722030
  31.7598060  86.6953620  60.0078120  31.5999200  86.4056560  60.9059950
  31.5944770  85.9193750  59.4723350  24.2386440  86.4752150  61.7849740
  24.0628920  85.5587690  61.5717540  23.3842180  86.8339440  62.0247540
  31.4624190  84.2041180  58.5676120  30.7689350  84.2018470  57.9078400
  32.2047050  83.7800500  58.1370290  31.0274120  85.8303890  62.6424610
  31.4831070  85.0493270  62.9563230  31.3666640  86.5410710  63.1865790
  35.7750930  74.7602740  72.9749050  35.1595200  75.2682410  72.4464510
  35.4547350  73.8601070  72.9174990  18.7776670  81.6020350  69.8015350
  18.9407710  81.1325710  68.9834720  19.2429120  81.0943910  70.4664190
  23.5495440  70.7326110  64.8375920  23.1063590  71.5135650  64.5060440
  24.1080430  71.0556000  65.5446860  27.8365250  73.5994630  70.4411240
  27.3744620  73.8077650  71.2531180  27.4343360  72.7853980  70.1381910
  32.8369760  74.8203580  71.5707900  31.9863350  74.5209330  71.8916970
  32.6771550  75.0645590  70.6591720  26.6654260  70.3536810  59.7181750
  26.0408440  70.3496680  60.4435060  26.5784380  69.4867770  59.3217720
  25.5871340  71.2773440  66.6965520  25.8843670  72.1836270  66.6157540
  26.1356900  70.7892220  66.0825090  23.3409660  75.8559680  62.5657170
  23.1150580  75.6396850  63.4703790  22.5602190  76.2888140  62.2203140
  30.5707420  75.8623050  61.1647820  29.9716310  76.5858850  60.9811440
  31.1187030  75.7999830  60.3824270  29.1772290  74.4986590  63.1951100
  29.5701860  74.8158790  62.3819790  29.5389140  73.6198470  63.3095620
  20.9119410  73.1658930  71.3851220  20.5182800  74.0134140  71.5924000
  20.2237810  72.5285300  71.5759860  18.2136460  71.0887390  65.4181300
  17.9249510  71.6590250  66.1306280  18.9582220  70.6091840  65.7812530
  18.4006690  75.0307510  56.6284020  18.3181360  75.9738270  56.7699010
  18.0489750  74.8882420  55.7496370  29.7627430  77.0892340  67.2901880
  29.0308550  77.5979150  67.6391980  29.3651770  76.2722320  66.9890660
  26.2004820  73.7646540  65.6954370  26.2040880  73.3236490  64.8458910
  27.0955940  74.0863870  65.8026190  22.0507200  73.6473030  64.6548580
  21.7107250  74.1248260  65.4115630  21.2884520  73.1938150  64.2949680
  26.2624970  74.7658620  58.6861130  26.3837790  74.7245100  59.6346950
  25.8773480  75.6282770  58.5307860  30.2253340  72.5426020  66.7024820
  30.2426080  72.9934670  67.5466670  29.9768920  71.6431660  66.9158260
  25.2746470  77.0759760  58.0844430  24.7063370  76.6278010  57.4580340
  25.9835470  77.4352540  57.5509580  20.3515650  80.9771780  71.9611160
  19.9670440  80.3365450  72.5594120  20.6627840  81.6807900  72.5305890
  26.5012790  77.8248320  67.4419780  26.8682920  77.3506890  68.1881120
  26.3117850  78.6989890  67.7828120  19.3653280  72.5692010  63.5713250
  19.0800200  72.2047680  64.4091870  19.3032140  71.8372470  62.9576390
  24.2912160  76.8656960  69.7603990  23.9869230  77.7448940  69.9854350
  25.2458620  76.9256750  69.7961430  22.8193950  81.0717950  60.3570840
  22.0456210  80.5315570  60.1969560  23.5488580  80.5524560  60.0188600
  33.5781930  80.0683310  66.1497230  34.2981050  80.5638600  65.7593340
  33.3763750  79.3901200  65.5051100  29.0391870  71.4621270  60.2926620
  28.2256480  70.9634440  60.2171930  28.8453820  72.3019520  59.8762970
  28.9600730  80.1392370  72.0366230  28.8938040  79.2188040  71.7823820
  28.3305870  80.2367810  72.7510870  31.7540260  75.8340920  58.5888780
  32.6419880  76.1458150  58.4140120  31.7245350  74.9613170  58.1969360
  22.8631350  80.7398330  63.9949650  23.3810020  79.9366590  63.9406540
  22.4115370  80.6777470  64.8366480  27.7500850  82.0064610  59.2676950
  28.0916550  82.7506840  58.7720270  26.9213560  82.3195730  59.6301780
  20.3475890  77.7059700  70.9075350  19.9890830  78.3713550  71.4948690
  20.0530450  76.8743250  71.2787970  28.8917460  82.9612940  71.7870030
  28.9062000  82.0293900  71.5688940  28.1842560  83.0472700  72.4259800
  34.0254530  77.1452760  58.0568640  33.9418250  77.5766980  57.2065080
  34.7448720  77.6051110  58.4895460  35.1028670  79.6020280  71.1338610
  34.3776860  80.1949060  70.9368000  35.6304130  79.5943820  70.3351980
  35.0541780  83.9995020  60.7850770  34.4117940  83.3450640  61.0594490
  34.6672440  84.4050110  60.0091440  30.6328260  81.3280450  64.6322460
  30.9852080  80.7308580  63.9723830  29.7490590  81.0024680  64.8030710
  26.7191540  82.0878140  62.0392870  27.4062670  82.6347350  62.4200460
  25.9323960  82.6318870  62.0742480  18.8583940  77.7050960  57.5309950
  19.7278790  77.9875760  57.8145870  18.3674260  78.5186830  57.4158760
  26.0218750  79.0924170  61.6518230  26.4781530  79.9029420  61.8778420
  25.6706960  78.7747310  62.4836720  28.3251360  84.6030510  68.8810530
  28.9693580  84.8089890  69.5583950  28.6880800  83.8418910  68.4281380
  21.9230530  69.4361820  62.1240750  21.7945160  69.4279720  63.0725670
  21.0992550  69.7744910  61.7731760  29.5983440  82.6062860  67.5987980
  30.2405670  81.9056020  67.7120150  30.1232790  83.3861300  67.4184870
  33.4439160  82.8911480  57.3227120  33.2176740  82.1741920  57.9151760
  33.0535360  82.6423920  56.4848870  31.3721060  83.4057760  70.8024040
  31.7077300  83.9924450  71.4801960  30.4521400  83.2750470  71.0321830
  19.2255190  86.9178340  58.0971580  19.5852830  87.5167680  57.4428850
  19.0847530  87.4638230  58.8706610  18.9224460  71.1952940  71.5847450
  18.2082980  71.3949860  72.1900060  19.3419500  70.4192510  71.9562250
  33.0255410  80.8083420  58.9841280  32.7377110  81.2696110  59.7719160
  33.8207580  80.3481190  59.2525500  19.2097050  85.1833200  72.5713980
  19.3188170  84.2427940  72.4309370  18.5577610  85.4487950  71.9227710
  25.2423810  84.3009540  58.9145250  25.2333910  85.0339230  58.2989760
  24.3222170  84.0541120  59.0072210  20.8430450  79.5224430  59.6592010
  20.2358400  80.2623330  59.6687310  21.3179800  79.6123790  58.8330210
  30.4163240  73.6875250  69.3348900  30.7844060  72.8670460  69.6628470
  29.5561440  73.7477140  69.7504550  33.7825270  72.6432190  60.1436460
  33.1538430  72.7477860  59.4294690  33.2877190  72.8628970  60.9330340
  28.2283410  84.3637780  57.5770440  28.3295390  84.1601770  56.6472420
  27.3285150  84.1096060  57.7818220  25.7509300  74.9218140  61.5594340
  25.0425450  75.3904480  62.0007950  26.0353780  74.2640150  62.1939530
  27.3765230  76.3414840  69.5586870  27.8750480  76.8160660  70.2238720
  27.5188180  75.4178360  69.7656900  29.7824730  71.6468800  62.9990130
  29.6592510  71.6654930  62.0499640  30.7309290  71.6947740  63.1188530
  26.8701520  86.8824100  62.2718110  27.1243020  86.8445490  61.3497480
  25.9214000  86.7557430  62.2646360  23.9544320  73.2303220  58.9345050
  24.8034850  73.6673370  58.8685240  23.5875590  73.5423480  59.7617110
  34.5832090  72.5582800  70.4015260  34.0805690  73.2988200  70.7409070
  35.3988750  72.9466800  70.0852050  32.8754100  77.8015980  63.8476620
  31.9344240  77.8166210  64.0224310  33.1898170  77.0151940  64.2936920
  22.8535740  79.4835580  57.4080580  23.6199010  79.3716940  57.9706010
  22.9310430  78.7873550  56.7557350  21.5482500  76.9160650  58.0913470
  21.6286090  75.9688160  58.2030870  22.4402250  77.2467530  58.1974130
  34.8779680  84.9724830  65.5230880  35.0027100  85.7956000  65.9954690
  35.7445240  84.7615560  65.1755030  22.3497210  87.0656040  65.1948010
  23.0859690  86.5171500  65.4656580  22.7338130  87.9312050  65.0554000
  19.2342690  83.1329610  61.0689520  18.3082470  83.3750750  61.0594930
  19.6999120  83.9603870  60.9474270  25.4599520  86.2386350  57.0173580
  26.2528130  86.5275180  56.5655370  24.9403870  85.8078520  56.3386060
  34.5129690  85.4656480  58.4410320  34.2271200  85.0521620  57.6264500
  34.3149240  86.3944190  58.3210840  25.9776920  81.4589760  56.8815930
  25.8727560  80.8442110  57.6077310  25.8101140  80.9355650  56.0978940
  26.1291240  80.1446560  72.8605160  25.3636910  80.7131560  72.7759830
  26.3107200  79.8522770  71.9673390  29.2179650  80.5209790  57.4857920
  28.6689750  80.9679090  58.1300660  29.8398910  80.0159040  58.0095590
  24.8854770  79.4800710  59.3823220  25.3071190  79.3140580  60.2254610
  25.0105610  78.6700940  58.8878360  23.0482190  75.4597260  72.1894200
  22.5178650  74.9688210  71.5617540  23.7170260  75.8881460  71.6552130
  27.3982410  78.5038320  56.6300320  27.9188070  77.7887340  56.2641470
  28.0450810  79.1424190  56.9300830  31.9460250  79.9266720  71.9535390
  32.3601270  80.0811800  72.8025810  31.0111250  80.0521940  72.1161170
  23.5354490  72.4259630  72.2691490  23.4411360  71.8080380  71.5442360
  22.9551880  73.1525920  72.0421400  26.3015930  70.9832870  69.3018880
  25.8533230  71.0057130  68.4564430  25.6681130  70.5851890  69.8989180
  26.7075480  79.8787200  69.9231320  27.1263590  80.7219930  69.7507560
  25.7884110  80.0159240  69.6938100  29.0439380  77.6103380  71.3069160
  29.1635590  77.0144520  72.0464000  29.9033380  77.6473070  70.8870460
  31.3827280  78.1640570  69.8831670  30.8562500  78.6883190  69.2796810
  31.7258620  78.7967960  70.5141400  23.7813670  75.5533940  56.3281380
  23.5802730  74.6901300  56.6894720  23.6105720  75.4667300  55.3902980
  24.5582900  86.1840210  71.0389050  24.0203990  86.9086270  70.7197750
  24.8116860  85.7070550  70.2486390  31.2601980  70.3642170  58.8568260
  31.5404270  69.5210070  59.2127680  30.4867710  70.5965280  59.3707010
  22.5796470  72.6534560  56.3159260  22.8822370  72.6601990  55.4078410
  23.3191060  72.3032420  56.8126920  27.4145110  87.4191420  71.2975700
  27.3403810  88.3226560  71.6048070  26.5123950  87.1003320  71.2697770
  25.7981400  71.5969180  57.3015460  25.4503400  70.9193170  56.7217910
  25.9994170  71.1358690  58.1158850  27.9630440  86.5849930  58.9202060
  28.8581230  86.9234900  58.9420820  27.9948070  85.8629340  58.2926340
  21.6026600  81.9576980  57.1489060  22.0401470  82.5006650  57.8046640
  22.0874330  81.1323930  57.1585400  18.8172400  84.7466010  64.6009320
  19.1475410  83.8787070  64.3687960  19.2463400  84.9524530  65.4314280
  23.4134320  83.0775020  62.2611290  23.1129860  82.9539990  63.1615200
  23.3071810  82.2183610  61.8527020  19.3062610  85.6136600  67.3390950
  18.8693600  85.7937400  68.1715100  19.8740290  86.3711220  67.1972670
  34.9424790  85.1153600  71.6268260  34.3426780  85.1746160  70.8832180
  35.0718690  84.1758580  71.7565110  36.1826240  82.8571420  56.9637970
  35.3519200  82.9248070  57.4345200  36.3598070  83.7475540  56.6604830
  35.6382700  79.6018900  59.4672170  36.4001610  80.1715550  59.5731860
  35.6537070  79.0346100  60.2380480  19.1387040  78.1256830  63.6979830
  18.4835880  77.8568470  63.0539530  19.9764990  78.0161310  63.2481810
  36.6442670  80.4569000  64.3114100  37.0151500  79.6736320  63.9050070
  37.2844600  81.1458100  64.1331400  33.6276430  81.8405580  69.7244420
  32.8136270  82.2702740  69.9870210  34.0350630  82.4523990  69.1113470
  35.6901870  79.8953270  56.6244690  35.9650710  80.8032150  56.4963910
  35.5012610  79.8315800  57.5606680  32.0877480  72.9198120  57.9198320
  32.5062360  72.7329100  57.0794980  31.7813540  72.0677170  58.2301250
  35.5867210  77.8322260  61.6174120  35.2110810  77.0650190  61.1855410
  34.8570330  78.2144960  62.1049050  20.1762970  78.5109400  68.2383170
  20.5436010  78.4236800  69.1179190  19.6073790  77.7475950  68.1390030
  34.9766830  76.9793780  71.2513640  34.7452920  76.7506530  70.3511590
  35.2371380  77.8993330  71.2058530  19.7278970  75.4218490  72.1441590
  18.8335020  75.3885250  72.4835300  20.2676520  75.6205280  72.9092840
  18.3525120  75.3355760  59.6405160  17.4489200  75.5985960  59.4656820
  18.8365740  75.6066930  58.8605120  34.8618170  76.0579750  64.9181360
  35.3855650  75.5642400  64.2871530  35.4477590  76.1930110  65.6628930
  35.0407890  76.1419620  68.4400910  34.0910600  76.1083160  68.5545900
  35.2220900  77.0519730  68.2050680  20.8952330  74.3921300  57.5499540
  21.6044030  73.9704520  57.0646820  20.1792270  74.4596530  56.9182890
  20.5426490  70.4460630  56.5902190  21.2654620  70.9869570  56.9083410
  20.8151010  70.1724050  55.7143730  34.3518140  75.3153100  60.8573770
  34.8477260  75.0823970  61.6422650  34.1534210  74.4764940  60.4411410
  20.2318680  69.6966820  66.4924810  20.8794870  69.1464200  66.0519970
  20.6520520  69.9509970  67.3140620  35.7805300  73.9514050  63.3911450
  35.6704580  73.7970090  64.3293720  36.5412890  73.4234990  63.1486860
  34.1271020  69.8908180  69.8494450  34.7643240  70.5042320  70.2153640
  34.2745910  69.9268840  68.9043680  36.6695570  71.7821970  56.6317590
  37.5944880  71.6503150  56.4235880  36.6471360  71.8614790  57.5854040
  36.7434060  72.5532630  59.2574300  35.9485560  72.4877750  59.7867210
  36.9477340  73.4883270  59.2459650  33.6852480  86.5924180  63.2512690
  34.2811550  86.2708750  62.5747110  33.9430630  86.1196000  64.0425960
  19.9850680  69.8522490  69.2350130  19.6365500  70.3086310  70.0008310
  19.6538380  68.9579620  69.3172560  25.2921080  84.5801680  69.0013040
  25.0512440  84.8476240  68.1143560  26.2323720  84.7507410  69.0563900
  36.5525240  86.5996060  69.8023680  36.0583520  86.9964930  69.0850810
  35.9438530  85.9745270  70.1960960  21.4303080  85.9704340  70.5201100
  20.8363400  85.8389040  71.2591140  21.4226920  85.1342480  70.0543200
  30.8758100  69.2636570  68.7231130  30.0017940  69.5971680  68.5204060
  30.7668850  68.7909750  69.5483000  31.7830080  71.4707440  70.1072850
  31.4543440  70.6559200  69.7274580  32.7312380  71.4277250  69.9838540
  34.2364690  87.2419480  67.0810420  33.7767660  87.9935290  66.7068440
  33.6077150  86.5225950  67.0225220  21.0615310  83.3362720  69.4709140
  20.3349370  82.7168010  69.4035090  21.1224460  83.7303330  68.6007220
  24.6660410  85.5507720  66.2558550  25.1825430  84.9395080  65.7306810
  25.3157790  86.0536500  66.7469560  27.4055910  86.4416210  67.0827530
  27.6933720  86.1870510  66.2060540  27.9179130  85.8893570  67.6733100
  28.6232920  70.1806410  67.6624040  27.8404710  70.6551910  67.9420800
  28.3295850  69.2761240  67.5537220  33.1753990  70.8829510  65.7073130
  33.6162080  70.8274610  64.8594730  32.9061580  71.7987520  65.7783310
  35.0392560  70.5144750  63.7181950  34.9780960  69.5705970  63.5712970
  35.8184590  70.6224840  64.2635410  19.3445310  86.6537110  62.6805900
  19.1767350  86.0207790  63.3787790  18.4779820  86.8596510  62.3300090
  19.9673330  70.4853890  60.1837760  20.7252690  70.5982770  59.6101790
  19.5050500  71.3223090  60.1381190  26.5087140  72.5993160  63.1740070
  25.6961650  72.2250050  62.8335950  27.0128780  71.8438240  63.4761260
  31.0112120  69.2635610  64.4123140  31.6141490  69.8355820  64.8871660
  30.2705110  69.8275050  64.1897040  34.1546720  69.6657170  59.6863420
  34.3497350  70.5640620  59.9530850  33.3676590  69.4344250  60.1796370
  20.9508010  85.3470340  60.1256040  20.4255630  85.7278370  59.4218000
  20.8752590  85.9721110  60.8465750  22.3398480  71.0117940  58.7239730
  22.8691240  70.2247740  58.5947680  22.9726800  71.6909130  58.9575260
  24.5336320  70.7493080  61.7785120  23.9039060  70.0480390  61.9455250
  23.9941460  71.5097210  61.5618280  35.7073330  86.9057880  61.4469980
  35.8825520  86.2195620  60.8030900  35.0094900  87.4304930  61.0546650
  23.5500980  87.2952720  59.0005290  24.2819800  87.0112000  58.4529180
  23.8094650  87.0566000  59.8904670  22.7115770  83.4117450  59.0051620
  22.0824650  83.8802550  59.5537450  22.8263600  82.5666670  59.4397810
  30.1665490  77.4623110  45.1552820  30.0859540  76.5477720  44.8844530
  29.7529910  77.9590180  44.4492530  28.2983530  79.2402130  47.0362090
  27.5225630  78.7602570  47.3260660  28.9496460  78.5607780  46.8618250
  22.3149360  79.5521940  47.9137850  21.4834240  79.2970650  48.3134360
  22.9230340  79.6232710  48.6495770  32.3190960  83.6462320  45.8161220
  31.8572490  82.8749560  46.1448390  33.1316510  83.6728390  46.3213670
  22.2950620  83.5862030  48.1095870  22.5978660  82.6959770  47.9306090
  23.0394210  84.1432250  47.8818120  20.7241310  74.5123830  41.6980240
  19.8358010  74.8539800  41.5960120  21.0082500  74.3124150  40.8061070
  18.6874320  77.1129480  47.5819940  19.2590430  76.3451680  47.5823580
  18.6875860  77.4118240  46.6726550  28.5454270  85.9320330  45.4365210
  27.9265710  86.3877830  44.8659650  29.4006050  86.0871790  45.0354910
  27.7392520  81.9159320  47.0432250  27.6700800  80.9749260  46.8821380
  28.5012380  82.0060730  47.6154820  19.9299190  72.5213840  49.3688870
  19.7502030  71.6239590  49.6491630  19.5279270  73.0685710  50.0435820
  28.7697690  74.7229700  47.2701180  29.1462510  73.8501580  47.1574850
  28.6717200  75.0588400  46.3791620  22.9002700  73.0955330  42.7318620
  23.0069450  73.9959060  43.0387380  21.9895060  73.0473300  42.4413270
  32.5521810  72.2180140  44.2029520  33.3731430  71.7276710  44.2455000
  32.5855890  72.8077800  44.9561360  20.5485860  75.0174340  47.9771210
  21.2295970  75.2812710  48.5958610  20.2333910  74.1775210  48.3109220
  24.7410430  76.0641700  47.0643800  25.2488650  76.5622670  47.7048820
  25.2723670  75.2876900  46.8883160  36.8421360  74.2346890  50.7673150
  36.1373530  74.6228600  50.2488260  37.1079280  74.9297180  51.3694080
  23.0246530  70.7040260  51.3307220  23.0264970  71.2212650  50.5253120
  22.1950840  70.2270440  51.3077150  29.4117620  80.8159570  42.8297120
  28.7934890  81.2809020  42.2659840  29.9240870  81.5087050  43.2466630
  24.2749380  80.3435440  49.5080720  23.9418760  80.9704360  50.1501790
  24.4516060  80.8697320  48.7282390  32.7883290  74.1580520  46.9757060
  32.0838860  74.4465410  47.5560170  33.1495450  74.9680630  46.6156620
  22.7061860  72.4150220  49.3377670  23.0478670  73.2592270  49.0431540
  21.7677670  72.5633960  49.4543010  23.4868480  82.3116240  51.3229900
  24.1042480  82.9867320  51.0414350  22.6261600  82.7204220  51.2317400
  18.7800820  81.5016100  40.2036750  18.4028800  81.9903200  39.4721650
  19.0373890  82.1741380  40.8343280  34.4046070  83.7755650  49.2384540
  33.7209590  84.4454760  49.2301210  34.9440360  83.9736300  48.4729400
  35.8570210  73.6035310  47.3666270  34.9095120  73.6374290  47.4981700
  36.1820200  74.4174260  47.7515630  26.3889750  69.9032490  45.6622260
  26.6964730  69.3479380  44.9457760  25.4590450  70.0376950  45.4795250
  31.9404810  85.6199780  47.9529720  31.9531970  85.2162070  47.0851980
  31.3880030  86.3947070  47.8491150  33.2350230  82.3416000  43.0419890
  33.1246560  81.3990330  43.1669310  33.2318480  82.7031640  43.9282650
  31.3390250  80.5229620  49.2812330  31.7559040  80.3089730  48.4465790
  32.0630070  80.7802410  49.8520950  28.7770510  77.9681320  42.3982380
  27.8499790  77.9018700  42.6270850  28.9295330  78.9061450  42.2837620
  28.7639590  74.2398320  39.3949540  27.8243260  74.4012280  39.4802000
  29.0822850  74.9584000  38.8485530  35.2852350  78.9216840  49.3728570
  34.4570980  78.9909930  48.8978700  35.8802830  79.5071150  48.9044400
  32.8067800  79.5301620  42.9017630  32.1880220  79.1921170  42.2543930
  32.7892250  78.8861380  43.6096820  32.2494360  75.7086160  50.3183440
  31.8365540  76.5339870  50.5723430  31.5170310  75.1231200  50.1259800
  24.3827150  78.4946060  45.1802110  23.9784150  77.7823310  44.6848010
  24.4690270  78.1499300  46.0690150  24.8508850  82.1813620  47.3441320
  24.5537140  81.5759090  46.6649100  25.8008670  82.2190930  47.2330680
  23.0955770  75.2689270  48.9601150  23.6470360  75.3784610  48.1854400
  23.6099280  75.6426870  49.6756380  32.9394460  85.7545490  51.0064420
  32.4625020  86.5617680  50.8137030  32.2556250  85.1023820  51.1590630
  23.9427280  81.9195310  53.9949120  23.0455810  82.1435280  54.2422520
  23.9680150  82.0430250  53.0460520  30.9832500  78.7688430  39.9090380
  31.4225780  77.9310860  39.7628200  31.6960920  79.4017830  39.9954520
  22.7698500  78.7908630  52.5706490  22.6306270  79.6631430  52.9393890
  21.8879860  78.4481440  52.4254430  29.0927880  83.7084500  43.8771620
  29.5323790  84.4508830  43.4627010  29.0314770  83.9511070  44.8010580
  24.5678850  84.7330330  54.7791640  24.5394280  85.1373280  53.9120070
  24.4043820  83.8040690  54.6163240  21.0831780  77.3891040  42.6808760
  20.9629380  78.1153130  42.0690030  20.7732670  76.6193950  42.2036670
  36.5193670  85.5157430  56.0755810  36.9953390  85.9940320  56.7544890
  37.1400830  85.4474920  55.3501310  18.7217150  80.5606180  48.4877400
  18.7997570  80.6954950  47.5433120  19.3358830  79.8522070  48.6805520
  19.9664780  82.2606370  44.8983580  19.5592860  82.4020960  44.0437180
  20.8577790  81.9766530  44.6954790  35.9226920  82.7070280  53.2355820
  36.0489980  82.4682160  52.3173000  35.9648300  81.8754820  53.7077900
  29.7843660  86.4098280  51.8050630  30.2988330  86.3206290  52.6073060
  28.9412740  86.7557980  52.0978540  31.7598060  86.6953620  41.2334630
  31.5999200  86.4056560  42.1316460  31.5944770  85.9193750  40.6979860
  24.2386440  86.4752150  43.0106250  24.0628920  85.5587690  42.7974050
  23.3842180  86.8339440  43.2504050  31.4624190  84.2041180  39.7932630
  30.7689350  84.2018470  39.1334910  32.2047050  83.7800500  39.3626800
  31.0274120  85.8303890  43.8681120  31.4831070  85.0493270  44.1819740
  31.3666640  86.5410710  44.4122300  35.7750930  74.7602740  54.2005560
  35.1595200  75.2682410  53.6721020  35.4547350  73.8601070  54.1431500
  18.7776670  81.6020350  51.0271860  18.9407710  81.1325710  50.2091230
  19.2429120  81.0943910  51.6920700  23.5495440  70.7326110  46.0632430
  23.1063590  71.5135650  45.7316950  24.1080430  71.0556000  46.7703370
  27.8365250  73.5994630  51.6667750  27.3744620  73.8077650  52.4787690
  27.4343360  72.7853980  51.3638420  32.8369760  74.8203580  52.7964410
  31.9863350  74.5209330  53.1173480  32.6771550  75.0645590  51.8848230
  29.9319470  76.3205330  54.8963200  30.2572880  75.4869080  54.5565430
  30.7199800  76.8433850  55.0441530  26.6654260  70.3536810  40.9438260
  26.0408440  70.3496680  41.6691570  26.5784380  69.4867770  40.5474230
  25.5871340  71.2773440  47.9222030  25.8843670  72.1836270  47.8414050
  26.1356900  70.7892220  47.3081600  23.3409660  75.8559680  43.7913680
  23.1150580  75.6396850  44.6960300  22.5602190  76.2888140  43.4459650
  30.5707420  75.8623050  42.3904330  29.9716310  76.5858850  42.2067950
  31.1187030  75.7999830  41.6080780  25.7808870  76.7545260  54.4573950
  25.6852470  75.8139990  54.3074350  26.6240850  76.9760330  54.0622020
  29.1772290  74.4986590  44.4207610  29.5701860  74.8158790  43.6076300
  29.5389140  73.6198470  44.5352130  20.9119410  73.1658930  52.6107730
  20.5182800  74.0134140  52.8180510  20.2237810  72.5285300  52.8016370
  27.4864460  73.2493900  55.6804470  26.7962780  73.0566100  56.3150560
  28.2296760  73.5328540  56.2128770  18.2136460  71.0887390  46.6437810
  17.9249510  71.6590250  47.3562790  18.9582220  70.6091840  47.0069040
  18.4006690  75.0307510  37.8540530  18.3181360  75.9738270  37.9955520
  18.0489750  74.8882420  36.9752880  29.7627430  77.0892340  48.5158390
  29.0308550  77.5979150  48.8648490  29.3651770  76.2722320  48.2147170
  26.2004820  73.7646540  46.9210880  26.2040880  73.3236490  46.0715420
  27.0955940  74.0863870  47.0282700  22.0507200  73.6473030  45.8805090
  21.7107250  74.1248260  46.6372140  21.2884520  73.1938150  45.5206190
  26.2624970  74.7658620  39.9117640  26.3837790  74.7245100  40.8603460
  25.8773480  75.6282770  39.7564370  30.2253340  72.5426020  47.9281330
  30.2426080  72.9934670  48.7723180  29.9768920  71.6431660  48.1414770
  25.2746470  77.0759760  39.3100940  24.7063370  76.6278010  38.6836850
  25.9835470  77.4352540  38.7766090  33.6524090  69.9558200  53.7667710
  33.9769860  69.2247860  54.2925690  33.6880600  69.6371840  52.8648700
  20.3515650  80.9771780  53.1867670  19.9670440  80.3365450  53.7850630
  20.6627840  81.6807900  53.7562400  26.5012790  77.8248320  48.6676290
  26.8682920  77.3506890  49.4137630  26.3117850  78.6989890  49.0084630
  19.3653280  72.5692010  44.7969760  19.0800200  72.2047680  45.6348380
  19.3032140  71.8372470  44.1832900  24.2912160  76.8656960  50.9860500
  23.9869230  77.7448940  51.2110860  25.2458620  76.9256750  51.0217940
  22.8193950  81.0717950  41.5827350  22.0456210  80.5315570  41.4226070
  23.5488580  80.5524560  41.2445110  33.5781930  80.0683310  47.3753740
  34.2981050  80.5638600  46.9849850  33.3763750  79.3901200  46.7307610
  29.0391870  71.4621270  41.5183130  28.2256480  70.9634440  41.4428440
  28.8453820  72.3019520  41.1019480  28.9600730  80.1392370  53.2622740
  28.8938040  79.2188040  53.0080330  28.3305870  80.2367810  53.9767380
  31.7540260  75.8340920  39.8145290  32.6419880  76.1458150  39.6396630
  31.7245350  74.9613170  39.4225870  22.8631350  80.7398330  45.2206160
  23.3810020  79.9366590  45.1663050  22.4115370  80.6777470  46.0622990
  27.7500850  82.0064610  40.4933460  28.0916550  82.7506840  39.9976780
  26.9213560  82.3195730  40.8558290  20.3475890  77.7059700  52.1331860
  19.9890830  78.3713550  52.7205200  20.0530450  76.8743250  52.5044480
  23.5489010  78.1643940  55.0171410  23.2489150  78.3101120  54.1199230
  24.3200250  77.6049230  54.9244800  28.8917460  82.9612940  53.0126540
  28.9062000  82.0293900  52.7945450  28.1842560  83.0472700  53.6516310
  34.0254530  77.1452760  39.2825150  33.9418250  77.5766980  38.4321590
  34.7448720  77.6051110  39.7151970  35.1028670  79.6020280  52.3595120
  34.3776860  80.1949060  52.1624510  35.6304130  79.5943820  51.5608490
  35.0541780  83.9995020  42.0107280  34.4117940  83.3450640  42.2851000
  34.6672440  84.4050110  41.2347950  30.6328260  81.3280450  45.8578970
  30.9852080  80.7308580  45.1980340  29.7490590  81.0024680  46.0287220
  26.7191540  82.0878140  43.2649380  27.4062670  82.6347350  43.6456970
  25.9323960  82.6318870  43.2998990  18.8583940  77.7050960  38.7566460
  19.7278790  77.9875760  39.0402380  18.3674260  78.5186830  38.6415270
  26.0218750  79.0924170  42.8774740  26.4781530  79.9029420  43.1034930
  25.6706960  78.7747310  43.7093230  28.3251360  84.6030510  50.1067040
  28.9693580  84.8089890  50.7840460  28.6880800  83.8418910  49.6537890
  21.9230530  69.4361820  43.3497260  21.7945160  69.4279720  44.2982180
  21.0992550  69.7744910  42.9988270  29.5983440  82.6062860  48.8244490
  30.2405670  81.9056020  48.9376660  30.1232790  83.3861300  48.6441380
  33.4439160  82.8911480  38.5483630  33.2176740  82.1741920  39.1408270
  33.0535360  82.6423920  37.7105380  31.3721060  83.4057760  52.0280550
  31.7077300  83.9924450  52.7058470  30.4521400  83.2750470  52.2578340
  19.2255190  86.9178340  39.3228090  19.5852830  87.5167680  38.6685360
  19.0847530  87.4638230  40.0963120  18.9224460  71.1952940  52.8103960
  18.2082980  71.3949860  53.4156570  19.3419500  70.4192510  53.1818760
  33.0255410  80.8083420  40.2097790  32.7377110  81.2696110  40.9975670
  33.8207580  80.3481190  40.4782010  19.2097050  85.1833200  53.7970490
  19.3188170  84.2427940  53.6565880  18.5577610  85.4487950  53.1484220
  27.2009640  83.4549090  55.1968610  26.8806510  82.7358330  55.7414300
  26.5268000  84.1304160  55.2704670  25.2423810  84.3009540  40.1401760
  25.2333910  85.0339230  39.5246270  24.3222170  84.0541120  40.2328720
  20.8430450  79.5224430  40.8848520  20.2358400  80.2623330  40.8943820
  21.3179800  79.6123790  40.0586720  30.4163240  73.6875250  50.5605410
  30.7844060  72.8670460  50.8884980  29.5561440  73.7477140  50.9761060
  33.7825270  72.6432190  41.3692970  33.1538430  72.7477860  40.6551200
  33.2877190  72.8628970  42.1586850  28.2283410  84.3637780  38.8026950
  28.3295390  84.1601770  37.8728930  27.3285150  84.1096060  39.0074730
  25.7509300  74.9218140  42.7850850  25.0425450  75.3904480  43.2264460
  26.0353780  74.2640150  43.4196040  27.3765230  76.3414840  50.7843380
  27.8750480  76.8160660  51.4495230  27.5188180  75.4178360  50.9913410
  29.7824730  71.6468800  44.2246640  29.6592510  71.6654930  43.2756150
  30.7309290  71.6947740  44.3445040  26.8701520  86.8824100  43.4974620
  27.1243020  86.8445490  42.5753990  25.9214000  86.7557430  43.4902870
  23.9544320  73.2303220  40.1601560  24.8034850  73.6673370  40.0941750
  23.5875590  73.5423480  40.9873620  34.5832090  72.5582800  51.6271770
  34.0805690  73.2988200  51.9665580  35.3988750  72.9466800  51.3108560
  32.8754100  77.8015980  45.0733130  31.9344240  77.8166210  45.2480820
  33.1898170  77.0151940  45.5193430  22.8535740  79.4835580  38.6337090
  23.6199010  79.3716940  39.1962520  22.9310430  78.7873550  37.9813860
  21.5482500  76.9160650  39.3169980  21.6286090  75.9688160  39.4287380
  22.4402250  77.2467530  39.4230640  34.8779680  84.9724830  46.7487390
  35.0027100  85.7956000  47.2211200  35.7445240  84.7615560  46.4011540
  22.3497210  87.0656040  46.4204520  23.0859690  86.5171500  46.6913090
  22.7338130  87.9312050  46.2810510  19.2342690  83.1329610  42.2946030
  18.3082470  83.3750750  42.2851440  19.6999120  83.9603870  42.1730780
  21.3555490  86.2502110  55.6090100  22.1568220  86.5714160  56.0225500
  20.8407310  85.8897690  56.3310010  25.4599520  86.2386350  38.2430090
  26.2528130  86.5275180  37.7911880  24.9403870  85.8078520  37.5642570
  30.1920120  82.3581980  55.5565510  29.5858280  82.3813580  54.8161260
  29.8874230  81.6265020  56.0932760  31.6220490  86.0862270  54.1674920
  32.5742240  86.0020290  54.1175160  31.4748710  86.7503980  54.8408710
  34.5129690  85.4656480  39.6666830  34.2271200  85.0521620  38.8521010
  34.3149240  86.3944190  39.5467350  19.0753300  78.7375570  54.5526150
  19.5792320  78.1582850  55.1242380  18.3360720  79.0215800  55.0902520
  25.9776920  81.4589760  38.1072440  25.8727560  80.8442110  38.8333820
  25.8101140  80.9355650  37.3235450  26.1291240  80.1446560  54.0861670
  25.3636910  80.7131560  54.0016340  26.3107200  79.8522770  53.1929900
  29.2179650  80.5209790  38.7114430  28.6689750  80.9679090  39.3557170
  29.8398910  80.0159040  39.2352100  33.2714590  81.8751890  54.6436690
  34.0124060  82.2127650  54.1404150  32.5087270  82.0443950  54.0906460
  21.1076380  76.8805160  55.4476220  21.1481720  76.5819030  56.3561450
  21.9621880  77.2812770  55.2883740  24.8854770  79.4800710  40.6079730
  25.3071190  79.3140580  41.4511120  25.0105610  78.6700940  40.1134870
  23.0482190  75.4597260  53.4150710  22.5178650  74.9688210  52.7874050
  23.7170260  75.8881460  52.8808640  27.3982410  78.5038320  37.8556830
  27.9188070  77.7887340  37.4897980  28.0450810  79.1424190  38.1557340
  31.9460250  79.9266720  53.1791900  32.3601270  80.0811800  54.0282320
  31.0111250  80.0521940  53.3417680  32.4182420  77.2662880  55.1831050
  33.0003190  76.5115200  55.0951530  32.5944190  77.7970320  54.4062530
  23.5354490  72.4259630  53.4948000  23.4411360  71.8080380  52.7698870
  22.9551880  73.1525920  53.2677910  26.3015930  70.9832870  50.5275390
  25.8533230  71.0057130  49.6820940  25.6681130  70.5851890  51.1245690
  26.7075480  79.8787200  51.1487830  27.1263590  80.7219930  50.9764070
  25.7884110  80.0159240  50.9194610  29.0439380  77.6103380  52.5325670
  29.1635590  77.0144520  53.2720510  29.9033380  77.6473070  52.1126970
  31.3827280  78.1640570  51.1088180  30.8562500  78.6883190  50.5053320
  31.7258620  78.7967960  51.7397910  23.7813670  75.5533940  37.5537890
  23.5802730  74.6901300  37.9151230  23.6105720  75.4667300  36.6159490
  24.5582900  86.1840210  52.2645560  24.0203990  86.9086270  51.9454260
  24.8116860  85.7070550  51.4742900  25.8108150  74.1524730  53.7901490
  26.4007840  73.8440580  54.4779310  24.9928390  73.6804480  53.9461390
  30.6301580  73.7690540  54.0234510  29.9417100  73.1072080  53.9584500
  31.3507600  73.3228810  54.4682970  31.2601980  70.3642170  40.0824770
  31.5404270  69.5210070  40.4384190  30.4867710  70.5965280  40.5963520
  22.5796470  72.6534560  37.5415770  22.8822370  72.6601990  36.6334920
  23.3191060  72.3032420  38.0383430  27.4145110  87.4191420  52.5232210
  27.3403810  88.3226560  52.8304580  26.5123950  87.1003320  52.4954280
  25.7981400  71.5969180  38.5271970  25.4503400  70.9193170  37.9474420
  25.9994170  71.1358690  39.3415360  27.9630440  86.5849930  40.1458570
  28.8581230  86.9234900  40.1677330  27.9948070  85.8629340  39.5182850
  21.6026600  81.9576980  38.3745570  22.0401470  82.5006650  39.0303150
  22.0874330  81.1323930  38.3841910  18.8172400  84.7466010  45.8265830
  19.1475410  83.8787070  45.5944470  19.2463400  84.9524530  46.6570790
  23.4134320  83.0775020  43.4867800  23.1129860  82.9539990  44.3871710
  23.3071810  82.2183610  43.0783530  19.3062610  85.6136600  48.5647460
  18.8693600  85.7937400  49.3971610  19.8740290  86.3711220  48.4229180
  34.9424790  85.1153600  52.8524770  34.3426780  85.1746160  52.1088690
  35.0718690  84.1758580  52.9821620  36.1826240  82.8571420  38.1894480
  35.3519200  82.9248070  38.6601710  36.3598070  83.7475540  37.8861340
  35.6382700  79.6018900  40.6928680  36.4001610  80.1715550  40.7988370
  35.6537070  79.0346100  41.4636990  19.1387040  78.1256830  44.9236340
  18.4835880  77.8568470  44.2796040  19.9764990  78.0161310  44.4738320
  36.6442670  80.4569000  45.5370610  37.0151500  79.6736320  45.1306580
  37.2844600  81.1458100  45.3587910  33.6276430  81.8405580  50.9500930
  32.8136270  82.2702740  51.2126720  34.0350630  82.4523990  50.3369980
  35.6901870  79.8953270  37.8501200  35.9650710  80.8032150  37.7220420
  35.5012610  79.8315800  38.7863190  32.0877480  72.9198120  39.1454830
  32.5062360  72.7329100  38.3051490  31.7813540  72.0677170  39.4557760
  35.5867210  77.8322260  42.8430630  35.2110810  77.0650190  42.4111920
  34.8570330  78.2144960  43.3305560  20.1762970  78.5109400  49.4639680
  20.5436010  78.4236800  50.3435700  19.6073790  77.7475950  49.3646540
  34.9766830  76.9793780  52.4770150  34.7452920  76.7506530  51.5768100
  35.2371380  77.8993330  52.4315040  19.7278970  75.4218490  53.3698100
  18.8335020  75.3885250  53.7091810  20.2676520  75.6205280  54.1349350
  33.4154900  72.2050210  55.2549850  34.2925080  72.2133610  55.6383850
  33.4275740  71.4681050  54.6442200  18.3525120  75.3355760  40.8661670
  17.4489200  75.5985960  40.6913330  18.8365740  75.6066930  40.0861630
  34.8618170  76.0579750  46.1437870  35.3855650  75.5642400  45.5128040
  35.4477590  76.1930110  46.8885440  35.0407890  76.1419620  49.6657420
  34.0910600  76.1083160  49.7802410  35.2220900  77.0519730  49.4307190
  20.8952330  74.3921300  38.7756050  21.6044030  73.9704520  38.2903330
  20.1792270  74.4596530  38.1439400  20.5426490  70.4460630  37.8158700
  21.2654620  70.9869570  38.1339920  20.8151010  70.1724050  36.9400240
  34.3518140  75.3153100  42.0830280  34.8477260  75.0823970  42.8679160
  34.1534210  74.4764940  41.6667920  20.2318680  69.6966820  47.7181320
  20.8794870  69.1464200  47.2776480  20.6520520  69.9509970  48.5397130
  35.7805300  73.9514050  44.6167960  35.6704580  73.7970090  45.5550230
  36.5412890  73.4234990  44.3743370  34.1271020  69.8908180  51.0750960
  34.7643240  70.5042320  51.4410150  34.2745910  69.9268840  50.1300190
  36.6695570  71.7821970  37.8574100  37.5944880  71.6503150  37.6492390
  36.6471360  71.8614790  38.8110550  36.7434060  72.5532630  40.4830810
  35.9485560  72.4877750  41.0123720  36.9477340  73.4883270  40.4716160
  33.6852480  86.5924180  44.4769200  34.2811550  86.2708750  43.8003620
  33.9430630  86.1196000  45.2682470  19.9850680  69.8522490  50.4606640
  19.6365500  70.3086310  51.2264820  19.6538380  68.9579620  50.5429070
  21.5915050  83.0242090  54.6259830  21.5484680  82.6535000  55.5074290
  21.7226060  83.9619660  54.7661650  25.2921080  84.5801680  50.2269550
  25.0512440  84.8476240  49.3400070  26.2323720  84.7507410  50.2820410
  27.4975500  71.0434370  53.9826060  27.4364390  71.6356200  54.7321470
  28.4375880  70.9360330  53.8376320  30.1350060  70.7004430  53.6218350
  30.7490470  71.0183720  52.9599430  30.6799620  70.2153020  54.2414210
  36.5525240  86.5996060  51.0280190  36.0583520  86.9964930  50.3107320
  35.9438530  85.9745270  51.4217470  20.6571320  69.3798690  53.7357410
  21.2054310  69.1986740  52.9723520  20.7226630  68.5892800  54.2713720
  21.4303080  85.9704340  51.7457610  20.8363400  85.8389040  52.4847650
  21.4226920  85.1342480  51.2799710  30.8758100  69.2636570  49.9487640
  30.0017940  69.5971680  49.7460570  30.7668850  68.7909750  50.7739510
  31.7830080  71.4707440  51.3329360  31.4543440  70.6559200  50.9531090
  32.7312380  71.4277250  51.2095050  34.2364690  87.2419480  48.3066930
  33.7767660  87.9935290  47.9324950  33.6077150  86.5225950  48.2481730
  21.0615310  83.3362720  50.6965650  20.3349370  82.7168010  50.6291600
  21.1224460  83.7303330  49.8263730  24.6660410  85.5507720  47.4815060
  25.1825430  84.9395080  46.9563320  25.3157790  86.0536500  47.9726070
  27.4055910  86.4416210  48.3084040  27.6933720  86.1870510  47.4317050
  27.9179130  85.8893570  48.8989610  28.6232920  70.1806410  48.8880550
  27.8404710  70.6551910  49.1677310  28.3295850  69.2761240  48.7793730
  33.1753990  70.8829510  46.9329640  33.6162080  70.8274610  46.0851240
  32.9061580  71.7987520  47.0039820  19.3445310  86.6537110  43.9062410
  19.1767350  86.0207790  44.6044300  18.4779820  86.8596510  43.5556600
  19.9673330  70.4853890  41.4094270  20.7252690  70.5982770  40.8358300
  19.5050500  71.3223090  41.3637700  26.5087140  72.5993160  44.3996580
  25.6961650  72.2250050  44.0592460  27.0128780  71.8438240  44.7017770
  31.0112120  69.2635610  45.6379650  31.6141490  69.8355820  46.1128170
  30.2705110  69.8275050  45.4153550  20.9508010  85.3470340  41.3512550
  20.4255630  85.7278370  40.6474510  20.8752590  85.9721110  42.0722260
  22.3398480  71.0117940  39.9496240  22.8691240  70.2247740  39.8204190
  22.9726800  71.6909130  40.1831770  24.5336320  70.7493080  43.0041630
  23.9039060  70.0480390  43.1711760  23.9941460  71.5097210  42.7874790
  27.4728270  87.3632310  55.6752240  28.3995580  87.1276580  55.7188200
  27.4578700  88.1904310  55.1938270  35.7073330  86.9057880  42.6726490
  35.8825520  86.2195620  42.0287410  35.0094900  87.4304930  42.2803160
  24.6591880  70.0277060  55.4394120  24.3776150  70.5310660  54.6754940
  25.0411580  69.2298810  55.0736250  23.5500980  87.2952720  40.2261800
  24.2819800  87.0112000  39.6785690  23.8094650  87.0566000  41.1161180
  22.7115770  83.4117450  40.2308130  22.0824650  83.8802550  40.7793960
  22.8263600  82.5666670  40.6654320  31.2607340  69.4430640  56.0174590
  31.1472790  69.7625250  56.9126110  32.0777080  69.8443150  55.7211870
  34.0405830  86.5902170  55.4993280  34.8331150  86.0951400  55.2919240
  34.3338980  87.2692310  56.1068890  30.1665490  77.4623110  26.3809330
  30.0859540  76.5477720  26.1101040  29.7529910  77.9590180  25.6749040
  28.2983530  79.2402130  28.2618600  27.5225630  78.7602570  28.5517170
  28.9496460  78.5607780  28.0874760  22.3149360  79.5521940  29.1394360
  21.4834240  79.2970650  29.5390870  22.9230340  79.6232710  29.8752280
  32.3190960  83.6462320  27.0417730  31.8572490  82.8749560  27.3704900
  33.1316510  83.6728390  27.5470180  22.2950620  83.5862030  29.3352380
  22.5978660  82.6959770  29.1562600  23.0394210  84.1432250  29.1074630
  20.7241310  74.5123830  22.9236750  19.8358010  74.8539800  22.8216630
  21.0082500  74.3124150  22.0317580  18.6874320  77.1129480  28.8076450
  19.2590430  76.3451680  28.8080090  18.6875860  77.4118240  27.8983060
  28.5454270  85.9320330  26.6621720  27.9265710  86.3877830  26.0916160
  29.4006050  86.0871790  26.2611420  27.7392520  81.9159320  28.2688760
  27.6700800  80.9749260  28.1077890  28.5012380  82.0060730  28.8411330
  19.9299190  72.5213840  30.5945380  19.7502030  71.6239590  30.8748140
  19.5279270  73.0685710  31.2692330  28.7697690  74.7229700  28.4957690
  29.1462510  73.8501580  28.3831360  28.6717200  75.0588400  27.6048130
  22.9002700  73.0955330  23.9575130  23.0069450  73.9959060  24.2643890
  21.9895060  73.0473300  23.6669780  32.5521810  72.2180140  25.4286030
  33.3731430  71.7276710  25.4711510  32.5855890  72.8077800  26.1817870
  20.5485860  75.0174340  29.2027720  21.2295970  75.2812710  29.8215120
  20.2333910  74.1775210  29.5365730  24.7410430  76.0641700  28.2900310
  25.2488650  76.5622670  28.9305330  25.2723670  75.2876900  28.1139670
  36.8421360  74.2346890  31.9929660  36.1373530  74.6228600  31.4744770
  37.1079280  74.9297180  32.5950590  23.0246530  70.7040260  32.5563730
  23.0264970  71.2212650  31.7509630  22.1950840  70.2270440  32.5333660
  29.4117620  80.8159570  24.0553630  28.7934890  81.2809020  23.4916350
  29.9240870  81.5087050  24.4723140  24.2749380  80.3435440  30.7337230
  23.9418760  80.9704360  31.3758300  24.4516060  80.8697320  29.9538900
  32.7883290  74.1580520  28.2013570  32.0838860  74.4465410  28.7816680
  33.1495450  74.9680630  27.8413130  22.7061860  72.4150220  30.5634180
  23.0478670  73.2592270  30.2688050  21.7677670  72.5633960  30.6799520
  23.4868480  82.3116240  32.5486410  24.1042480  82.9867320  32.2670860
  22.6261600  82.7204220  32.4573910  18.7800820  81.5016100  21.4293260
  18.4028800  81.9903200  20.6978160  19.0373890  82.1741380  22.0599790
  34.4046070  83.7755650  30.4641050  33.7209590  84.4454760  30.4557720
  34.9440360  83.9736300  29.6985910  35.8570210  73.6035310  28.5922780
  34.9095120  73.6374290  28.7238210  36.1820200  74.4174260  28.9772140
  26.3889750  69.9032490  26.8878770  26.6964730  69.3479380  26.1714270
  25.4590450  70.0376950  26.7051760  31.9404810  85.6199780  29.1786230
  31.9531970  85.2162070  28.3108490  31.3880030  86.3947070  29.0747660
  33.2350230  82.3416000  24.2676400  33.1246560  81.3990330  24.3925820
  33.2318480  82.7031640  25.1539160  31.3390250  80.5229620  30.5068840
  31.7559040  80.3089730  29.6722300  32.0630070  80.7802410  31.0777460
  28.7770510  77.9681320  23.6238890  27.8499790  77.9018700  23.8527360
  28.9295330  78.9061450  23.5094130  28.7639590  74.2398320  20.6206050
  27.8243260  74.4012280  20.7058510  29.0822850  74.9584000  20.0742040
  35.2852350  78.9216840  30.5985080  34.4570980  78.9909930  30.1235210
  35.8802830  79.5071150  30.1300910  32.8067800  79.5301620  24.1274140
  32.1880220  79.1921170  23.4800440  32.7892250  78.8861380  24.8353330
  32.2494360  75.7086160  31.5439950  31.8365540  76.5339870  31.7979940
  31.5170310  75.1231200  31.3516310  24.3827150  78.4946060  26.4058620
  23.9784150  77.7823310  25.9104520  24.4690270  78.1499300  27.2946660
  24.8508850  82.1813620  28.5697830  24.5537140  81.5759090  27.8905610
  25.8008670  82.2190930  28.4587190  23.0955770  75.2689270  30.1857660
  23.6470360  75.3784610  29.4110910  23.6099280  75.6426870  30.9012890
  32.9394460  85.7545490  32.2320930  32.4625020  86.5617680  32.0393540
  32.2556250  85.1023820  32.3847140  23.9427280  81.9195310  35.2205630
  23.0455810  82.1435280  35.4679030  23.9680150  82.0430250  34.2717030
  30.9832500  78.7688430  21.1346890  31.4225780  77.9310860  20.9884710
  31.6960920  79.4017830  21.2211030  22.7698500  78.7908630  33.7963000
  22.6306270  79.6631430  34.1650400  21.8879860  78.4481440  33.6510940
  29.0927880  83.7084500  25.1028130  29.5323790  84.4508830  24.6883520
  29.0314770  83.9511070  26.0267090  24.5678850  84.7330330  36.0048150
  24.5394280  85.1373280  35.1376580  24.4043820  83.8040690  35.8419750
  34.5649640  70.0231240  19.4487930  34.2522300  70.1158070  20.3487000
  35.3262110  70.6012270  19.3985360  21.0831780  77.3891040  23.9065270
  20.9629380  78.1153130  23.2946540  20.7732670  76.6193950  23.4293180
  36.5193670  85.5157430  37.3012320  36.9953390  85.9940320  37.9801400
  37.1400830  85.4474920  36.5757820  18.7217150  80.5606180  29.7133910
  18.7997570  80.6954950  28.7689630  19.3358830  79.8522070  29.9062030
  19.9664780  82.2606370  26.1240090  19.5592860  82.4020960  25.2693690
  20.8577790  81.9766530  25.9211300  35.9226920  82.7070280  34.4612330
  36.0489980  82.4682160  33.5429510  35.9648300  81.8754820  34.9334410
  29.7843660  86.4098280  33.0307140  30.2988330  86.3206290  33.8329570
  28.9412740  86.7557980  33.3235050  31.7598060  86.6953620  22.4591140
  31.5999200  86.4056560  23.3572970  31.5944770  85.9193750  21.9236370
  24.2386440  86.4752150  24.2362760  24.0628920  85.5587690  24.0230560
  23.3842180  86.8339440  24.4760560  31.4624190  84.2041180  21.0189140
  30.7689350  84.2018470  20.3591420  32.2047050  83.7800500  20.5883310
  31.0274120  85.8303890  25.0937630  31.4831070  85.0493270  25.4076250
  31.3666640  86.5410710  25.6378810  35.7750930  74.7602740  35.4262070
  35.1595200  75.2682410  34.8977530  35.4547350  73.8601070  35.3688010
  18.7776670  81.6020350  32.2528370  18.9407710  81.1325710  31.4347740
  19.2429120  81.0943910  32.9177210  23.5495440  70.7326110  27.2888940
  23.1063590  71.5135650  26.9573460  24.1080430  71.0556000  27.9959880
  27.8365250  73.5994630  32.8924260  27.3744620  73.8077650  33.7044200
  27.4343360  72.7853980  32.5894930  32.8369760  74.8203580  34.0220920
  31.9863350  74.5209330  34.3429990  32.6771550  75.0645590  33.1104740
  29.9319470  76.3205330  36.1219710  30.2572880  75.4869080  35.7821940
  30.7199800  76.8433850  36.2698040  26.6654260  70.3536810  22.1694770
  26.0408440  70.3496680  22.8948080  26.5784380  69.4867770  21.7730740
  25.5871340  71.2773440  29.1478540  25.8843670  72.1836270  29.0670560
  26.1356900  70.7892220  28.5338110  23.3409660  75.8559680  25.0170190
  23.1150580  75.6396850  25.9216810  22.5602190  76.2888140  24.6716160
  30.5707420  75.8623050  23.6160840  29.9716310  76.5858850  23.4324460
  31.1187030  75.7999830  22.8337290  25.7808870  76.7545260  35.6830460
  25.6852470  75.8139990  35.5330860  26.6240850  76.9760330  35.2878530
  29.1772290  74.4986590  25.6464120  29.5701860  74.8158790  24.8332810
  29.5389140  73.6198470  25.7608640  20.9119410  73.1658930  33.8364240
  20.5182800  74.0134140  34.0437020  20.2237810  72.5285300  34.0272880
  27.4864460  73.2493900  36.9060980  26.7962780  73.0566100  37.5407070
  28.2296760  73.5328540  37.4385280  18.2136460  71.0887390  27.8694320
  17.9249510  71.6590250  28.5819300  18.9582220  70.6091840  28.2325550
  18.4006690  75.0307510  19.0797040  18.3181360  75.9738270  19.2212030
  18.0489750  74.8882420  18.2009390  29.7627430  77.0892340  29.7414900
  29.0308550  77.5979150  30.0905000  29.3651770  76.2722320  29.4403680
  26.2004820  73.7646540  28.1467390  26.2040880  73.3236490  27.2971930
  27.0955940  74.0863870  28.2539210  22.0507200  73.6473030  27.1061600
  21.7107250  74.1248260  27.8628650  21.2884520  73.1938150  26.7462700
  26.2624970  74.7658620  21.1374150  26.3837790  74.7245100  22.0859970
  25.8773480  75.6282770  20.9820880  30.2253340  72.5426020  29.1537840
  30.2426080  72.9934670  29.9979690  29.9768920  71.6431660  29.3671280
  25.2746470  77.0759760  20.5357450  24.7063370  76.6278010  19.9093360
  25.9835470  77.4352540  20.0022600  20.3515650  80.9771780  34.4124180
  19.9670440  80.3365450  35.0107140  20.6627840  81.6807900  34.9818910
  26.5012790  77.8248320  29.8932800  26.8682920  77.3506890  30.6394140
  26.3117850  78.6989890  30.2341140  19.3653280  72.5692010  26.0226270
  19.0800200  72.2047680  26.8604890  19.3032140  71.8372470  25.4089410
  24.2912160  76.8656960  32.2117010  23.9869230  77.7448940  32.4367370
  25.2458620  76.9256750  32.2474450  22.8193950  81.0717950  22.8083860
  22.0456210  80.5315570  22.6482580  23.5488580  80.5524560  22.4701620
  33.5781930  80.0683310  28.6010250  34.2981050  80.5638600  28.2106360
  33.3763750  79.3901200  27.9564120  29.0391870  71.4621270  22.7439640
  28.2256480  70.9634440  22.6684950  28.8453820  72.3019520  22.3275990
  28.9600730  80.1392370  34.4879250  28.8938040  79.2188040  34.2336840
  28.3305870  80.2367810  35.2023890  31.7540260  75.8340920  21.0401800
  32.6419880  76.1458150  20.8653140  31.7245350  74.9613170  20.6482380
  22.8631350  80.7398330  26.4462670  23.3810020  79.9366590  26.3919560
  22.4115370  80.6777470  27.2879500  27.7500850  82.0064610  21.7189970
  28.0916550  82.7506840  21.2233290  26.9213560  82.3195730  22.0814800
  20.3475890  77.7059700  33.3588370  19.9890830  78.3713550  33.9461710
  20.0530450  76.8743250  33.7300990  23.5489010  78.1643940  36.2427920
  23.2489150  78.3101120  35.3455740  24.3200250  77.6049230  36.1501310
  28.8917460  82.9612940  34.2383050  28.9062000  82.0293900  34.0201960
  28.1842560  83.0472700  34.8772820  34.0254530  77.1452760  20.5081660
  33.9418250  77.5766980  19.6578100  34.7448720  77.6051110  20.9408480
  35.1028670  79.6020280  33.5851630  34.3776860  80.1949060  33.3881020
  35.6304130  79.5943820  32.7865000  35.0541780  83.9995020  23.2363790
  34.4117940  83.3450640  23.5107510  34.6672440  84.4050110  22.4604460
  30.6328260  81.3280450  27.0835480  30.9852080  80.7308580  26.4236850
  29.7490590  81.0024680  27.2543730  26.7191540  82.0878140  24.4905890
  27.4062670  82.6347350  24.8713480  25.9323960  82.6318870  24.5255500
  18.8583940  77.7050960  19.9822970  19.7278790  77.9875760  20.2658890
  18.3674260  78.5186830  19.8671780  26.0218750  79.0924170  24.1031250
  26.4781530  79.9029420  24.3291440  25.6706960  78.7747310  24.9349740
  28.3251360  84.6030510  31.3323550  28.9693580  84.8089890  32.0096970
  28.6880800  83.8418910  30.8794400  21.9230530  69.4361820  24.5753770
  21.7945160  69.4279720  25.5238690  21.0992550  69.7744910  24.2244780
  29.5983440  82.6062860  30.0501000  30.2405670  81.9056020  30.1633170
  30.1232790  83.3861300  29.8697890  33.4439160  82.8911480  19.7740140
  33.2176740  82.1741920  20.3664780  33.0535360  82.6423920  18.9361890
  31.3721060  83.4057760  33.2537060  31.7077300  83.9924450  33.9314980
  30.4521400  83.2750470  33.4834850  19.2255190  86.9178340  20.5484600
  19.5852830  87.5167680  19.8941870  19.0847530  87.4638230  21.3219630
  18.9224460  71.1952940  34.0360470  18.2082980  71.3949860  34.6413080
  19.3419500  70.4192510  34.4075270  33.0255410  80.8083420  21.4354300
  32.7377110  81.2696110  22.2232180  33.8207580  80.3481190  21.7038520
  19.2097050  85.1833200  35.0227000  19.3188170  84.2427940  34.8822390
  18.5577610  85.4487950  34.3740730  27.2009640  83.4549090  36.4225120
  26.8806510  82.7358330  36.9670810  26.5268000  84.1304160  36.4961180
  25.2423810  84.3009540  21.3658270  25.2333910  85.0339230  20.7502780
  24.3222170  84.0541120  21.4585230  20.8430450  79.5224430  22.1105030
  20.2358400  80.2623330  22.1200330  21.3179800  79.6123790  21.2843230
  30.4163240  73.6875250  31.7861920  30.7844060  72.8670460  32.1141490
  29.5561440  73.7477140  32.2017570  33.7825270  72.6432190  22.5949480
  33.1538430  72.7477860  21.8807710  33.2877190  72.8628970  23.3843360
  28.2283410  84.3637780  20.0283460  28.3295390  84.1601770  19.0985440
  27.3285150  84.1096060  20.2331240  25.7509300  74.9218140  24.0107360
  25.0425450  75.3904480  24.4520970  26.0353780  74.2640150  24.6452550
  27.3765230  76.3414840  32.0099890  27.8750480  76.8160660  32.6751740
  27.5188180  75.4178360  32.2169920  29.7824730  71.6468800  25.4503150
  29.6592510  71.6654930  24.5012660  30.7309290  71.6947740  25.5701550
  26.8701520  86.8824100  24.7231130  27.1243020  86.8445490  23.8010500
  25.9214000  86.7557430  24.7159380  23.9544320  73.2303220  21.3858070
  24.8034850  73.6673370  21.3198260  23.5875590  73.5423480  22.2130130
  34.5832090  72.5582800  32.8528280  34.0805690  73.2988200  33.1922090
  35.3988750  72.9466800  32.5365070  32.8754100  77.8015980  26.2989640
  31.9344240  77.8166210  26.4737330  33.1898170  77.0151940  26.7449940
  22.8535740  79.4835580  19.8593600  23.6199010  79.3716940  20.4219030
  22.9310430  78.7873550  19.2070370  21.5482500  76.9160650  20.5426490
  21.6286090  75.9688160  20.6543890  22.4402250  77.2467530  20.6487150
  34.8779680  84.9724830  27.9743900  35.0027100  85.7956000  28.4467710
  35.7445240  84.7615560  27.6268050  22.3497210  87.0656040  27.6461030
  23.0859690  86.5171500  27.9169600  22.7338130  87.9312050  27.5067020
  19.2342690  83.1329610  23.5202540  18.3082470  83.3750750  23.5107950
  19.6999120  83.9603870  23.3987290  21.3555490  86.2502110  36.8346610
  22.1568220  86.5714160  37.2482010  20.8407310  85.8897690  37.5566520
  25.4599520  86.2386350  19.4686600  26.2528130  86.5275180  19.0168390
  24.9403870  85.8078520  18.7899080  30.1920120  82.3581980  36.7822020
  29.5858280  82.3813580  36.0417770  29.8874230  81.6265020  37.3189270
  31.6220490  86.0862270  35.3931430  32.5742240  86.0020290  35.3431670
  31.4748710  86.7503980  36.0665220  34.5129690  85.4656480  20.8923340
  34.2271200  85.0521620  20.0777520  34.3149240  86.3944190  20.7723860
  19.0753300  78.7375570  35.7782660  19.5792320  78.1582850  36.3498890
  18.3360720  79.0215800  36.3159030  25.9776920  81.4589760  19.3328950
  25.8727560  80.8442110  20.0590330  25.8101140  80.9355650  18.5491960
  26.1291240  80.1446560  35.3118180  25.3636910  80.7131560  35.2272850
  26.3107200  79.8522770  34.4186410  29.2179650  80.5209790  19.9370940
  28.6689750  80.9679090  20.5813680  29.8398910  80.0159040  20.4608610
  33.2714590  81.8751890  35.8693200  34.0124060  82.2127650  35.3660660
  32.5087270  82.0443950  35.3162970  21.1076380  76.8805160  36.6732730
  21.1481720  76.5819030  37.5817960  21.9621880  77.2812770  36.5140250
  24.8854770  79.4800710  21.8336240  25.3071190  79.3140580  22.6767630
  25.0105610  78.6700940  21.3391380  23.0482190  75.4597260  34.6407220
  22.5178650  74.9688210  34.0130560  23.7170260  75.8881460  34.1065150
  27.3982410  78.5038320  19.0813340  27.9188070  77.7887340  18.7154490
  28.0450810  79.1424190  19.3813850  31.9460250  79.9266720  34.4048410
  32.3601270  80.0811800  35.2538830  31.0111250  80.0521940  34.5674190
  32.4182420  77.2662880  36.4087560  33.0003190  76.5115200  36.3208040
  32.5944190  77.7970320  35.6319040  23.5354490  72.4259630  34.7204510
  23.4411360  71.8080380  33.9955380  22.9551880  73.1525920  34.4934420
  26.3015930  70.9832870  31.7531900  25.8533230  71.0057130  30.9077450
  25.6681130  70.5851890  32.3502200  26.7075480  79.8787200  32.3744340
  27.1263590  80.7219930  32.2020580  25.7884110  80.0159240  32.1451120
  29.0439380  77.6103380  33.7582180  29.1635590  77.0144520  34.4977020
  29.9033380  77.6473070  33.3383480  31.3827280  78.1640570  32.3344690
  30.8562500  78.6883190  31.7309830  31.7258620  78.7967960  32.9654420
  23.7813670  75.5533940  18.7794400  23.5802730  74.6901300  19.1407740
  23.6105720  75.4667300  17.8416000  24.5582900  86.1840210  33.4902070
  24.0203990  86.9086270  33.1710770  24.8116860  85.7070550  32.6999410
  25.8108150  74.1524730  35.0158000  26.4007840  73.8440580  35.7035820
  24.9928390  73.6804480  35.1717900  30.6301580  73.7690540  35.2491020
  29.9417100  73.1072080  35.1841010  31.3507600  73.3228810  35.6939480
  31.2601980  70.3642170  21.3081280  31.5404270  69.5210070  21.6640700
  30.4867710  70.5965280  21.8220030  22.5796470  72.6534560  18.7672280
  22.8822370  72.6601990  17.8591430  23.3191060  72.3032420  19.2639940
  27.4145110  87.4191420  33.7488720  27.3403810  88.3226560  34.0561090
  26.5123950  87.1003320  33.7210790  25.7981400  71.5969180  19.7528480
  25.4503400  70.9193170  19.1730930  25.9994170  71.1358690  20.5671870
  27.9630440  86.5849930  21.3715080  28.8581230  86.9234900  21.3933840
  27.9948070  85.8629340  20.7439360  21.6026600  81.9576980  19.6002080
  22.0401470  82.5006650  20.2559660  22.0874330  81.1323930  19.6098420
  18.8172400  84.7466010  27.0522340  19.1475410  83.8787070  26.8200980
  19.2463400  84.9524530  27.8827300  23.4134320  83.0775020  24.7124310
  23.1129860  82.9539990  25.6128220  23.3071810  82.2183610  24.3040040
  19.3062610  85.6136600  29.7903970  18.8693600  85.7937400  30.6228120
  19.8740290  86.3711220  29.6485690  34.9424790  85.1153600  34.0781280
  34.3426780  85.1746160  33.3345200  35.0718690  84.1758580  34.2078130
  36.1826240  82.8571420  19.4150990  35.3519200  82.9248070  19.8858220
  36.3598070  83.7475540  19.1117850  35.6382700  79.6018900  21.9185190
  36.4001610  80.1715550  22.0244880  35.6537070  79.0346100  22.6893500
  19.1387040  78.1256830  26.1492850  18.4835880  77.8568470  25.5052550
  19.9764990  78.0161310  25.6994830  36.6442670  80.4569000  26.7627120
  37.0151500  79.6736320  26.3563090  37.2844600  81.1458100  26.5844420
  33.6276430  81.8405580  32.1757440  32.8136270  82.2702740  32.4383230
  34.0350630  82.4523990  31.5626490  35.6901870  79.8953270  19.0757710
  35.9650710  80.8032150  18.9476930  35.5012610  79.8315800  20.0119700
  32.0877480  72.9198120  20.3711340  32.5062360  72.7329100  19.5308000
  31.7813540  72.0677170  20.6814270  35.5867210  77.8322260  24.0687140
  35.2110810  77.0650190  23.6368430  34.8570330  78.2144960  24.5562070
  20.1762970  78.5109400  30.6896190  20.5436010  78.4236800  31.5692210
  19.6073790  77.7475950  30.5903050  34.9766830  76.9793780  33.7026660
  34.7452920  76.7506530  32.8024610  35.2371380  77.8993330  33.6571550
  19.7278970  75.4218490  34.5954610  18.8335020  75.3885250  34.9348320
  20.2676520  75.6205280  35.3605860  33.4154900  72.2050210  36.4806360
  34.2925080  72.2133610  36.8640360  33.4275740  71.4681050  35.8698710
  18.3525120  75.3355760  22.0918180  17.4489200  75.5985960  21.9169840
  18.8365740  75.6066930  21.3118140  34.8618170  76.0579750  27.3694380
  35.3855650  75.5642400  26.7384550  35.4477590  76.1930110  28.1141950
  35.0407890  76.1419620  30.8913930  34.0910600  76.1083160  31.0058920
  35.2220900  77.0519730  30.6563700  20.8952330  74.3921300  20.0012560
  21.6044030  73.9704520  19.5159840  20.1792270  74.4596530  19.3695910
  20.5426490  70.4460630  19.0415210  21.2654620  70.9869570  19.3596430
  20.8151010  70.1724050  18.1656750  34.3518140  75.3153100  23.3086790
  34.8477260  75.0823970  24.0935670  34.1534210  74.4764940  22.8924430
  20.2318680  69.6966820  28.9437830  20.8794870  69.1464200  28.5032990
  20.6520520  69.9509970  29.7653640  35.7805300  73.9514050  25.8424470
  35.6704580  73.7970090  26.7806740  36.5412890  73.4234990  25.5999880
  36.6695570  71.7821970  19.0830610  37.5944880  71.6503150  18.8748900
  36.6471360  71.8614790  20.0367060  36.7434060  72.5532630  21.7087320
  35.9485560  72.4877750  22.2380230  36.9477340  73.4883270  21.6972670
  33.6852480  86.5924180  25.7025710  34.2811550  86.2708750  25.0260130
  33.9430630  86.1196000  26.4938980  19.9850680  69.8522490  31.6863150
  19.6365500  70.3086310  32.4521330  19.6538380  68.9579620  31.7685580
  21.5915050  83.0242090  35.8516340  21.5484680  82.6535000  36.7330800
  21.7226060  83.9619660  35.9918160  25.2921080  84.5801680  31.4526060
  25.0512440  84.8476240  30.5656580  26.2323720  84.7507410  31.5076920
  27.4975500  71.0434370  35.2082570  27.4364390  71.6356200  35.9577980
  28.4375880  70.9360330  35.0632830  30.1350060  70.7004430  34.8474860
  30.7490470  71.0183720  34.1855940  30.6799620  70.2153020  35.4670720
  36.5525240  86.5996060  32.2536700  36.0583520  86.9964930  31.5363830
  35.9438530  85.9745270  32.6473980  20.6571320  69.3798690  34.9613920
  21.2054310  69.1986740  34.1980030  20.7226630  68.5892800  35.4970230
  21.4303080  85.9704340  32.9714120  20.8363400  85.8389040  33.7104160
  21.4226920  85.1342480  32.5056220  30.8758100  69.2636570  31.1744150
  30.0017940  69.5971680  30.9717080  30.7668850  68.7909750  31.9996020
  31.7830080  71.4707440  32.5585870  31.4543440  70.6559200  32.1787600
  32.7312380  71.4277250  32.4351560  34.2364690  87.2419480  29.5323440
  33.7767660  87.9935290  29.1581460  33.6077150  86.5225950  29.4738240
  21.0615310  83.3362720  31.9222160  20.3349370  82.7168010  31.8548110
  21.1224460  83.7303330  31.0520240  24.6660410  85.5507720  28.7071570
  25.1825430  84.9395080  28.1819830  25.3157790  86.0536500  29.1982580
  27.4055910  86.4416210  29.5340550  27.6933720  86.1870510  28.6573560
  27.9179130  85.8893570  30.1246120  28.6232920  70.1806410  30.1137060
  27.8404710  70.6551910  30.3933820  28.3295850  69.2761240  30.0050240
  33.1753990  70.8829510  28.1586150  33.6162080  70.8274610  27.3107750
  32.9061580  71.7987520  28.2296330  19.3445310  86.6537110  25.1318920
  19.1767350  86.0207790  25.8300810  18.4779820  86.8596510  24.7813110
  19.9673330  70.4853890  22.6350780  20.7252690  70.5982770  22.0614810
  19.5050500  71.3223090  22.5894210  26.5087140  72.5993160  25.6253090
  25.6961650  72.2250050  25.2848970  27.0128780  71.8438240  25.9274280
  31.0112120  69.2635610  26.8636160  31.6141490  69.8355820  27.3384680
  30.2705110  69.8275050  26.6410060  34.1546720  69.6657170  22.1376440
  34.3497350  70.5640620  22.4043870  33.3676590  69.4344250  22.6309390
  20.9508010  85.3470340  22.5769060  20.4255630  85.7278370  21.8731020
  20.8752590  85.9721110  23.2978770  22.3398480  71.0117940  21.1752750
  22.8691240  70.2247740  21.0460700  22.9726800  71.6909130  21.4088280
  24.5336320  70.7493080  24.2298140  23.9039060  70.0480390  24.3968270
  23.9941460  71.5097210  24.0131300  27.4728270  87.3632310  36.9008750
  28.3995580  87.1276580  36.9444710  27.4578700  88.1904310  36.4194780
  35.7073330  86.9057880  23.8983000  35.8825520  86.2195620  23.2543920
  35.0094900  87.4304930  23.5059670  24.6591880  70.0277060  36.6650630
  24.3776150  70.5310660  35.9011450  25.0411580  69.2298810  36.2992760
  23.5500980  87.2952720  21.4518310  24.2819800  87.0112000  20.9042200
  23.8094650  87.0566000  22.3417690  22.7115770  83.4117450  21.4564640
  22.0824650  83.8802550  22.0050470  22.8263600  82.5666670  21.8910830
  31.2607340  69.4430640  37.2431100  31.1472790  69.7625250  38.1382620
  32.0777080  69.8443150  36.9468380  34.0405830  86.5902170  36.7249790
  34.8331150  86.0951400  36.5175750  34.3338980  87.2692310  37.3325400
  30.1665490  77.4623110   7.6065840  30.0859540  76.5477720   7.3357550
  29.7529910  77.9590180   6.9005550  28.2983530  79.2402130   9.4875110
  27.5225630  78.7602570   9.7773680  28.9496460  78.5607780   9.3131270
  22.3149360  79.5521940  10.3650870  21.4834240  79.2970650  10.7647380
  22.9230340  79.6232710  11.1008790  32.3190960  83.6462320   8.2674240
  31.8572490  82.8749560   8.5961410  33.1316510  83.6728390   8.7726690
  22.2950620  83.5862030  10.5608890  22.5978660  82.6959770  10.3819110
  23.0394210  84.1432250  10.3331140  20.7241310  74.5123830   4.1493260
  19.8358010  74.8539800   4.0473140  21.0082500  74.3124150   3.2574090
  18.6874320  77.1129480  10.0332960  19.2590430  76.3451680  10.0336600
  18.6875860  77.4118240   9.1239570  28.5454270  85.9320330   7.8878230
  27.9265710  86.3877830   7.3172670  29.4006050  86.0871790   7.4867930
  27.7392520  81.9159320   9.4945270  27.6700800  80.9749260   9.3334400
  28.5012380  82.0060730  10.0667840  19.9299190  72.5213840  11.8201890
  19.7502030  71.6239590  12.1004650  19.5279270  73.0685710  12.4948840
  28.7697690  74.7229700   9.7214200  29.1462510  73.8501580   9.6087870
  28.6717200  75.0588400   8.8304640  22.9002700  73.0955330   5.1831640
  23.0069450  73.9959060   5.4900400  21.9895060  73.0473300   4.8926290
  32.5521810  72.2180140   6.6542540  33.3731430  71.7276710   6.6968020
  32.5855890  72.8077800   7.4074380  20.5485860  75.0174340  10.4284230
  21.2295970  75.2812710  11.0471630  20.2333910  74.1775210  10.7622240
  24.7410430  76.0641700   9.5156820  25.2488650  76.5622670  10.1561840
  25.2723670  75.2876900   9.3396180  36.8421360  74.2346890  13.2186170
  36.1373530  74.6228600  12.7001280  37.1079280  74.9297180  13.8207100
  23.0246530  70.7040260  13.7820240  23.0264970  71.2212650  12.9766140
  22.1950840  70.2270440  13.7590170  29.4117620  80.8159570   5.2810140
  28.7934890  81.2809020   4.7172860  29.9240870  81.5087050   5.6979650
  24.2749380  80.3435440  11.9593740  23.9418760  80.9704360  12.6014810
  24.4516060  80.8697320  11.1795410  32.7883290  74.1580520   9.4270080
  32.0838860  74.4465410  10.0073190  33.1495450  74.9680630   9.0669640
  22.7061860  72.4150220  11.7890690  23.0478670  73.2592270  11.4944560
  21.7677670  72.5633960  11.9056030  23.4868480  82.3116240  13.7742920
  24.1042480  82.9867320  13.4927370  22.6261600  82.7204220  13.6830420
  18.7800820  81.5016100   2.6549770  18.4028800  81.9903200   1.9234670
  19.0373890  82.1741380   3.2856300  34.4046070  83.7755650  11.6897560
  33.7209590  84.4454760  11.6814230  34.9440360  83.9736300  10.9242420
  35.8570210  73.6035310   9.8179290  34.9095120  73.6374290   9.9494720
  36.1820200  74.4174260  10.2028650  26.3889750  69.9032490   8.1135280
  26.6964730  69.3479380   7.3970780  25.4590450  70.0376950   7.9308270
  31.9404810  85.6199780  10.4042740  31.9531970  85.2162070   9.5365000
  31.3880030  86.3947070  10.3004170  33.2350230  82.3416000   5.4932910
  33.1246560  81.3990330   5.6182330  33.2318480  82.7031640   6.3795670
  31.3390250  80.5229620  11.7325350  31.7559040  80.3089730  10.8978810
  32.0630070  80.7802410  12.3033970  28.7770510  77.9681320   4.8495400
  27.8499790  77.9018700   5.0783870  28.9295330  78.9061450   4.7350640
  35.2852350  78.9216840  11.8241590  34.4570980  78.9909930  11.3491720
  35.8802830  79.5071150  11.3557420  32.8067800  79.5301620   5.3530650
  32.1880220  79.1921170   4.7056950  32.7892250  78.8861380   6.0609840
  32.2494360  75.7086160  12.7696460  31.8365540  76.5339870  13.0236450
  31.5170310  75.1231200  12.5772820  24.3827150  78.4946060   7.6315130
  23.9784150  77.7823310   7.1361030  24.4690270  78.1499300   8.5203170
  24.8508850  82.1813620   9.7954340  24.5537140  81.5759090   9.1162120
  25.8008670  82.2190930   9.6843700  23.0955770  75.2689270  11.4114170
  23.6470360  75.3784610  10.6367420  23.6099280  75.6426870  12.1269400
  32.9394460  85.7545490  13.4577440  32.4625020  86.5617680  13.2650050
  32.2556250  85.1023820  13.6103650  23.9427280  81.9195310  16.4462140
  23.0455810  82.1435280  16.6935540  23.9680150  82.0430250  15.4973540
  30.9832500  78.7688430   2.3603400  31.4225780  77.9310860   2.2141220
  31.6960920  79.4017830   2.4467540  22.7698500  78.7908630  15.0219510
  22.6306270  79.6631430  15.3906910  21.8879860  78.4481440  14.8767450
  29.0927880  83.7084500   6.3284640  29.5323790  84.4508830   5.9140030
  29.0314770  83.9511070   7.2523600  24.5678850  84.7330330  17.2304660
  24.5394280  85.1373280  16.3633090  24.4043820  83.8040690  17.0676260
  21.0831780  77.3891040   5.1321780  20.9629380  78.1153130   4.5203050
  20.7732670  76.6193950   4.6549690  36.5193670  85.5157430  18.5268830
  36.9953390  85.9940320  19.2057910  37.1400830  85.4474920  17.8014330
  18.7217150  80.5606180  10.9390420  18.7997570  80.6954950   9.9946140
  19.3358830  79.8522070  11.1318540  19.9664780  82.2606370   7.3496600
  19.5592860  82.4020960   6.4950200  20.8577790  81.9766530   7.1467810
  35.9226920  82.7070280  15.6868840  36.0489980  82.4682160  14.7686020
  35.9648300  81.8754820  16.1590920  29.7843660  86.4098280  14.2563650
  30.2988330  86.3206290  15.0586080  28.9412740  86.7557980  14.5491560
  31.7598060  86.6953620   3.6847650  31.5999200  86.4056560   4.5829480
  31.5944770  85.9193750   3.1492880  24.2386440  86.4752150   5.4619270
  24.0628920  85.5587690   5.2487070  23.3842180  86.8339440   5.7017070
  31.0274120  85.8303890   6.3194140  31.4831070  85.0493270   6.6332760
  31.3666640  86.5410710   6.8635320  35.7750930  74.7602740  16.6518580
  35.1595200  75.2682410  16.1234040  35.4547350  73.8601070  16.5944520
  18.7776670  81.6020350  13.4784880  18.9407710  81.1325710  12.6604250
  19.2429120  81.0943910  14.1433720  23.5495440  70.7326110   8.5145450
  23.1063590  71.5135650   8.1829970  24.1080430  71.0556000   9.2216390
  27.8365250  73.5994630  14.1180770  27.3744620  73.8077650  14.9300710
  27.4343360  72.7853980  13.8151440  32.8369760  74.8203580  15.2477430
  31.9863350  74.5209330  15.5686500  32.6771550  75.0645590  14.3361250
  29.9319470  76.3205330  17.3476220  30.2572880  75.4869080  17.0078450
  30.7199800  76.8433850  17.4954550  26.6654260  70.3536810   3.3951280
  26.0408440  70.3496680   4.1204590  26.5784380  69.4867770   2.9987250
  25.5871340  71.2773440  10.3735050  25.8843670  72.1836270  10.2927070
  26.1356900  70.7892220   9.7594620  23.3409660  75.8559680   6.2426700
  23.1150580  75.6396850   7.1473320  22.5602190  76.2888140   5.8972670
  30.5707420  75.8623050   4.8417350  29.9716310  76.5858850   4.6580970
  31.1187030  75.7999830   4.0593800  25.7808870  76.7545260  16.9086970
  25.6852470  75.8139990  16.7587370  26.6240850  76.9760330  16.5135040
  29.1772290  74.4986590   6.8720630  29.5701860  74.8158790   6.0589320
  29.5389140  73.6198470   6.9865150  20.9119410  73.1658930  15.0620750
  20.5182800  74.0134140  15.2693530  20.2237810  72.5285300  15.2529390
  27.4864460  73.2493900  18.1317490  26.7962780  73.0566100  18.7663580
  28.2296760  73.5328540  18.6641790  18.2136460  71.0887390   9.0950830
  17.9249510  71.6590250   9.8075810  18.9582220  70.6091840   9.4582060
  29.7627430  77.0892340  10.9671410  29.0308550  77.5979150  11.3161510
  29.3651770  76.2722320  10.6660190  26.2004820  73.7646540   9.3723900
  26.2040880  73.3236490   8.5228440  27.0955940  74.0863870   9.4795720
  22.0507200  73.6473030   8.3318110  21.7107250  74.1248260   9.0885160
  21.2884520  73.1938150   7.9719210  26.2624970  74.7658620   2.3630660
  26.3837790  74.7245100   3.3116480  25.8773480  75.6282770   2.2077390
  30.2253340  72.5426020  10.3794350  30.2426080  72.9934670  11.2236200
  29.9768920  71.6431660  10.5927790  33.6524090  69.9558200  16.2180730
  33.9769860  69.2247860  16.7438710  33.6880600  69.6371840  15.3161720
  20.3515650  80.9771780  15.6380690  19.9670440  80.3365450  16.2363650
  20.6627840  81.6807900  16.2075420  26.5012790  77.8248320  11.1189310
  26.8682920  77.3506890  11.8650650  26.3117850  78.6989890  11.4597650
  19.3653280  72.5692010   7.2482780  19.0800200  72.2047680   8.0861400
  19.3032140  71.8372470   6.6345920  24.2912160  76.8656960  13.4373520
  23.9869230  77.7448940  13.6623880  25.2458620  76.9256750  13.4730960
  22.8193950  81.0717950   4.0340370  22.0456210  80.5315570   3.8739090
  23.5488580  80.5524560   3.6958130  33.5781930  80.0683310   9.8266760
  34.2981050  80.5638600   9.4362870  33.3763750  79.3901200   9.1820630
  29.0391870  71.4621270   3.9696150  28.2256480  70.9634440   3.8941460
  28.8453820  72.3019520   3.5532500  28.9600730  80.1392370  15.7135760
  28.8938040  79.2188040  15.4593350  28.3305870  80.2367810  16.4280400
  31.7540260  75.8340920   2.2658310  32.6419880  76.1458150   2.0909650
  31.7245350  74.9613170   1.8738890  22.8631350  80.7398330   7.6719180
  23.3810020  79.9366590   7.6176070  22.4115370  80.6777470   8.5136010
  27.7500850  82.0064610   2.9446480  28.0916550  82.7506840   2.4489800
  26.9213560  82.3195730   3.3071310  20.3475890  77.7059700  14.5844880
  19.9890830  78.3713550  15.1718220  20.0530450  76.8743250  14.9557500
  23.5489010  78.1643940  17.4684430  23.2489150  78.3101120  16.5712250
  24.3200250  77.6049230  17.3757820  28.8917460  82.9612940  15.4639560
  28.9062000  82.0293900  15.2458470  28.1842560  83.0472700  16.1029330
  35.1028670  79.6020280  14.8108140  34.3776860  80.1949060  14.6137530
  35.6304130  79.5943820  14.0121510  35.0541780  83.9995020   4.4620300
  34.4117940  83.3450640   4.7364020  34.6672440  84.4050110   3.6860970
  30.6328260  81.3280450   8.3091990  30.9852080  80.7308580   7.6493360
  29.7490590  81.0024680   8.4800240  26.7191540  82.0878140   5.7162400
  27.4062670  82.6347350   6.0969990  25.9323960  82.6318870   5.7512010
  26.0218750  79.0924170   5.3287760  26.4781530  79.9029420   5.5547950
  25.6706960  78.7747310   6.1606250  28.3251360  84.6030510  12.5580060
  28.9693580  84.8089890  13.2353480  28.6880800  83.8418910  12.1050910
  21.9230530  69.4361820   5.8010280  21.7945160  69.4279720   6.7495200
  21.0992550  69.7744910   5.4501290  29.5983440  82.6062860  11.2757510
  30.2405670  81.9056020  11.3889680  30.1232790  83.3861300  11.0954400
  31.3721060  83.4057760  14.4793570  31.7077300  83.9924450  15.1571490
  30.4521400  83.2750470  14.7091360  18.9224460  71.1952940  15.2616980
  18.2082980  71.3949860  15.8669590  19.3419500  70.4192510  15.6331780
  33.0255410  80.8083420   2.6610810  32.7377110  81.2696110   3.4488690
  33.8207580  80.3481190   2.9295030  19.2097050  85.1833200  16.2483510
  19.3188170  84.2427940  16.1078900  18.5577610  85.4487950  15.5997240
  27.2009640  83.4549090  17.6481630  26.8806510  82.7358330  18.1927320
  26.5268000  84.1304160  17.7217690  25.2423810  84.3009540   2.5914780
  25.2333910  85.0339230   1.9759290  24.3222170  84.0541120   2.6841740
  20.8430450  79.5224430   3.3361540  20.2358400  80.2623330   3.3456840
  21.3179800  79.6123790   2.5099740  30.4163240  73.6875250  13.0118430
  30.7844060  72.8670460  13.3398000  29.5561440  73.7477140  13.4274080
  33.7825270  72.6432190   3.8205990  33.1538430  72.7477860   3.1064220
  33.2877190  72.8628970   4.6099870  25.7509300  74.9218140   5.2363870
  25.0425450  75.3904480   5.6777480  26.0353780  74.2640150   5.8709060
  27.3765230  76.3414840  13.2356400  27.8750480  76.8160660  13.9008250
  27.5188180  75.4178360  13.4426430  29.7824730  71.6468800   6.6759660
  29.6592510  71.6654930   5.7269170  30.7309290  71.6947740   6.7958060
  26.8701520  86.8824100   5.9487640  27.1243020  86.8445490   5.0267010
  25.9214000  86.7557430   5.9415890  23.9544320  73.2303220   2.6114580
  24.8034850  73.6673370   2.5454770  23.5875590  73.5423480   3.4386640
  34.5832090  72.5582800  14.0784790  34.0805690  73.2988200  14.4178600
  35.3988750  72.9466800  13.7621580  32.8754100  77.8015980   7.5246150
  31.9344240  77.8166210   7.6993840  33.1898170  77.0151940   7.9706450
  21.5482500  76.9160650   1.7683000  21.6286090  75.9688160   1.8800400
  22.4402250  77.2467530   1.8743660  34.8779680  84.9724830   9.2000410
  35.0027100  85.7956000   9.6724220  35.7445240  84.7615560   8.8524560
  22.3497210  87.0656040   8.8717540  23.0859690  86.5171500   9.1426110
  22.7338130  87.9312050   8.7323530  19.2342690  83.1329610   4.7459050
  18.3082470  83.3750750   4.7364460  19.6999120  83.9603870   4.6243800
  21.3555490  86.2502110  18.0603120  22.1568220  86.5714160  18.4738520
  20.8407310  85.8897690  18.7823030  30.1920120  82.3581980  18.0078530
  29.5858280  82.3813580  17.2674280  29.8874230  81.6265020  18.5445780
  31.6220490  86.0862270  16.6187940  32.5742240  86.0020290  16.5688180
  31.4748710  86.7503980  17.2921730  19.0753300  78.7375570  17.0039170
  19.5792320  78.1582850  17.5755400  18.3360720  79.0215800  17.5415540
  26.1291240  80.1446560  16.5374690  25.3636910  80.7131560  16.4529360
  26.3107200  79.8522770  15.6442920  33.2714590  81.8751890  17.0949710
  34.0124060  82.2127650  16.5917170  32.5087270  82.0443950  16.5419480
  21.1076380  76.8805160  17.8989240  21.1481720  76.5819030  18.8074470
  21.9621880  77.2812770  17.7396760  24.8854770  79.4800710   3.0592750
  25.3071190  79.3140580   3.9024140  25.0105610  78.6700940   2.5647890
  23.0482190  75.4597260  15.8663730  22.5178650  74.9688210  15.2387070
  23.7170260  75.8881460  15.3321660  31.9460250  79.9266720  15.6304920
  32.3601270  80.0811800  16.4795340  31.0111250  80.0521940  15.7930700
  32.4182420  77.2662880  17.6344070  33.0003190  76.5115200  17.5464550
  32.5944190  77.7970320  16.8575550  23.5354490  72.4259630  15.9461020
  23.4411360  71.8080380  15.2211890  22.9551880  73.1525920  15.7190930
  26.3015930  70.9832870  12.9788410  25.8533230  71.0057130  12.1333960
  25.6681130  70.5851890  13.5758710  26.7075480  79.8787200  13.6000850
  27.1263590  80.7219930  13.4277090  25.7884110  80.0159240  13.3707630
  29.0439380  77.6103380  14.9838690  29.1635590  77.0144520  15.7233530
  29.9033380  77.6473070  14.5639990  31.3827280  78.1640570  13.5601200
  30.8562500  78.6883190  12.9566340  31.7258620  78.7967960  14.1910930
  24.5582900  86.1840210  14.7158580  24.0203990  86.9086270  14.3967280
  24.8116860  85.7070550  13.9255920  25.8108150  74.1524730  16.2414510
  26.4007840  73.8440580  16.9292330  24.9928390  73.6804480  16.3974410
  30.6301580  73.7690540  16.4747530  29.9417100  73.1072080  16.4097520
  31.3507600  73.3228810  16.9195990  31.2601980  70.3642170   2.5337790
  31.5404270  69.5210070   2.8897210  30.4867710  70.5965280   3.0476540
  27.4145110  87.4191420  14.9745230  27.3403810  88.3226560  15.2817600
  26.5123950  87.1003320  14.9467300  27.9630440  86.5849930   2.5971590
  28.8581230  86.9234900   2.6190350  27.9948070  85.8629340   1.9695870
  18.8172400  84.7466010   8.2778850  19.1475410  83.8787070   8.0457490
  19.2463400  84.9524530   9.1083810  23.4134320  83.0775020   5.9380820
  23.1129860  82.9539990   6.8384730  23.3071810  82.2183610   5.5296550
  19.3062610  85.6136600  11.0160480  18.8693600  85.7937400  11.8484630
  19.8740290  86.3711220  10.8742200  34.9424790  85.1153600  15.3037790
  34.3426780  85.1746160  14.5601710  35.0718690  84.1758580  15.4334640
  35.6382700  79.6018900   3.1441700  36.4001610  80.1715550   3.2501390
  35.6537070  79.0346100   3.9150010  19.1387040  78.1256830   7.3749360
  18.4835880  77.8568470   6.7309060  19.9764990  78.0161310   6.9251340
  36.6442670  80.4569000   7.9883630  37.0151500  79.6736320   7.5819600
  37.2844600  81.1458100   7.8100930  33.6276430  81.8405580  13.4013950
  32.8136270  82.2702740  13.6639740  34.0350630  82.4523990  12.7883000
  35.5867210  77.8322260   5.2943650  35.2110810  77.0650190   4.8624940
  34.8570330  78.2144960   5.7818580  20.1762970  78.5109400  11.9152700
  20.5436010  78.4236800  12.7948720  19.6073790  77.7475950  11.8159560
  34.9766830  76.9793780  14.9283170  34.7452920  76.7506530  14.0281120
  35.2371380  77.8993330  14.8828060  19.7278970  75.4218490  15.8211120
  18.8335020  75.3885250  16.1604830  20.2676520  75.6205280  16.5862370
  33.4154900  72.2050210  17.7062870  34.2925080  72.2133610  18.0896870
  33.4275740  71.4681050  17.0955220  18.3525120  75.3355760   3.3174690
  17.4489200  75.5985960   3.1426350  18.8365740  75.6066930   2.5374650
  34.8618170  76.0579750   8.5950890  35.3855650  75.5642400   7.9641060
  35.4477590  76.1930110   9.3398460  35.0407890  76.1419620  12.1170440
  34.0910600  76.1083160  12.2315430  35.2220900  77.0519730  11.8820210
  34.3518140  75.3153100   4.5343300  34.8477260  75.0823970   5.3192180
  34.1534210  74.4764940   4.1180940  20.2318680  69.6966820  10.1694340
  20.8794870  69.1464200   9.7289500  20.6520520  69.9509970  10.9910150
  35.7805300  73.9514050   7.0680980  35.6704580  73.7970090   8.0063250
  36.5412890  73.4234990   6.8256390  34.1271020  69.8908180  13.5263980
  34.7643240  70.5042320  13.8923170  34.2745910  69.9268840  12.5813210
  36.7434060  72.5532630   2.9343830  35.9485560  72.4877750   3.4636740
  36.9477340  73.4883270   2.9229180  33.6852480  86.5924180   6.9282220
  34.2811550  86.2708750   6.2516640  33.9430630  86.1196000   7.7195490
  19.9850680  69.8522490  12.9119660  19.6365500  70.3086310  13.6777840
  19.6538380  68.9579620  12.9942090  21.5915050  83.0242090  17.0772850
  21.5484680  82.6535000  17.9587310  21.7226060  83.9619660  17.2174670
  25.2921080  84.5801680  12.6782570  25.0512440  84.8476240  11.7913090
  26.2323720  84.7507410  12.7333430  27.4975500  71.0434370  16.4339080
  27.4364390  71.6356200  17.1834490  28.4375880  70.9360330  16.2889340
  30.1350060  70.7004430  16.0731370  30.7490470  71.0183720  15.4112450
  30.6799620  70.2153020  16.6927230  36.5525240  86.5996060  13.4793210
  36.0583520  86.9964930  12.7620340  35.9438530  85.9745270  13.8730490
  20.6571320  69.3798690  16.1870430  21.2054310  69.1986740  15.4236540
  20.7226630  68.5892800  16.7226740  21.4303080  85.9704340  14.1970630
  20.8363400  85.8389040  14.9360670  21.4226920  85.1342480  13.7312730
  30.8758100  69.2636570  12.4000660  30.0017940  69.5971680  12.1973590
  30.7668850  68.7909750  13.2252530  31.7830080  71.4707440  13.7842380
  31.4543440  70.6559200  13.4044110  32.7312380  71.4277250  13.6608070
  34.2364690  87.2419480  10.7579950  33.7767660  87.9935290  10.3837970
  33.6077150  86.5225950  10.6994750  21.0615310  83.3362720  13.1478670
  20.3349370  82.7168010  13.0804620  21.1224460  83.7303330  12.2776750
  24.6660410  85.5507720   9.9328080  25.1825430  84.9395080   9.4076340
  25.3157790  86.0536500  10.4239090  27.4055910  86.4416210  10.7597060
  27.6933720  86.1870510   9.8830070  27.9179130  85.8893570  11.3502630
  28.6232920  70.1806410  11.3393570  27.8404710  70.6551910  11.6190330
  28.3295850  69.2761240  11.2306750  33.1753990  70.8829510   9.3842660
  33.6162080  70.8274610   8.5364260  32.9061580  71.7987520   9.4552840
  35.0392560  70.5144750   7.3951480  34.9780960  69.5705970   7.2482500
  35.8184590  70.6224840   7.9404940  19.3445310  86.6537110   6.3575430
  19.1767350  86.0207790   7.0557320  18.4779820  86.8596510   6.0069620
  19.9673330  70.4853890   3.8607290  20.7252690  70.5982770   3.2871320
  19.5050500  71.3223090   3.8150720  26.5087140  72.5993160   6.8509600
  25.6961650  72.2250050   6.5105480  27.0128780  71.8438240   7.1530790
  31.0112120  69.2635610   8.0892670  31.6141490  69.8355820   8.5641190
  30.2705110  69.8275050   7.8666570  34.1546720  69.6657170   3.3632950
  34.3497350  70.5640620   3.6300380  33.3676590  69.4344250   3.8565900
  20.9508010  85.3470340   3.8025570  20.4255630  85.7278370   3.0987530
  20.8752590  85.9721110   4.5235280  22.3398480  71.0117940   2.4009260
  22.8691240  70.2247740   2.2717210  22.9726800  71.6909130   2.6344790
  24.5336320  70.7493080   5.4554650  23.9039060  70.0480390   5.6224780
  23.9941460  71.5097210   5.2387810  27.4728270  87.3632310  18.1265260
  28.3995580  87.1276580  18.1701220  27.4578700  88.1904310  17.6451290
  35.7073330  86.9057880   5.1239510  35.8825520  86.2195620   4.4800430
  35.0094900  87.4304930   4.7316180  24.6591880  70.0277060  17.8907140
  24.3776150  70.5310660  17.1267960  25.0411580  69.2298810  17.5249270
  23.5500980  87.2952720   2.6774820  24.2819800  87.0112000   2.1298710
  23.8094650  87.0566000   3.5674200  22.7115770  83.4117450   2.6821150
  22.0824650  83.8802550   3.2306980  22.8263600  82.5666670   3.1167340
  31.2607340  69.4430640  18.4687610  31.1472790  69.7625250  19.3639130
  32.0777080  69.8443150  18.1724890  34.0405830  86.5902170  17.9506300
  34.8331150  86.0951400  17.7432260  34.3338980  87.2692310  18.5581910
  30.1665490  58.6879620  63.9296310  30.0859540  57.7734230  63.6588020
  29.7529910  59.1846690  63.2236020  28.2983530  60.4658640  65.8105580
  27.5225630  59.9859080  66.1004150  28.9496460  59.7864290  65.6361740
  22.3149360  60.7778450  66.6881340  21.4834240  60.5227160  67.0877850
  22.9230340  60.8489220  67.4239260  32.3190960  64.8718830  64.5904710
  31.8572490  64.1006070  64.9191880  33.1316510  64.8984900  65.0957160
  22.2950620  64.8118540  66.8839360  22.5978660  63.9216280  66.7049580
  23.0394210  65.3688760  66.6561610  20.7241310  55.7380340  60.4723730
  19.8358010  56.0796310  60.3703610  21.0082500  55.5380660  59.5804560
  18.6874320  58.3385990  66.3563430  19.2590430  57.5708190  66.3567070
  18.6875860  58.6374750  65.4470040  28.5454270  67.1576840  64.2108700
  27.9265710  67.6134340  63.6403140  29.4006050  67.3128300  63.8098400
  27.7392520  63.1415830  65.8175740  27.6700800  62.2005770  65.6564870
  28.5012380  63.2317240  66.3898310  19.9299190  53.7470350  68.1432360
  19.7502030  52.8496100  68.4235120  19.5279270  54.2942220  68.8179310
  28.7697690  55.9486210  66.0444670  29.1462510  55.0758090  65.9318340
  28.6717200  56.2844910  65.1535110  22.9002700  54.3211840  61.5062110
  23.0069450  55.2215570  61.8130870  21.9895060  54.2729810  61.2156760
  32.5521810  53.4436650  62.9773010  33.3731430  52.9533220  63.0198490
  32.5855890  54.0334310  63.7304850  20.5485860  56.2430850  66.7514700
  21.2295970  56.5069220  67.3702100  20.2333910  55.4031720  67.0852710
  24.7410430  57.2898210  65.8387290  25.2488650  57.7879180  66.4792310
  25.2723670  56.5133410  65.6626650  36.8421360  55.4603400  69.5416640
  36.1373530  55.8485110  69.0231750  37.1079280  56.1553690  70.1437570
  23.0246530  51.9296770  70.1050710  23.0264970  52.4469160  69.2996610
  22.1950840  51.4526950  70.0820640  29.4117620  62.0416080  61.6040610
  28.7934890  62.5065530  61.0403330  29.9240870  62.7343560  62.0210120
  24.2749380  61.5691950  68.2824210  23.9418760  62.1960870  68.9245280
  24.4516060  62.0953830  67.5025880  32.7883290  55.3837030  65.7500550
  32.0838860  55.6721920  66.3303660  33.1495450  56.1937140  65.3900110
  22.7061860  53.6406730  68.1121160  23.0478670  54.4848780  67.8175030
  21.7677670  53.7890470  68.2286500  23.4868480  63.5372750  70.0973390
  24.1042480  64.2123830  69.8157840  22.6261600  63.9460730  70.0060890
  18.7800820  62.7272610  58.9780240  18.4028800  63.2159710  58.2465140
  19.0373890  63.3997890  59.6086770  34.4046070  65.0012160  68.0128030
  33.7209590  65.6711270  68.0044700  34.9440360  65.1992810  67.2472890
  35.8570210  54.8291820  66.1409760  34.9095120  54.8630800  66.2725190
  36.1820200  55.6430770  66.5259120  26.3889750  51.1289000  64.4365750
  26.6964730  50.5735890  63.7201250  25.4590450  51.2633460  64.2538740
  31.9404810  66.8456290  66.7273210  31.9531970  66.4418580  65.8595470
  31.3880030  67.6203580  66.6234640  33.2350230  63.5672510  61.8163380
  33.1246560  62.6246840  61.9412800  33.2318480  63.9288150  62.7026140
  31.3390250  61.7486130  68.0555820  31.7559040  61.5346240  67.2209280
  32.0630070  62.0058920  68.6264440  28.7770510  59.1937830  61.1725870
  27.8499790  59.1275210  61.4014340  28.9295330  60.1317960  61.0581110
  28.7639590  55.4654830  58.1693030  27.8243260  55.6268790  58.2545490
  29.0822850  56.1840510  57.6229020  35.2852350  60.1473350  68.1472060
  34.4570980  60.2166440  67.6722190  35.8802830  60.7327660  67.6787890
  32.8067800  60.7558130  61.6761120  32.1880220  60.4177680  61.0287420
  32.7892250  60.1117890  62.3840310  32.2494360  56.9342670  69.0926930
  31.8365540  57.7596380  69.3466920  31.5170310  56.3487710  68.9003290
  24.3827150  59.7202570  63.9545600  23.9784150  59.0079820  63.4591500
  24.4690270  59.3755810  64.8433640  24.8508850  63.4070130  66.1184810
  24.5537140  62.8015600  65.4392590  25.8008670  63.4447440  66.0074170
  23.0955770  56.4945780  67.7344640  23.6470360  56.6041120  66.9597890
  23.6099280  56.8683380  68.4499870  32.9394460  66.9802000  69.7807910
  32.4625020  67.7874190  69.5880520  32.2556250  66.3280330  69.9334120
  30.9832500  59.9944940  58.6833870  31.4225780  59.1567370  58.5371690
  31.6960920  60.6274340  58.7698010  22.7698500  60.0165140  71.3449980
  22.6306270  60.8887940  71.7137380  21.8879860  59.6737950  71.1997920
  29.0927880  64.9341010  62.6515110  29.5323790  65.6765340  62.2370500
  29.0314770  65.1767580  63.5754070  34.5649640  51.2487750  56.9974910
  34.2522300  51.3414580  57.8973980  35.3262110  51.8268780  56.9472340
  21.0831780  58.6147550  61.4552250  20.9629380  59.3409640  60.8433520
  20.7732670  57.8450460  60.9780160  18.7217150  61.7862690  67.2620890
  18.7997570  61.9211460  66.3176610  19.3358830  61.0778580  67.4549010
  19.9664780  63.4862880  63.6727070  19.5592860  63.6277470  62.8180670
  20.8577790  63.2023040  63.4698280  35.9226920  63.9326790  72.0099310
  36.0489980  63.6938670  71.0916490  35.9648300  63.1011330  72.4821390
  29.7843660  67.6354790  70.5794120  30.2988330  67.5462800  71.3816550
  28.9412740  67.9814490  70.8722030  31.7598060  67.9210130  60.0078120
  31.5999200  67.6313070  60.9059950  31.5944770  67.1450260  59.4723350
  24.2386440  67.7008660  61.7849740  24.0628920  66.7844200  61.5717540
  23.3842180  68.0595950  62.0247540  31.4624190  65.4297690  58.5676120
  30.7689350  65.4274980  57.9078400  32.2047050  65.0057010  58.1370290
  31.0274120  67.0560400  62.6424610  31.4831070  66.2749780  62.9563230
  31.3666640  67.7667220  63.1865790  35.7750930  55.9859250  72.9749050
  35.1595200  56.4938920  72.4464510  35.4547350  55.0857580  72.9174990
  18.7776670  62.8276860  69.8015350  18.9407710  62.3582220  68.9834720
  19.2429120  62.3200420  70.4664190  23.5495440  51.9582620  64.8375920
  23.1063590  52.7392160  64.5060440  24.1080430  52.2812510  65.5446860
  27.8365250  54.8251140  70.4411240  27.3744620  55.0334160  71.2531180
  27.4343360  54.0110490  70.1381910  32.8369760  56.0460090  71.5707900
  31.9863350  55.7465840  71.8916970  32.6771550  56.2902100  70.6591720
  26.6654260  51.5793320  59.7181750  26.0408440  51.5753190  60.4435060
  26.5784380  50.7124280  59.3217720  25.5871340  52.5029950  66.6965520
  25.8843670  53.4092780  66.6157540  26.1356900  52.0148730  66.0825090
  23.3409660  57.0816190  62.5657170  23.1150580  56.8653360  63.4703790
  22.5602190  57.5144650  62.2203140  30.5707420  57.0879560  61.1647820
  29.9716310  57.8115360  60.9811440  31.1187030  57.0256340  60.3824270
  29.1772290  55.7243100  63.1951100  29.5701860  56.0415300  62.3819790
  29.5389140  54.8454980  63.3095620  20.9119410  54.3915440  71.3851220
  20.5182800  55.2390650  71.5924000  20.2237810  53.7541810  71.5759860
  18.2136460  52.3143900  65.4181300  17.9249510  52.8846760  66.1306280
  18.9582220  51.8348350  65.7812530  18.4006690  56.2564020  56.6284020
  18.3181360  57.1994780  56.7699010  18.0489750  56.1138930  55.7496370
  29.7627430  58.3148850  67.2901880  29.0308550  58.8235660  67.6391980
  29.3651770  57.4978830  66.9890660  26.2004820  54.9903050  65.6954370
  26.2040880  54.5493000  64.8458910  27.0955940  55.3120380  65.8026190
  22.0507200  54.8729540  64.6548580  21.7107250  55.3504770  65.4115630
  21.2884520  54.4194660  64.2949680  26.2624970  55.9915130  58.6861130
  26.3837790  55.9501610  59.6346950  25.8773480  56.8539280  58.5307860
  30.2253340  53.7682530  66.7024820  30.2426080  54.2191180  67.5466670
  29.9768920  52.8688170  66.9158260  25.2746470  58.3016270  58.0844430
  24.7063370  57.8534520  57.4580340  25.9835470  58.6609050  57.5509580
  20.3515650  62.2028290  71.9611160  19.9670440  61.5621960  72.5594120
  20.6627840  62.9064410  72.5305890  26.5012790  59.0504830  67.4419780
  26.8682920  58.5763400  68.1881120  26.3117850  59.9246400  67.7828120
  19.3653280  53.7948520  63.5713250  19.0800200  53.4304190  64.4091870
  19.3032140  53.0628980  62.9576390  24.2912160  58.0913470  69.7603990
  23.9869230  58.9705450  69.9854350  25.2458620  58.1513260  69.7961430
  22.8193950  62.2974460  60.3570840  22.0456210  61.7572080  60.1969560
  23.5488580  61.7781070  60.0188600  33.5781930  61.2939820  66.1497230
  34.2981050  61.7895110  65.7593340  33.3763750  60.6157710  65.5051100
  29.0391870  52.6877780  60.2926620  28.2256480  52.1890950  60.2171930
  28.8453820  53.5276030  59.8762970  28.9600730  61.3648880  72.0366230
  28.8938040  60.4444550  71.7823820  28.3305870  61.4624320  72.7510870
  31.7540260  57.0597430  58.5888780  32.6419880  57.3714660  58.4140120
  31.7245350  56.1869680  58.1969360  22.8631350  61.9654840  63.9949650
  23.3810020  61.1623100  63.9406540  22.4115370  61.9033980  64.8366480
  27.7500850  63.2321120  59.2676950  28.0916550  63.9763350  58.7720270
  26.9213560  63.5452240  59.6301780  20.3475890  58.9316210  70.9075350
  19.9890830  59.5970060  71.4948690  20.0530450  58.0999760  71.2787970
  28.8917460  64.1869450  71.7870030  28.9062000  63.2550410  71.5688940
  28.1842560  64.2729210  72.4259800  34.0254530  58.3709270  58.0568640
  33.9418250  58.8023490  57.2065080  34.7448720  58.8307620  58.4895460
  35.1028670  60.8276790  71.1338610  34.3776860  61.4205570  70.9368000
  35.6304130  60.8200330  70.3351980  35.0541780  65.2251530  60.7850770
  34.4117940  64.5707150  61.0594490  34.6672440  65.6306620  60.0091440
  30.6328260  62.5536960  64.6322460  30.9852080  61.9565090  63.9723830
  29.7490590  62.2281190  64.8030710  26.7191540  63.3134650  62.0392870
  27.4062670  63.8603860  62.4200460  25.9323960  63.8575380  62.0742480
  18.8583940  58.9307470  57.5309950  19.7278790  59.2132270  57.8145870
  18.3674260  59.7443340  57.4158760  26.0218750  60.3180680  61.6518230
  26.4781530  61.1285930  61.8778420  25.6706960  60.0003820  62.4836720
  28.3251360  65.8287020  68.8810530  28.9693580  66.0346400  69.5583950
  28.6880800  65.0675420  68.4281380  21.9230530  50.6618330  62.1240750
  21.7945160  50.6536230  63.0725670  21.0992550  51.0001420  61.7731760
  29.5983440  63.8319370  67.5987980  30.2405670  63.1312530  67.7120150
  30.1232790  64.6117810  67.4184870  33.4439160  64.1167990  57.3227120
  33.2176740  63.3998430  57.9151760  33.0535360  63.8680430  56.4848870
  31.3721060  64.6314270  70.8024040  31.7077300  65.2180960  71.4801960
  30.4521400  64.5006980  71.0321830  19.2255190  68.1434850  58.0971580
  19.5852830  68.7424190  57.4428850  19.0847530  68.6894740  58.8706610
  18.9224460  52.4209450  71.5847450  18.2082980  52.6206370  72.1900060
  19.3419500  51.6449020  71.9562250  33.0255410  62.0339930  58.9841280
  32.7377110  62.4952620  59.7719160  33.8207580  61.5737700  59.2525500
  19.2097050  66.4089710  72.5713980  19.3188170  65.4684450  72.4309370
  18.5577610  66.6744460  71.9227710  25.2423810  65.5266050  58.9145250
  25.2333910  66.2595740  58.2989760  24.3222170  65.2797630  59.0072210
  20.8430450  60.7480940  59.6592010  20.2358400  61.4879840  59.6687310
  21.3179800  60.8380300  58.8330210  30.4163240  54.9131760  69.3348900
  30.7844060  54.0926970  69.6628470  29.5561440  54.9733650  69.7504550
  33.7825270  53.8688700  60.1436460  33.1538430  53.9734370  59.4294690
  33.2877190  54.0885480  60.9330340  28.2283410  65.5894290  57.5770440
  28.3295390  65.3858280  56.6472420  27.3285150  65.3352570  57.7818220
  25.7509300  56.1474650  61.5594340  25.0425450  56.6160990  62.0007950
  26.0353780  55.4896660  62.1939530  27.3765230  57.5671350  69.5586870
  27.8750480  58.0417170  70.2238720  27.5188180  56.6434870  69.7656900
  29.7824730  52.8725310  62.9990130  29.6592510  52.8911440  62.0499640
  30.7309290  52.9204250  63.1188530  26.8701520  68.1080610  62.2718110
  27.1243020  68.0702000  61.3497480  25.9214000  67.9813940  62.2646360
  23.9544320  54.4559730  58.9345050  24.8034850  54.8929880  58.8685240
  23.5875590  54.7679990  59.7617110  34.5832090  53.7839310  70.4015260
  34.0805690  54.5244710  70.7409070  35.3988750  54.1723310  70.0852050
  32.8754100  59.0272490  63.8476620  31.9344240  59.0422720  64.0224310
  33.1898170  58.2408450  64.2936920  22.8535740  60.7092090  57.4080580
  23.6199010  60.5973450  57.9706010  22.9310430  60.0130060  56.7557350
  21.5482500  58.1417160  58.0913470  21.6286090  57.1944670  58.2030870
  22.4402250  58.4724040  58.1974130  34.8779680  66.1981340  65.5230880
  35.0027100  67.0212510  65.9954690  35.7445240  65.9872070  65.1755030
  22.3497210  68.2912550  65.1948010  23.0859690  67.7428010  65.4656580
  22.7338130  69.1568560  65.0554000  19.2342690  64.3586120  61.0689520
  18.3082470  64.6007260  61.0594930  19.6999120  65.1860380  60.9474270
  25.4599520  67.4642860  57.0173580  26.2528130  67.7531690  56.5655370
  24.9403870  67.0335030  56.3386060  34.5129690  66.6912990  58.4410320
  34.2271200  66.2778130  57.6264500  34.3149240  67.6200700  58.3210840
  25.9776920  62.6846270  56.8815930  25.8727560  62.0698620  57.6077310
  25.8101140  62.1612160  56.0978940  26.1291240  61.3703070  72.8605160
  25.3636910  61.9388070  72.7759830  26.3107200  61.0779280  71.9673390
  29.2179650  61.7466300  57.4857920  28.6689750  62.1935600  58.1300660
  29.8398910  61.2415550  58.0095590  24.8854770  60.7057220  59.3823220
  25.3071190  60.5397090  60.2254610  25.0105610  59.8957450  58.8878360
  23.0482190  56.6853770  72.1894200  22.5178650  56.1944720  71.5617540
  23.7170260  57.1137970  71.6552130  27.3982410  59.7294830  56.6300320
  27.9188070  59.0143850  56.2641470  28.0450810  60.3680700  56.9300830
  31.9460250  61.1523230  71.9535390  32.3601270  61.3068310  72.8025810
  31.0111250  61.2778450  72.1161170  23.5354490  53.6516140  72.2691490
  23.4411360  53.0336890  71.5442360  22.9551880  54.3782430  72.0421400
  26.3015930  52.2089380  69.3018880  25.8533230  52.2313640  68.4564430
  25.6681130  51.8108400  69.8989180  26.7075480  61.1043710  69.9231320
  27.1263590  61.9476440  69.7507560  25.7884110  61.2415750  69.6938100
  29.0439380  58.8359890  71.3069160  29.1635590  58.2401030  72.0464000
  29.9033380  58.8729580  70.8870460  31.3827280  59.3897080  69.8831670
  30.8562500  59.9139700  69.2796810  31.7258620  60.0224470  70.5141400
  23.7813670  56.7790450  56.3281380  23.5802730  55.9157810  56.6894720
  23.6105720  56.6923810  55.3902980  24.5582900  67.4096720  71.0389050
  24.0203990  68.1342780  70.7197750  24.8116860  66.9327060  70.2486390
  31.2601980  51.5898680  58.8568260  31.5404270  50.7466580  59.2127680
  30.4867710  51.8221790  59.3707010  22.5796470  53.8791070  56.3159260
  22.8822370  53.8858500  55.4078410  23.3191060  53.5288930  56.8126920
  27.4145110  68.6447930  71.2975700  27.3403810  69.5483070  71.6048070
  26.5123950  68.3259830  71.2697770  25.7981400  52.8225690  57.3015460
  25.4503400  52.1449680  56.7217910  25.9994170  52.3615200  58.1158850
  27.9630440  67.8106440  58.9202060  28.8581230  68.1491410  58.9420820
  27.9948070  67.0885850  58.2926340  21.6026600  63.1833490  57.1489060
  22.0401470  63.7263160  57.8046640  22.0874330  62.3580440  57.1585400
  18.8172400  65.9722520  64.6009320  19.1475410  65.1043580  64.3687960
  19.2463400  66.1781040  65.4314280  23.4134320  64.3031530  62.2611290
  23.1129860  64.1796500  63.1615200  23.3071810  63.4440120  61.8527020
  19.3062610  66.8393110  67.3390950  18.8693600  67.0193910  68.1715100
  19.8740290  67.5967730  67.1972670  34.9424790  66.3410110  71.6268260
  34.3426780  66.4002670  70.8832180  35.0718690  65.4015090  71.7565110
  36.1826240  64.0827930  56.9637970  35.3519200  64.1504580  57.4345200
  36.3598070  64.9732050  56.6604830  35.6382700  60.8275410  59.4672170
  36.4001610  61.3972060  59.5731860  35.6537070  60.2602610  60.2380480
  19.1387040  59.3513340  63.6979830  18.4835880  59.0824980  63.0539530
  19.9764990  59.2417820  63.2481810  36.6442670  61.6825510  64.3114100
  37.0151500  60.8992830  63.9050070  37.2844600  62.3714610  64.1331400
  33.6276430  63.0662090  69.7244420  32.8136270  63.4959250  69.9870210
  34.0350630  63.6780500  69.1113470  35.6901870  61.1209780  56.6244690
  35.9650710  62.0288660  56.4963910  35.5012610  61.0572310  57.5606680
  32.0877480  54.1454630  57.9198320  32.5062360  53.9585610  57.0794980
  31.7813540  53.2933680  58.2301250  35.5867210  59.0578770  61.6174120
  35.2110810  58.2906700  61.1855410  34.8570330  59.4401470  62.1049050
  20.1762970  59.7365910  68.2383170  20.5436010  59.6493310  69.1179190
  19.6073790  58.9732460  68.1390030  34.9766830  58.2050290  71.2513640
  34.7452920  57.9763040  70.3511590  35.2371380  59.1249840  71.2058530
  19.7278970  56.6475000  72.1441590  18.8335020  56.6141760  72.4835300
  20.2676520  56.8461790  72.9092840  18.3525120  56.5612270  59.6405160
  17.4489200  56.8242470  59.4656820  18.8365740  56.8323440  58.8605120
  34.8618170  57.2836260  64.9181360  35.3855650  56.7898910  64.2871530
  35.4477590  57.4186620  65.6628930  35.0407890  57.3676130  68.4400910
  34.0910600  57.3339670  68.5545900  35.2220900  58.2776240  68.2050680
  20.8952330  55.6177810  57.5499540  21.6044030  55.1961030  57.0646820
  20.1792270  55.6853040  56.9182890  20.5426490  51.6717140  56.5902190
  21.2654620  52.2126080  56.9083410  20.8151010  51.3980560  55.7143730
  34.3518140  56.5409610  60.8573770  34.8477260  56.3080480  61.6422650
  34.1534210  55.7021450  60.4411410  20.2318680  50.9223330  66.4924810
  20.8794870  50.3720710  66.0519970  20.6520520  51.1766480  67.3140620
  35.7805300  55.1770560  63.3911450  35.6704580  55.0226600  64.3293720
  36.5412890  54.6491500  63.1486860  34.1271020  51.1164690  69.8494450
  34.7643240  51.7298830  70.2153640  34.2745910  51.1525350  68.9043680
  36.6695570  53.0078480  56.6317590  37.5944880  52.8759660  56.4235880
  36.6471360  53.0871300  57.5854040  36.7434060  53.7789140  59.2574300
  35.9485560  53.7134260  59.7867210  36.9477340  54.7139780  59.2459650
  33.6852480  67.8180690  63.2512690  34.2811550  67.4965260  62.5747110
  33.9430630  67.3452510  64.0425960  19.9850680  51.0779000  69.2350130
  19.6365500  51.5342820  70.0008310  19.6538380  50.1836130  69.3172560
  25.2921080  65.8058190  69.0013040  25.0512440  66.0732750  68.1143560
  26.2323720  65.9763920  69.0563900  36.5525240  67.8252570  69.8023680
  36.0583520  68.2221440  69.0850810  35.9438530  67.2001780  70.1960960
  21.4303080  67.1960850  70.5201100  20.8363400  67.0645550  71.2591140
  21.4226920  66.3598990  70.0543200  30.8758100  50.4893080  68.7231130
  30.0017940  50.8228190  68.5204060  30.7668850  50.0166260  69.5483000
  31.7830080  52.6963950  70.1072850  31.4543440  51.8815710  69.7274580
  32.7312380  52.6533760  69.9838540  34.2364690  68.4675990  67.0810420
  33.7767660  69.2191800  66.7068440  33.6077150  67.7482460  67.0225220
  21.0615310  64.5619230  69.4709140  20.3349370  63.9424520  69.4035090
  21.1224460  64.9559840  68.6007220  24.6660410  66.7764230  66.2558550
  25.1825430  66.1651590  65.7306810  25.3157790  67.2793010  66.7469560
  27.4055910  67.6672720  67.0827530  27.6933720  67.4127020  66.2060540
  27.9179130  67.1150080  67.6733100  28.6232920  51.4062920  67.6624040
  27.8404710  51.8808420  67.9420800  28.3295850  50.5017750  67.5537220
  33.1753990  52.1086020  65.7073130  33.6162080  52.0531120  64.8594730
  32.9061580  53.0244030  65.7783310  35.0392560  51.7401260  63.7181950
  34.9780960  50.7962480  63.5712970  35.8184590  51.8481350  64.2635410
  19.3445310  67.8793620  62.6805900  19.1767350  67.2464300  63.3787790
  18.4779820  68.0853020  62.3300090  19.9673330  51.7110400  60.1837760
  20.7252690  51.8239280  59.6101790  19.5050500  52.5479600  60.1381190
  26.5087140  53.8249670  63.1740070  25.6961650  53.4506560  62.8335950
  27.0128780  53.0694750  63.4761260  31.0112120  50.4892120  64.4123140
  31.6141490  51.0612330  64.8871660  30.2705110  51.0531560  64.1897040
  34.1546720  50.8913680  59.6863420  34.3497350  51.7897130  59.9530850
  33.3676590  50.6600760  60.1796370  20.9508010  66.5726850  60.1256040
  20.4255630  66.9534880  59.4218000  20.8752590  67.1977620  60.8465750
  22.3398480  52.2374450  58.7239730  22.8691240  51.4504250  58.5947680
  22.9726800  52.9165640  58.9575260  24.5336320  51.9749590  61.7785120
  23.9039060  51.2736900  61.9455250  23.9941460  52.7353720  61.5618280
  35.7073330  68.1314390  61.4469980  35.8825520  67.4452130  60.8030900
  35.0094900  68.6561440  61.0546650  23.5500980  68.5209230  59.0005290
  24.2819800  68.2368510  58.4529180  23.8094650  68.2822510  59.8904670
  22.7115770  64.6373960  59.0051620  22.0824650  65.1059060  59.5537450
  22.8263600  63.7923180  59.4397810  22.3149360  60.7778450  47.9137850
  21.4834240  60.5227160  48.3134360  22.9230340  60.8489220  48.6495770
  32.3190960  64.8718830  45.8161220  31.8572490  64.1006070  46.1448390
  33.1316510  64.8984900  46.3213670  22.2950620  64.8118540  48.1095870
  22.5978660  63.9216280  47.9306090  23.0394210  65.3688760  47.8818120
  20.7241310  55.7380340  41.6980240  19.8358010  56.0796310  41.5960120
  21.0082500  55.5380660  40.8061070  18.6874320  58.3385990  47.5819940
  19.2590430  57.5708190  47.5823580  18.6875860  58.6374750  46.6726550
  28.5454270  67.1576840  45.4365210  27.9265710  67.6134340  44.8659650
  29.4006050  67.3128300  45.0354910  27.7392520  63.1415830  47.0432250
  27.6700800  62.2005770  46.8821380  28.5012380  63.2317240  47.6154820
  19.9299190  53.7470350  49.3688870  19.7502030  52.8496100  49.6491630
  19.5279270  54.2942220  50.0435820  20.5485860  56.2430850  47.9771210
  21.2295970  56.5069220  48.5958610  20.2333910  55.4031720  48.3109220
  36.8421360  55.4603400  50.7673150  36.1373530  55.8485110  50.2488260
  37.1079280  56.1553690  51.3694080  23.0246530  51.9296770  51.3307220
  23.0264970  52.4469160  50.5253120  22.1950840  51.4526950  51.3077150
  24.2749380  61.5691950  49.5080720  23.9418760  62.1960870  50.1501790
  24.4516060  62.0953830  48.7282390  22.7061860  53.6406730  49.3377670
  23.0478670  54.4848780  49.0431540  21.7677670  53.7890470  49.4543010
  23.4868480  63.5372750  51.3229900  24.1042480  64.2123830  51.0414350
  22.6261600  63.9460730  51.2317400  18.7800820  62.7272610  40.2036750
  18.4028800  63.2159710  39.4721650  19.0373890  63.3997890  40.8343280
  34.4046070  65.0012160  49.2384540  33.7209590  65.6711270  49.2301210
  34.9440360  65.1992810  48.4729400  31.9404810  66.8456290  47.9529720
  31.9531970  66.4418580  47.0851980  31.3880030  67.6203580  47.8491150
  31.3390250  61.7486130  49.2812330  31.7559040  61.5346240  48.4465790
  32.0630070  62.0058920  49.8520950  32.2494360  56.9342670  50.3183440
  31.8365540  57.7596380  50.5723430  31.5170310  56.3487710  50.1259800
  24.8508850  63.4070130  47.3441320  24.5537140  62.8015600  46.6649100
  25.8008670  63.4447440  47.2330680  23.0955770  56.4945780  48.9601150
  23.6470360  56.6041120  48.1854400  23.6099280  56.8683380  49.6756380
  32.9394460  66.9802000  51.0064420  32.4625020  67.7874190  50.8137030
  32.2556250  66.3280330  51.1590630  23.9427280  63.1451820  53.9949120
  23.0455810  63.3691790  54.2422520  23.9680150  63.2686760  53.0460520
  22.7698500  60.0165140  52.5706490  22.6306270  60.8887940  52.9393890
  21.8879860  59.6737950  52.4254430  29.0927880  64.9341010  43.8771620
  29.5323790  65.6765340  43.4627010  29.0314770  65.1767580  44.8010580
  24.5678850  65.9586840  54.7791640  24.5394280  66.3629790  53.9120070
  24.4043820  65.0297200  54.6163240  21.0831780  58.6147550  42.6808760
  20.9629380  59.3409640  42.0690030  20.7732670  57.8450460  42.2036670
  36.5193670  66.7413940  56.0755810  36.9953390  67.2196830  56.7544890
  37.1400830  66.6731430  55.3501310  18.7217150  61.7862690  48.4877400
  18.7997570  61.9211460  47.5433120  19.3358830  61.0778580  48.6805520
  19.9664780  63.4862880  44.8983580  19.5592860  63.6277470  44.0437180
  20.8577790  63.2023040  44.6954790  35.9226920  63.9326790  53.2355820
  36.0489980  63.6938670  52.3173000  35.9648300  63.1011330  53.7077900
  29.7843660  67.6354790  51.8050630  30.2988330  67.5462800  52.6073060
  28.9412740  67.9814490  52.0978540  31.7598060  67.9210130  41.2334630
  31.5999200  67.6313070  42.1316460  31.5944770  67.1450260  40.6979860
  24.2386440  67.7008660  43.0106250  24.0628920  66.7844200  42.7974050
  23.3842180  68.0595950  43.2504050  31.4624190  65.4297690  39.7932630
  30.7689350  65.4274980  39.1334910  32.2047050  65.0057010  39.3626800
  31.0274120  67.0560400  43.8681120  31.4831070  66.2749780  44.1819740
  31.3666640  67.7667220  44.4122300  35.7750930  55.9859250  54.2005560
  35.1595200  56.4938920  53.6721020  35.4547350  55.0857580  54.1431500
  18.7776670  62.8276860  51.0271860  18.9407710  62.3582220  50.2091230
  19.2429120  62.3200420  51.6920700  27.8365250  54.8251140  51.6667750
  27.3744620  55.0334160  52.4787690  27.4343360  54.0110490  51.3638420
  32.8369760  56.0460090  52.7964410  31.9863350  55.7465840  53.1173480
  32.6771550  56.2902100  51.8848230  29.9319470  57.5461840  54.8963200
  30.2572880  56.7125590  54.5565430  30.7199800  58.0690360  55.0441530
  25.7808870  57.9801770  54.4573950  25.6852470  57.0396500  54.3074350
  26.6240850  58.2016840  54.0622020  20.9119410  54.3915440  52.6107730
  20.5182800  55.2390650  52.8180510  20.2237810  53.7541810  52.8016370
  27.4864460  54.4750410  55.6804470  26.7962780  54.2822610  56.3150560
  28.2296760  54.7585050  56.2128770  18.2136460  52.3143900  46.6437810
  17.9249510  52.8846760  47.3562790  18.9582220  51.8348350  47.0069040
  18.4006690  56.2564020  37.8540530  18.3181360  57.1994780  37.9955520
  18.0489750  56.1138930  36.9752880  33.6524090  51.1814710  53.7667710
  33.9769860  50.4504370  54.2925690  33.6880600  50.8628350  52.8648700
  20.3515650  62.2028290  53.1867670  19.9670440  61.5621960  53.7850630
  20.6627840  62.9064410  53.7562400  19.3653280  53.7948520  44.7969760
  19.0800200  53.4304190  45.6348380  19.3032140  53.0628980  44.1832900
  24.2912160  58.0913470  50.9860500  23.9869230  58.9705450  51.2110860
  25.2458620  58.1513260  51.0217940  22.8193950  62.2974460  41.5827350
  22.0456210  61.7572080  41.4226070  23.5488580  61.7781070  41.2445110
  28.9600730  61.3648880  53.2622740  28.8938040  60.4444550  53.0080330
  28.3305870  61.4624320  53.9767380  22.8631350  61.9654840  45.2206160
  23.3810020  61.1623100  45.1663050  22.4115370  61.9033980  46.0622990
  27.7500850  63.2321120  40.4933460  28.0916550  63.9763350  39.9976780
  26.9213560  63.5452240  40.8558290  20.3475890  58.9316210  52.1331860
  19.9890830  59.5970060  52.7205200  20.0530450  58.0999760  52.5044480
  23.5489010  59.3900450  55.0171410  23.2489150  59.5357630  54.1199230
  24.3200250  58.8305740  54.9244800  28.8917460  64.1869450  53.0126540
  28.9062000  63.2550410  52.7945450  28.1842560  64.2729210  53.6516310
  35.1028670  60.8276790  52.3595120  34.3776860  61.4205570  52.1624510
  35.6304130  60.8200330  51.5608490  26.7191540  63.3134650  43.2649380
  27.4062670  63.8603860  43.6456970  25.9323960  63.8575380  43.2998990
  18.8583940  58.9307470  38.7566460  19.7278790  59.2132270  39.0402380
  18.3674260  59.7443340  38.6415270  28.3251360  65.8287020  50.1067040
  28.9693580  66.0346400  50.7840460  28.6880800  65.0675420  49.6537890
  21.9230530  50.6618330  43.3497260  21.7945160  50.6536230  44.2982180
  21.0992550  51.0001420  42.9988270  29.5983440  63.8319370  48.8244490
  30.2405670  63.1312530  48.9376660  30.1232790  64.6117810  48.6441380
  31.3721060  64.6314270  52.0280550  31.7077300  65.2180960  52.7058470
  30.4521400  64.5006980  52.2578340  19.2255190  68.1434850  39.3228090
  19.5852830  68.7424190  38.6685360  19.0847530  68.6894740  40.0963120
  18.9224460  52.4209450  52.8103960  18.2082980  52.6206370  53.4156570
  19.3419500  51.6449020  53.1818760  19.2097050  66.4089710  53.7970490
  19.3188170  65.4684450  53.6565880  18.5577610  66.6744460  53.1484220
  27.2009640  64.6805600  55.1968610  26.8806510  63.9614840  55.7414300
  26.5268000  65.3560670  55.2704670  25.2423810  65.5266050  40.1401760
  25.2333910  66.2595740  39.5246270  24.3222170  65.2797630  40.2328720
  20.8430450  60.7480940  40.8848520  20.2358400  61.4879840  40.8943820
  21.3179800  60.8380300  40.0586720  30.4163240  54.9131760  50.5605410
  30.7844060  54.0926970  50.8884980  29.5561440  54.9733650  50.9761060
  28.2283410  65.5894290  38.8026950  28.3295390  65.3858280  37.8728930
  27.3285150  65.3352570  39.0074730  27.3765230  57.5671350  50.7843380
  27.8750480  58.0417170  51.4495230  27.5188180  56.6434870  50.9913410
  26.8701520  68.1080610  43.4974620  27.1243020  68.0702000  42.5753990
  25.9214000  67.9813940  43.4902870  34.5832090  53.7839310  51.6271770
  34.0805690  54.5244710  51.9665580  35.3988750  54.1723310  51.3108560
  22.3497210  68.2912550  46.4204520  23.0859690  67.7428010  46.6913090
  22.7338130  69.1568560  46.2810510  19.2342690  64.3586120  42.2946030
  18.3082470  64.6007260  42.2851440  19.6999120  65.1860380  42.1730780
  21.3555490  67.4758620  55.6090100  22.1568220  67.7970670  56.0225500
  20.8407310  67.1154200  56.3310010  25.4599520  67.4642860  38.2430090
  26.2528130  67.7531690  37.7911880  24.9403870  67.0335030  37.5642570
  30.1920120  63.5838490  55.5565510  29.5858280  63.6070090  54.8161260
  29.8874230  62.8521530  56.0932760  31.6220490  67.3118780  54.1674920
  32.5742240  67.2276800  54.1175160  31.4748710  67.9760490  54.8408710
  19.0753300  59.9632080  54.5526150  19.5792320  59.3839360  55.1242380
  18.3360720  60.2472310  55.0902520  25.9776920  62.6846270  38.1072440
  25.8727560  62.0698620  38.8333820  25.8101140  62.1612160  37.3235450
  26.1291240  61.3703070  54.0861670  25.3636910  61.9388070  54.0016340
  26.3107200  61.0779280  53.1929900  33.2714590  63.1008400  54.6436690
  34.0124060  63.4384160  54.1404150  32.5087270  63.2700460  54.0906460
  21.1076380  58.1061670  55.4476220  21.1481720  57.8075540  56.3561450
  21.9621880  58.5069280  55.2883740  23.0482190  56.6853770  53.4150710
  22.5178650  56.1944720  52.7874050  23.7170260  57.1137970  52.8808640
  31.9460250  61.1523230  53.1791900  32.3601270  61.3068310  54.0282320
  31.0111250  61.2778450  53.3417680  32.4182420  58.4919390  55.1831050
  33.0003190  57.7371710  55.0951530  32.5944190  59.0226830  54.4062530
  23.5354490  53.6516140  53.4948000  23.4411360  53.0336890  52.7698870
  22.9551880  54.3782430  53.2677910  26.3015930  52.2089380  50.5275390
  25.8533230  52.2313640  49.6820940  25.6681130  51.8108400  51.1245690
  26.7075480  61.1043710  51.1487830  27.1263590  61.9476440  50.9764070
  25.7884110  61.2415750  50.9194610  29.0439380  58.8359890  52.5325670
  29.1635590  58.2401030  53.2720510  29.9033380  58.8729580  52.1126970
  31.3827280  59.3897080  51.1088180  30.8562500  59.9139700  50.5053320
  31.7258620  60.0224470  51.7397910  24.5582900  67.4096720  52.2645560
  24.0203990  68.1342780  51.9454260  24.8116860  66.9327060  51.4742900
  25.8108150  55.3781240  53.7901490  26.4007840  55.0697090  54.4779310
  24.9928390  54.9060990  53.9461390  30.6301580  54.9947050  54.0234510
  29.9417100  54.3328590  53.9584500  31.3507600  54.5485320  54.4682970
  27.4145110  68.6447930  52.5232210  27.3403810  69.5483070  52.8304580
  26.5123950  68.3259830  52.4954280  27.9630440  67.8106440  40.1458570
  28.8581230  68.1491410  40.1677330  27.9948070  67.0885850  39.5182850
  21.6026600  63.1833490  38.3745570  22.0401470  63.7263160  39.0303150
  22.0874330  62.3580440  38.3841910  18.8172400  65.9722520  45.8265830
  19.1475410  65.1043580  45.5944470  19.2463400  66.1781040  46.6570790
  23.4134320  64.3031530  43.4867800  23.1129860  64.1796500  44.3871710
  23.3071810  63.4440120  43.0783530  19.3062610  66.8393110  48.5647460
  18.8693600  67.0193910  49.3971610  19.8740290  67.5967730  48.4229180
  34.9424790  66.3410110  52.8524770  34.3426780  66.4002670  52.1088690
  35.0718690  65.4015090  52.9821620  19.1387040  59.3513340  44.9236340
  18.4835880  59.0824980  44.2796040  19.9764990  59.2417820  44.4738320
  33.6276430  63.0662090  50.9500930  32.8136270  63.4959250  51.2126720
  34.0350630  63.6780500  50.3369980  20.1762970  59.7365910  49.4639680
  20.5436010  59.6493310  50.3435700  19.6073790  58.9732460  49.3646540
  34.9766830  58.2050290  52.4770150  34.7452920  57.9763040  51.5768100
  35.2371380  59.1249840  52.4315040  19.7278970  56.6475000  53.3698100
  18.8335020  56.6141760  53.7091810  20.2676520  56.8461790  54.1349350
  33.4154900  53.4306720  55.2549850  34.2925080  53.4390120  55.6383850
  33.4275740  52.6937560  54.6442200  18.3525120  56.5612270  40.8661670
  17.4489200  56.8242470  40.6913330  18.8365740  56.8323440  40.0861630
  35.0407890  57.3676130  49.6657420  34.0910600  57.3339670  49.7802410
  35.2220900  58.2776240  49.4307190  20.5426490  51.6717140  37.8158700
  21.2654620  52.2126080  38.1339920  20.8151010  51.3980560  36.9400240
  20.2318680  50.9223330  47.7181320  20.8794870  50.3720710  47.2776480
  20.6520520  51.1766480  48.5397130  34.1271020  51.1164690  51.0750960
  34.7643240  51.7298830  51.4410150  34.2745910  51.1525350  50.1300190
  19.9850680  51.0779000  50.4606640  19.6365500  51.5342820  51.2264820
  19.6538380  50.1836130  50.5429070  21.5915050  64.2498600  54.6259830
  21.5484680  63.8791510  55.5074290  21.7226060  65.1876170  54.7661650
  25.2921080  65.8058190  50.2269550  25.0512440  66.0732750  49.3400070
  26.2323720  65.9763920  50.2820410  27.4975500  52.2690880  53.9826060
  27.4364390  52.8612710  54.7321470  28.4375880  52.1616840  53.8376320
  30.1350060  51.9260940  53.6218350  30.7490470  52.2440230  52.9599430
  30.6799620  51.4409530  54.2414210  36.5525240  67.8252570  51.0280190
  36.0583520  68.2221440  50.3107320  35.9438530  67.2001780  51.4217470
  20.6571320  50.6055200  53.7357410  21.2054310  50.4243250  52.9723520
  20.7226630  49.8149310  54.2713720  21.4303080  67.1960850  51.7457610
  20.8363400  67.0645550  52.4847650  21.4226920  66.3598990  51.2799710
  31.7830080  52.6963950  51.3329360  31.4543440  51.8815710  50.9531090
  32.7312380  52.6533760  51.2095050  34.2364690  68.4675990  48.3066930
  33.7767660  69.2191800  47.9324950  33.6077150  67.7482460  48.2481730
  21.0615310  64.5619230  50.6965650  20.3349370  63.9424520  50.6291600
  21.1224460  64.9559840  49.8263730  24.6660410  66.7764230  47.4815060
  25.1825430  66.1651590  46.9563320  25.3157790  67.2793010  47.9726070
  27.4055910  67.6672720  48.3084040  27.6933720  67.4127020  47.4317050
  27.9179130  67.1150080  48.8989610  19.3445310  67.8793620  43.9062410
  19.1767350  67.2464300  44.6044300  18.4779820  68.0853020  43.5556600
  19.9673330  51.7110400  41.4094270  20.7252690  51.8239280  40.8358300
  19.5050500  52.5479600  41.3637700  20.9508010  66.5726850  41.3512550
  20.4255630  66.9534880  40.6474510  20.8752590  67.1977620  42.0722260
  27.4728270  68.5888820  55.6752240  28.3995580  68.3533090  55.7188200
  27.4578700  69.4160820  55.1938270  24.6591880  51.2533570  55.4394120
  24.3776150  51.7567170  54.6754940  25.0411580  50.4555320  55.0736250
  23.5500980  68.5209230  40.2261800  24.2819800  68.2368510  39.6785690
  23.8094650  68.2822510  41.1161180  22.7115770  64.6373960  40.2308130
  22.0824650  65.1059060  40.7793960  22.8263600  63.7923180  40.6654320
  31.2607340  50.6687150  56.0174590  31.1472790  50.9881760  56.9126110
  32.0777080  51.0699660  55.7211870  34.0405830  67.8158680  55.4993280
  34.8331150  67.3207910  55.2919240  34.3338980  68.4948820  56.1068890
  22.2950620  64.8118540  29.3352380  22.5978660  63.9216280  29.1562600
  23.0394210  65.3688760  29.1074630  20.7241310  55.7380340  22.9236750
  19.8358010  56.0796310  22.8216630  21.0082500  55.5380660  22.0317580
  18.6874320  58.3385990  28.8076450  19.2590430  57.5708190  28.8080090
  18.6875860  58.6374750  27.8983060  28.5454270  67.1576840  26.6621720
  27.9265710  67.6134340  26.0916160  29.4006050  67.3128300  26.2611420
  19.9299190  53.7470350  30.5945380  19.7502030  52.8496100  30.8748140
  19.5279270  54.2942220  31.2692330  23.4868480  63.5372750  32.5486410
  24.1042480  64.2123830  32.2670860  22.6261600  63.9460730  32.4573910
  18.7800820  62.7272610  21.4293260  18.4028800  63.2159710  20.6978160
  19.0373890  63.3997890  22.0599790  31.9404810  66.8456290  29.1786230
  31.9531970  66.4418580  28.3108490  31.3880030  67.6203580  29.0747660
  28.7639590  55.4654830  20.6206050  27.8243260  55.6268790  20.7058510
  29.0822850  56.1840510  20.0742040  24.8508850  63.4070130  28.5697830
  24.5537140  62.8015600  27.8905610  25.8008670  63.4447440  28.4587190
  23.9427280  63.1451820  35.2205630  23.0455810  63.3691790  35.4679030
  23.9680150  63.2686760  34.2717030  30.9832500  59.9944940  21.1346890
  31.4225780  59.1567370  20.9884710  31.6960920  60.6274340  21.2211030
  29.0927880  64.9341010  25.1028130  29.5323790  65.6765340  24.6883520
  29.0314770  65.1767580  26.0267090  24.5678850  65.9586840  36.0048150
  24.5394280  66.3629790  35.1376580  24.4043820  65.0297200  35.8419750
  34.5649640  51.2487750  19.4487930  34.2522300  51.3414580  20.3487000
  35.3262110  51.8268780  19.3985360  18.7217150  61.7862690  29.7133910
  18.7997570  61.9211460  28.7689630  19.3358830  61.0778580  29.9062030
  19.9664780  63.4862880  26.1240090  19.5592860  63.6277470  25.2693690
  20.8577790  63.2023040  25.9211300  29.7843660  67.6354790  33.0307140
  30.2988330  67.5462800  33.8329570  28.9412740  67.9814490  33.3235050
  31.7598060  67.9210130  22.4591140  31.5999200  67.6313070  23.3572970
  31.5944770  67.1450260  21.9236370  24.2386440  67.7008660  24.2362760
  24.0628920  66.7844200  24.0230560  23.3842180  68.0595950  24.4760560
  31.4624190  65.4297690  21.0189140  30.7689350  65.4274980  20.3591420
  32.2047050  65.0057010  20.5883310  31.0274120  67.0560400  25.0937630
  31.4831070  66.2749780  25.4076250  31.3666640  67.7667220  25.6378810
  18.7776670  62.8276860  32.2528370  18.9407710  62.3582220  31.4347740
  19.2429120  62.3200420  32.9177210  20.9119410  54.3915440  33.8364240
  20.5182800  55.2390650  34.0437020  20.2237810  53.7541810  34.0272880
  18.2136460  52.3143900  27.8694320  17.9249510  52.8846760  28.5819300
  18.9582220  51.8348350  28.2325550  18.4006690  56.2564020  19.0797040
  18.3181360  57.1994780  19.2212030  18.0489750  56.1138930  18.2009390
  26.2624970  55.9915130  21.1374150  26.3837790  55.9501610  22.0859970
  25.8773480  56.8539280  20.9820880  25.2746470  58.3016270  20.5357450
  24.7063370  57.8534520  19.9093360  25.9835470  58.6609050  20.0022600
  20.3515650  62.2028290  34.4124180  19.9670440  61.5621960  35.0107140
  20.6627840  62.9064410  34.9818910  19.3653280  53.7948520  26.0226270
  19.0800200  53.4304190  26.8604890  19.3032140  53.0628980  25.4089410
  22.8193950  62.2974460  22.8083860  22.0456210  61.7572080  22.6482580
  23.5488580  61.7781070  22.4701620  29.0391870  52.6877780  22.7439640
  28.2256480  52.1890950  22.6684950  28.8453820  53.5276030  22.3275990
  31.7540260  57.0597430  21.0401800  32.6419880  57.3714660  20.8653140
  31.7245350  56.1869680  20.6482380  27.7500850  63.2321120  21.7189970
  28.0916550  63.9763350  21.2233290  26.9213560  63.5452240  22.0814800
  20.3475890  58.9316210  33.3588370  19.9890830  59.5970060  33.9461710
  20.0530450  58.0999760  33.7300990  28.8917460  64.1869450  34.2383050
  28.9062000  63.2550410  34.0201960  28.1842560  64.2729210  34.8772820
  34.0254530  58.3709270  20.5081660  33.9418250  58.8023490  19.6578100
  34.7448720  58.8307620  20.9408480  26.7191540  63.3134650  24.4905890
  27.4062670  63.8603860  24.8713480  25.9323960  63.8575380  24.5255500
  18.8583940  58.9307470  19.9822970  19.7278790  59.2132270  20.2658890
  18.3674260  59.7443340  19.8671780  28.3251360  65.8287020  31.3323550
  28.9693580  66.0346400  32.0096970  28.6880800  65.0675420  30.8794400
  21.9230530  50.6618330  24.5753770  21.7945160  50.6536230  25.5238690
  21.0992550  51.0001420  24.2244780  33.4439160  64.1167990  19.7740140
  33.2176740  63.3998430  20.3664780  33.0535360  63.8680430  18.9361890
  19.2255190  68.1434850  20.5484600  19.5852830  68.7424190  19.8941870
  19.0847530  68.6894740  21.3219630  18.9224460  52.4209450  34.0360470
  18.2082980  52.6206370  34.6413080  19.3419500  51.6449020  34.4075270
  33.0255410  62.0339930  21.4354300  32.7377110  62.4952620  22.2232180
  33.8207580  61.5737700  21.7038520  19.2097050  66.4089710  35.0227000
  19.3188170  65.4684450  34.8822390  18.5577610  66.6744460  34.3740730
  27.2009640  64.6805600  36.4225120  26.8806510  63.9614840  36.9670810
  26.5268000  65.3560670  36.4961180  25.2423810  65.5266050  21.3658270
  25.2333910  66.2595740  20.7502780  24.3222170  65.2797630  21.4585230
  20.8430450  60.7480940  22.1105030  20.2358400  61.4879840  22.1200330
  21.3179800  60.8380300  21.2843230  28.2283410  65.5894290  20.0283460
  28.3295390  65.3858280  19.0985440  27.3285150  65.3352570  20.2331240
  26.8701520  68.1080610  24.7231130  27.1243020  68.0702000  23.8010500
  25.9214000  67.9813940  24.7159380  23.9544320  54.4559730  21.3858070
  24.8034850  54.8929880  21.3198260  23.5875590  54.7679990  22.2130130
  22.8535740  60.7092090  19.8593600  23.6199010  60.5973450  20.4219030
  22.9310430  60.0130060  19.2070370  21.5482500  58.1417160  20.5426490
  21.6286090  57.1944670  20.6543890  22.4402250  58.4724040  20.6487150
  22.3497210  68.2912550  27.6461030  23.0859690  67.7428010  27.9169600
  22.7338130  69.1568560  27.5067020  19.2342690  64.3586120  23.5202540
  18.3082470  64.6007260  23.5107950  19.6999120  65.1860380  23.3987290
  21.3555490  67.4758620  36.8346610  22.1568220  67.7970670  37.2482010
  20.8407310  67.1154200  37.5566520  25.4599520  67.4642860  19.4686600
  26.2528130  67.7531690  19.0168390  24.9403870  67.0335030  18.7899080
  31.6220490  67.3118780  35.3931430  32.5742240  67.2276800  35.3431670
  31.4748710  67.9760490  36.0665220  34.5129690  66.6912990  20.8923340
  34.2271200  66.2778130  20.0777520  34.3149240  67.6200700  20.7723860
  19.0753300  59.9632080  35.7782660  19.5792320  59.3839360  36.3498890
  18.3360720  60.2472310  36.3159030  25.9776920  62.6846270  19.3328950
  25.8727560  62.0698620  20.0590330  25.8101140  62.1612160  18.5491960
  29.2179650  61.7466300  19.9370940  28.6689750  62.1935600  20.5813680
  29.8398910  61.2415550  20.4608610  21.1076380  58.1061670  36.6732730
  21.1481720  57.8075540  37.5817960  21.9621880  58.5069280  36.5140250
  24.8854770  60.7057220  21.8336240  25.3071190  60.5397090  22.6767630
  25.0105610  59.8957450  21.3391380  27.3982410  59.7294830  19.0813340
  27.9188070  59.0143850  18.7154490  28.0450810  60.3680700  19.3813850
  23.7813670  56.7790450  18.7794400  23.5802730  55.9157810  19.1407740
  23.6105720  56.6923810  17.8416000  24.5582900  67.4096720  33.4902070
  24.0203990  68.1342780  33.1710770  24.8116860  66.9327060  32.6999410
  31.2601980  51.5898680  21.3081280  31.5404270  50.7466580  21.6640700
  30.4867710  51.8221790  21.8220030  22.5796470  53.8791070  18.7672280
  22.8822370  53.8858500  17.8591430  23.3191060  53.5288930  19.2639940
  27.4145110  68.6447930  33.7488720  27.3403810  69.5483070  34.0561090
  26.5123950  68.3259830  33.7210790  25.7981400  52.8225690  19.7528480
  25.4503400  52.1449680  19.1730930  25.9994170  52.3615200  20.5671870
  27.9630440  67.8106440  21.3715080  28.8581230  68.1491410  21.3933840
  27.9948070  67.0885850  20.7439360  21.6026600  63.1833490  19.6002080
  22.0401470  63.7263160  20.2559660  22.0874330  62.3580440  19.6098420
  18.8172400  65.9722520  27.0522340  19.1475410  65.1043580  26.8200980
  19.2463400  66.1781040  27.8827300  23.4134320  64.3031530  24.7124310
  23.1129860  64.1796500  25.6128220  23.3071810  63.4440120  24.3040040
  19.3062610  66.8393110  29.7903970  18.8693600  67.0193910  30.6228120
  19.8740290  67.5967730  29.6485690  36.1826240  64.0827930  19.4150990
  35.3519200  64.1504580  19.8858220  36.3598070  64.9732050  19.1117850
  19.1387040  59.3513340  26.1492850  18.4835880  59.0824980  25.5052550
  19.9764990  59.2417820  25.6994830  35.6901870  61.1209780  19.0757710
  35.9650710  62.0288660  18.9476930  35.5012610  61.0572310  20.0119700
  32.0877480  54.1454630  20.3711340  32.5062360  53.9585610  19.5308000
  31.7813540  53.2933680  20.6814270  20.1762970  59.7365910  30.6896190
  20.5436010  59.6493310  31.5692210  19.6073790  58.9732460  30.5903050
  19.7278970  56.6475000  34.5954610  18.8335020  56.6141760  34.9348320
  20.2676520  56.8461790  35.3605860  18.3525120  56.5612270  22.0918180
  17.4489200  56.8242470  21.9169840  18.8365740  56.8323440  21.3118140
  20.8952330  55.6177810  20.0012560  21.6044030  55.1961030  19.5159840
  20.1792270  55.6853040  19.3695910  20.5426490  51.6717140  19.0415210
  21.2654620  52.2126080  19.3596430  20.8151010  51.3980560  18.1656750
  20.2318680  50.9223330  28.9437830  20.8794870  50.3720710  28.5032990
  20.6520520  51.1766480  29.7653640  36.6695570  53.0078480  19.0830610
  37.5944880  52.8759660  18.8748900  36.6471360  53.0871300  20.0367060
  36.7434060  53.7789140  21.7087320  35.9485560  53.7134260  22.2380230
  36.9477340  54.7139780  21.6972670  19.9850680  51.0779000  31.6863150
  19.6365500  51.5342820  32.4521330  19.6538380  50.1836130  31.7685580
  21.5915050  64.2498600  35.8516340  21.5484680  63.8791510  36.7330800
  21.7226060  65.1876170  35.9918160  25.2921080  65.8058190  31.4526060
  25.0512440  66.0732750  30.5656580  26.2323720  65.9763920  31.5076920
  20.6571320  50.6055200  34.9613920  21.2054310  50.4243250  34.1980030
  20.7226630  49.8149310  35.4970230  21.4303080  67.1960850  32.9714120
  20.8363400  67.0645550  33.7104160  21.4226920  66.3598990  32.5056220
  21.0615310  64.5619230  31.9222160  20.3349370  63.9424520  31.8548110
  21.1224460  64.9559840  31.0520240  24.6660410  66.7764230  28.7071570
  25.1825430  66.1651590  28.1819830  25.3157790  67.2793010  29.1982580
  27.4055910  67.6672720  29.5340550  27.6933720  67.4127020  28.6573560
  27.9179130  67.1150080  30.1246120  19.3445310  67.8793620  25.1318920
  19.1767350  67.2464300  25.8300810  18.4779820  68.0853020  24.7813110
  19.9673330  51.7110400  22.6350780  20.7252690  51.8239280  22.0614810
  19.5050500  52.5479600  22.5894210  34.1546720  50.8913680  22.1376440
  34.3497350  51.7897130  22.4043870  33.3676590  50.6600760  22.6309390
  20.9508010  66.5726850  22.5769060  20.4255630  66.9534880  21.8731020
  20.8752590  67.1977620  23.2978770  22.3398480  52.2374450  21.1752750
  22.8691240  51.4504250  21.0460700  22.9726800  52.9165640  21.4088280
  27.4728270  68.5888820  36.9008750  28.3995580  68.3533090  36.9444710
  27.4578700  69.4160820  36.4194780  23.5500980  68.5209230  21.4518310
  24.2819800  68.2368510  20.9042200  23.8094650  68.2822510  22.3417690
  22.7115770  64.6373960  21.4564640  22.0824650  65.1059060  22.0050470
  22.8263600  63.7923180  21.8910830  30.1665490  58.6879620   7.6065840
  30.0859540  57.7734230   7.3357550  29.7529910  59.1846690   6.9005550
  28.2983530  60.4658640   9.4875110  27.5225630  59.9859080   9.7773680
  28.9496460  59.7864290   9.3131270  22.3149360  60.7778450  10.3650870
  21.4834240  60.5227160  10.7647380  22.9230340  60.8489220  11.1008790
  32.3190960  64.8718830   8.2674240  31.8572490  64.1006070   8.5961410
  33.1316510  64.8984900   8.7726690  22.2950620  64.8118540  10.5608890
  22.5978660  63.9216280  10.3819110  23.0394210  65.3688760  10.3331140
  20.7241310  55.7380340   4.1493260  19.8358010  56.0796310   4.0473140
  21.0082500  55.5380660   3.2574090  18.6874320  58.3385990  10.0332960
  19.2590430  57.5708190  10.0336600  18.6875860  58.6374750   9.1239570
  28.5454270  67.1576840   7.8878230  27.9265710  67.6134340   7.3172670
  29.4006050  67.3128300   7.4867930  27.7392520  63.1415830   9.4945270
  27.6700800  62.2005770   9.3334400  28.5012380  63.2317240  10.0667840
  19.9299190  53.7470350  11.8201890  19.7502030  52.8496100  12.1004650
  19.5279270  54.2942220  12.4948840  28.7697690  55.9486210   9.7214200
  29.1462510  55.0758090   9.6087870  28.6717200  56.2844910   8.8304640
  22.9002700  54.3211840   5.1831640  23.0069450  55.2215570   5.4900400
  21.9895060  54.2729810   4.8926290  32.5521810  53.4436650   6.6542540
  33.3731430  52.9533220   6.6968020  32.5855890  54.0334310   7.4074380
  20.5485860  56.2430850  10.4284230  21.2295970  56.5069220  11.0471630
  20.2333910  55.4031720  10.7622240  24.7410430  57.2898210   9.5156820
  25.2488650  57.7879180  10.1561840  25.2723670  56.5133410   9.3396180
  36.8421360  55.4603400  13.2186170  36.1373530  55.8485110  12.7001280
  37.1079280  56.1553690  13.8207100  23.0246530  51.9296770  13.7820240
  23.0264970  52.4469160  12.9766140  22.1950840  51.4526950  13.7590170
  29.4117620  62.0416080   5.2810140  28.7934890  62.5065530   4.7172860
  29.9240870  62.7343560   5.6979650  24.2749380  61.5691950  11.9593740
  23.9418760  62.1960870  12.6014810  24.4516060  62.0953830  11.1795410
  32.7883290  55.3837030   9.4270080  32.0838860  55.6721920  10.0073190
  33.1495450  56.1937140   9.0669640  22.7061860  53.6406730  11.7890690
  23.0478670  54.4848780  11.4944560  21.7677670  53.7890470  11.9056030
  23.4868480  63.5372750  13.7742920  24.1042480  64.2123830  13.4927370
  22.6261600  63.9460730  13.6830420  18.7800820  62.7272610   2.6549770
  18.4028800  63.2159710   1.9234670  19.0373890  63.3997890   3.2856300
  34.4046070  65.0012160  11.6897560  33.7209590  65.6711270  11.6814230
  34.9440360  65.1992810  10.9242420  35.8570210  54.8291820   9.8179290
  34.9095120  54.8630800   9.9494720  36.1820200  55.6430770  10.2028650
  26.3889750  51.1289000   8.1135280  26.6964730  50.5735890   7.3970780
  25.4590450  51.2633460   7.9308270  31.9404810  66.8456290  10.4042740
  31.9531970  66.4418580   9.5365000  31.3880030  67.6203580  10.3004170
  33.2350230  63.5672510   5.4932910  33.1246560  62.6246840   5.6182330
  33.2318480  63.9288150   6.3795670  31.3390250  61.7486130  11.7325350
  31.7559040  61.5346240  10.8978810  32.0630070  62.0058920  12.3033970
  28.7770510  59.1937830   4.8495400  27.8499790  59.1275210   5.0783870
  28.9295330  60.1317960   4.7350640  35.2852350  60.1473350  11.8241590
  34.4570980  60.2166440  11.3491720  35.8802830  60.7327660  11.3557420
  32.8067800  60.7558130   5.3530650  32.1880220  60.4177680   4.7056950
  32.7892250  60.1117890   6.0609840  32.2494360  56.9342670  12.7696460
  31.8365540  57.7596380  13.0236450  31.5170310  56.3487710  12.5772820
  24.3827150  59.7202570   7.6315130  23.9784150  59.0079820   7.1361030
  24.4690270  59.3755810   8.5203170  24.8508850  63.4070130   9.7954340
  24.5537140  62.8015600   9.1162120  25.8008670  63.4447440   9.6843700
  23.0955770  56.4945780  11.4114170  23.6470360  56.6041120  10.6367420
  23.6099280  56.8683380  12.1269400  32.9394460  66.9802000  13.4577440
  32.4625020  67.7874190  13.2650050  32.2556250  66.3280330  13.6103650
  23.9427280  63.1451820  16.4462140  23.0455810  63.3691790  16.6935540
  23.9680150  63.2686760  15.4973540  30.9832500  59.9944940   2.3603400
  31.4225780  59.1567370   2.2141220  31.6960920  60.6274340   2.4467540
  22.7698500  60.0165140  15.0219510  22.6306270  60.8887940  15.3906910
  21.8879860  59.6737950  14.8767450  29.0927880  64.9341010   6.3284640
  29.5323790  65.6765340   5.9140030  29.0314770  65.1767580   7.2523600
  24.5678850  65.9586840  17.2304660  24.5394280  66.3629790  16.3633090
  24.4043820  65.0297200  17.0676260  21.0831780  58.6147550   5.1321780
  20.9629380  59.3409640   4.5203050  20.7732670  57.8450460   4.6549690
  36.5193670  66.7413940  18.5268830  36.9953390  67.2196830  19.2057910
  37.1400830  66.6731430  17.8014330  18.7217150  61.7862690  10.9390420
  18.7997570  61.9211460   9.9946140  19.3358830  61.0778580  11.1318540
  19.9664780  63.4862880   7.3496600  19.5592860  63.6277470   6.4950200
  20.8577790  63.2023040   7.1467810  35.9226920  63.9326790  15.6868840
  36.0489980  63.6938670  14.7686020  35.9648300  63.1011330  16.1590920
  29.7843660  67.6354790  14.2563650  30.2988330  67.5462800  15.0586080
  28.9412740  67.9814490  14.5491560  31.7598060  67.9210130   3.6847650
  31.5999200  67.6313070   4.5829480  31.5944770  67.1450260   3.1492880
  24.2386440  67.7008660   5.4619270  24.0628920  66.7844200   5.2487070
  23.3842180  68.0595950   5.7017070  31.0274120  67.0560400   6.3194140
  31.4831070  66.2749780   6.6332760  31.3666640  67.7667220   6.8635320
  35.7750930  55.9859250  16.6518580  35.1595200  56.4938920  16.1234040
  35.4547350  55.0857580  16.5944520  18.7776670  62.8276860  13.4784880
  18.9407710  62.3582220  12.6604250  19.2429120  62.3200420  14.1433720
  23.5495440  51.9582620   8.5145450  23.1063590  52.7392160   8.1829970
  24.1080430  52.2812510   9.2216390  27.8365250  54.8251140  14.1180770
  27.3744620  55.0334160  14.9300710  27.4343360  54.0110490  13.8151440
  32.8369760  56.0460090  15.2477430  31.9863350  55.7465840  15.5686500
  32.6771550  56.2902100  14.3361250  29.9319470  57.5461840  17.3476220
  30.2572880  56.7125590  17.0078450  30.7199800  58.0690360  17.4954550
  26.6654260  51.5793320   3.3951280  26.0408440  51.5753190   4.1204590
  26.5784380  50.7124280   2.9987250  25.5871340  52.5029950  10.3735050
  25.8843670  53.4092780  10.2927070  26.1356900  52.0148730   9.7594620
  23.3409660  57.0816190   6.2426700  23.1150580  56.8653360   7.1473320
  22.5602190  57.5144650   5.8972670  30.5707420  57.0879560   4.8417350
  29.9716310  57.8115360   4.6580970  31.1187030  57.0256340   4.0593800
  25.7808870  57.9801770  16.9086970  25.6852470  57.0396500  16.7587370
  26.6240850  58.2016840  16.5135040  29.1772290  55.7243100   6.8720630
  29.5701860  56.0415300   6.0589320  29.5389140  54.8454980   6.9865150
  20.9119410  54.3915440  15.0620750  20.5182800  55.2390650  15.2693530
  20.2237810  53.7541810  15.2529390  27.4864460  54.4750410  18.1317490
  26.7962780  54.2822610  18.7663580  28.2296760  54.7585050  18.6641790
  18.2136460  52.3143900   9.0950830  17.9249510  52.8846760   9.8075810
  18.9582220  51.8348350   9.4582060  29.7627430  58.3148850  10.9671410
  29.0308550  58.8235660  11.3161510  29.3651770  57.4978830  10.6660190
  26.2004820  54.9903050   9.3723900  26.2040880  54.5493000   8.5228440
  27.0955940  55.3120380   9.4795720  22.0507200  54.8729540   8.3318110
  21.7107250  55.3504770   9.0885160  21.2884520  54.4194660   7.9719210
  26.2624970  55.9915130   2.3630660  26.3837790  55.9501610   3.3116480
  25.8773480  56.8539280   2.2077390  30.2253340  53.7682530  10.3794350
  30.2426080  54.2191180  11.2236200  29.9768920  52.8688170  10.5927790
  33.6524090  51.1814710  16.2180730  33.9769860  50.4504370  16.7438710
  33.6880600  50.8628350  15.3161720  20.3515650  62.2028290  15.6380690
  19.9670440  61.5621960  16.2363650  20.6627840  62.9064410  16.2075420
  26.5012790  59.0504830  11.1189310  26.8682920  58.5763400  11.8650650
  26.3117850  59.9246400  11.4597650  19.3653280  53.7948520   7.2482780
  19.0800200  53.4304190   8.0861400  19.3032140  53.0628980   6.6345920
  24.2912160  58.0913470  13.4373520  23.9869230  58.9705450  13.6623880
  25.2458620  58.1513260  13.4730960  22.8193950  62.2974460   4.0340370
  22.0456210  61.7572080   3.8739090  23.5488580  61.7781070   3.6958130
  33.5781930  61.2939820   9.8266760  34.2981050  61.7895110   9.4362870
  33.3763750  60.6157710   9.1820630  29.0391870  52.6877780   3.9696150
  28.2256480  52.1890950   3.8941460  28.8453820  53.5276030   3.5532500
  28.9600730  61.3648880  15.7135760  28.8938040  60.4444550  15.4593350
  28.3305870  61.4624320  16.4280400  31.7540260  57.0597430   2.2658310
  32.6419880  57.3714660   2.0909650  31.7245350  56.1869680   1.8738890
  22.8631350  61.9654840   7.6719180  23.3810020  61.1623100   7.6176070
  22.4115370  61.9033980   8.5136010  27.7500850  63.2321120   2.9446480
  28.0916550  63.9763350   2.4489800  26.9213560  63.5452240   3.3071310
  20.3475890  58.9316210  14.5844880  19.9890830  59.5970060  15.1718220
  20.0530450  58.0999760  14.9557500  23.5489010  59.3900450  17.4684430
  23.2489150  59.5357630  16.5712250  24.3200250  58.8305740  17.3757820
  28.8917460  64.1869450  15.4639560  28.9062000  63.2550410  15.2458470
  28.1842560  64.2729210  16.1029330  35.1028670  60.8276790  14.8108140
  34.3776860  61.4205570  14.6137530  35.6304130  60.8200330  14.0121510
  35.0541780  65.2251530   4.4620300  34.4117940  64.5707150   4.7364020
  34.6672440  65.6306620   3.6860970  30.6328260  62.5536960   8.3091990
  30.9852080  61.9565090   7.6493360  29.7490590  62.2281190   8.4800240
  26.7191540  63.3134650   5.7162400  27.4062670  63.8603860   6.0969990
  25.9323960  63.8575380   5.7512010  26.0218750  60.3180680   5.3287760
  26.4781530  61.1285930   5.5547950  25.6706960  60.0003820   6.1606250
  28.3251360  65.8287020  12.5580060  28.9693580  66.0346400  13.2353480
  28.6880800  65.0675420  12.1050910  21.9230530  50.6618330   5.8010280
  21.7945160  50.6536230   6.7495200  21.0992550  51.0001420   5.4501290
  29.5983440  63.8319370  11.2757510  30.2405670  63.1312530  11.3889680
  30.1232790  64.6117810  11.0954400  31.3721060  64.6314270  14.4793570
  31.7077300  65.2180960  15.1571490  30.4521400  64.5006980  14.7091360
  18.9224460  52.4209450  15.2616980  18.2082980  52.6206370  15.8669590
  19.3419500  51.6449020  15.6331780  33.0255410  62.0339930   2.6610810
  32.7377110  62.4952620   3.4488690  33.8207580  61.5737700   2.9295030
  19.2097050  66.4089710  16.2483510  19.3188170  65.4684450  16.1078900
  18.5577610  66.6744460  15.5997240  27.2009640  64.6805600  17.6481630
  26.8806510  63.9614840  18.1927320  26.5268000  65.3560670  17.7217690
  25.2423810  65.5266050   2.5914780  25.2333910  66.2595740   1.9759290
  24.3222170  65.2797630   2.6841740  20.8430450  60.7480940   3.3361540
  20.2358400  61.4879840   3.3456840  21.3179800  60.8380300   2.5099740
  30.4163240  54.9131760  13.0118430  30.7844060  54.0926970  13.3398000
  29.5561440  54.9733650  13.4274080  33.7825270  53.8688700   3.8205990
  33.1538430  53.9734370   3.1064220  33.2877190  54.0885480   4.6099870
  25.7509300  56.1474650   5.2363870  25.0425450  56.6160990   5.6777480
  26.0353780  55.4896660   5.8709060  27.3765230  57.5671350  13.2356400
  27.8750480  58.0417170  13.9008250  27.5188180  56.6434870  13.4426430
  29.7824730  52.8725310   6.6759660  29.6592510  52.8911440   5.7269170
  30.7309290  52.9204250   6.7958060  26.8701520  68.1080610   5.9487640
  27.1243020  68.0702000   5.0267010  25.9214000  67.9813940   5.9415890
  23.9544320  54.4559730   2.6114580  24.8034850  54.8929880   2.5454770
  23.5875590  54.7679990   3.4386640  34.5832090  53.7839310  14.0784790
  34.0805690  54.5244710  14.4178600  35.3988750  54.1723310  13.7621580
  32.8754100  59.0272490   7.5246150  31.9344240  59.0422720   7.6993840
  33.1898170  58.2408450   7.9706450  21.5482500  58.1417160   1.7683000
  21.6286090  57.1944670   1.8800400  22.4402250  58.4724040   1.8743660
  34.8779680  66.1981340   9.2000410  35.0027100  67.0212510   9.6724220
  35.7445240  65.9872070   8.8524560  22.3497210  68.2912550   8.8717540
  23.0859690  67.7428010   9.1426110  22.7338130  69.1568560   8.7323530
  19.2342690  64.3586120   4.7459050  18.3082470  64.6007260   4.7364460
  19.6999120  65.1860380   4.6243800  21.3555490  67.4758620  18.0603120
  22.1568220  67.7970670  18.4738520  20.8407310  67.1154200  18.7823030
  30.1920120  63.5838490  18.0078530  29.5858280  63.6070090  17.2674280
  29.8874230  62.8521530  18.5445780  31.6220490  67.3118780  16.6187940
  32.5742240  67.2276800  16.5688180  31.4748710  67.9760490  17.2921730
  19.0753300  59.9632080  17.0039170  19.5792320  59.3839360  17.5755400
  18.3360720  60.2472310  17.5415540  26.1291240  61.3703070  16.5374690
  25.3636910  61.9388070  16.4529360  26.3107200  61.0779280  15.6442920
  33.2714590  63.1008400  17.0949710  34.0124060  63.4384160  16.5917170
  32.5087270  63.2700460  16.5419480  21.1076380  58.1061670  17.8989240
  21.1481720  57.8075540  18.8074470  21.9621880  58.5069280  17.7396760
  24.8854770  60.7057220   3.0592750  25.3071190  60.5397090   3.9024140
  25.0105610  59.8957450   2.5647890  23.0482190  56.6853770  15.8663730
  22.5178650  56.1944720  15.2387070  23.7170260  57.1137970  15.3321660
  31.9460250  61.1523230  15.6304920  32.3601270  61.3068310  16.4795340
  31.0111250  61.2778450  15.7930700  32.4182420  58.4919390  17.6344070
  33.0003190  57.7371710  17.5464550  32.5944190  59.0226830  16.8575550
  23.5354490  53.6516140  15.9461020  23.4411360  53.0336890  15.2211890
  22.9551880  54.3782430  15.7190930  26.3015930  52.2089380  12.9788410
  25.8533230  52.2313640  12.1333960  25.6681130  51.8108400  13.5758710
  26.7075480  61.1043710  13.6000850  27.1263590  61.9476440  13.4277090
  25.7884110  61.2415750  13.3707630  29.0439380  58.8359890  14.9838690
  29.1635590  58.2401030  15.7233530  29.9033380  58.8729580  14.5639990
  31.3827280  59.3897080  13.5601200  30.8562500  59.9139700  12.9566340
  31.7258620  60.0224470  14.1910930  24.5582900  67.4096720  14.7158580
  24.0203990  68.1342780  14.3967280  24.8116860  66.9327060  13.9255920
  25.8108150  55.3781240  16.2414510  26.4007840  55.0697090  16.9292330
  24.9928390  54.9060990  16.3974410  30.6301580  54.9947050  16.4747530
  29.9417100  54.3328590  16.4097520  31.3507600  54.5485320  16.9195990
  31.2601980  51.5898680   2.5337790  31.5404270  50.7466580   2.8897210
  30.4867710  51.8221790   3.0476540  27.4145110  68.6447930  14.9745230
  27.3403810  69.5483070  15.2817600  26.5123950  68.3259830  14.9467300
  27.9630440  67.8106440   2.5971590  28.8581230  68.1491410   2.6190350
  27.9948070  67.0885850   1.9695870  18.8172400  65.9722520   8.2778850
  19.1475410  65.1043580   8.0457490  19.2463400  66.1781040   9.1083810
  23.4134320  64.3031530   5.9380820  23.1129860  64.1796500   6.8384730
  23.3071810  63.4440120   5.5296550  19.3062610  66.8393110  11.0160480
  18.8693600  67.0193910  11.8484630  19.8740290  67.5967730  10.8742200
  34.9424790  66.3410110  15.3037790  34.3426780  66.4002670  14.5601710
  35.0718690  65.4015090  15.4334640  35.6382700  60.8275410   3.1441700
  36.4001610  61.3972060   3.2501390  35.6537070  60.2602610   3.9150010
  19.1387040  59.3513340   7.3749360  18.4835880  59.0824980   6.7309060
  19.9764990  59.2417820   6.9251340  36.6442670  61.6825510   7.9883630
  37.0151500  60.8992830   7.5819600  37.2844600  62.3714610   7.8100930
  33.6276430  63.0662090  13.4013950  32.8136270  63.4959250  13.6639740
  34.0350630  63.6780500  12.7883000  35.5867210  59.0578770   5.2943650
  35.2110810  58.2906700   4.8624940  34.8570330  59.4401470   5.7818580
  20.1762970  59.7365910  11.9152700  20.5436010  59.6493310  12.7948720
  19.6073790  58.9732460  11.8159560  34.9766830  58.2050290  14.9283170
  34.7452920  57.9763040  14.0281120  35.2371380  59.1249840  14.8828060
  19.7278970  56.6475000  15.8211120  18.8335020  56.6141760  16.1604830
  20.2676520  56.8461790  16.5862370  33.4154900  53.4306720  17.7062870
  34.2925080  53.4390120  18.0896870  33.4275740  52.6937560  17.0955220
  18.3525120  56.5612270   3.3174690  17.4489200  56.8242470   3.1426350
  18.8365740  56.8323440   2.5374650  34.8618170  57.2836260   8.5950890
  35.3855650  56.7898910   7.9641060  35.4477590  57.4186620   9.3398460
  35.0407890  57.3676130  12.1170440  34.0910600  57.3339670  12.2315430
  35.2220900  58.2776240  11.8820210  34.3518140  56.5409610   4.5343300
  34.8477260  56.3080480   5.3192180  34.1534210  55.7021450   4.1180940
  20.2318680  50.9223330  10.1694340  20.8794870  50.3720710   9.7289500
  20.6520520  51.1766480  10.9910150  35.7805300  55.1770560   7.0680980
  35.6704580  55.0226600   8.0063250  36.5412890  54.6491500   6.8256390
  34.1271020  51.1164690  13.5263980  34.7643240  51.7298830  13.8923170
  34.2745910  51.1525350  12.5813210  36.7434060  53.7789140   2.9343830
  35.9485560  53.7134260   3.4636740  36.9477340  54.7139780   2.9229180
  33.6852480  67.8180690   6.9282220  34.2811550  67.4965260   6.2516640
  33.9430630  67.3452510   7.7195490  19.9850680  51.0779000  12.9119660
  19.6365500  51.5342820  13.6777840  19.6538380  50.1836130  12.9942090
  21.5915050  64.2498600  17.0772850  21.5484680  63.8791510  17.9587310
  21.7226060  65.1876170  17.2174670  25.2921080  65.8058190  12.6782570
  25.0512440  66.0732750  11.7913090  26.2323720  65.9763920  12.7333430
  27.4975500  52.2690880  16.4339080  27.4364390  52.8612710  17.1834490
  28.4375880  52.1616840  16.2889340  30.1350060  51.9260940  16.0731370
  30.7490470  52.2440230  15.4112450  30.6799620  51.4409530  16.6927230
  36.5525240  67.8252570  13.4793210  36.0583520  68.2221440  12.7620340
  35.9438530  67.2001780  13.8730490  20.6571320  50.6055200  16.1870430
  21.2054310  50.4243250  15.4236540  20.7226630  49.8149310  16.7226740
  21.4303080  67.1960850  14.1970630  20.8363400  67.0645550  14.9360670
  21.4226920  66.3598990  13.7312730  30.8758100  50.4893080  12.4000660
  30.0017940  50.8228190  12.1973590  30.7668850  50.0166260  13.2252530
  31.7830080  52.6963950  13.7842380  31.4543440  51.8815710  13.4044110
  32.7312380  52.6533760  13.6608070  34.2364690  68.4675990  10.7579950
  33.7767660  69.2191800  10.3837970  33.6077150  67.7482460  10.6994750
  21.0615310  64.5619230  13.1478670  20.3349370  63.9424520  13.0804620
  21.1224460  64.9559840  12.2776750  24.6660410  66.7764230   9.9328080
  25.1825430  66.1651590   9.4076340  25.3157790  67.2793010  10.4239090
  27.4055910  67.6672720  10.7597060  27.6933720  67.4127020   9.8830070
  27.9179130  67.1150080  11.3502630  28.6232920  51.4062920  11.3393570
  27.8404710  51.8808420  11.6190330  28.3295850  50.5017750  11.2306750
  33.1753990  52.1086020   9.3842660  33.6162080  52.0531120   8.5364260
  32.9061580  53.0244030   9.4552840  35.0392560  51.7401260   7.3951480
  34.9780960  50.7962480   7.2482500  35.8184590  51.8481350   7.9404940
  19.3445310  67.8793620   6.3575430  19.1767350  67.2464300   7.0557320
  18.4779820  68.0853020   6.0069620  19.9673330  51.7110400   3.8607290
  20.7252690  51.8239280   3.2871320  19.5050500  52.5479600   3.8150720
  26.5087140  53.8249670   6.8509600  25.6961650  53.4506560   6.5105480
  27.0128780  53.0694750   7.1530790  31.0112120  50.4892120   8.0892670
  31.6141490  51.0612330   8.5641190  30.2705110  51.0531560   7.8666570
  34.1546720  50.8913680   3.3632950  34.3497350  51.7897130   3.6300380
  33.3676590  50.6600760   3.8565900  20.9508010  66.5726850   3.8025570
  20.4255630  66.9534880   3.0987530  20.8752590  67.1977620   4.5235280
  22.3398480  52.2374450   2.4009260  22.8691240  51.4504250   2.2717210
  22.9726800  52.9165640   2.6344790  24.5336320  51.9749590   5.4554650
  23.9039060  51.2736900   5.6224780  23.9941460  52.7353720   5.2387810
  27.4728270  68.5888820  18.1265260  28.3995580  68.3533090  18.1701220
  27.4578700  69.4160820  17.6451290  35.7073330  68.1314390   5.1239510
  35.8825520  67.4452130   4.4800430  35.0094900  68.6561440   4.7316180
  24.6591880  51.2533570  17.8907140  24.3776150  51.7567170  17.1267960
  25.0411580  50.4555320  17.5249270  23.5500980  68.5209230   2.6774820
  24.2819800  68.2368510   2.1298710  23.8094650  68.2822510   3.5674200
  22.7115770  64.6373960   2.6821150  22.0824650  65.1059060   3.2306980
  22.8263600  63.7923180   3.1167340  31.2607340  50.6687150  18.4687610
  31.1472790  50.9881760  19.3639130  32.0777080  51.0699660  18.1724890
  34.0405830  67.8158680  17.9506300  34.8331150  67.3207910  17.7432260
  34.3338980  68.4948820  18.5581910  30.1665490  39.9136130  63.9296310
  30.0859540  38.9990740  63.6588020  29.7529910  40.4103200  63.2236020
  28.2983530  41.6915150  65.8105580  27.5225630  41.2115590  66.1004150
  28.9496460  41.0120800  65.6361740  22.3149360  42.0034960  66.6881340
  21.4834240  41.7483670  67.0877850  22.9230340  42.0745730  67.4239260
  32.3190960  46.0975340  64.5904710  31.8572490  45.3262580  64.9191880
  33.1316510  46.1241410  65.0957160  22.2950620  46.0375050  66.8839360
  22.5978660  45.1472790  66.7049580  23.0394210  46.5945270  66.6561610
  20.7241310  36.9636850  60.4723730  19.8358010  37.3052820  60.3703610
  21.0082500  36.7637170  59.5804560  18.6874320  39.5642500  66.3563430
  19.2590430  38.7964700  66.3567070  18.6875860  39.8631260  65.4470040
  28.5454270  48.3833350  64.2108700  27.9265710  48.8390850  63.6403140
  29.4006050  48.5384810  63.8098400  27.7392520  44.3672340  65.8175740
  27.6700800  43.4262280  65.6564870  28.5012380  44.4573750  66.3898310
  19.9299190  34.9726860  68.1432360  19.7502030  34.0752610  68.4235120
  19.5279270  35.5198730  68.8179310  28.7697690  37.1742720  66.0444670
  29.1462510  36.3014600  65.9318340  28.6717200  37.5101420  65.1535110
  22.9002700  35.5468350  61.5062110  23.0069450  36.4472080  61.8130870
  21.9895060  35.4986320  61.2156760  32.5521810  34.6693160  62.9773010
  33.3731430  34.1789730  63.0198490  32.5855890  35.2590820  63.7304850
  20.5485860  37.4687360  66.7514700  21.2295970  37.7325730  67.3702100
  20.2333910  36.6288230  67.0852710  24.7410430  38.5154720  65.8387290
  25.2488650  39.0135690  66.4792310  25.2723670  37.7389920  65.6626650
  36.8421360  36.6859910  69.5416640  36.1373530  37.0741620  69.0231750
  37.1079280  37.3810200  70.1437570  23.0246530  33.1553280  70.1050710
  23.0264970  33.6725670  69.2996610  22.1950840  32.6783460  70.0820640
  29.4117620  43.2672590  61.6040610  28.7934890  43.7322040  61.0403330
  29.9240870  43.9600070  62.0210120  24.2749380  42.7948460  68.2824210
  23.9418760  43.4217380  68.9245280  24.4516060  43.3210340  67.5025880
  32.7883290  36.6093540  65.7500550  32.0838860  36.8978430  66.3303660
  33.1495450  37.4193650  65.3900110  22.7061860  34.8663240  68.1121160
  23.0478670  35.7105290  67.8175030  21.7677670  35.0146980  68.2286500
  23.4868480  44.7629260  70.0973390  24.1042480  45.4380340  69.8157840
  22.6261600  45.1717240  70.0060890  18.7800820  43.9529120  58.9780240
  18.4028800  44.4416220  58.2465140  19.0373890  44.6254400  59.6086770
  34.4046070  46.2268670  68.0128030  33.7209590  46.8967780  68.0044700
  34.9440360  46.4249320  67.2472890  35.8570210  36.0548330  66.1409760
  34.9095120  36.0887310  66.2725190  36.1820200  36.8687280  66.5259120
  26.3889750  32.3545510  64.4365750  26.6964730  31.7992400  63.7201250
  25.4590450  32.4889970  64.2538740  31.9404810  48.0712800  66.7273210
  31.9531970  47.6675090  65.8595470  31.3880030  48.8460090  66.6234640
  33.2350230  44.7929020  61.8163380  33.1246560  43.8503350  61.9412800
  33.2318480  45.1544660  62.7026140  31.3390250  42.9742640  68.0555820
  31.7559040  42.7602750  67.2209280  32.0630070  43.2315430  68.6264440
  28.7770510  40.4194340  61.1725870  27.8499790  40.3531720  61.4014340
  28.9295330  41.3574470  61.0581110  28.7639590  36.6911340  58.1693030
  27.8243260  36.8525300  58.2545490  29.0822850  37.4097020  57.6229020
  35.2852350  41.3729860  68.1472060  34.4570980  41.4422950  67.6722190
  35.8802830  41.9584170  67.6787890  32.8067800  41.9814640  61.6761120
  32.1880220  41.6434190  61.0287420  32.7892250  41.3374400  62.3840310
  32.2494360  38.1599180  69.0926930  31.8365540  38.9852890  69.3466920
  31.5170310  37.5744220  68.9003290  24.3827150  40.9459080  63.9545600
  23.9784150  40.2336330  63.4591500  24.4690270  40.6012320  64.8433640
  24.8508850  44.6326640  66.1184810  24.5537140  44.0272110  65.4392590
  25.8008670  44.6703950  66.0074170  23.0955770  37.7202290  67.7344640
  23.6470360  37.8297630  66.9597890  23.6099280  38.0939890  68.4499870
  32.9394460  48.2058510  69.7807910  32.4625020  49.0130700  69.5880520
  32.2556250  47.5536840  69.9334120  30.9832500  41.2201450  58.6833870
  31.4225780  40.3823880  58.5371690  31.6960920  41.8530850  58.7698010
  22.7698500  41.2421650  71.3449980  22.6306270  42.1144450  71.7137380
  21.8879860  40.8994460  71.1997920  29.0927880  46.1597520  62.6515110
  29.5323790  46.9021850  62.2370500  29.0314770  46.4024090  63.5754070
  34.5649640  32.4744260  56.9974910  34.2522300  32.5671090  57.8973980
  35.3262110  33.0525290  56.9472340  21.0831780  39.8404060  61.4552250
  20.9629380  40.5666150  60.8433520  20.7732670  39.0706970  60.9780160
  18.7217150  43.0119200  67.2620890  18.7997570  43.1467970  66.3176610
  19.3358830  42.3035090  67.4549010  19.9664780  44.7119390  63.6727070
  19.5592860  44.8533980  62.8180670  20.8577790  44.4279550  63.4698280
  35.9226920  45.1583300  72.0099310  36.0489980  44.9195180  71.0916490
  35.9648300  44.3267840  72.4821390  29.7843660  48.8611300  70.5794120
  30.2988330  48.7719310  71.3816550  28.9412740  49.2071000  70.8722030
  31.7598060  49.1466640  60.0078120  31.5999200  48.8569580  60.9059950
  31.5944770  48.3706770  59.4723350  24.2386440  48.9265170  61.7849740
  24.0628920  48.0100710  61.5717540  23.3842180  49.2852460  62.0247540
  31.4624190  46.6554200  58.5676120  30.7689350  46.6531490  57.9078400
  32.2047050  46.2313520  58.1370290  31.0274120  48.2816910  62.6424610
  31.4831070  47.5006290  62.9563230  31.3666640  48.9923730  63.1865790
  35.7750930  37.2115760  72.9749050  35.1595200  37.7195430  72.4464510
  35.4547350  36.3114090  72.9174990  18.7776670  44.0533370  69.8015350
  18.9407710  43.5838730  68.9834720  19.2429120  43.5456930  70.4664190
  23.5495440  33.1839130  64.8375920  23.1063590  33.9648670  64.5060440
  24.1080430  33.5069020  65.5446860  27.8365250  36.0507650  70.4411240
  27.3744620  36.2590670  71.2531180  27.4343360  35.2367000  70.1381910
  32.8369760  37.2716600  71.5707900  31.9863350  36.9722350  71.8916970
  32.6771550  37.5158610  70.6591720  26.6654260  32.8049830  59.7181750
  26.0408440  32.8009700  60.4435060  26.5784380  31.9380790  59.3217720
  25.5871340  33.7286460  66.6965520  25.8843670  34.6349290  66.6157540
  26.1356900  33.2405240  66.0825090  23.3409660  38.3072700  62.5657170
  23.1150580  38.0909870  63.4703790  22.5602190  38.7401160  62.2203140
  30.5707420  38.3136070  61.1647820  29.9716310  39.0371870  60.9811440
  31.1187030  38.2512850  60.3824270  29.1772290  36.9499610  63.1951100
  29.5701860  37.2671810  62.3819790  29.5389140  36.0711490  63.3095620
  20.9119410  35.6171950  71.3851220  20.5182800  36.4647160  71.5924000
  20.2237810  34.9798320  71.5759860  18.2136460  33.5400410  65.4181300
  17.9249510  34.1103270  66.1306280  18.9582220  33.0604860  65.7812530
  18.4006690  37.4820530  56.6284020  18.3181360  38.4251290  56.7699010
  18.0489750  37.3395440  55.7496370  29.7627430  39.5405360  67.2901880
  29.0308550  40.0492170  67.6391980  29.3651770  38.7235340  66.9890660
  26.2004820  36.2159560  65.6954370  26.2040880  35.7749510  64.8458910
  27.0955940  36.5376890  65.8026190  22.0507200  36.0986050  64.6548580
  21.7107250  36.5761280  65.4115630  21.2884520  35.6451170  64.2949680
  26.2624970  37.2171640  58.6861130  26.3837790  37.1758120  59.6346950
  25.8773480  38.0795790  58.5307860  30.2253340  34.9939040  66.7024820
  30.2426080  35.4447690  67.5466670  29.9768920  34.0944680  66.9158260
  25.2746470  39.5272780  58.0844430  24.7063370  39.0791030  57.4580340
  25.9835470  39.8865560  57.5509580  20.3515650  43.4284800  71.9611160
  19.9670440  42.7878470  72.5594120  20.6627840  44.1320920  72.5305890
  26.5012790  40.2761340  67.4419780  26.8682920  39.8019910  68.1881120
  26.3117850  41.1502910  67.7828120  19.3653280  35.0205030  63.5713250
  19.0800200  34.6560700  64.4091870  19.3032140  34.2885490  62.9576390
  24.2912160  39.3169980  69.7603990  23.9869230  40.1961960  69.9854350
  25.2458620  39.3769770  69.7961430  22.8193950  43.5230970  60.3570840
  22.0456210  42.9828590  60.1969560  23.5488580  43.0037580  60.0188600
  33.5781930  42.5196330  66.1497230  34.2981050  43.0151620  65.7593340
  33.3763750  41.8414220  65.5051100  29.0391870  33.9134290  60.2926620
  28.2256480  33.4147460  60.2171930  28.8453820  34.7532540  59.8762970
  28.9600730  42.5905390  72.0366230  28.8938040  41.6701060  71.7823820
  28.3305870  42.6880830  72.7510870  31.7540260  38.2853940  58.5888780
  32.6419880  38.5971170  58.4140120  31.7245350  37.4126190  58.1969360
  22.8631350  43.1911350  63.9949650  23.3810020  42.3879610  63.9406540
  22.4115370  43.1290490  64.8366480  27.7500850  44.4577630  59.2676950
  28.0916550  45.2019860  58.7720270  26.9213560  44.7708750  59.6301780
  20.3475890  40.1572720  70.9075350  19.9890830  40.8226570  71.4948690
  20.0530450  39.3256270  71.2787970  28.8917460  45.4125960  71.7870030
  28.9062000  44.4806920  71.5688940  28.1842560  45.4985720  72.4259800
  34.0254530  39.5965780  58.0568640  33.9418250  40.0280000  57.2065080
  34.7448720  40.0564130  58.4895460  35.1028670  42.0533300  71.1338610
  34.3776860  42.6462080  70.9368000  35.6304130  42.0456840  70.3351980
  35.0541780  46.4508040  60.7850770  34.4117940  45.7963660  61.0594490
  34.6672440  46.8563130  60.0091440  30.6328260  43.7793470  64.6322460
  30.9852080  43.1821600  63.9723830  29.7490590  43.4537700  64.8030710
  26.7191540  44.5391160  62.0392870  27.4062670  45.0860370  62.4200460
  25.9323960  45.0831890  62.0742480  18.8583940  40.1563980  57.5309950
  19.7278790  40.4388780  57.8145870  18.3674260  40.9699850  57.4158760
  26.0218750  41.5437190  61.6518230  26.4781530  42.3542440  61.8778420
  25.6706960  41.2260330  62.4836720  28.3251360  47.0543530  68.8810530
  28.9693580  47.2602910  69.5583950  28.6880800  46.2931930  68.4281380
  21.9230530  31.8874840  62.1240750  21.7945160  31.8792740  63.0725670
  21.0992550  32.2257930  61.7731760  29.5983440  45.0575880  67.5987980
  30.2405670  44.3569040  67.7120150  30.1232790  45.8374320  67.4184870
  33.4439160  45.3424500  57.3227120  33.2176740  44.6254940  57.9151760
  33.0535360  45.0936940  56.4848870  31.3721060  45.8570780  70.8024040
  31.7077300  46.4437470  71.4801960  30.4521400  45.7263490  71.0321830
  19.2255190  49.3691360  58.0971580  19.5852830  49.9680700  57.4428850
  19.0847530  49.9151250  58.8706610  18.9224460  33.6465960  71.5847450
  18.2082980  33.8462880  72.1900060  19.3419500  32.8705530  71.9562250
  33.0255410  43.2596440  58.9841280  32.7377110  43.7209130  59.7719160
  33.8207580  42.7994210  59.2525500  19.2097050  47.6346220  72.5713980
  19.3188170  46.6940960  72.4309370  18.5577610  47.9000970  71.9227710
  25.2423810  46.7522560  58.9145250  25.2333910  47.4852250  58.2989760
  24.3222170  46.5054140  59.0072210  20.8430450  41.9737450  59.6592010
  20.2358400  42.7136350  59.6687310  21.3179800  42.0636810  58.8330210
  30.4163240  36.1388270  69.3348900  30.7844060  35.3183480  69.6628470
  29.5561440  36.1990160  69.7504550  33.7825270  35.0945210  60.1436460
  33.1538430  35.1990880  59.4294690  33.2877190  35.3141990  60.9330340
  28.2283410  46.8150800  57.5770440  28.3295390  46.6114790  56.6472420
  27.3285150  46.5609080  57.7818220  25.7509300  37.3731160  61.5594340
  25.0425450  37.8417500  62.0007950  26.0353780  36.7153170  62.1939530
  27.3765230  38.7927860  69.5586870  27.8750480  39.2673680  70.2238720
  27.5188180  37.8691380  69.7656900  29.7824730  34.0981820  62.9990130
  29.6592510  34.1167950  62.0499640  30.7309290  34.1460760  63.1188530
  26.8701520  49.3337120  62.2718110  27.1243020  49.2958510  61.3497480
  25.9214000  49.2070450  62.2646360  23.9544320  35.6816240  58.9345050
  24.8034850  36.1186390  58.8685240  23.5875590  35.9936500  59.7617110
  34.5832090  35.0095820  70.4015260  34.0805690  35.7501220  70.7409070
  35.3988750  35.3979820  70.0852050  32.8754100  40.2529000  63.8476620
  31.9344240  40.2679230  64.0224310  33.1898170  39.4664960  64.2936920
  22.8535740  41.9348600  57.4080580  23.6199010  41.8229960  57.9706010
  22.9310430  41.2386570  56.7557350  21.5482500  39.3673670  58.0913470
  21.6286090  38.4201180  58.2030870  22.4402250  39.6980550  58.1974130
  34.8779680  47.4237850  65.5230880  35.0027100  48.2469020  65.9954690
  35.7445240  47.2128580  65.1755030  22.3497210  49.5169060  65.1948010
  23.0859690  48.9684520  65.4656580  22.7338130  50.3825070  65.0554000
  19.2342690  45.5842630  61.0689520  18.3082470  45.8263770  61.0594930
  19.6999120  46.4116890  60.9474270  25.4599520  48.6899370  57.0173580
  26.2528130  48.9788200  56.5655370  24.9403870  48.2591540  56.3386060
  34.5129690  47.9169500  58.4410320  34.2271200  47.5034640  57.6264500
  34.3149240  48.8457210  58.3210840  25.9776920  43.9102780  56.8815930
  25.8727560  43.2955130  57.6077310  25.8101140  43.3868670  56.0978940
  26.1291240  42.5959580  72.8605160  25.3636910  43.1644580  72.7759830
  26.3107200  42.3035790  71.9673390  29.2179650  42.9722810  57.4857920
  28.6689750  43.4192110  58.1300660  29.8398910  42.4672060  58.0095590
  24.8854770  41.9313730  59.3823220  25.3071190  41.7653600  60.2254610
  25.0105610  41.1213960  58.8878360  23.0482190  37.9110280  72.1894200
  22.5178650  37.4201230  71.5617540  23.7170260  38.3394480  71.6552130
  27.3982410  40.9551340  56.6300320  27.9188070  40.2400360  56.2641470
  28.0450810  41.5937210  56.9300830  31.9460250  42.3779740  71.9535390
  32.3601270  42.5324820  72.8025810  31.0111250  42.5034960  72.1161170
  23.5354490  34.8772650  72.2691490  23.4411360  34.2593400  71.5442360
  22.9551880  35.6038940  72.0421400  26.3015930  33.4345890  69.3018880
  25.8533230  33.4570150  68.4564430  25.6681130  33.0364910  69.8989180
  26.7075480  42.3300220  69.9231320  27.1263590  43.1732950  69.7507560
  25.7884110  42.4672260  69.6938100  29.0439380  40.0616400  71.3069160
  29.1635590  39.4657540  72.0464000  29.9033380  40.0986090  70.8870460
  31.3827280  40.6153590  69.8831670  30.8562500  41.1396210  69.2796810
  31.7258620  41.2480980  70.5141400  23.7813670  38.0046960  56.3281380
  23.5802730  37.1414320  56.6894720  23.6105720  37.9180320  55.3902980
  24.5582900  48.6353230  71.0389050  24.0203990  49.3599290  70.7197750
  24.8116860  48.1583570  70.2486390  31.2601980  32.8155190  58.8568260
  31.5404270  31.9723090  59.2127680  30.4867710  33.0478300  59.3707010
  22.5796470  35.1047580  56.3159260  22.8822370  35.1115010  55.4078410
  23.3191060  34.7545440  56.8126920  27.4145110  49.8704440  71.2975700
  27.3403810  50.7739580  71.6048070  26.5123950  49.5516340  71.2697770
  25.7981400  34.0482200  57.3015460  25.4503400  33.3706190  56.7217910
  25.9994170  33.5871710  58.1158850  27.9630440  49.0362950  58.9202060
  28.8581230  49.3747920  58.9420820  27.9948070  48.3142360  58.2926340
  21.6026600  44.4090000  57.1489060  22.0401470  44.9519670  57.8046640
  22.0874330  43.5836950  57.1585400  18.8172400  47.1979030  64.6009320
  19.1475410  46.3300090  64.3687960  19.2463400  47.4037550  65.4314280
  23.4134320  45.5288040  62.2611290  23.1129860  45.4053010  63.1615200
  23.3071810  44.6696630  61.8527020  19.3062610  48.0649620  67.3390950
  18.8693600  48.2450420  68.1715100  19.8740290  48.8224240  67.1972670
  34.9424790  47.5666620  71.6268260  34.3426780  47.6259180  70.8832180
  35.0718690  46.6271600  71.7565110  36.1826240  45.3084440  56.9637970
  35.3519200  45.3761090  57.4345200  36.3598070  46.1988560  56.6604830
  35.6382700  42.0531920  59.4672170  36.4001610  42.6228570  59.5731860
  35.6537070  41.4859120  60.2380480  19.1387040  40.5769850  63.6979830
  18.4835880  40.3081490  63.0539530  19.9764990  40.4674330  63.2481810
  36.6442670  42.9082020  64.3114100  37.0151500  42.1249340  63.9050070
  37.2844600  43.5971120  64.1331400  33.6276430  44.2918600  69.7244420
  32.8136270  44.7215760  69.9870210  34.0350630  44.9037010  69.1113470
  35.6901870  42.3466290  56.6244690  35.9650710  43.2545170  56.4963910
  35.5012610  42.2828820  57.5606680  32.0877480  35.3711140  57.9198320
  32.5062360  35.1842120  57.0794980  31.7813540  34.5190190  58.2301250
  35.5867210  40.2835280  61.6174120  35.2110810  39.5163210  61.1855410
  34.8570330  40.6657980  62.1049050  20.1762970  40.9622420  68.2383170
  20.5436010  40.8749820  69.1179190  19.6073790  40.1988970  68.1390030
  34.9766830  39.4306800  71.2513640  34.7452920  39.2019550  70.3511590
  35.2371380  40.3506350  71.2058530  19.7278970  37.8731510  72.1441590
  18.8335020  37.8398270  72.4835300  20.2676520  38.0718300  72.9092840
  18.3525120  37.7868780  59.6405160  17.4489200  38.0498980  59.4656820
  18.8365740  38.0579950  58.8605120  34.8618170  38.5092770  64.9181360
  35.3855650  38.0155420  64.2871530  35.4477590  38.6443130  65.6628930
  35.0407890  38.5932640  68.4400910  34.0910600  38.5596180  68.5545900
  35.2220900  39.5032750  68.2050680  20.8952330  36.8434320  57.5499540
  21.6044030  36.4217540  57.0646820  20.1792270  36.9109550  56.9182890
  20.5426490  32.8973650  56.5902190  21.2654620  33.4382590  56.9083410
  20.8151010  32.6237070  55.7143730  34.3518140  37.7666120  60.8573770
  34.8477260  37.5336990  61.6422650  34.1534210  36.9277960  60.4411410
  20.2318680  32.1479840  66.4924810  20.8794870  31.5977220  66.0519970
  20.6520520  32.4022990  67.3140620  35.7805300  36.4027070  63.3911450
  35.6704580  36.2483110  64.3293720  36.5412890  35.8748010  63.1486860
  34.1271020  32.3421200  69.8494450  34.7643240  32.9555340  70.2153640
  34.2745910  32.3781860  68.9043680  36.6695570  34.2334990  56.6317590
  37.5944880  34.1016170  56.4235880  36.6471360  34.3127810  57.5854040
  36.7434060  35.0045650  59.2574300  35.9485560  34.9390770  59.7867210
  36.9477340  35.9396290  59.2459650  33.6852480  49.0437200  63.2512690
  34.2811550  48.7221770  62.5747110  33.9430630  48.5709020  64.0425960
  19.9850680  32.3035510  69.2350130  19.6365500  32.7599330  70.0008310
  19.6538380  31.4092640  69.3172560  25.2921080  47.0314700  69.0013040
  25.0512440  47.2989260  68.1143560  26.2323720  47.2020430  69.0563900
  36.5525240  49.0509080  69.8023680  36.0583520  49.4477950  69.0850810
  35.9438530  48.4258290  70.1960960  21.4303080  48.4217360  70.5201100
  20.8363400  48.2902060  71.2591140  21.4226920  47.5855500  70.0543200
  30.8758100  31.7149590  68.7231130  30.0017940  32.0484700  68.5204060
  30.7668850  31.2422770  69.5483000  31.7830080  33.9220460  70.1072850
  31.4543440  33.1072220  69.7274580  32.7312380  33.8790270  69.9838540
  34.2364690  49.6932500  67.0810420  33.7767660  50.4448310  66.7068440
  33.6077150  48.9738970  67.0225220  21.0615310  45.7875740  69.4709140
  20.3349370  45.1681030  69.4035090  21.1224460  46.1816350  68.6007220
  24.6660410  48.0020740  66.2558550  25.1825430  47.3908100  65.7306810
  25.3157790  48.5049520  66.7469560  27.4055910  48.8929230  67.0827530
  27.6933720  48.6383530  66.2060540  27.9179130  48.3406590  67.6733100
  28.6232920  32.6319430  67.6624040  27.8404710  33.1064930  67.9420800
  28.3295850  31.7274260  67.5537220  33.1753990  33.3342530  65.7073130
  33.6162080  33.2787630  64.8594730  32.9061580  34.2500540  65.7783310
  35.0392560  32.9657770  63.7181950  34.9780960  32.0218990  63.5712970
  35.8184590  33.0737860  64.2635410  19.3445310  49.1050130  62.6805900
  19.1767350  48.4720810  63.3787790  18.4779820  49.3109530  62.3300090
  19.9673330  32.9366910  60.1837760  20.7252690  33.0495790  59.6101790
  19.5050500  33.7736110  60.1381190  26.5087140  35.0506180  63.1740070
  25.6961650  34.6763070  62.8335950  27.0128780  34.2951260  63.4761260
  31.0112120  31.7148630  64.4123140  31.6141490  32.2868840  64.8871660
  30.2705110  32.2788070  64.1897040  34.1546720  32.1170190  59.6863420
  34.3497350  33.0153640  59.9530850  33.3676590  31.8857270  60.1796370
  20.9508010  47.7983360  60.1256040  20.4255630  48.1791390  59.4218000
  20.8752590  48.4234130  60.8465750  22.3398480  33.4630960  58.7239730
  22.8691240  32.6760760  58.5947680  22.9726800  34.1422150  58.9575260
  24.5336320  33.2006100  61.7785120  23.9039060  32.4993410  61.9455250
  23.9941460  33.9610230  61.5618280  35.7073330  49.3570900  61.4469980
  35.8825520  48.6708640  60.8030900  35.0094900  49.8817950  61.0546650
  23.5500980  49.7465740  59.0005290  24.2819800  49.4625020  58.4529180
  23.8094650  49.5079020  59.8904670  22.7115770  45.8630470  59.0051620
  22.0824650  46.3315570  59.5537450  22.8263600  45.0179690  59.4397810
  22.3149360  42.0034960  47.9137850  21.4834240  41.7483670  48.3134360
  22.9230340  42.0745730  48.6495770  20.7241310  36.9636850  41.6980240
  19.8358010  37.3052820  41.5960120  21.0082500  36.7637170  40.8061070
  18.6874320  39.5642500  47.5819940  19.2590430  38.7964700  47.5823580
  18.6875860  39.8631260  46.6726550  19.9299190  34.9726860  49.3688870
  19.7502030  34.0752610  49.6491630  19.5279270  35.5198730  50.0435820
  20.5485860  37.4687360  47.9771210  21.2295970  37.7325730  48.5958610
  20.2333910  36.6288230  48.3109220  36.8421360  36.6859910  50.7673150
  36.1373530  37.0741620  50.2488260  37.1079280  37.3810200  51.3694080
  23.0246530  33.1553280  51.3307220  23.0264970  33.6725670  50.5253120
  22.1950840  32.6783460  51.3077150  22.7061860  34.8663240  49.3377670
  23.0478670  35.7105290  49.0431540  21.7677670  35.0146980  49.4543010
  23.4868480  44.7629260  51.3229900  24.1042480  45.4380340  51.0414350
  22.6261600  45.1717240  51.2317400  18.7800820  43.9529120  40.2036750
  18.4028800  44.4416220  39.4721650  19.0373890  44.6254400  40.8343280
  35.2852350  41.3729860  49.3728570  34.4570980  41.4422950  48.8978700
  35.8802830  41.9584170  48.9044400  32.2494360  38.1599180  50.3183440
  31.8365540  38.9852890  50.5723430  31.5170310  37.5744220  50.1259800
  23.0955770  37.7202290  48.9601150  23.6470360  37.8297630  48.1854400
  23.6099280  38.0939890  49.6756380  32.9394460  48.2058510  51.0064420
  32.4625020  49.0130700  50.8137030  32.2556250  47.5536840  51.1590630
  23.9427280  44.3708330  53.9949120  23.0455810  44.5948300  54.2422520
  23.9680150  44.4943270  53.0460520  22.7698500  41.2421650  52.5706490
  22.6306270  42.1144450  52.9393890  21.8879860  40.8994460  52.4254430
  24.5678850  47.1843350  54.7791640  24.5394280  47.5886300  53.9120070
  24.4043820  46.2553710  54.6163240  21.0831780  39.8404060  42.6808760
  20.9629380  40.5666150  42.0690030  20.7732670  39.0706970  42.2036670
  36.5193670  47.9670450  56.0755810  36.9953390  48.4453340  56.7544890
  37.1400830  47.8987940  55.3501310  18.7217150  43.0119200  48.4877400
  18.7997570  43.1467970  47.5433120  19.3358830  42.3035090  48.6805520
  19.9664780  44.7119390  44.8983580  19.5592860  44.8533980  44.0437180
  20.8577790  44.4279550  44.6954790  35.9226920  45.1583300  53.2355820
  36.0489980  44.9195180  52.3173000  35.9648300  44.3267840  53.7077900
  29.7843660  48.8611300  51.8050630  30.2988330  48.7719310  52.6073060
  28.9412740  49.2071000  52.0978540  35.7750930  37.2115760  54.2005560
  35.1595200  37.7195430  53.6721020  35.4547350  36.3114090  54.1431500
  18.7776670  44.0533370  51.0271860  18.9407710  43.5838730  50.2091230
  19.2429120  43.5456930  51.6920700  27.8365250  36.0507650  51.6667750
  27.3744620  36.2590670  52.4787690  27.4343360  35.2367000  51.3638420
  32.8369760  37.2716600  52.7964410  31.9863350  36.9722350  53.1173480
  32.6771550  37.5158610  51.8848230  29.9319470  38.7718350  54.8963200
  30.2572880  37.9382100  54.5565430  30.7199800  39.2946870  55.0441530
  25.7808870  39.2058280  54.4573950  25.6852470  38.2653010  54.3074350
  26.6240850  39.4273350  54.0622020  20.9119410  35.6171950  52.6107730
  20.5182800  36.4647160  52.8180510  20.2237810  34.9798320  52.8016370
  27.4864460  35.7006920  55.6804470  26.7962780  35.5079120  56.3150560
  28.2296760  35.9841560  56.2128770  18.2136460  33.5400410  46.6437810
  17.9249510  34.1103270  47.3562790  18.9582220  33.0604860  47.0069040
  18.4006690  37.4820530  37.8540530  18.3181360  38.4251290  37.9955520
  18.0489750  37.3395440  36.9752880  22.0507200  36.0986050  45.8805090
  21.7107250  36.5761280  46.6372140  21.2884520  35.6451170  45.5206190
  33.6524090  32.4071220  53.7667710  33.9769860  31.6760880  54.2925690
  33.6880600  32.0884860  52.8648700  20.3515650  43.4284800  53.1867670
  19.9670440  42.7878470  53.7850630  20.6627840  44.1320920  53.7562400
  19.3653280  35.0205030  44.7969760  19.0800200  34.6560700  45.6348380
  19.3032140  34.2885490  44.1832900  24.2912160  39.3169980  50.9860500
  23.9869230  40.1961960  51.2110860  25.2458620  39.3769770  51.0217940
  22.8193950  43.5230970  41.5827350  22.0456210  42.9828590  41.4226070
  23.5488580  43.0037580  41.2445110  28.9600730  42.5905390  53.2622740
  28.8938040  41.6701060  53.0080330  28.3305870  42.6880830  53.9767380
  22.8631350  43.1911350  45.2206160  23.3810020  42.3879610  45.1663050
  22.4115370  43.1290490  46.0622990  20.3475890  40.1572720  52.1331860
  19.9890830  40.8226570  52.7205200  20.0530450  39.3256270  52.5044480
  23.5489010  40.6156960  55.0171410  23.2489150  40.7614140  54.1199230
  24.3200250  40.0562250  54.9244800  28.8917460  45.4125960  53.0126540
  28.9062000  44.4806920  52.7945450  28.1842560  45.4985720  53.6516310
  35.1028670  42.0533300  52.3595120  34.3776860  42.6462080  52.1624510
  35.6304130  42.0456840  51.5608490  18.8583940  40.1563980  38.7566460
  19.7278790  40.4388780  39.0402380  18.3674260  40.9699850  38.6415270
  28.3251360  47.0543530  50.1067040  28.9693580  47.2602910  50.7840460
  28.6880800  46.2931930  49.6537890  21.9230530  31.8874840  43.3497260
  21.7945160  31.8792740  44.2982180  21.0992550  32.2257930  42.9988270
  31.3721060  45.8570780  52.0280550  31.7077300  46.4437470  52.7058470
  30.4521400  45.7263490  52.2578340  19.2255190  49.3691360  39.3228090
  19.5852830  49.9680700  38.6685360  19.0847530  49.9151250  40.0963120
  18.9224460  33.6465960  52.8103960  18.2082980  33.8462880  53.4156570
  19.3419500  32.8705530  53.1818760  19.2097050  47.6346220  53.7970490
  19.3188170  46.6940960  53.6565880  18.5577610  47.9000970  53.1484220
  27.2009640  45.9062110  55.1968610  26.8806510  45.1871350  55.7414300
  26.5268000  46.5817180  55.2704670  20.8430450  41.9737450  40.8848520
  20.2358400  42.7136350  40.8943820  21.3179800  42.0636810  40.0586720
  30.4163240  36.1388270  50.5605410  30.7844060  35.3183480  50.8884980
  29.5561440  36.1990160  50.9761060  27.3765230  38.7927860  50.7843380
  27.8750480  39.2673680  51.4495230  27.5188180  37.8691380  50.9913410
  34.5832090  35.0095820  51.6271770  34.0805690  35.7501220  51.9665580
  35.3988750  35.3979820  51.3108560  21.5482500  39.3673670  39.3169980
  21.6286090  38.4201180  39.4287380  22.4402250  39.6980550  39.4230640
  22.3497210  49.5169060  46.4204520  23.0859690  48.9684520  46.6913090
  22.7338130  50.3825070  46.2810510  19.2342690  45.5842630  42.2946030
  18.3082470  45.8263770  42.2851440  19.6999120  46.4116890  42.1730780
  21.3555490  48.7015130  55.6090100  22.1568220  49.0227180  56.0225500
  20.8407310  48.3410710  56.3310010  30.1920120  44.8095000  55.5565510
  29.5858280  44.8326600  54.8161260  29.8874230  44.0778040  56.0932760
  31.6220490  48.5375290  54.1674920  32.5742240  48.4533310  54.1175160
  31.4748710  49.2017000  54.8408710  19.0753300  41.1888590  54.5526150
  19.5792320  40.6095870  55.1242380  18.3360720  41.4728820  55.0902520
  26.1291240  42.5959580  54.0861670  25.3636910  43.1644580  54.0016340
  26.3107200  42.3035790  53.1929900  33.2714590  44.3264910  54.6436690
  34.0124060  44.6640670  54.1404150  32.5087270  44.4956970  54.0906460
  21.1076380  39.3318180  55.4476220  21.1481720  39.0332050  56.3561450
  21.9621880  39.7325790  55.2883740  23.0482190  37.9110280  53.4150710
  22.5178650  37.4201230  52.7874050  23.7170260  38.3394480  52.8808640
  31.9460250  42.3779740  53.1791900  32.3601270  42.5324820  54.0282320
  31.0111250  42.5034960  53.3417680  32.4182420  39.7175900  55.1831050
  33.0003190  38.9628220  55.0951530  32.5944190  40.2483340  54.4062530
  23.5354490  34.8772650  53.4948000  23.4411360  34.2593400  52.7698870
  22.9551880  35.6038940  53.2677910  26.3015930  33.4345890  50.5275390
  25.8533230  33.4570150  49.6820940  25.6681130  33.0364910  51.1245690
  26.7075480  42.3300220  51.1487830  27.1263590  43.1732950  50.9764070
  25.7884110  42.4672260  50.9194610  29.0439380  40.0616400  52.5325670
  29.1635590  39.4657540  53.2720510  29.9033380  40.0986090  52.1126970
  31.3827280  40.6153590  51.1088180  30.8562500  41.1396210  50.5053320
  31.7258620  41.2480980  51.7397910  24.5582900  48.6353230  52.2645560
  24.0203990  49.3599290  51.9454260  24.8116860  48.1583570  51.4742900
  25.8108150  36.6037750  53.7901490  26.4007840  36.2953600  54.4779310
  24.9928390  36.1317500  53.9461390  30.6301580  36.2203560  54.0234510
  29.9417100  35.5585100  53.9584500  31.3507600  35.7741830  54.4682970
  27.4145110  49.8704440  52.5232210  27.3403810  50.7739580  52.8304580
  26.5123950  49.5516340  52.4954280  21.6026600  44.4090000  38.3745570
  22.0401470  44.9519670  39.0303150  22.0874330  43.5836950  38.3841910
  18.8172400  47.1979030  45.8265830  19.1475410  46.3300090  45.5944470
  19.2463400  47.4037550  46.6570790  19.3062610  48.0649620  48.5647460
  18.8693600  48.2450420  49.3971610  19.8740290  48.8224240  48.4229180
  34.9424790  47.5666620  52.8524770  34.3426780  47.6259180  52.1088690
  35.0718690  46.6271600  52.9821620  19.1387040  40.5769850  44.9236340
  18.4835880  40.3081490  44.2796040  19.9764990  40.4674330  44.4738320
  33.6276430  44.2918600  50.9500930  32.8136270  44.7215760  51.2126720
  34.0350630  44.9037010  50.3369980  20.1762970  40.9622420  49.4639680
  20.5436010  40.8749820  50.3435700  19.6073790  40.1988970  49.3646540
  34.9766830  39.4306800  52.4770150  34.7452920  39.2019550  51.5768100
  35.2371380  40.3506350  52.4315040  19.7278970  37.8731510  53.3698100
  18.8335020  37.8398270  53.7091810  20.2676520  38.0718300  54.1349350
  33.4154900  34.6563230  55.2549850  34.2925080  34.6646630  55.6383850
  33.4275740  33.9194070  54.6442200  18.3525120  37.7868780  40.8661670
  17.4489200  38.0498980  40.6913330  18.8365740  38.0579950  40.0861630
  35.0407890  38.5932640  49.6657420  34.0910600  38.5596180  49.7802410
  35.2220900  39.5032750  49.4307190  20.8952330  36.8434320  38.7756050
  21.6044030  36.4217540  38.2903330  20.1792270  36.9109550  38.1439400
  20.5426490  32.8973650  37.8158700  21.2654620  33.4382590  38.1339920
  20.8151010  32.6237070  36.9400240  20.2318680  32.1479840  47.7181320
  20.8794870  31.5977220  47.2776480  20.6520520  32.4022990  48.5397130
  34.1271020  32.3421200  51.0750960  34.7643240  32.9555340  51.4410150
  34.2745910  32.3781860  50.1300190  19.9850680  32.3035510  50.4606640
  19.6365500  32.7599330  51.2264820  19.6538380  31.4092640  50.5429070
  21.5915050  45.4755110  54.6259830  21.5484680  45.1048020  55.5074290
  21.7226060  46.4132680  54.7661650  27.4975500  33.4947390  53.9826060
  27.4364390  34.0869220  54.7321470  28.4375880  33.3873350  53.8376320
  30.1350060  33.1517450  53.6218350  30.7490470  33.4696740  52.9599430
  30.6799620  32.6666040  54.2414210  36.5525240  49.0509080  51.0280190
  36.0583520  49.4477950  50.3107320  35.9438530  48.4258290  51.4217470
  20.6571320  31.8311710  53.7357410  21.2054310  31.6499760  52.9723520
  20.7226630  31.0405820  54.2713720  21.4303080  48.4217360  51.7457610
  20.8363400  48.2902060  52.4847650  21.4226920  47.5855500  51.2799710
  31.7830080  33.9220460  51.3329360  31.4543440  33.1072220  50.9531090
  32.7312380  33.8790270  51.2095050  21.0615310  45.7875740  50.6965650
  20.3349370  45.1681030  50.6291600  21.1224460  46.1816350  49.8263730
  19.3445310  49.1050130  43.9062410  19.1767350  48.4720810  44.6044300
  18.4779820  49.3109530  43.5556600  19.9673330  32.9366910  41.4094270
  20.7252690  33.0495790  40.8358300  19.5050500  33.7736110  41.3637700
  20.9508010  47.7983360  41.3512550  20.4255630  48.1791390  40.6474510
  20.8752590  48.4234130  42.0722260  22.3398480  33.4630960  39.9496240
  22.8691240  32.6760760  39.8204190  22.9726800  34.1422150  40.1831770
  27.4728270  49.8145330  55.6752240  28.3995580  49.5789600  55.7188200
  27.4578700  50.6417330  55.1938270  24.6591880  32.4790080  55.4394120
  24.3776150  32.9823680  54.6754940  25.0411580  31.6811830  55.0736250
  23.5500980  49.7465740  40.2261800  24.2819800  49.4625020  39.6785690
  23.8094650  49.5079020  41.1161180  31.2607340  31.8943660  56.0174590
  31.1472790  32.2138270  56.9126110  32.0777080  32.2956170  55.7211870
  34.0405830  49.0415190  55.4993280  34.8331150  48.5464420  55.2919240
  34.3338980  49.7205330  56.1068890  20.7241310  36.9636850  22.9236750
  19.8358010  37.3052820  22.8216630  21.0082500  36.7637170  22.0317580
  18.6874320  39.5642500  28.8076450  19.2590430  38.7964700  28.8080090
  18.6875860  39.8631260  27.8983060  19.9299190  34.9726860  30.5945380
  19.7502030  34.0752610  30.8748140  19.5279270  35.5198730  31.2692330
  22.9002700  35.5468350  23.9575130  23.0069450  36.4472080  24.2643890
  21.9895060  35.4986320  23.6669780  18.7800820  43.9529120  21.4293260
  18.4028800  44.4416220  20.6978160  19.0373890  44.6254400  22.0599790
  28.7639590  36.6911340  20.6206050  27.8243260  36.8525300  20.7058510
  29.0822850  37.4097020  20.0742040  30.9832500  41.2201450  21.1346890
  31.4225780  40.3823880  20.9884710  31.6960920  41.8530850  21.2211030
  34.5649640  32.4744260  19.4487930  34.2522300  32.5671090  20.3487000
  35.3262110  33.0525290  19.3985360  21.0831780  39.8404060  23.9065270
  20.9629380  40.5666150  23.2946540  20.7732670  39.0706970  23.4293180
  18.7217150  43.0119200  29.7133910  18.7997570  43.1467970  28.7689630
  19.3358830  42.3035090  29.9062030  19.9664780  44.7119390  26.1240090
  19.5592860  44.8533980  25.2693690  20.8577790  44.4279550  25.9211300
  31.7598060  49.1466640  22.4591140  31.5999200  48.8569580  23.3572970
  31.5944770  48.3706770  21.9236370  31.4624190  46.6554200  21.0189140
  30.7689350  46.6531490  20.3591420  32.2047050  46.2313520  20.5883310
  18.7776670  44.0533370  32.2528370  18.9407710  43.5838730  31.4347740
  19.2429120  43.5456930  32.9177210  26.6654260  32.8049830  22.1694770
  26.0408440  32.8009700  22.8948080  26.5784380  31.9380790  21.7730740
  18.2136460  33.5400410  27.8694320  17.9249510  34.1103270  28.5819300
  18.9582220  33.0604860  28.2325550  18.4006690  37.4820530  19.0797040
  18.3181360  38.4251290  19.2212030  18.0489750  37.3395440  18.2009390
  26.2624970  37.2171640  21.1374150  26.3837790  37.1758120  22.0859970
  25.8773480  38.0795790  20.9820880  25.2746470  39.5272780  20.5357450
  24.7063370  39.0791030  19.9093360  25.9835470  39.8865560  20.0022600
  20.3515650  43.4284800  34.4124180  19.9670440  42.7878470  35.0107140
  20.6627840  44.1320920  34.9818910  19.3653280  35.0205030  26.0226270
  19.0800200  34.6560700  26.8604890  19.3032140  34.2885490  25.4089410
  22.8193950  43.5230970  22.8083860  22.0456210  42.9828590  22.6482580
  23.5488580  43.0037580  22.4701620  29.0391870  33.9134290  22.7439640
  28.2256480  33.4147460  22.6684950  28.8453820  34.7532540  22.3275990
  31.7540260  38.2853940  21.0401800  32.6419880  38.5971170  20.8653140
  31.7245350  37.4126190  20.6482380  27.7500850  44.4577630  21.7189970
  28.0916550  45.2019860  21.2233290  26.9213560  44.7708750  22.0814800
  20.3475890  40.1572720  33.3588370  19.9890830  40.8226570  33.9461710
  20.0530450  39.3256270  33.7300990  34.0254530  39.5965780  20.5081660
  33.9418250  40.0280000  19.6578100  34.7448720  40.0564130  20.9408480
  18.8583940  40.1563980  19.9822970  19.7278790  40.4388780  20.2658890
  18.3674260  40.9699850  19.8671780  21.9230530  31.8874840  24.5753770
  21.7945160  31.8792740  25.5238690  21.0992550  32.2257930  24.2244780
  33.4439160  45.3424500  19.7740140  33.2176740  44.6254940  20.3664780
  33.0535360  45.0936940  18.9361890  19.2255190  49.3691360  20.5484600
  19.5852830  49.9680700  19.8941870  19.0847530  49.9151250  21.3219630
  18.9224460  33.6465960  34.0360470  18.2082980  33.8462880  34.6413080
  19.3419500  32.8705530  34.4075270  19.2097050  47.6346220  35.0227000
  19.3188170  46.6940960  34.8822390  18.5577610  47.9000970  34.3740730
  25.2423810  46.7522560  21.3658270  25.2333910  47.4852250  20.7502780
  24.3222170  46.5054140  21.4585230  20.8430450  41.9737450  22.1105030
  20.2358400  42.7136350  22.1200330  21.3179800  42.0636810  21.2843230
  28.2283410  46.8150800  20.0283460  28.3295390  46.6114790  19.0985440
  27.3285150  46.5609080  20.2331240  23.9544320  35.6816240  21.3858070
  24.8034850  36.1186390  21.3198260  23.5875590  35.9936500  22.2130130
  22.8535740  41.9348600  19.8593600  23.6199010  41.8229960  20.4219030
  22.9310430  41.2386570  19.2070370  21.5482500  39.3673670  20.5426490
  21.6286090  38.4201180  20.6543890  22.4402250  39.6980550  20.6487150
  19.2342690  45.5842630  23.5202540  18.3082470  45.8263770  23.5107950
  19.6999120  46.4116890  23.3987290  21.3555490  48.7015130  36.8346610
  22.1568220  49.0227180  37.2482010  20.8407310  48.3410710  37.5566520
  25.4599520  48.6899370  19.4686600  26.2528130  48.9788200  19.0168390
  24.9403870  48.2591540  18.7899080  34.5129690  47.9169500  20.8923340
  34.2271200  47.5034640  20.0777520  34.3149240  48.8457210  20.7723860
  19.0753300  41.1888590  35.7782660  19.5792320  40.6095870  36.3498890
  18.3360720  41.4728820  36.3159030  25.9776920  43.9102780  19.3328950
  25.8727560  43.2955130  20.0590330  25.8101140  43.3868670  18.5491960
  29.2179650  42.9722810  19.9370940  28.6689750  43.4192110  20.5813680
  29.8398910  42.4672060  20.4608610  21.1076380  39.3318180  36.6732730
  21.1481720  39.0332050  37.5817960  21.9621880  39.7325790  36.5140250
  24.8854770  41.9313730  21.8336240  25.3071190  41.7653600  22.6767630
  25.0105610  41.1213960  21.3391380  27.3982410  40.9551340  19.0813340
  27.9188070  40.2400360  18.7154490  28.0450810  41.5937210  19.3813850
  23.7813670  38.0046960  18.7794400  23.5802730  37.1414320  19.1407740
  23.6105720  37.9180320  17.8416000  31.2601980  32.8155190  21.3081280
  31.5404270  31.9723090  21.6640700  30.4867710  33.0478300  21.8220030
  22.5796470  35.1047580  18.7672280  22.8822370  35.1115010  17.8591430
  23.3191060  34.7545440  19.2639940  25.7981400  34.0482200  19.7528480
  25.4503400  33.3706190  19.1730930  25.9994170  33.5871710  20.5671870
  27.9630440  49.0362950  21.3715080  28.8581230  49.3747920  21.3933840
  27.9948070  48.3142360  20.7439360  21.6026600  44.4090000  19.6002080
  22.0401470  44.9519670  20.2559660  22.0874330  43.5836950  19.6098420
  18.8172400  47.1979030  27.0522340  19.1475410  46.3300090  26.8200980
  19.2463400  47.4037550  27.8827300  19.3062610  48.0649620  29.7903970
  18.8693600  48.2450420  30.6228120  19.8740290  48.8224240  29.6485690
  36.1826240  45.3084440  19.4150990  35.3519200  45.3761090  19.8858220
  36.3598070  46.1988560  19.1117850  19.1387040  40.5769850  26.1492850
  18.4835880  40.3081490  25.5052550  19.9764990  40.4674330  25.6994830
  35.6901870  42.3466290  19.0757710  35.9650710  43.2545170  18.9476930
  35.5012610  42.2828820  20.0119700  32.0877480  35.3711140  20.3711340
  32.5062360  35.1842120  19.5308000  31.7813540  34.5190190  20.6814270
  20.1762970  40.9622420  30.6896190  20.5436010  40.8749820  31.5692210
  19.6073790  40.1988970  30.5903050  19.7278970  37.8731510  34.5954610
  18.8335020  37.8398270  34.9348320  20.2676520  38.0718300  35.3605860
  18.3525120  37.7868780  22.0918180  17.4489200  38.0498980  21.9169840
  18.8365740  38.0579950  21.3118140  20.8952330  36.8434320  20.0012560
  21.6044030  36.4217540  19.5159840  20.1792270  36.9109550  19.3695910
  20.5426490  32.8973650  19.0415210  21.2654620  33.4382590  19.3596430
  20.8151010  32.6237070  18.1656750  20.2318680  32.1479840  28.9437830
  20.8794870  31.5977220  28.5032990  20.6520520  32.4022990  29.7653640
  36.6695570  34.2334990  19.0830610  37.5944880  34.1016170  18.8748900
  36.6471360  34.3127810  20.0367060  36.7434060  35.0045650  21.7087320
  35.9485560  34.9390770  22.2380230  36.9477340  35.9396290  21.6972670
  19.9850680  32.3035510  31.6863150  19.6365500  32.7599330  32.4521330
  19.6538380  31.4092640  31.7685580  21.5915050  45.4755110  35.8516340
  21.5484680  45.1048020  36.7330800  21.7226060  46.4132680  35.9918160
  20.6571320  31.8311710  34.9613920  21.2054310  31.6499760  34.1980030
  20.7226630  31.0405820  35.4970230  21.0615310  45.7875740  31.9222160
  20.3349370  45.1681030  31.8548110  21.1224460  46.1816350  31.0520240
  19.3445310  49.1050130  25.1318920  19.1767350  48.4720810  25.8300810
  18.4779820  49.3109530  24.7813110  19.9673330  32.9366910  22.6350780
  20.7252690  33.0495790  22.0614810  19.5050500  33.7736110  22.5894210
  34.1546720  32.1170190  22.1376440  34.3497350  33.0153640  22.4043870
  33.3676590  31.8857270  22.6309390  20.9508010  47.7983360  22.5769060
  20.4255630  48.1791390  21.8731020  20.8752590  48.4234130  23.2978770
  22.3398480  33.4630960  21.1752750  22.8691240  32.6760760  21.0460700
  22.9726800  34.1422150  21.4088280  24.5336320  33.2006100  24.2298140
  23.9039060  32.4993410  24.3968270  23.9941460  33.9610230  24.0131300
  23.5500980  49.7465740  21.4518310  24.2819800  49.4625020  20.9042200
  23.8094650  49.5079020  22.3417690  22.7115770  45.8630470  21.4564640
  22.0824650  46.3315570  22.0050470  22.8263600  45.0179690  21.8910830
  30.1665490  39.9136130   7.6065840  30.0859540  38.9990740   7.3357550
  29.7529910  40.4103200   6.9005550  28.2983530  41.6915150   9.4875110
  27.5225630  41.2115590   9.7773680  28.9496460  41.0120800   9.3131270
  22.3149360  42.0034960  10.3650870  21.4834240  41.7483670  10.7647380
  22.9230340  42.0745730  11.1008790  32.3190960  46.0975340   8.2674240
  31.8572490  45.3262580   8.5961410  33.1316510  46.1241410   8.7726690
  22.2950620  46.0375050  10.5608890  22.5978660  45.1472790  10.3819110
  23.0394210  46.5945270  10.3331140  20.7241310  36.9636850   4.1493260
  19.8358010  37.3052820   4.0473140  21.0082500  36.7637170   3.2574090
  18.6874320  39.5642500  10.0332960  19.2590430  38.7964700  10.0336600
  18.6875860  39.8631260   9.1239570  28.5454270  48.3833350   7.8878230
  27.9265710  48.8390850   7.3172670  29.4006050  48.5384810   7.4867930
  27.7392520  44.3672340   9.4945270  27.6700800  43.4262280   9.3334400
  28.5012380  44.4573750  10.0667840  19.9299190  34.9726860  11.8201890
  19.7502030  34.0752610  12.1004650  19.5279270  35.5198730  12.4948840
  28.7697690  37.1742720   9.7214200  29.1462510  36.3014600   9.6087870
  28.6717200  37.5101420   8.8304640  22.9002700  35.5468350   5.1831640
  23.0069450  36.4472080   5.4900400  21.9895060  35.4986320   4.8926290
  32.5521810  34.6693160   6.6542540  33.3731430  34.1789730   6.6968020
  32.5855890  35.2590820   7.4074380  20.5485860  37.4687360  10.4284230
  21.2295970  37.7325730  11.0471630  20.2333910  36.6288230  10.7622240
  24.7410430  38.5154720   9.5156820  25.2488650  39.0135690  10.1561840
  25.2723670  37.7389920   9.3396180  36.8421360  36.6859910  13.2186170
  36.1373530  37.0741620  12.7001280  37.1079280  37.3810200  13.8207100
  23.0246530  33.1553280  13.7820240  23.0264970  33.6725670  12.9766140
  22.1950840  32.6783460  13.7590170  29.4117620  43.2672590   5.2810140
  28.7934890  43.7322040   4.7172860  29.9240870  43.9600070   5.6979650
  24.2749380  42.7948460  11.9593740  23.9418760  43.4217380  12.6014810
  24.4516060  43.3210340  11.1795410  32.7883290  36.6093540   9.4270080
  32.0838860  36.8978430  10.0073190  33.1495450  37.4193650   9.0669640
  22.7061860  34.8663240  11.7890690  23.0478670  35.7105290  11.4944560
  21.7677670  35.0146980  11.9056030  23.4868480  44.7629260  13.7742920
  24.1042480  45.4380340  13.4927370  22.6261600  45.1717240  13.6830420
  18.7800820  43.9529120   2.6549770  18.4028800  44.4416220   1.9234670
  19.0373890  44.6254400   3.2856300  34.4046070  46.2268670  11.6897560
  33.7209590  46.8967780  11.6814230  34.9440360  46.4249320  10.9242420
  35.8570210  36.0548330   9.8179290  34.9095120  36.0887310   9.9494720
  36.1820200  36.8687280  10.2028650  26.3889750  32.3545510   8.1135280
  26.6964730  31.7992400   7.3970780  25.4590450  32.4889970   7.9308270
  31.9404810  48.0712800  10.4042740  31.9531970  47.6675090   9.5365000
  31.3880030  48.8460090  10.3004170  33.2350230  44.7929020   5.4932910
  33.1246560  43.8503350   5.6182330  33.2318480  45.1544660   6.3795670
  31.3390250  42.9742640  11.7325350  31.7559040  42.7602750  10.8978810
  32.0630070  43.2315430  12.3033970  28.7770510  40.4194340   4.8495400
  27.8499790  40.3531720   5.0783870  28.9295330  41.3574470   4.7350640
  35.2852350  41.3729860  11.8241590  34.4570980  41.4422950  11.3491720
  35.8802830  41.9584170  11.3557420  32.8067800  41.9814640   5.3530650
  32.1880220  41.6434190   4.7056950  32.7892250  41.3374400   6.0609840
  32.2494360  38.1599180  12.7696460  31.8365540  38.9852890  13.0236450
  31.5170310  37.5744220  12.5772820  24.3827150  40.9459080   7.6315130
  23.9784150  40.2336330   7.1361030  24.4690270  40.6012320   8.5203170
  24.8508850  44.6326640   9.7954340  24.5537140  44.0272110   9.1162120
  25.8008670  44.6703950   9.6843700  23.0955770  37.7202290  11.4114170
  23.6470360  37.8297630  10.6367420  23.6099280  38.0939890  12.1269400
  32.9394460  48.2058510  13.4577440  32.4625020  49.0130700  13.2650050
  32.2556250  47.5536840  13.6103650  23.9427280  44.3708330  16.4462140
  23.0455810  44.5948300  16.6935540  23.9680150  44.4943270  15.4973540
  30.9832500  41.2201450   2.3603400  31.4225780  40.3823880   2.2141220
  31.6960920  41.8530850   2.4467540  22.7698500  41.2421650  15.0219510
  22.6306270  42.1144450  15.3906910  21.8879860  40.8994460  14.8767450
  29.0927880  46.1597520   6.3284640  29.5323790  46.9021850   5.9140030
  29.0314770  46.4024090   7.2523600  24.5678850  47.1843350  17.2304660
  24.5394280  47.5886300  16.3633090  24.4043820  46.2553710  17.0676260
  21.0831780  39.8404060   5.1321780  20.9629380  40.5666150   4.5203050
  20.7732670  39.0706970   4.6549690  36.5193670  47.9670450  18.5268830
  36.9953390  48.4453340  19.2057910  37.1400830  47.8987940  17.8014330
  18.7217150  43.0119200  10.9390420  18.7997570  43.1467970   9.9946140
  19.3358830  42.3035090  11.1318540  19.9664780  44.7119390   7.3496600
  19.5592860  44.8533980   6.4950200  20.8577790  44.4279550   7.1467810
  35.9226920  45.1583300  15.6868840  36.0489980  44.9195180  14.7686020
  35.9648300  44.3267840  16.1590920  29.7843660  48.8611300  14.2563650
  30.2988330  48.7719310  15.0586080  28.9412740  49.2071000  14.5491560
  31.7598060  49.1466640   3.6847650  31.5999200  48.8569580   4.5829480
  31.5944770  48.3706770   3.1492880  24.2386440  48.9265170   5.4619270
  24.0628920  48.0100710   5.2487070  23.3842180  49.2852460   5.7017070
  31.0274120  48.2816910   6.3194140  31.4831070  47.5006290   6.6332760
  31.3666640  48.9923730   6.8635320  35.7750930  37.2115760  16.6518580
  35.1595200  37.7195430  16.1234040  35.4547350  36.3114090  16.5944520
  18.7776670  44.0533370  13.4784880  18.9407710  43.5838730  12.6604250
  19.2429120  43.5456930  14.1433720  23.5495440  33.1839130   8.5145450
  23.1063590  33.9648670   8.1829970  24.1080430  33.5069020   9.2216390
  27.8365250  36.0507650  14.1180770  27.3744620  36.2590670  14.9300710
  27.4343360  35.2367000  13.8151440  32.8369760  37.2716600  15.2477430
  31.9863350  36.9722350  15.5686500  32.6771550  37.5158610  14.3361250
  29.9319470  38.7718350  17.3476220  30.2572880  37.9382100  17.0078450
  30.7199800  39.2946870  17.4954550  26.6654260  32.8049830   3.3951280
  26.0408440  32.8009700   4.1204590  26.5784380  31.9380790   2.9987250
  25.5871340  33.7286460  10.3735050  25.8843670  34.6349290  10.2927070
  26.1356900  33.2405240   9.7594620  23.3409660  38.3072700   6.2426700
  23.1150580  38.0909870   7.1473320  22.5602190  38.7401160   5.8972670
  30.5707420  38.3136070   4.8417350  29.9716310  39.0371870   4.6580970
  31.1187030  38.2512850   4.0593800  25.7808870  39.2058280  16.9086970
  25.6852470  38.2653010  16.7587370  26.6240850  39.4273350  16.5135040
  29.1772290  36.9499610   6.8720630  29.5701860  37.2671810   6.0589320
  29.5389140  36.0711490   6.9865150  20.9119410  35.6171950  15.0620750
  20.5182800  36.4647160  15.2693530  20.2237810  34.9798320  15.2529390
  27.4864460  35.7006920  18.1317490  26.7962780  35.5079120  18.7663580
  28.2296760  35.9841560  18.6641790  18.2136460  33.5400410   9.0950830
  17.9249510  34.1103270   9.8075810  18.9582220  33.0604860   9.4582060
  29.7627430  39.5405360  10.9671410  29.0308550  40.0492170  11.3161510
  29.3651770  38.7235340  10.6660190  26.2004820  36.2159560   9.3723900
  26.2040880  35.7749510   8.5228440  27.0955940  36.5376890   9.4795720
  22.0507200  36.0986050   8.3318110  21.7107250  36.5761280   9.0885160
  21.2884520  35.6451170   7.9719210  26.2624970  37.2171640   2.3630660
  26.3837790  37.1758120   3.3116480  25.8773480  38.0795790   2.2077390
  30.2253340  34.9939040  10.3794350  30.2426080  35.4447690  11.2236200
  29.9768920  34.0944680  10.5927790  33.6524090  32.4071220  16.2180730
  33.9769860  31.6760880  16.7438710  33.6880600  32.0884860  15.3161720
  20.3515650  43.4284800  15.6380690  19.9670440  42.7878470  16.2363650
  20.6627840  44.1320920  16.2075420  26.5012790  40.2761340  11.1189310
  26.8682920  39.8019910  11.8650650  26.3117850  41.1502910  11.4597650
  19.3653280  35.0205030   7.2482780  19.0800200  34.6560700   8.0861400
  19.3032140  34.2885490   6.6345920  24.2912160  39.3169980  13.4373520
  23.9869230  40.1961960  13.6623880  25.2458620  39.3769770  13.4730960
  22.8193950  43.5230970   4.0340370  22.0456210  42.9828590   3.8739090
  23.5488580  43.0037580   3.6958130  33.5781930  42.5196330   9.8266760
  34.2981050  43.0151620   9.4362870  33.3763750  41.8414220   9.1820630
  29.0391870  33.9134290   3.9696150  28.2256480  33.4147460   3.8941460
  28.8453820  34.7532540   3.5532500  28.9600730  42.5905390  15.7135760
  28.8938040  41.6701060  15.4593350  28.3305870  42.6880830  16.4280400
  31.7540260  38.2853940   2.2658310  32.6419880  38.5971170   2.0909650
  31.7245350  37.4126190   1.8738890  22.8631350  43.1911350   7.6719180
  23.3810020  42.3879610   7.6176070  22.4115370  43.1290490   8.5136010
  27.7500850  44.4577630   2.9446480  28.0916550  45.2019860   2.4489800
  26.9213560  44.7708750   3.3071310  20.3475890  40.1572720  14.5844880
  19.9890830  40.8226570  15.1718220  20.0530450  39.3256270  14.9557500
  23.5489010  40.6156960  17.4684430  23.2489150  40.7614140  16.5712250
  24.3200250  40.0562250  17.3757820  28.8917460  45.4125960  15.4639560
  28.9062000  44.4806920  15.2458470  28.1842560  45.4985720  16.1029330
  35.1028670  42.0533300  14.8108140  34.3776860  42.6462080  14.6137530
  35.6304130  42.0456840  14.0121510  35.0541780  46.4508040   4.4620300
  34.4117940  45.7963660   4.7364020  34.6672440  46.8563130   3.6860970
  30.6328260  43.7793470   8.3091990  30.9852080  43.1821600   7.6493360
  29.7490590  43.4537700   8.4800240  26.7191540  44.5391160   5.7162400
  27.4062670  45.0860370   6.0969990  25.9323960  45.0831890   5.7512010
  26.0218750  41.5437190   5.3287760  26.4781530  42.3542440   5.5547950
  25.6706960  41.2260330   6.1606250  28.3251360  47.0543530  12.5580060
  28.9693580  47.2602910  13.2353480  28.6880800  46.2931930  12.1050910
  21.9230530  31.8874840   5.8010280  21.7945160  31.8792740   6.7495200
  21.0992550  32.2257930   5.4501290  29.5983440  45.0575880  11.2757510
  30.2405670  44.3569040  11.3889680  30.1232790  45.8374320  11.0954400
  31.3721060  45.8570780  14.4793570  31.7077300  46.4437470  15.1571490
  30.4521400  45.7263490  14.7091360  18.9224460  33.6465960  15.2616980
  18.2082980  33.8462880  15.8669590  19.3419500  32.8705530  15.6331780
  33.0255410  43.2596440   2.6610810  32.7377110  43.7209130   3.4488690
  33.8207580  42.7994210   2.9295030  19.2097050  47.6346220  16.2483510
  19.3188170  46.6940960  16.1078900  18.5577610  47.9000970  15.5997240
  27.2009640  45.9062110  17.6481630  26.8806510  45.1871350  18.1927320
  26.5268000  46.5817180  17.7217690  25.2423810  46.7522560   2.5914780
  25.2333910  47.4852250   1.9759290  24.3222170  46.5054140   2.6841740
  20.8430450  41.9737450   3.3361540  20.2358400  42.7136350   3.3456840
  21.3179800  42.0636810   2.5099740  30.4163240  36.1388270  13.0118430
  30.7844060  35.3183480  13.3398000  29.5561440  36.1990160  13.4274080
  33.7825270  35.0945210   3.8205990  33.1538430  35.1990880   3.1064220
  33.2877190  35.3141990   4.6099870  25.7509300  37.3731160   5.2363870
  25.0425450  37.8417500   5.6777480  26.0353780  36.7153170   5.8709060
  27.3765230  38.7927860  13.2356400  27.8750480  39.2673680  13.9008250
  27.5188180  37.8691380  13.4426430  29.7824730  34.0981820   6.6759660
  29.6592510  34.1167950   5.7269170  30.7309290  34.1460760   6.7958060
  26.8701520  49.3337120   5.9487640  27.1243020  49.2958510   5.0267010
  25.9214000  49.2070450   5.9415890  23.9544320  35.6816240   2.6114580
  24.8034850  36.1186390   2.5454770  23.5875590  35.9936500   3.4386640
  34.5832090  35.0095820  14.0784790  34.0805690  35.7501220  14.4178600
  35.3988750  35.3979820  13.7621580  32.8754100  40.2529000   7.5246150
  31.9344240  40.2679230   7.6993840  33.1898170  39.4664960   7.9706450
  21.5482500  39.3673670   1.7683000  21.6286090  38.4201180   1.8800400
  22.4402250  39.6980550   1.8743660  34.8779680  47.4237850   9.2000410
  35.0027100  48.2469020   9.6724220  35.7445240  47.2128580   8.8524560
  22.3497210  49.5169060   8.8717540  23.0859690  48.9684520   9.1426110
  22.7338130  50.3825070   8.7323530  19.2342690  45.5842630   4.7459050
  18.3082470  45.8263770   4.7364460  19.6999120  46.4116890   4.6243800
  21.3555490  48.7015130  18.0603120  22.1568220  49.0227180  18.4738520
  20.8407310  48.3410710  18.7823030  30.1920120  44.8095000  18.0078530
  29.5858280  44.8326600  17.2674280  29.8874230  44.0778040  18.5445780
  31.6220490  48.5375290  16.6187940  32.5742240  48.4533310  16.5688180
  31.4748710  49.2017000  17.2921730  19.0753300  41.1888590  17.0039170
  19.5792320  40.6095870  17.5755400  18.3360720  41.4728820  17.5415540
  26.1291240  42.5959580  16.5374690  25.3636910  43.1644580  16.4529360
  26.3107200  42.3035790  15.6442920  33.2714590  44.3264910  17.0949710
  34.0124060  44.6640670  16.5917170  32.5087270  44.4956970  16.5419480
  21.1076380  39.3318180  17.8989240  21.1481720  39.0332050  18.8074470
  21.9621880  39.7325790  17.7396760  24.8854770  41.9313730   3.0592750
  25.3071190  41.7653600   3.9024140  25.0105610  41.1213960   2.5647890
  23.0482190  37.9110280  15.8663730  22.5178650  37.4201230  15.2387070
  23.7170260  38.3394480  15.3321660  31.9460250  42.3779740  15.6304920
  32.3601270  42.5324820  16.4795340  31.0111250  42.5034960  15.7930700
  32.4182420  39.7175900  17.6344070  33.0003190  38.9628220  17.5464550
  32.5944190  40.2483340  16.8575550  23.5354490  34.8772650  15.9461020
  23.4411360  34.2593400  15.2211890  22.9551880  35.6038940  15.7190930
  26.3015930  33.4345890  12.9788410  25.8533230  33.4570150  12.1333960
  25.6681130  33.0364910  13.5758710  26.7075480  42.3300220  13.6000850
  27.1263590  43.1732950  13.4277090  25.7884110  42.4672260  13.3707630
  29.0439380  40.0616400  14.9838690  29.1635590  39.4657540  15.7233530
  29.9033380  40.0986090  14.5639990  31.3827280  40.6153590  13.5601200
  30.8562500  41.1396210  12.9566340  31.7258620  41.2480980  14.1910930
  24.5582900  48.6353230  14.7158580  24.0203990  49.3599290  14.3967280
  24.8116860  48.1583570  13.9255920  25.8108150  36.6037750  16.2414510
  26.4007840  36.2953600  16.9292330  24.9928390  36.1317500  16.3974410
  30.6301580  36.2203560  16.4747530  29.9417100  35.5585100  16.4097520
  31.3507600  35.7741830  16.9195990  31.2601980  32.8155190   2.5337790
  31.5404270  31.9723090   2.8897210  30.4867710  33.0478300   3.0476540
  27.4145110  49.8704440  14.9745230  27.3403810  50.7739580  15.2817600
  26.5123950  49.5516340  14.9467300  27.9630440  49.0362950   2.5971590
  28.8581230  49.3747920   2.6190350  27.9948070  48.3142360   1.9695870
  18.8172400  47.1979030   8.2778850  19.1475410  46.3300090   8.0457490
  19.2463400  47.4037550   9.1083810  23.4134320  45.5288040   5.9380820
  23.1129860  45.4053010   6.8384730  23.3071810  44.6696630   5.5296550
  19.3062610  48.0649620  11.0160480  18.8693600  48.2450420  11.8484630
  19.8740290  48.8224240  10.8742200  34.9424790  47.5666620  15.3037790
  34.3426780  47.6259180  14.5601710  35.0718690  46.6271600  15.4334640
  35.6382700  42.0531920   3.1441700  36.4001610  42.6228570   3.2501390
  35.6537070  41.4859120   3.9150010  19.1387040  40.5769850   7.3749360
  18.4835880  40.3081490   6.7309060  19.9764990  40.4674330   6.9251340
  36.6442670  42.9082020   7.9883630  37.0151500  42.1249340   7.5819600
  37.2844600  43.5971120   7.8100930  33.6276430  44.2918600  13.4013950
  32.8136270  44.7215760  13.6639740  34.0350630  44.9037010  12.7883000
  35.5867210  40.2835280   5.2943650  35.2110810  39.5163210   4.8624940
  34.8570330  40.6657980   5.7818580  20.1762970  40.9622420  11.9152700
  20.5436010  40.8749820  12.7948720  19.6073790  40.1988970  11.8159560
  34.9766830  39.4306800  14.9283170  34.7452920  39.2019550  14.0281120
  35.2371380  40.3506350  14.8828060  19.7278970  37.8731510  15.8211120
  18.8335020  37.8398270  16.1604830  20.2676520  38.0718300  16.5862370
  33.4154900  34.6563230  17.7062870  34.2925080  34.6646630  18.0896870
  33.4275740  33.9194070  17.0955220  18.3525120  37.7868780   3.3174690
  17.4489200  38.0498980   3.1426350  18.8365740  38.0579950   2.5374650
  34.8618170  38.5092770   8.5950890  35.3855650  38.0155420   7.9641060
  35.4477590  38.6443130   9.3398460  35.0407890  38.5932640  12.1170440
  34.0910600  38.5596180  12.2315430  35.2220900  39.5032750  11.8820210
  34.3518140  37.7666120   4.5343300  34.8477260  37.5336990   5.3192180
  34.1534210  36.9277960   4.1180940  20.2318680  32.1479840  10.1694340
  20.8794870  31.5977220   9.7289500  20.6520520  32.4022990  10.9910150
  35.7805300  36.4027070   7.0680980  35.6704580  36.2483110   8.0063250
  36.5412890  35.8748010   6.8256390  34.1271020  32.3421200  13.5263980
  34.7643240  32.9555340  13.8923170  34.2745910  32.3781860  12.5813210
  36.7434060  35.0045650   2.9343830  35.9485560  34.9390770   3.4636740
  36.9477340  35.9396290   2.9229180  33.6852480  49.0437200   6.9282220
  34.2811550  48.7221770   6.2516640  33.9430630  48.5709020   7.7195490
  19.9850680  32.3035510  12.9119660  19.6365500  32.7599330  13.6777840
  19.6538380  31.4092640  12.9942090  21.5915050  45.4755110  17.0772850
  21.5484680  45.1048020  17.9587310  21.7226060  46.4132680  17.2174670
  25.2921080  47.0314700  12.6782570  25.0512440  47.2989260  11.7913090
  26.2323720  47.2020430  12.7333430  27.4975500  33.4947390  16.4339080
  27.4364390  34.0869220  17.1834490  28.4375880  33.3873350  16.2889340
  30.1350060  33.1517450  16.0731370  30.7490470  33.4696740  15.4112450
  30.6799620  32.6666040  16.6927230  36.5525240  49.0509080  13.4793210
  36.0583520  49.4477950  12.7620340  35.9438530  48.4258290  13.8730490
  20.6571320  31.8311710  16.1870430  21.2054310  31.6499760  15.4236540
  20.7226630  31.0405820  16.7226740  21.4303080  48.4217360  14.1970630
  20.8363400  48.2902060  14.9360670  21.4226920  47.5855500  13.7312730
  30.8758100  31.7149590  12.4000660  30.0017940  32.0484700  12.1973590
  30.7668850  31.2422770  13.2252530  31.7830080  33.9220460  13.7842380
  31.4543440  33.1072220  13.4044110  32.7312380  33.8790270  13.6608070
  34.2364690  49.6932500  10.7579950  33.7767660  50.4448310  10.3837970
  33.6077150  48.9738970  10.6994750  21.0615310  45.7875740  13.1478670
  20.3349370  45.1681030  13.0804620  21.1224460  46.1816350  12.2776750
  24.6660410  48.0020740   9.9328080  25.1825430  47.3908100   9.4076340
  25.3157790  48.5049520  10.4239090  27.4055910  48.8929230  10.7597060
  27.6933720  48.6383530   9.8830070  27.9179130  48.3406590  11.3502630
  28.6232920  32.6319430  11.3393570  27.8404710  33.1064930  11.6190330
  28.3295850  31.7274260  11.2306750  33.1753990  33.3342530   9.3842660
  33.6162080  33.2787630   8.5364260  32.9061580  34.2500540   9.4552840
  35.0392560  32.9657770   7.3951480  34.9780960  32.0218990   7.2482500
  35.8184590  33.0737860   7.9404940  19.3445310  49.1050130   6.3575430
  19.1767350  48.4720810   7.0557320  18.4779820  49.3109530   6.0069620
  19.9673330  32.9366910   3.8607290  20.7252690  33.0495790   3.2871320
  19.5050500  33.7736110   3.8150720  26.5087140  35.0506180   6.8509600
  25.6961650  34.6763070   6.5105480  27.0128780  34.2951260   7.1530790
  31.0112120  31.7148630   8.0892670  31.6141490  32.2868840   8.5641190
  30.2705110  32.2788070   7.8666570  34.1546720  32.1170190   3.3632950
  34.3497350  33.0153640   3.6300380  33.3676590  31.8857270   3.8565900
  20.9508010  47.7983360   3.8025570  20.4255630  48.1791390   3.0987530
  20.8752590  48.4234130   4.5235280  22.3398480  33.4630960   2.4009260
  22.8691240  32.6760760   2.2717210  22.9726800  34.1422150   2.6344790
  24.5336320  33.2006100   5.4554650  23.9039060  32.4993410   5.6224780
  23.9941460  33.9610230   5.2387810  27.4728270  49.8145330  18.1265260
  28.3995580  49.5789600  18.1701220  27.4578700  50.6417330  17.6451290
  35.7073330  49.3570900   5.1239510  35.8825520  48.6708640   4.4800430
  35.0094900  49.8817950   4.7316180  24.6591880  32.4790080  17.8907140
  24.3776150  32.9823680  17.1267960  25.0411580  31.6811830  17.5249270
  23.5500980  49.7465740   2.6774820  24.2819800  49.4625020   2.1298710
  23.8094650  49.5079020   3.5674200  22.7115770  45.8630470   2.6821150
  22.0824650  46.3315570   3.2306980  22.8263600  45.0179690   3.1167340
  31.2607340  31.8943660  18.4687610  31.1472790  32.2138270  19.3639130
  32.0777080  32.2956170  18.1724890  34.0405830  49.0415190  17.9506300
  34.8331150  48.5464420  17.7432260  34.3338980  49.7205330  18.5581910
  30.1665490  21.1392640  63.9296310  30.0859540  20.2247250  63.6588020
  29.7529910  21.6359710  63.2236020  28.2983530  22.9171660  65.8105580
  27.5225630  22.4372100  66.1004150  28.9496460  22.2377310  65.6361740
  22.3149360  23.2291470  66.6881340  21.4834240  22.9740180  67.0877850
  22.9230340  23.3002240  67.4239260  32.3190960  27.3231850  64.5904710
  31.8572490  26.5519090  64.9191880  33.1316510  27.3497920  65.0957160
  22.2950620  27.2631560  66.8839360  22.5978660  26.3729300  66.7049580
  23.0394210  27.8201780  66.6561610  20.7241310  18.1893360  60.4723730
  19.8358010  18.5309330  60.3703610  21.0082500  17.9893680  59.5804560
  18.6874320  20.7899010  66.3563430  19.2590430  20.0221210  66.3567070
  18.6875860  21.0887770  65.4470040  28.5454270  29.6089860  64.2108700
  27.9265710  30.0647360  63.6403140  29.4006050  29.7641320  63.8098400
  27.7392520  25.5928850  65.8175740  27.6700800  24.6518790  65.6564870
  28.5012380  25.6830260  66.3898310  19.9299190  16.1983370  68.1432360
  19.7502030  15.3009120  68.4235120  19.5279270  16.7455240  68.8179310
  28.7697690  18.3999230  66.0444670  29.1462510  17.5271110  65.9318340
  28.6717200  18.7357930  65.1535110  22.9002700  16.7724860  61.5062110
  23.0069450  17.6728590  61.8130870  21.9895060  16.7242830  61.2156760
  32.5521810  15.8949670  62.9773010  33.3731430  15.4046240  63.0198490
  32.5855890  16.4847330  63.7304850  20.5485860  18.6943870  66.7514700
  21.2295970  18.9582240  67.3702100  20.2333910  17.8544740  67.0852710
  24.7410430  19.7411230  65.8387290  25.2488650  20.2392200  66.4792310
  25.2723670  18.9646430  65.6626650  36.8421360  17.9116420  69.5416640
  36.1373530  18.2998130  69.0231750  37.1079280  18.6066710  70.1437570
  23.0246530  14.3809790  70.1050710  23.0264970  14.8982180  69.2996610
  22.1950840  13.9039970  70.0820640  29.4117620  24.4929100  61.6040610
  28.7934890  24.9578550  61.0403330  29.9240870  25.1856580  62.0210120
  24.2749380  24.0204970  68.2824210  23.9418760  24.6473890  68.9245280
  24.4516060  24.5466850  67.5025880  32.7883290  17.8350050  65.7500550
  32.0838860  18.1234940  66.3303660  33.1495450  18.6450160  65.3900110
  22.7061860  16.0919750  68.1121160  23.0478670  16.9361800  67.8175030
  21.7677670  16.2403490  68.2286500  23.4868480  25.9885770  70.0973390
  24.1042480  26.6636850  69.8157840  22.6261600  26.3973750  70.0060890
  18.7800820  25.1785630  58.9780240  18.4028800  25.6672730  58.2465140
  19.0373890  25.8510910  59.6086770  34.4046070  27.4525180  68.0128030
  33.7209590  28.1224290  68.0044700  34.9440360  27.6505830  67.2472890
  35.8570210  17.2804840  66.1409760  34.9095120  17.3143820  66.2725190
  36.1820200  18.0943790  66.5259120  26.3889750  13.5802020  64.4365750
  26.6964730  13.0248910  63.7201250  25.4590450  13.7146480  64.2538740
  31.9404810  29.2969310  66.7273210  31.9531970  28.8931600  65.8595470
  31.3880030  30.0716600  66.6234640  33.2350230  26.0185530  61.8163380
  33.1246560  25.0759860  61.9412800  33.2318480  26.3801170  62.7026140
  31.3390250  24.1999150  68.0555820  31.7559040  23.9859260  67.2209280
  32.0630070  24.4571940  68.6264440  28.7770510  21.6450850  61.1725870
  27.8499790  21.5788230  61.4014340  28.9295330  22.5830980  61.0581110
  28.7639590  17.9167850  58.1693030  27.8243260  18.0781810  58.2545490
  29.0822850  18.6353530  57.6229020  35.2852350  22.5986370  68.1472060
  34.4570980  22.6679460  67.6722190  35.8802830  23.1840680  67.6787890
  32.8067800  23.2071150  61.6761120  32.1880220  22.8690700  61.0287420
  32.7892250  22.5630910  62.3840310  32.2494360  19.3855690  69.0926930
  31.8365540  20.2109400  69.3466920  31.5170310  18.8000730  68.9003290
  24.3827150  22.1715590  63.9545600  23.9784150  21.4592840  63.4591500
  24.4690270  21.8268830  64.8433640  24.8508850  25.8583150  66.1184810
  24.5537140  25.2528620  65.4392590  25.8008670  25.8960460  66.0074170
  23.0955770  18.9458800  67.7344640  23.6470360  19.0554140  66.9597890
  23.6099280  19.3196400  68.4499870  32.9394460  29.4315020  69.7807910
  32.4625020  30.2387210  69.5880520  32.2556250  28.7793350  69.9334120
  30.9832500  22.4457960  58.6833870  31.4225780  21.6080390  58.5371690
  31.6960920  23.0787360  58.7698010  22.7698500  22.4678160  71.3449980
  22.6306270  23.3400960  71.7137380  21.8879860  22.1250970  71.1997920
  29.0927880  27.3854030  62.6515110  29.5323790  28.1278360  62.2370500
  29.0314770  27.6280600  63.5754070  34.5649640  13.7000770  56.9974910
  34.2522300  13.7927600  57.8973980  35.3262110  14.2781800  56.9472340
  21.0831780  21.0660570  61.4552250  20.9629380  21.7922660  60.8433520
  20.7732670  20.2963480  60.9780160  18.7217150  24.2375710  67.2620890
  18.7997570  24.3724480  66.3176610  19.3358830  23.5291600  67.4549010
  19.9664780  25.9375900  63.6727070  19.5592860  26.0790490  62.8180670
  20.8577790  25.6536060  63.4698280  35.9226920  26.3839810  72.0099310
  36.0489980  26.1451690  71.0916490  35.9648300  25.5524350  72.4821390
  29.7843660  30.0867810  70.5794120  30.2988330  29.9975820  71.3816550
  28.9412740  30.4327510  70.8722030  31.7598060  30.3723150  60.0078120
  31.5999200  30.0826090  60.9059950  31.5944770  29.5963280  59.4723350
  24.2386440  30.1521680  61.7849740  24.0628920  29.2357220  61.5717540
  23.3842180  30.5108970  62.0247540  31.4624190  27.8810710  58.5676120
  30.7689350  27.8788000  57.9078400  32.2047050  27.4570030  58.1370290
  31.0274120  29.5073420  62.6424610  31.4831070  28.7262800  62.9563230
  31.3666640  30.2180240  63.1865790  35.7750930  18.4372270  72.9749050
  35.1595200  18.9451940  72.4464510  35.4547350  17.5370600  72.9174990
  18.7776670  25.2789880  69.8015350  18.9407710  24.8095240  68.9834720
  19.2429120  24.7713440  70.4664190  23.5495440  14.4095640  64.8375920
  23.1063590  15.1905180  64.5060440  24.1080430  14.7325530  65.5446860
  27.8365250  17.2764160  70.4411240  27.3744620  17.4847180  71.2531180
  27.4343360  16.4623510  70.1381910  32.8369760  18.4973110  71.5707900
  31.9863350  18.1978860  71.8916970  32.6771550  18.7415120  70.6591720
  26.6654260  14.0306340  59.7181750  26.0408440  14.0266210  60.4435060
  26.5784380  13.1637300  59.3217720  25.5871340  14.9542970  66.6965520
  25.8843670  15.8605800  66.6157540  26.1356900  14.4661750  66.0825090
  23.3409660  19.5329210  62.5657170  23.1150580  19.3166380  63.4703790
  22.5602190  19.9657670  62.2203140  30.5707420  19.5392580  61.1647820
  29.9716310  20.2628380  60.9811440  31.1187030  19.4769360  60.3824270
  29.1772290  18.1756120  63.1951100  29.5701860  18.4928320  62.3819790
  29.5389140  17.2968000  63.3095620  20.9119410  16.8428460  71.3851220
  20.5182800  17.6903670  71.5924000  20.2237810  16.2054830  71.5759860
  18.2136460  14.7656920  65.4181300  17.9249510  15.3359780  66.1306280
  18.9582220  14.2861370  65.7812530  18.4006690  18.7077040  56.6284020
  18.3181360  19.6507800  56.7699010  18.0489750  18.5651950  55.7496370
  29.7627430  20.7661870  67.2901880  29.0308550  21.2748680  67.6391980
  29.3651770  19.9491850  66.9890660  26.2004820  17.4416070  65.6954370
  26.2040880  17.0006020  64.8458910  27.0955940  17.7633400  65.8026190
  22.0507200  17.3242560  64.6548580  21.7107250  17.8017790  65.4115630
  21.2884520  16.8707680  64.2949680  26.2624970  18.4428150  58.6861130
  26.3837790  18.4014630  59.6346950  25.8773480  19.3052300  58.5307860
  30.2253340  16.2195550  66.7024820  30.2426080  16.6704200  67.5466670
  29.9768920  15.3201190  66.9158260  25.2746470  20.7529290  58.0844430
  24.7063370  20.3047540  57.4580340  25.9835470  21.1122070  57.5509580
  20.3515650  24.6541310  71.9611160  19.9670440  24.0134980  72.5594120
  20.6627840  25.3577430  72.5305890  26.5012790  21.5017850  67.4419780
  26.8682920  21.0276420  68.1881120  26.3117850  22.3759420  67.7828120
  19.3653280  16.2461540  63.5713250  19.0800200  15.8817210  64.4091870
  19.3032140  15.5142000  62.9576390  24.2912160  20.5426490  69.7603990
  23.9869230  21.4218470  69.9854350  25.2458620  20.6026280  69.7961430
  22.8193950  24.7487480  60.3570840  22.0456210  24.2085100  60.1969560
  23.5488580  24.2294090  60.0188600  33.5781930  23.7452840  66.1497230
  34.2981050  24.2408130  65.7593340  33.3763750  23.0670730  65.5051100
  29.0391870  15.1390800  60.2926620  28.2256480  14.6403970  60.2171930
  28.8453820  15.9789050  59.8762970  28.9600730  23.8161900  72.0366230
  28.8938040  22.8957570  71.7823820  28.3305870  23.9137340  72.7510870
  31.7540260  19.5110450  58.5888780  32.6419880  19.8227680  58.4140120
  31.7245350  18.6382700  58.1969360  22.8631350  24.4167860  63.9949650
  23.3810020  23.6136120  63.9406540  22.4115370  24.3547000  64.8366480
  27.7500850  25.6834140  59.2676950  28.0916550  26.4276370  58.7720270
  26.9213560  25.9965260  59.6301780  20.3475890  21.3829230  70.9075350
  19.9890830  22.0483080  71.4948690  20.0530450  20.5512780  71.2787970
  28.8917460  26.6382470  71.7870030  28.9062000  25.7063430  71.5688940
  28.1842560  26.7242230  72.4259800  34.0254530  20.8222290  58.0568640
  33.9418250  21.2536510  57.2065080  34.7448720  21.2820640  58.4895460
  35.1028670  23.2789810  71.1338610  34.3776860  23.8718590  70.9368000
  35.6304130  23.2713350  70.3351980  35.0541780  27.6764550  60.7850770
  34.4117940  27.0220170  61.0594490  34.6672440  28.0819640  60.0091440
  30.6328260  25.0049980  64.6322460  30.9852080  24.4078110  63.9723830
  29.7490590  24.6794210  64.8030710  26.7191540  25.7647670  62.0392870
  27.4062670  26.3116880  62.4200460  25.9323960  26.3088400  62.0742480
  18.8583940  21.3820490  57.5309950  19.7278790  21.6645290  57.8145870
  18.3674260  22.1956360  57.4158760  26.0218750  22.7693700  61.6518230
  26.4781530  23.5798950  61.8778420  25.6706960  22.4516840  62.4836720
  28.3251360  28.2800040  68.8810530  28.9693580  28.4859420  69.5583950
  28.6880800  27.5188440  68.4281380  21.9230530  13.1131350  62.1240750
  21.7945160  13.1049250  63.0725670  21.0992550  13.4514440  61.7731760
  29.5983440  26.2832390  67.5987980  30.2405670  25.5825550  67.7120150
  30.1232790  27.0630830  67.4184870  33.4439160  26.5681010  57.3227120
  33.2176740  25.8511450  57.9151760  33.0535360  26.3193450  56.4848870
  31.3721060  27.0827290  70.8024040  31.7077300  27.6693980  71.4801960
  30.4521400  26.9520000  71.0321830  19.2255190  30.5947870  58.0971580
  19.5852830  31.1937210  57.4428850  19.0847530  31.1407760  58.8706610
  18.9224460  14.8722470  71.5847450  18.2082980  15.0719390  72.1900060
  19.3419500  14.0962040  71.9562250  33.0255410  24.4852950  58.9841280
  32.7377110  24.9465640  59.7719160  33.8207580  24.0250720  59.2525500
  19.2097050  28.8602730  72.5713980  19.3188170  27.9197470  72.4309370
  18.5577610  29.1257480  71.9227710  25.2423810  27.9779070  58.9145250
  25.2333910  28.7108760  58.2989760  24.3222170  27.7310650  59.0072210
  20.8430450  23.1993960  59.6592010  20.2358400  23.9392860  59.6687310
  21.3179800  23.2893320  58.8330210  30.4163240  17.3644780  69.3348900
  30.7844060  16.5439990  69.6628470  29.5561440  17.4246670  69.7504550
  33.7825270  16.3201720  60.1436460  33.1538430  16.4247390  59.4294690
  33.2877190  16.5398500  60.9330340  28.2283410  28.0407310  57.5770440
  28.3295390  27.8371300  56.6472420  27.3285150  27.7865590  57.7818220
  25.7509300  18.5987670  61.5594340  25.0425450  19.0674010  62.0007950
  26.0353780  17.9409680  62.1939530  27.3765230  20.0184370  69.5586870
  27.8750480  20.4930190  70.2238720  27.5188180  19.0947890  69.7656900
  29.7824730  15.3238330  62.9990130  29.6592510  15.3424460  62.0499640
  30.7309290  15.3717270  63.1188530  26.8701520  30.5593630  62.2718110
  27.1243020  30.5215020  61.3497480  25.9214000  30.4326960  62.2646360
  23.9544320  16.9072750  58.9345050  24.8034850  17.3442900  58.8685240
  23.5875590  17.2193010  59.7617110  34.5832090  16.2352330  70.4015260
  34.0805690  16.9757730  70.7409070  35.3988750  16.6236330  70.0852050
  32.8754100  21.4785510  63.8476620  31.9344240  21.4935740  64.0224310
  33.1898170  20.6921470  64.2936920  22.8535740  23.1605110  57.4080580
  23.6199010  23.0486470  57.9706010  22.9310430  22.4643080  56.7557350
  21.5482500  20.5930180  58.0913470  21.6286090  19.6457690  58.2030870
  22.4402250  20.9237060  58.1974130  34.8779680  28.6494360  65.5230880
  35.0027100  29.4725530  65.9954690  35.7445240  28.4385090  65.1755030
  22.3497210  30.7425570  65.1948010  23.0859690  30.1941030  65.4656580
  22.7338130  31.6081580  65.0554000  19.2342690  26.8099140  61.0689520
  18.3082470  27.0520280  61.0594930  19.6999120  27.6373400  60.9474270
  25.4599520  29.9155880  57.0173580  26.2528130  30.2044710  56.5655370
  24.9403870  29.4848050  56.3386060  34.5129690  29.1426010  58.4410320
  34.2271200  28.7291150  57.6264500  34.3149240  30.0713720  58.3210840
  25.9776920  25.1359290  56.8815930  25.8727560  24.5211640  57.6077310
  25.8101140  24.6125180  56.0978940  26.1291240  23.8216090  72.8605160
  25.3636910  24.3901090  72.7759830  26.3107200  23.5292300  71.9673390
  29.2179650  24.1979320  57.4857920  28.6689750  24.6448620  58.1300660
  29.8398910  23.6928570  58.0095590  24.8854770  23.1570240  59.3823220
  25.3071190  22.9910110  60.2254610  25.0105610  22.3470470  58.8878360
  23.0482190  19.1366790  72.1894200  22.5178650  18.6457740  71.5617540
  23.7170260  19.5650990  71.6552130  27.3982410  22.1807850  56.6300320
  27.9188070  21.4656870  56.2641470  28.0450810  22.8193720  56.9300830
  31.9460250  23.6036250  71.9535390  32.3601270  23.7581330  72.8025810
  31.0111250  23.7291470  72.1161170  23.5354490  16.1029160  72.2691490
  23.4411360  15.4849910  71.5442360  22.9551880  16.8295450  72.0421400
  26.3015930  14.6602400  69.3018880  25.8533230  14.6826660  68.4564430
  25.6681130  14.2621420  69.8989180  26.7075480  23.5556730  69.9231320
  27.1263590  24.3989460  69.7507560  25.7884110  23.6928770  69.6938100
  29.0439380  21.2872910  71.3069160  29.1635590  20.6914050  72.0464000
  29.9033380  21.3242600  70.8870460  31.3827280  21.8410100  69.8831670
  30.8562500  22.3652720  69.2796810  31.7258620  22.4737490  70.5141400
  23.7813670  19.2303470  56.3281380  23.5802730  18.3670830  56.6894720
  23.6105720  19.1436830  55.3902980  24.5582900  29.8609740  71.0389050
  24.0203990  30.5855800  70.7197750  24.8116860  29.3840080  70.2486390
  31.2601980  14.0411700  58.8568260  31.5404270  13.1979600  59.2127680
  30.4867710  14.2734810  59.3707010  22.5796470  16.3304090  56.3159260
  22.8822370  16.3371520  55.4078410  23.3191060  15.9801950  56.8126920
  27.4145110  31.0960950  71.2975700  27.3403810  31.9996090  71.6048070
  26.5123950  30.7772850  71.2697770  25.7981400  15.2738710  57.3015460
  25.4503400  14.5962700  56.7217910  25.9994170  14.8128220  58.1158850
  27.9630440  30.2619460  58.9202060  28.8581230  30.6004430  58.9420820
  27.9948070  29.5398870  58.2926340  21.6026600  25.6346510  57.1489060
  22.0401470  26.1776180  57.8046640  22.0874330  24.8093460  57.1585400
  18.8172400  28.4235540  64.6009320  19.1475410  27.5556600  64.3687960
  19.2463400  28.6294060  65.4314280  23.4134320  26.7544550  62.2611290
  23.1129860  26.6309520  63.1615200  23.3071810  25.8953140  61.8527020
  19.3062610  29.2906130  67.3390950  18.8693600  29.4706930  68.1715100
  19.8740290  30.0480750  67.1972670  34.9424790  28.7923130  71.6268260
  34.3426780  28.8515690  70.8832180  35.0718690  27.8528110  71.7565110
  36.1826240  26.5340950  56.9637970  35.3519200  26.6017600  57.4345200
  36.3598070  27.4245070  56.6604830  35.6382700  23.2788430  59.4672170
  36.4001610  23.8485080  59.5731860  35.6537070  22.7115630  60.2380480
  19.1387040  21.8026360  63.6979830  18.4835880  21.5338000  63.0539530
  19.9764990  21.6930840  63.2481810  36.6442670  24.1338530  64.3114100
  37.0151500  23.3505850  63.9050070  37.2844600  24.8227630  64.1331400
  33.6276430  25.5175110  69.7244420  32.8136270  25.9472270  69.9870210
  34.0350630  26.1293520  69.1113470  35.6901870  23.5722800  56.6244690
  35.9650710  24.4801680  56.4963910  35.5012610  23.5085330  57.5606680
  32.0877480  16.5967650  57.9198320  32.5062360  16.4098630  57.0794980
  31.7813540  15.7446700  58.2301250  35.5867210  21.5091790  61.6174120
  35.2110810  20.7419720  61.1855410  34.8570330  21.8914490  62.1049050
  20.1762970  22.1878930  68.2383170  20.5436010  22.1006330  69.1179190
  19.6073790  21.4245480  68.1390030  34.9766830  20.6563310  71.2513640
  34.7452920  20.4276060  70.3511590  35.2371380  21.5762860  71.2058530
  19.7278970  19.0988020  72.1441590  18.8335020  19.0654780  72.4835300
  20.2676520  19.2974810  72.9092840  18.3525120  19.0125290  59.6405160
  17.4489200  19.2755490  59.4656820  18.8365740  19.2836460  58.8605120
  34.8618170  19.7349280  64.9181360  35.3855650  19.2411930  64.2871530
  35.4477590  19.8699640  65.6628930  35.0407890  19.8189150  68.4400910
  34.0910600  19.7852690  68.5545900  35.2220900  20.7289260  68.2050680
  20.8952330  18.0690830  57.5499540  21.6044030  17.6474050  57.0646820
  20.1792270  18.1366060  56.9182890  20.5426490  14.1230160  56.5902190
  21.2654620  14.6639100  56.9083410  20.8151010  13.8493580  55.7143730
  34.3518140  18.9922630  60.8573770  34.8477260  18.7593500  61.6422650
  34.1534210  18.1534470  60.4411410  20.2318680  13.3736350  66.4924810
  20.8794870  12.8233730  66.0519970  20.6520520  13.6279500  67.3140620
  35.7805300  17.6283580  63.3911450  35.6704580  17.4739620  64.3293720
  36.5412890  17.1004520  63.1486860  34.1271020  13.5677710  69.8494450
  34.7643240  14.1811850  70.2153640  34.2745910  13.6038370  68.9043680
  36.6695570  15.4591500  56.6317590  37.5944880  15.3272680  56.4235880
  36.6471360  15.5384320  57.5854040  36.7434060  16.2302160  59.2574300
  35.9485560  16.1647280  59.7867210  36.9477340  17.1652800  59.2459650
  33.6852480  30.2693710  63.2512690  34.2811550  29.9478280  62.5747110
  33.9430630  29.7965530  64.0425960  19.9850680  13.5292020  69.2350130
  19.6365500  13.9855840  70.0008310  19.6538380  12.6349150  69.3172560
  25.2921080  28.2571210  69.0013040  25.0512440  28.5245770  68.1143560
  26.2323720  28.4276940  69.0563900  36.5525240  30.2765590  69.8023680
  36.0583520  30.6734460  69.0850810  35.9438530  29.6514800  70.1960960
  21.4303080  29.6473870  70.5201100  20.8363400  29.5158570  71.2591140
  21.4226920  28.8112010  70.0543200  30.8758100  12.9406100  68.7231130
  30.0017940  13.2741210  68.5204060  30.7668850  12.4679280  69.5483000
  31.7830080  15.1476970  70.1072850  31.4543440  14.3328730  69.7274580
  32.7312380  15.1046780  69.9838540  34.2364690  30.9189010  67.0810420
  33.7767660  31.6704820  66.7068440  33.6077150  30.1995480  67.0225220
  21.0615310  27.0132250  69.4709140  20.3349370  26.3937540  69.4035090
  21.1224460  27.4072860  68.6007220  24.6660410  29.2277250  66.2558550
  25.1825430  28.6164610  65.7306810  25.3157790  29.7306030  66.7469560
  27.4055910  30.1185740  67.0827530  27.6933720  29.8640040  66.2060540
  27.9179130  29.5663100  67.6733100  28.6232920  13.8575940  67.6624040
  27.8404710  14.3321440  67.9420800  28.3295850  12.9530770  67.5537220
  33.1753990  14.5599040  65.7073130  33.6162080  14.5044140  64.8594730
  32.9061580  15.4757050  65.7783310  35.0392560  14.1914280  63.7181950
  34.9780960  13.2475500  63.5712970  35.8184590  14.2994370  64.2635410
  19.3445310  30.3306640  62.6805900  19.1767350  29.6977320  63.3787790
  18.4779820  30.5366040  62.3300090  19.9673330  14.1623420  60.1837760
  20.7252690  14.2752300  59.6101790  19.5050500  14.9992620  60.1381190
  26.5087140  16.2762690  63.1740070  25.6961650  15.9019580  62.8335950
  27.0128780  15.5207770  63.4761260  31.0112120  12.9405140  64.4123140
  31.6141490  13.5125350  64.8871660  30.2705110  13.5044580  64.1897040
  34.1546720  13.3426700  59.6863420  34.3497350  14.2410150  59.9530850
  33.3676590  13.1113780  60.1796370  20.9508010  29.0239870  60.1256040
  20.4255630  29.4047900  59.4218000  20.8752590  29.6490640  60.8465750
  22.3398480  14.6887470  58.7239730  22.8691240  13.9017270  58.5947680
  22.9726800  15.3678660  58.9575260  24.5336320  14.4262610  61.7785120
  23.9039060  13.7249920  61.9455250  23.9941460  15.1866740  61.5618280
  35.7073330  30.5827410  61.4469980  35.8825520  29.8965150  60.8030900
  35.0094900  31.1074460  61.0546650  23.5500980  30.9722250  59.0005290
  24.2819800  30.6881530  58.4529180  23.8094650  30.7335530  59.8904670
  22.7115770  27.0886980  59.0051620  22.0824650  27.5572080  59.5537450
  22.8263600  26.2436200  59.4397810  22.3149360  23.2291470  47.9137850
  21.4834240  22.9740180  48.3134360  22.9230340  23.3002240  48.6495770
  22.2950620  27.2631560  48.1095870  22.5978660  26.3729300  47.9306090
  23.0394210  27.8201780  47.8818120  20.7241310  18.1893360  41.6980240
  19.8358010  18.5309330  41.5960120  21.0082500  17.9893680  40.8061070
  18.6874320  20.7899010  47.5819940  19.2590430  20.0221210  47.5823580
  18.6875860  21.0887770  46.6726550  19.9299190  16.1983370  49.3688870
  19.7502030  15.3009120  49.6491630  19.5279270  16.7455240  50.0435820
  28.7697690  18.3999230  47.2701180  29.1462510  17.5271110  47.1574850
  28.6717200  18.7357930  46.3791620  22.9002700  16.7724860  42.7318620
  23.0069450  17.6728590  43.0387380  21.9895060  16.7242830  42.4413270
  32.5521810  15.8949670  44.2029520  33.3731430  15.4046240  44.2455000
  32.5855890  16.4847330  44.9561360  20.5485860  18.6943870  47.9771210
  21.2295970  18.9582240  48.5958610  20.2333910  17.8544740  48.3109220
  24.7410430  19.7411230  47.0643800  25.2488650  20.2392200  47.7048820
  25.2723670  18.9646430  46.8883160  36.8421360  17.9116420  50.7673150
  36.1373530  18.2998130  50.2488260  37.1079280  18.6066710  51.3694080
  23.0246530  14.3809790  51.3307220  23.0264970  14.8982180  50.5253120
  22.1950840  13.9039970  51.3077150  24.2749380  24.0204970  49.5080720
  23.9418760  24.6473890  50.1501790  24.4516060  24.5466850  48.7282390
  32.7883290  17.8350050  46.9757060  32.0838860  18.1234940  47.5560170
  33.1495450  18.6450160  46.6156620  22.7061860  16.0919750  49.3377670
  23.0478670  16.9361800  49.0431540  21.7677670  16.2403490  49.4543010
  23.4868480  25.9885770  51.3229900  24.1042480  26.6636850  51.0414350
  22.6261600  26.3973750  51.2317400  18.7800820  25.1785630  40.2036750
  18.4028800  25.6672730  39.4721650  19.0373890  25.8510910  40.8343280
  35.8570210  17.2804840  47.3666270  34.9095120  17.3143820  47.4981700
  36.1820200  18.0943790  47.7515630  26.3889750  13.5802020  45.6622260
  26.6964730  13.0248910  44.9457760  25.4590450  13.7146480  45.4795250
  28.7639590  17.9167850  39.3949540  27.8243260  18.0781810  39.4802000
  29.0822850  18.6353530  38.8485530  32.2494360  19.3855690  50.3183440
  31.8365540  20.2109400  50.5723430  31.5170310  18.8000730  50.1259800
  24.3827150  22.1715590  45.1802110  23.9784150  21.4592840  44.6848010
  24.4690270  21.8268830  46.0690150  24.8508850  25.8583150  47.3441320
  24.5537140  25.2528620  46.6649100  25.8008670  25.8960460  47.2330680
  23.0955770  18.9458800  48.9601150  23.6470360  19.0554140  48.1854400
  23.6099280  19.3196400  49.6756380  23.9427280  25.5964840  53.9949120
  23.0455810  25.8204810  54.2422520  23.9680150  25.7199780  53.0460520
  22.7698500  22.4678160  52.5706490  22.6306270  23.3400960  52.9393890
  21.8879860  22.1250970  52.4254430  24.5678850  28.4099860  54.7791640
  24.5394280  28.8142810  53.9120070  24.4043820  27.4810220  54.6163240
  34.5649640  13.7000770  38.2231420  34.2522300  13.7927600  39.1230490
  35.3262110  14.2781800  38.1728850  21.0831780  21.0660570  42.6808760
  20.9629380  21.7922660  42.0690030  20.7732670  20.2963480  42.2036670
  36.5193670  29.1926960  56.0755810  36.9953390  29.6709850  56.7544890
  37.1400830  29.1244450  55.3501310  18.7217150  24.2375710  48.4877400
  18.7997570  24.3724480  47.5433120  19.3358830  23.5291600  48.6805520
  19.9664780  25.9375900  44.8983580  19.5592860  26.0790490  44.0437180
  20.8577790  25.6536060  44.6954790  35.9226920  26.3839810  53.2355820
  36.0489980  26.1451690  52.3173000  35.9648300  25.5524350  53.7077900
  29.7843660  30.0867810  51.8050630  30.2988330  29.9975820  52.6073060
  28.9412740  30.4327510  52.0978540  24.2386440  30.1521680  43.0106250
  24.0628920  29.2357220  42.7974050  23.3842180  30.5108970  43.2504050
  35.7750930  18.4372270  54.2005560  35.1595200  18.9451940  53.6721020
  35.4547350  17.5370600  54.1431500  18.7776670  25.2789880  51.0271860
  18.9407710  24.8095240  50.2091230  19.2429120  24.7713440  51.6920700
  23.5495440  14.4095640  46.0632430  23.1063590  15.1905180  45.7316950
  24.1080430  14.7325530  46.7703370  27.8365250  17.2764160  51.6667750
  27.3744620  17.4847180  52.4787690  27.4343360  16.4623510  51.3638420
  32.8369760  18.4973110  52.7964410  31.9863350  18.1978860  53.1173480
  32.6771550  18.7415120  51.8848230  29.9319470  19.9974860  54.8963200
  30.2572880  19.1638610  54.5565430  30.7199800  20.5203380  55.0441530
  26.6654260  14.0306340  40.9438260  26.0408440  14.0266210  41.6691570
  26.5784380  13.1637300  40.5474230  25.5871340  14.9542970  47.9222030
  25.8843670  15.8605800  47.8414050  26.1356900  14.4661750  47.3081600
  23.3409660  19.5329210  43.7913680  23.1150580  19.3166380  44.6960300
  22.5602190  19.9657670  43.4459650  30.5707420  19.5392580  42.3904330
  29.9716310  20.2628380  42.2067950  31.1187030  19.4769360  41.6080780
  25.7808870  20.4314790  54.4573950  25.6852470  19.4909520  54.3074350
  26.6240850  20.6529860  54.0622020  29.1772290  18.1756120  44.4207610
  29.5701860  18.4928320  43.6076300  29.5389140  17.2968000  44.5352130
  20.9119410  16.8428460  52.6107730  20.5182800  17.6903670  52.8180510
  20.2237810  16.2054830  52.8016370  27.4864460  16.9263430  55.6804470
  26.7962780  16.7335630  56.3150560  28.2296760  17.2098070  56.2128770
  18.2136460  14.7656920  46.6437810  17.9249510  15.3359780  47.3562790
  18.9582220  14.2861370  47.0069040  18.4006690  18.7077040  37.8540530
  18.3181360  19.6507800  37.9955520  18.0489750  18.5651950  36.9752880
  26.2004820  17.4416070  46.9210880  26.2040880  17.0006020  46.0715420
  27.0955940  17.7633400  47.0282700  22.0507200  17.3242560  45.8805090
  21.7107250  17.8017790  46.6372140  21.2884520  16.8707680  45.5206190
  26.2624970  18.4428150  39.9117640  26.3837790  18.4014630  40.8603460
  25.8773480  19.3052300  39.7564370  30.2253340  16.2195550  47.9281330
  30.2426080  16.6704200  48.7723180  29.9768920  15.3201190  48.1414770
  25.2746470  20.7529290  39.3100940  24.7063370  20.3047540  38.6836850
  25.9835470  21.1122070  38.7766090  33.6524090  13.6327730  53.7667710
  33.9769860  12.9017390  54.2925690  33.6880600  13.3141370  52.8648700
  20.3515650  24.6541310  53.1867670  19.9670440  24.0134980  53.7850630
  20.6627840  25.3577430  53.7562400  26.5012790  21.5017850  48.6676290
  26.8682920  21.0276420  49.4137630  26.3117850  22.3759420  49.0084630
  19.3653280  16.2461540  44.7969760  19.0800200  15.8817210  45.6348380
  19.3032140  15.5142000  44.1832900  24.2912160  20.5426490  50.9860500
  23.9869230  21.4218470  51.2110860  25.2458620  20.6026280  51.0217940
  22.8193950  24.7487480  41.5827350  22.0456210  24.2085100  41.4226070
  23.5488580  24.2294090  41.2445110  29.0391870  15.1390800  41.5183130
  28.2256480  14.6403970  41.4428440  28.8453820  15.9789050  41.1019480
  31.7540260  19.5110450  39.8145290  32.6419880  19.8227680  39.6396630
  31.7245350  18.6382700  39.4225870  22.8631350  24.4167860  45.2206160
  23.3810020  23.6136120  45.1663050  22.4115370  24.3547000  46.0622990
  20.3475890  21.3829230  52.1331860  19.9890830  22.0483080  52.7205200
  20.0530450  20.5512780  52.5044480  23.5489010  21.8413470  55.0171410
  23.2489150  21.9870650  54.1199230  24.3200250  21.2818760  54.9244800
  28.8917460  26.6382470  53.0126540  28.9062000  25.7063430  52.7945450
  28.1842560  26.7242230  53.6516310  34.0254530  20.8222290  39.2825150
  33.9418250  21.2536510  38.4321590  34.7448720  21.2820640  39.7151970
  18.8583940  21.3820490  38.7566460  19.7278790  21.6645290  39.0402380
  18.3674260  22.1956360  38.6415270  26.0218750  22.7693700  42.8774740
  26.4781530  23.5798950  43.1034930  25.6706960  22.4516840  43.7093230
  28.3251360  28.2800040  50.1067040  28.9693580  28.4859420  50.7840460
  28.6880800  27.5188440  49.6537890  21.9230530  13.1131350  43.3497260
  21.7945160  13.1049250  44.2982180  21.0992550  13.4514440  42.9988270
  19.2255190  30.5947870  39.3228090  19.5852830  31.1937210  38.6685360
  19.0847530  31.1407760  40.0963120  18.9224460  14.8722470  52.8103960
  18.2082980  15.0719390  53.4156570  19.3419500  14.0962040  53.1818760
  19.2097050  28.8602730  53.7970490  19.3188170  27.9197470  53.6565880
  18.5577610  29.1257480  53.1484220  27.2009640  27.1318620  55.1968610
  26.8806510  26.4127860  55.7414300  26.5268000  27.8073690  55.2704670
  25.2423810  27.9779070  40.1401760  25.2333910  28.7108760  39.5246270
  24.3222170  27.7310650  40.2328720  20.8430450  23.1993960  40.8848520
  20.2358400  23.9392860  40.8943820  21.3179800  23.2893320  40.0586720
  30.4163240  17.3644780  50.5605410  30.7844060  16.5439990  50.8884980
  29.5561440  17.4246670  50.9761060  33.7825270  16.3201720  41.3692970
  33.1538430  16.4247390  40.6551200  33.2877190  16.5398500  42.1586850
  25.7509300  18.5987670  42.7850850  25.0425450  19.0674010  43.2264460
  26.0353780  17.9409680  43.4196040  27.3765230  20.0184370  50.7843380
  27.8750480  20.4930190  51.4495230  27.5188180  19.0947890  50.9913410
  29.7824730  15.3238330  44.2246640  29.6592510  15.3424460  43.2756150
  30.7309290  15.3717270  44.3445040  23.9544320  16.9072750  40.1601560
  24.8034850  17.3442900  40.0941750  23.5875590  17.2193010  40.9873620
  34.5832090  16.2352330  51.6271770  34.0805690  16.9757730  51.9665580
  35.3988750  16.6236330  51.3108560  22.8535740  23.1605110  38.6337090
  23.6199010  23.0486470  39.1962520  22.9310430  22.4643080  37.9813860
  21.5482500  20.5930180  39.3169980  21.6286090  19.6457690  39.4287380
  22.4402250  20.9237060  39.4230640  22.3497210  30.7425570  46.4204520
  23.0859690  30.1941030  46.6913090  22.7338130  31.6081580  46.2810510
  19.2342690  26.8099140  42.2946030  18.3082470  27.0520280  42.2851440
  19.6999120  27.6373400  42.1730780  21.3555490  29.9271640  55.6090100
  22.1568220  30.2483690  56.0225500  20.8407310  29.5667220  56.3310010
  25.4599520  29.9155880  38.2430090  26.2528130  30.2044710  37.7911880
  24.9403870  29.4848050  37.5642570  30.1920120  26.0351510  55.5565510
  29.5858280  26.0583110  54.8161260  29.8874230  25.3034550  56.0932760
  31.6220490  29.7631800  54.1674920  32.5742240  29.6789820  54.1175160
  31.4748710  30.4273510  54.8408710  19.0753300  22.4145100  54.5526150
  19.5792320  21.8352380  55.1242380  18.3360720  22.6985330  55.0902520
  26.1291240  23.8216090  54.0861670  25.3636910  24.3901090  54.0016340
  26.3107200  23.5292300  53.1929900  33.2714590  25.5521420  54.6436690
  34.0124060  25.8897180  54.1404150  32.5087270  25.7213480  54.0906460
  21.1076380  20.5574690  55.4476220  21.1481720  20.2588560  56.3561450
  21.9621880  20.9582300  55.2883740  24.8854770  23.1570240  40.6079730
  25.3071190  22.9910110  41.4511120  25.0105610  22.3470470  40.1134870
  23.0482190  19.1366790  53.4150710  22.5178650  18.6457740  52.7874050
  23.7170260  19.5650990  52.8808640  27.3982410  22.1807850  37.8556830
  27.9188070  21.4656870  37.4897980  28.0450810  22.8193720  38.1557340
  32.4182420  20.9432410  55.1831050  33.0003190  20.1884730  55.0951530
  32.5944190  21.4739850  54.4062530  23.5354490  16.1029160  53.4948000
  23.4411360  15.4849910  52.7698870  22.9551880  16.8295450  53.2677910
  26.3015930  14.6602400  50.5275390  25.8533230  14.6826660  49.6820940
  25.6681130  14.2621420  51.1245690  26.7075480  23.5556730  51.1487830
  27.1263590  24.3989460  50.9764070  25.7884110  23.6928770  50.9194610
  29.0439380  21.2872910  52.5325670  29.1635590  20.6914050  53.2720510
  29.9033380  21.3242600  52.1126970  23.7813670  19.2303470  37.5537890
  23.5802730  18.3670830  37.9151230  23.6105720  19.1436830  36.6159490
  24.5582900  29.8609740  52.2645560  24.0203990  30.5855800  51.9454260
  24.8116860  29.3840080  51.4742900  25.8108150  17.8294260  53.7901490
  26.4007840  17.5210110  54.4779310  24.9928390  17.3574010  53.9461390
  30.6301580  17.4460070  54.0234510  29.9417100  16.7841610  53.9584500
  31.3507600  16.9998340  54.4682970  31.2601980  14.0411700  40.0824770
  31.5404270  13.1979600  40.4384190  30.4867710  14.2734810  40.5963520
  22.5796470  16.3304090  37.5415770  22.8822370  16.3371520  36.6334920
  23.3191060  15.9801950  38.0383430  27.4145110  31.0960950  52.5232210
  27.3403810  31.9996090  52.8304580  26.5123950  30.7772850  52.4954280
  25.7981400  15.2738710  38.5271970  25.4503400  14.5962700  37.9474420
  25.9994170  14.8128220  39.3415360  21.6026600  25.6346510  38.3745570
  22.0401470  26.1776180  39.0303150  22.0874330  24.8093460  38.3841910
  18.8172400  28.4235540  45.8265830  19.1475410  27.5556600  45.5944470
  19.2463400  28.6294060  46.6570790  23.4134320  26.7544550  43.4867800
  23.1129860  26.6309520  44.3871710  23.3071810  25.8953140  43.0783530
  19.3062610  29.2906130  48.5647460  18.8693600  29.4706930  49.3971610
  19.8740290  30.0480750  48.4229180  34.9424790  28.7923130  52.8524770
  34.3426780  28.8515690  52.1088690  35.0718690  27.8528110  52.9821620
  19.1387040  21.8026360  44.9236340  18.4835880  21.5338000  44.2796040
  19.9764990  21.6930840  44.4738320  32.0877480  16.5967650  39.1454830
  32.5062360  16.4098630  38.3051490  31.7813540  15.7446700  39.4557760
  20.1762970  22.1878930  49.4639680  20.5436010  22.1006330  50.3435700
  19.6073790  21.4245480  49.3646540  34.9766830  20.6563310  52.4770150
  34.7452920  20.4276060  51.5768100  35.2371380  21.5762860  52.4315040
  19.7278970  19.0988020  53.3698100  18.8335020  19.0654780  53.7091810
  20.2676520  19.2974810  54.1349350  33.4154900  15.8819740  55.2549850
  34.2925080  15.8903140  55.6383850  33.4275740  15.1450580  54.6442200
  18.3525120  19.0125290  40.8661670  17.4489200  19.2755490  40.6913330
  18.8365740  19.2836460  40.0861630  34.8618170  19.7349280  46.1437870
  35.3855650  19.2411930  45.5128040  35.4477590  19.8699640  46.8885440
  35.0407890  19.8189150  49.6657420  34.0910600  19.7852690  49.7802410
  35.2220900  20.7289260  49.4307190  20.8952330  18.0690830  38.7756050
  21.6044030  17.6474050  38.2903330  20.1792270  18.1366060  38.1439400
  20.5426490  14.1230160  37.8158700  21.2654620  14.6639100  38.1339920
  20.8151010  13.8493580  36.9400240  34.3518140  18.9922630  42.0830280
  34.8477260  18.7593500  42.8679160  34.1534210  18.1534470  41.6667920
  20.2318680  13.3736350  47.7181320  20.8794870  12.8233730  47.2776480
  20.6520520  13.6279500  48.5397130  35.7805300  17.6283580  44.6167960
  35.6704580  17.4739620  45.5550230  36.5412890  17.1004520  44.3743370
  34.1271020  13.5677710  51.0750960  34.7643240  14.1811850  51.4410150
  34.2745910  13.6038370  50.1300190  36.6695570  15.4591500  37.8574100
  37.5944880  15.3272680  37.6492390  36.6471360  15.5384320  38.8110550
  36.7434060  16.2302160  40.4830810  35.9485560  16.1647280  41.0123720
  36.9477340  17.1652800  40.4716160  19.9850680  13.5292020  50.4606640
  19.6365500  13.9855840  51.2264820  19.6538380  12.6349150  50.5429070
  21.5915050  26.7011620  54.6259830  21.5484680  26.3304530  55.5074290
  21.7226060  27.6389190  54.7661650  25.2921080  28.2571210  50.2269550
  25.0512440  28.5245770  49.3400070  26.2323720  28.4276940  50.2820410
  27.4975500  14.7203900  53.9826060  27.4364390  15.3125730  54.7321470
  28.4375880  14.6129860  53.8376320  30.1350060  14.3773960  53.6218350
  30.7490470  14.6953250  52.9599430  30.6799620  13.8922550  54.2414210
  36.5525240  30.2765590  51.0280190  36.0583520  30.6734460  50.3107320
  35.9438530  29.6514800  51.4217470  20.6571320  13.0568220  53.7357410
  21.2054310  12.8756270  52.9723520  20.7226630  12.2662330  54.2713720
  21.4303080  29.6473870  51.7457610  20.8363400  29.5158570  52.4847650
  21.4226920  28.8112010  51.2799710  30.8758100  12.9406100  49.9487640
  30.0017940  13.2741210  49.7460570  30.7668850  12.4679280  50.7739510
  31.7830080  15.1476970  51.3329360  31.4543440  14.3328730  50.9531090
  32.7312380  15.1046780  51.2095050  21.0615310  27.0132250  50.6965650
  20.3349370  26.3937540  50.6291600  21.1224460  27.4072860  49.8263730
  24.6660410  29.2277250  47.4815060  25.1825430  28.6164610  46.9563320
  25.3157790  29.7306030  47.9726070  28.6232920  13.8575940  48.8880550
  27.8404710  14.3321440  49.1677310  28.3295850  12.9530770  48.7793730
  33.1753990  14.5599040  46.9329640  33.6162080  14.5044140  46.0851240
  32.9061580  15.4757050  47.0039820  35.0392560  14.1914280  44.9438460
  34.9780960  13.2475500  44.7969480  35.8184590  14.2994370  45.4891920
  19.3445310  30.3306640  43.9062410  19.1767350  29.6977320  44.6044300
  18.4779820  30.5366040  43.5556600  19.9673330  14.1623420  41.4094270
  20.7252690  14.2752300  40.8358300  19.5050500  14.9992620  41.3637700
  26.5087140  16.2762690  44.3996580  25.6961650  15.9019580  44.0592460
  27.0128780  15.5207770  44.7017770  31.0112120  12.9405140  45.6379650
  31.6141490  13.5125350  46.1128170  30.2705110  13.5044580  45.4153550
  34.1546720  13.3426700  40.9119930  34.3497350  14.2410150  41.1787360
  33.3676590  13.1113780  41.4052880  20.9508010  29.0239870  41.3512550
  20.4255630  29.4047900  40.6474510  20.8752590  29.6490640  42.0722260
  22.3398480  14.6887470  39.9496240  22.8691240  13.9017270  39.8204190
  22.9726800  15.3678660  40.1831770  24.5336320  14.4262610  43.0041630
  23.9039060  13.7249920  43.1711760  23.9941460  15.1866740  42.7874790
  27.4728270  31.0401840  55.6752240  28.3995580  30.8046110  55.7188200
  27.4578700  31.8673840  55.1938270  24.6591880  13.7046590  55.4394120
  24.3776150  14.2080190  54.6754940  25.0411580  12.9068340  55.0736250
  23.5500980  30.9722250  40.2261800  24.2819800  30.6881530  39.6785690
  23.8094650  30.7335530  41.1161180  22.7115770  27.0886980  40.2308130
  22.0824650  27.5572080  40.7793960  22.8263600  26.2436200  40.6654320
  31.2607340  13.1200170  56.0174590  31.1472790  13.4394780  56.9126110
  32.0777080  13.5212680  55.7211870  34.0405830  30.2671700  55.4993280
  34.8331150  29.7720930  55.2919240  34.3338980  30.9461840  56.1068890
  30.1665490  21.1392640  26.3809330  30.0859540  20.2247250  26.1101040
  29.7529910  21.6359710  25.6749040  22.3149360  23.2291470  29.1394360
  21.4834240  22.9740180  29.5390870  22.9230340  23.3002240  29.8752280
  22.2950620  27.2631560  29.3352380  22.5978660  26.3729300  29.1562600
  23.0394210  27.8201780  29.1074630  20.7241310  18.1893360  22.9236750
  19.8358010  18.5309330  22.8216630  21.0082500  17.9893680  22.0317580
  18.6874320  20.7899010  28.8076450  19.2590430  20.0221210  28.8080090
  18.6875860  21.0887770  27.8983060  19.9299190  16.1983370  30.5945380
  19.7502030  15.3009120  30.8748140  19.5279270  16.7455240  31.2692330
  28.7697690  18.3999230  28.4957690  29.1462510  17.5271110  28.3831360
  28.6717200  18.7357930  27.6048130  22.9002700  16.7724860  23.9575130
  23.0069450  17.6728590  24.2643890  21.9895060  16.7242830  23.6669780
  32.5521810  15.8949670  25.4286030  33.3731430  15.4046240  25.4711510
  32.5855890  16.4847330  26.1817870  20.5485860  18.6943870  29.2027720
  21.2295970  18.9582240  29.8215120  20.2333910  17.8544740  29.5365730
  24.7410430  19.7411230  28.2900310  25.2488650  20.2392200  28.9305330
  25.2723670  18.9646430  28.1139670  36.8421360  17.9116420  31.9929660
  36.1373530  18.2998130  31.4744770  37.1079280  18.6066710  32.5950590
  23.0246530  14.3809790  32.5563730  23.0264970  14.8982180  31.7509630
  22.1950840  13.9039970  32.5333660  29.4117620  24.4929100  24.0553630
  28.7934890  24.9578550  23.4916350  29.9240870  25.1856580  24.4723140
  24.2749380  24.0204970  30.7337230  23.9418760  24.6473890  31.3758300
  24.4516060  24.5466850  29.9538900  32.7883290  17.8350050  28.2013570
  32.0838860  18.1234940  28.7816680  33.1495450  18.6450160  27.8413130
  22.7061860  16.0919750  30.5634180  23.0478670  16.9361800  30.2688050
  21.7677670  16.2403490  30.6799520  23.4868480  25.9885770  32.5486410
  24.1042480  26.6636850  32.2670860  22.6261600  26.3973750  32.4573910
  18.7800820  25.1785630  21.4293260  18.4028800  25.6672730  20.6978160
  19.0373890  25.8510910  22.0599790  35.8570210  17.2804840  28.5922780
  34.9095120  17.3143820  28.7238210  36.1820200  18.0943790  28.9772140
  26.3889750  13.5802020  26.8878770  26.6964730  13.0248910  26.1714270
  25.4590450  13.7146480  26.7051760  28.7770510  21.6450850  23.6238890
  27.8499790  21.5788230  23.8527360  28.9295330  22.5830980  23.5094130
  28.7639590  17.9167850  20.6206050  27.8243260  18.0781810  20.7058510
  29.0822850  18.6353530  20.0742040  32.8067800  23.2071150  24.1274140
  32.1880220  22.8690700  23.4800440  32.7892250  22.5630910  24.8353330
  32.2494360  19.3855690  31.5439950  31.8365540  20.2109400  31.7979940
  31.5170310  18.8000730  31.3516310  24.3827150  22.1715590  26.4058620
  23.9784150  21.4592840  25.9104520  24.4690270  21.8268830  27.2946660
  23.0955770  18.9458800  30.1857660  23.6470360  19.0554140  29.4110910
  23.6099280  19.3196400  30.9012890  23.9427280  25.5964840  35.2205630
  23.0455810  25.8204810  35.4679030  23.9680150  25.7199780  34.2717030
  30.9832500  22.4457960  21.1346890  31.4225780  21.6080390  20.9884710
  31.6960920  23.0787360  21.2211030  22.7698500  22.4678160  33.7963000
  22.6306270  23.3400960  34.1650400  21.8879860  22.1250970  33.6510940
  24.5678850  28.4099860  36.0048150  24.5394280  28.8142810  35.1376580
  24.4043820  27.4810220  35.8419750  34.5649640  13.7000770  19.4487930
  34.2522300  13.7927600  20.3487000  35.3262110  14.2781800  19.3985360
  21.0831780  21.0660570  23.9065270  20.9629380  21.7922660  23.2946540
  20.7732670  20.2963480  23.4293180  18.7217150  24.2375710  29.7133910
  18.7997570  24.3724480  28.7689630  19.3358830  23.5291600  29.9062030
  19.9664780  25.9375900  26.1240090  19.5592860  26.0790490  25.2693690
  20.8577790  25.6536060  25.9211300  24.2386440  30.1521680  24.2362760
  24.0628920  29.2357220  24.0230560  23.3842180  30.5108970  24.4760560
  31.4624190  27.8810710  21.0189140  30.7689350  27.8788000  20.3591420
  32.2047050  27.4570030  20.5883310  35.7750930  18.4372270  35.4262070
  35.1595200  18.9451940  34.8977530  35.4547350  17.5370600  35.3688010
  18.7776670  25.2789880  32.2528370  18.9407710  24.8095240  31.4347740
  19.2429120  24.7713440  32.9177210  23.5495440  14.4095640  27.2888940
  23.1063590  15.1905180  26.9573460  24.1080430  14.7325530  27.9959880
  27.8365250  17.2764160  32.8924260  27.3744620  17.4847180  33.7044200
  27.4343360  16.4623510  32.5894930  32.8369760  18.4973110  34.0220920
  31.9863350  18.1978860  34.3429990  32.6771550  18.7415120  33.1104740
  29.9319470  19.9974860  36.1219710  30.2572880  19.1638610  35.7821940
  30.7199800  20.5203380  36.2698040  26.6654260  14.0306340  22.1694770
  26.0408440  14.0266210  22.8948080  26.5784380  13.1637300  21.7730740
  25.5871340  14.9542970  29.1478540  25.8843670  15.8605800  29.0670560
  26.1356900  14.4661750  28.5338110  23.3409660  19.5329210  25.0170190
  23.1150580  19.3166380  25.9216810  22.5602190  19.9657670  24.6716160
  30.5707420  19.5392580  23.6160840  29.9716310  20.2628380  23.4324460
  31.1187030  19.4769360  22.8337290  25.7808870  20.4314790  35.6830460
  25.6852470  19.4909520  35.5330860  26.6240850  20.6529860  35.2878530
  29.1772290  18.1756120  25.6464120  29.5701860  18.4928320  24.8332810
  29.5389140  17.2968000  25.7608640  20.9119410  16.8428460  33.8364240
  20.5182800  17.6903670  34.0437020  20.2237810  16.2054830  34.0272880
  27.4864460  16.9263430  36.9060980  26.7962780  16.7335630  37.5407070
  28.2296760  17.2098070  37.4385280  18.2136460  14.7656920  27.8694320
  17.9249510  15.3359780  28.5819300  18.9582220  14.2861370  28.2325550
  18.4006690  18.7077040  19.0797040  18.3181360  19.6507800  19.2212030
  18.0489750  18.5651950  18.2009390  29.7627430  20.7661870  29.7414900
  29.0308550  21.2748680  30.0905000  29.3651770  19.9491850  29.4403680
  26.2004820  17.4416070  28.1467390  26.2040880  17.0006020  27.2971930
  27.0955940  17.7633400  28.2539210  22.0507200  17.3242560  27.1061600
  21.7107250  17.8017790  27.8628650  21.2884520  16.8707680  26.7462700
  26.2624970  18.4428150  21.1374150  26.3837790  18.4014630  22.0859970
  25.8773480  19.3052300  20.9820880  30.2253340  16.2195550  29.1537840
  30.2426080  16.6704200  29.9979690  29.9768920  15.3201190  29.3671280
  25.2746470  20.7529290  20.5357450  24.7063370  20.3047540  19.9093360
  25.9835470  21.1122070  20.0022600  33.6524090  13.6327730  34.9924220
  33.9769860  12.9017390  35.5182200  33.6880600  13.3141370  34.0905210
  20.3515650  24.6541310  34.4124180  19.9670440  24.0134980  35.0107140
  20.6627840  25.3577430  34.9818910  26.5012790  21.5017850  29.8932800
  26.8682920  21.0276420  30.6394140  26.3117850  22.3759420  30.2341140
  19.3653280  16.2461540  26.0226270  19.0800200  15.8817210  26.8604890
  19.3032140  15.5142000  25.4089410  24.2912160  20.5426490  32.2117010
  23.9869230  21.4218470  32.4367370  25.2458620  20.6026280  32.2474450
  22.8193950  24.7487480  22.8083860  22.0456210  24.2085100  22.6482580
  23.5488580  24.2294090  22.4701620  29.0391870  15.1390800  22.7439640
  28.2256480  14.6403970  22.6684950  28.8453820  15.9789050  22.3275990
  31.7540260  19.5110450  21.0401800  32.6419880  19.8227680  20.8653140
  31.7245350  18.6382700  20.6482380  22.8631350  24.4167860  26.4462670
  23.3810020  23.6136120  26.3919560  22.4115370  24.3547000  27.2879500
  27.7500850  25.6834140  21.7189970  28.0916550  26.4276370  21.2233290
  26.9213560  25.9965260  22.0814800  20.3475890  21.3829230  33.3588370
  19.9890830  22.0483080  33.9461710  20.0530450  20.5512780  33.7300990
  23.5489010  21.8413470  36.2427920  23.2489150  21.9870650  35.3455740
  24.3200250  21.2818760  36.1501310  34.0254530  20.8222290  20.5081660
  33.9418250  21.2536510  19.6578100  34.7448720  21.2820640  20.9408480
  35.0541780  27.6764550  23.2363790  34.4117940  27.0220170  23.5107510
  34.6672440  28.0819640  22.4604460  26.7191540  25.7647670  24.4905890
  27.4062670  26.3116880  24.8713480  25.9323960  26.3088400  24.5255500
  18.8583940  21.3820490  19.9822970  19.7278790  21.6645290  20.2658890
  18.3674260  22.1956360  19.8671780  26.0218750  22.7693700  24.1031250
  26.4781530  23.5798950  24.3291440  25.6706960  22.4516840  24.9349740
  21.9230530  13.1131350  24.5753770  21.7945160  13.1049250  25.5238690
  21.0992550  13.4514440  24.2244780  33.4439160  26.5681010  19.7740140
  33.2176740  25.8511450  20.3664780  33.0535360  26.3193450  18.9361890
  19.2255190  30.5947870  20.5484600  19.5852830  31.1937210  19.8941870
  19.0847530  31.1407760  21.3219630  18.9224460  14.8722470  34.0360470
  18.2082980  15.0719390  34.6413080  19.3419500  14.0962040  34.4075270
  33.0255410  24.4852950  21.4354300  32.7377110  24.9465640  22.2232180
  33.8207580  24.0250720  21.7038520  19.2097050  28.8602730  35.0227000
  19.3188170  27.9197470  34.8822390  18.5577610  29.1257480  34.3740730
  25.2423810  27.9779070  21.3658270  25.2333910  28.7108760  20.7502780
  24.3222170  27.7310650  21.4585230  20.8430450  23.1993960  22.1105030
  20.2358400  23.9392860  22.1200330  21.3179800  23.2893320  21.2843230
  30.4163240  17.3644780  31.7861920  30.7844060  16.5439990  32.1141490
  29.5561440  17.4246670  32.2017570  33.7825270  16.3201720  22.5949480
  33.1538430  16.4247390  21.8807710  33.2877190  16.5398500  23.3843360
  28.2283410  28.0407310  20.0283460  28.3295390  27.8371300  19.0985440
  27.3285150  27.7865590  20.2331240  25.7509300  18.5987670  24.0107360
  25.0425450  19.0674010  24.4520970  26.0353780  17.9409680  24.6452550
  27.3765230  20.0184370  32.0099890  27.8750480  20.4930190  32.6751740
  27.5188180  19.0947890  32.2169920  29.7824730  15.3238330  25.4503150
  29.6592510  15.3424460  24.5012660  30.7309290  15.3717270  25.5701550
  26.8701520  30.5593630  24.7231130  27.1243020  30.5215020  23.8010500
  25.9214000  30.4326960  24.7159380  23.9544320  16.9072750  21.3858070
  24.8034850  17.3442900  21.3198260  23.5875590  17.2193010  22.2130130
  34.5832090  16.2352330  32.8528280  34.0805690  16.9757730  33.1922090
  35.3988750  16.6236330  32.5365070  32.8754100  21.4785510  26.2989640
  31.9344240  21.4935740  26.4737330  33.1898170  20.6921470  26.7449940
  22.8535740  23.1605110  19.8593600  23.6199010  23.0486470  20.4219030
  22.9310430  22.4643080  19.2070370  21.5482500  20.5930180  20.5426490
  21.6286090  19.6457690  20.6543890  22.4402250  20.9237060  20.6487150
  22.3497210  30.7425570  27.6461030  23.0859690  30.1941030  27.9169600
  22.7338130  31.6081580  27.5067020  19.2342690  26.8099140  23.5202540
  18.3082470  27.0520280  23.5107950  19.6999120  27.6373400  23.3987290
  21.3555490  29.9271640  36.8346610  22.1568220  30.2483690  37.2482010
  20.8407310  29.5667220  37.5566520  25.4599520  29.9155880  19.4686600
  26.2528130  30.2044710  19.0168390  24.9403870  29.4848050  18.7899080
  34.5129690  29.1426010  20.8923340  34.2271200  28.7291150  20.0777520
  34.3149240  30.0713720  20.7723860  19.0753300  22.4145100  35.7782660
  19.5792320  21.8352380  36.3498890  18.3360720  22.6985330  36.3159030
  25.9776920  25.1359290  19.3328950  25.8727560  24.5211640  20.0590330
  25.8101140  24.6125180  18.5491960  29.2179650  24.1979320  19.9370940
  28.6689750  24.6448620  20.5813680  29.8398910  23.6928570  20.4608610
  21.1076380  20.5574690  36.6732730  21.1481720  20.2588560  37.5817960
  21.9621880  20.9582300  36.5140250  24.8854770  23.1570240  21.8336240
  25.3071190  22.9910110  22.6767630  25.0105610  22.3470470  21.3391380
  23.0482190  19.1366790  34.6407220  22.5178650  18.6457740  34.0130560
  23.7170260  19.5650990  34.1065150  27.3982410  22.1807850  19.0813340
  27.9188070  21.4656870  18.7154490  28.0450810  22.8193720  19.3813850
  32.4182420  20.9432410  36.4087560  33.0003190  20.1884730  36.3208040
  32.5944190  21.4739850  35.6319040  23.5354490  16.1029160  34.7204510
  23.4411360  15.4849910  33.9955380  22.9551880  16.8295450  34.4934420
  26.3015930  14.6602400  31.7531900  25.8533230  14.6826660  30.9077450
  25.6681130  14.2621420  32.3502200  26.7075480  23.5556730  32.3744340
  27.1263590  24.3989460  32.2020580  25.7884110  23.6928770  32.1451120
  29.0439380  21.2872910  33.7582180  29.1635590  20.6914050  34.4977020
  29.9033380  21.3242600  33.3383480  23.7813670  19.2303470  18.7794400
  23.5802730  18.3670830  19.1407740  23.6105720  19.1436830  17.8416000
  25.8108150  17.8294260  35.0158000  26.4007840  17.5210110  35.7035820
  24.9928390  17.3574010  35.1717900  30.6301580  17.4460070  35.2491020
  29.9417100  16.7841610  35.1841010  31.3507600  16.9998340  35.6939480
  31.2601980  14.0411700  21.3081280  31.5404270  13.1979600  21.6640700
  30.4867710  14.2734810  21.8220030  22.5796470  16.3304090  18.7672280
  22.8822370  16.3371520  17.8591430  23.3191060  15.9801950  19.2639940
  25.7981400  15.2738710  19.7528480  25.4503400  14.5962700  19.1730930
  25.9994170  14.8128220  20.5671870  27.9630440  30.2619460  21.3715080
  28.8581230  30.6004430  21.3933840  27.9948070  29.5398870  20.7439360
  21.6026600  25.6346510  19.6002080  22.0401470  26.1776180  20.2559660
  22.0874330  24.8093460  19.6098420  18.8172400  28.4235540  27.0522340
  19.1475410  27.5556600  26.8200980  19.2463400  28.6294060  27.8827300
  23.4134320  26.7544550  24.7124310  23.1129860  26.6309520  25.6128220
  23.3071810  25.8953140  24.3040040  19.3062610  29.2906130  29.7903970
  18.8693600  29.4706930  30.6228120  19.8740290  30.0480750  29.6485690
  36.1826240  26.5340950  19.4150990  35.3519200  26.6017600  19.8858220
  36.3598070  27.4245070  19.1117850  35.6382700  23.2788430  21.9185190
  36.4001610  23.8485080  22.0244880  35.6537070  22.7115630  22.6893500
  19.1387040  21.8026360  26.1492850  18.4835880  21.5338000  25.5052550
  19.9764990  21.6930840  25.6994830  35.6901870  23.5722800  19.0757710
  35.9650710  24.4801680  18.9476930  35.5012610  23.5085330  20.0119700
  32.0877480  16.5967650  20.3711340  32.5062360  16.4098630  19.5308000
  31.7813540  15.7446700  20.6814270  35.5867210  21.5091790  24.0687140
  35.2110810  20.7419720  23.6368430  34.8570330  21.8914490  24.5562070
  20.1762970  22.1878930  30.6896190  20.5436010  22.1006330  31.5692210
  19.6073790  21.4245480  30.5903050  34.9766830  20.6563310  33.7026660
  34.7452920  20.4276060  32.8024610  35.2371380  21.5762860  33.6571550
  19.7278970  19.0988020  34.5954610  18.8335020  19.0654780  34.9348320
  20.2676520  19.2974810  35.3605860  33.4154900  15.8819740  36.4806360
  34.2925080  15.8903140  36.8640360  33.4275740  15.1450580  35.8698710
  18.3525120  19.0125290  22.0918180  17.4489200  19.2755490  21.9169840
  18.8365740  19.2836460  21.3118140  34.8618170  19.7349280  27.3694380
  35.3855650  19.2411930  26.7384550  35.4477590  19.8699640  28.1141950
  35.0407890  19.8189150  30.8913930  34.0910600  19.7852690  31.0058920
  35.2220900  20.7289260  30.6563700  20.8952330  18.0690830  20.0012560
  21.6044030  17.6474050  19.5159840  20.1792270  18.1366060  19.3695910
  20.5426490  14.1230160  19.0415210  21.2654620  14.6639100  19.3596430
  20.8151010  13.8493580  18.1656750  34.3518140  18.9922630  23.3086790
  34.8477260  18.7593500  24.0935670  34.1534210  18.1534470  22.8924430
  20.2318680  13.3736350  28.9437830  20.8794870  12.8233730  28.5032990
  20.6520520  13.6279500  29.7653640  35.7805300  17.6283580  25.8424470
  35.6704580  17.4739620  26.7806740  36.5412890  17.1004520  25.5999880
  34.1271020  13.5677710  32.3007470  34.7643240  14.1811850  32.6666660
  34.2745910  13.6038370  31.3556700  36.6695570  15.4591500  19.0830610
  37.5944880  15.3272680  18.8748900  36.6471360  15.5384320  20.0367060
  36.7434060  16.2302160  21.7087320  35.9485560  16.1647280  22.2380230
  36.9477340  17.1652800  21.6972670  19.9850680  13.5292020  31.6863150
  19.6365500  13.9855840  32.4521330  19.6538380  12.6349150  31.7685580
  21.5915050  26.7011620  35.8516340  21.5484680  26.3304530  36.7330800
  21.7226060  27.6389190  35.9918160  27.4975500  14.7203900  35.2082570
  27.4364390  15.3125730  35.9577980  28.4375880  14.6129860  35.0632830
  30.1350060  14.3773960  34.8474860  30.7490470  14.6953250  34.1855940
  30.6799620  13.8922550  35.4670720  20.6571320  13.0568220  34.9613920
  21.2054310  12.8756270  34.1980030  20.7226630  12.2662330  35.4970230
  21.4303080  29.6473870  32.9714120  20.8363400  29.5158570  33.7104160
  21.4226920  28.8112010  32.5056220  30.8758100  12.9406100  31.1744150
  30.0017940  13.2741210  30.9717080  30.7668850  12.4679280  31.9996020
  31.7830080  15.1476970  32.5585870  31.4543440  14.3328730  32.1787600
  32.7312380  15.1046780  32.4351560  21.0615310  27.0132250  31.9222160
  20.3349370  26.3937540  31.8548110  21.1224460  27.4072860  31.0520240
  28.6232920  13.8575940  30.1137060  27.8404710  14.3321440  30.3933820
  28.3295850  12.9530770  30.0050240  33.1753990  14.5599040  28.1586150
  33.6162080  14.5044140  27.3107750  32.9061580  15.4757050  28.2296330
  35.0392560  14.1914280  26.1694970  34.9780960  13.2475500  26.0225990
  35.8184590  14.2994370  26.7148430  19.3445310  30.3306640  25.1318920
  19.1767350  29.6977320  25.8300810  18.4779820  30.5366040  24.7813110
  19.9673330  14.1623420  22.6350780  20.7252690  14.2752300  22.0614810
  19.5050500  14.9992620  22.5894210  26.5087140  16.2762690  25.6253090
  25.6961650  15.9019580  25.2848970  27.0128780  15.5207770  25.9274280
  31.0112120  12.9405140  26.8636160  31.6141490  13.5125350  27.3384680
  30.2705110  13.5044580  26.6410060  34.1546720  13.3426700  22.1376440
  34.3497350  14.2410150  22.4043870  33.3676590  13.1113780  22.6309390
  20.9508010  29.0239870  22.5769060  20.4255630  29.4047900  21.8731020
  20.8752590  29.6490640  23.2978770  22.3398480  14.6887470  21.1752750
  22.8691240  13.9017270  21.0460700  22.9726800  15.3678660  21.4088280
  24.5336320  14.4262610  24.2298140  23.9039060  13.7249920  24.3968270
  23.9941460  15.1866740  24.0131300  24.6591880  13.7046590  36.6650630
  24.3776150  14.2080190  35.9011450  25.0411580  12.9068340  36.2992760
  23.5500980  30.9722250  21.4518310  24.2819800  30.6881530  20.9042200
  23.8094650  30.7335530  22.3417690  22.7115770  27.0886980  21.4564640
  22.0824650  27.5572080  22.0050470  22.8263600  26.2436200  21.8910830
  31.2607340  13.1200170  37.2431100  31.1472790  13.4394780  38.1382620
  32.0777080  13.5212680  36.9468380  30.1665490  21.1392640   7.6065840
  30.0859540  20.2247250   7.3357550  29.7529910  21.6359710   6.9005550
  28.2983530  22.9171660   9.4875110  27.5225630  22.4372100   9.7773680
  28.9496460  22.2377310   9.3131270  22.3149360  23.2291470  10.3650870
  21.4834240  22.9740180  10.7647380  22.9230340  23.3002240  11.1008790
  32.3190960  27.3231850   8.2674240  31.8572490  26.5519090   8.5961410
  33.1316510  27.3497920   8.7726690  22.2950620  27.2631560  10.5608890
  22.5978660  26.3729300  10.3819110  23.0394210  27.8201780  10.3331140
  20.7241310  18.1893360   4.1493260  19.8358010  18.5309330   4.0473140
  21.0082500  17.9893680   3.2574090  18.6874320  20.7899010  10.0332960
  19.2590430  20.0221210  10.0336600  18.6875860  21.0887770   9.1239570
  28.5454270  29.6089860   7.8878230  27.9265710  30.0647360   7.3172670
  29.4006050  29.7641320   7.4867930  27.7392520  25.5928850   9.4945270
  27.6700800  24.6518790   9.3334400  28.5012380  25.6830260  10.0667840
  19.9299190  16.1983370  11.8201890  19.7502030  15.3009120  12.1004650
  19.5279270  16.7455240  12.4948840  28.7697690  18.3999230   9.7214200
  29.1462510  17.5271110   9.6087870  28.6717200  18.7357930   8.8304640
  22.9002700  16.7724860   5.1831640  23.0069450  17.6728590   5.4900400
  21.9895060  16.7242830   4.8926290  32.5521810  15.8949670   6.6542540
  33.3731430  15.4046240   6.6968020  32.5855890  16.4847330   7.4074380
  20.5485860  18.6943870  10.4284230  21.2295970  18.9582240  11.0471630
  20.2333910  17.8544740  10.7622240  24.7410430  19.7411230   9.5156820
  25.2488650  20.2392200  10.1561840  25.2723670  18.9646430   9.3396180
  36.8421360  17.9116420  13.2186170  36.1373530  18.2998130  12.7001280
  37.1079280  18.6066710  13.8207100  23.0246530  14.3809790  13.7820240
  23.0264970  14.8982180  12.9766140  22.1950840  13.9039970  13.7590170
  29.4117620  24.4929100   5.2810140  28.7934890  24.9578550   4.7172860
  29.9240870  25.1856580   5.6979650  24.2749380  24.0204970  11.9593740
  23.9418760  24.6473890  12.6014810  24.4516060  24.5466850  11.1795410
  32.7883290  17.8350050   9.4270080  32.0838860  18.1234940  10.0073190
  33.1495450  18.6450160   9.0669640  22.7061860  16.0919750  11.7890690
  23.0478670  16.9361800  11.4944560  21.7677670  16.2403490  11.9056030
  23.4868480  25.9885770  13.7742920  24.1042480  26.6636850  13.4927370
  22.6261600  26.3973750  13.6830420  18.7800820  25.1785630   2.6549770
  18.4028800  25.6672730   1.9234670  19.0373890  25.8510910   3.2856300
  34.4046070  27.4525180  11.6897560  33.7209590  28.1224290  11.6814230
  34.9440360  27.6505830  10.9242420  35.8570210  17.2804840   9.8179290
  34.9095120  17.3143820   9.9494720  36.1820200  18.0943790  10.2028650
  26.3889750  13.5802020   8.1135280  26.6964730  13.0248910   7.3970780
  25.4590450  13.7146480   7.9308270  31.9404810  29.2969310  10.4042740
  31.9531970  28.8931600   9.5365000  31.3880030  30.0716600  10.3004170
  33.2350230  26.0185530   5.4932910  33.1246560  25.0759860   5.6182330
  33.2318480  26.3801170   6.3795670  31.3390250  24.1999150  11.7325350
  31.7559040  23.9859260  10.8978810  32.0630070  24.4571940  12.3033970
  28.7770510  21.6450850   4.8495400  27.8499790  21.5788230   5.0783870
  28.9295330  22.5830980   4.7350640  35.2852350  22.5986370  11.8241590
  34.4570980  22.6679460  11.3491720  35.8802830  23.1840680  11.3557420
  32.8067800  23.2071150   5.3530650  32.1880220  22.8690700   4.7056950
  32.7892250  22.5630910   6.0609840  32.2494360  19.3855690  12.7696460
  31.8365540  20.2109400  13.0236450  31.5170310  18.8000730  12.5772820
  24.3827150  22.1715590   7.6315130  23.9784150  21.4592840   7.1361030
  24.4690270  21.8268830   8.5203170  24.8508850  25.8583150   9.7954340
  24.5537140  25.2528620   9.1162120  25.8008670  25.8960460   9.6843700
  23.0955770  18.9458800  11.4114170  23.6470360  19.0554140  10.6367420
  23.6099280  19.3196400  12.1269400  32.9394460  29.4315020  13.4577440
  32.4625020  30.2387210  13.2650050  32.2556250  28.7793350  13.6103650
  23.9427280  25.5964840  16.4462140  23.0455810  25.8204810  16.6935540
  23.9680150  25.7199780  15.4973540  30.9832500  22.4457960   2.3603400
  31.4225780  21.6080390   2.2141220  31.6960920  23.0787360   2.4467540
  22.7698500  22.4678160  15.0219510  22.6306270  23.3400960  15.3906910
  21.8879860  22.1250970  14.8767450  29.0927880  27.3854030   6.3284640
  29.5323790  28.1278360   5.9140030  29.0314770  27.6280600   7.2523600
  24.5678850  28.4099860  17.2304660  24.5394280  28.8142810  16.3633090
  24.4043820  27.4810220  17.0676260  21.0831780  21.0660570   5.1321780
  20.9629380  21.7922660   4.5203050  20.7732670  20.2963480   4.6549690
  36.5193670  29.1926960  18.5268830  36.9953390  29.6709850  19.2057910
  37.1400830  29.1244450  17.8014330  18.7217150  24.2375710  10.9390420
  18.7997570  24.3724480   9.9946140  19.3358830  23.5291600  11.1318540
  19.9664780  25.9375900   7.3496600  19.5592860  26.0790490   6.4950200
  20.8577790  25.6536060   7.1467810  35.9226920  26.3839810  15.6868840
  36.0489980  26.1451690  14.7686020  35.9648300  25.5524350  16.1590920
  29.7843660  30.0867810  14.2563650  30.2988330  29.9975820  15.0586080
  28.9412740  30.4327510  14.5491560  31.7598060  30.3723150   3.6847650
  31.5999200  30.0826090   4.5829480  31.5944770  29.5963280   3.1492880
  24.2386440  30.1521680   5.4619270  24.0628920  29.2357220   5.2487070
  23.3842180  30.5108970   5.7017070  31.0274120  29.5073420   6.3194140
  31.4831070  28.7262800   6.6332760  31.3666640  30.2180240   6.8635320
  35.7750930  18.4372270  16.6518580  35.1595200  18.9451940  16.1234040
  35.4547350  17.5370600  16.5944520  18.7776670  25.2789880  13.4784880
  18.9407710  24.8095240  12.6604250  19.2429120  24.7713440  14.1433720
  23.5495440  14.4095640   8.5145450  23.1063590  15.1905180   8.1829970
  24.1080430  14.7325530   9.2216390  27.8365250  17.2764160  14.1180770
  27.3744620  17.4847180  14.9300710  27.4343360  16.4623510  13.8151440
  32.8369760  18.4973110  15.2477430  31.9863350  18.1978860  15.5686500
  32.6771550  18.7415120  14.3361250  29.9319470  19.9974860  17.3476220
  30.2572880  19.1638610  17.0078450  30.7199800  20.5203380  17.4954550
  26.6654260  14.0306340   3.3951280  26.0408440  14.0266210   4.1204590
  26.5784380  13.1637300   2.9987250  25.5871340  14.9542970  10.3735050
  25.8843670  15.8605800  10.2927070  26.1356900  14.4661750   9.7594620
  23.3409660  19.5329210   6.2426700  23.1150580  19.3166380   7.1473320
  22.5602190  19.9657670   5.8972670  30.5707420  19.5392580   4.8417350
  29.9716310  20.2628380   4.6580970  31.1187030  19.4769360   4.0593800
  25.7808870  20.4314790  16.9086970  25.6852470  19.4909520  16.7587370
  26.6240850  20.6529860  16.5135040  29.1772290  18.1756120   6.8720630
  29.5701860  18.4928320   6.0589320  29.5389140  17.2968000   6.9865150
  20.9119410  16.8428460  15.0620750  20.5182800  17.6903670  15.2693530
  20.2237810  16.2054830  15.2529390  27.4864460  16.9263430  18.1317490
  26.7962780  16.7335630  18.7663580  28.2296760  17.2098070  18.6641790
  18.2136460  14.7656920   9.0950830  17.9249510  15.3359780   9.8075810
  18.9582220  14.2861370   9.4582060  29.7627430  20.7661870  10.9671410
  29.0308550  21.2748680  11.3161510  29.3651770  19.9491850  10.6660190
  26.2004820  17.4416070   9.3723900  26.2040880  17.0006020   8.5228440
  27.0955940  17.7633400   9.4795720  22.0507200  17.3242560   8.3318110
  21.7107250  17.8017790   9.0885160  21.2884520  16.8707680   7.9719210
  26.2624970  18.4428150   2.3630660  26.3837790  18.4014630   3.3116480
  25.8773480  19.3052300   2.2077390  30.2253340  16.2195550  10.3794350
  30.2426080  16.6704200  11.2236200  29.9768920  15.3201190  10.5927790
  33.6524090  13.6327730  16.2180730  33.9769860  12.9017390  16.7438710
  33.6880600  13.3141370  15.3161720  20.3515650  24.6541310  15.6380690
  19.9670440  24.0134980  16.2363650  20.6627840  25.3577430  16.2075420
  26.5012790  21.5017850  11.1189310  26.8682920  21.0276420  11.8650650
  26.3117850  22.3759420  11.4597650  19.3653280  16.2461540   7.2482780
  19.0800200  15.8817210   8.0861400  19.3032140  15.5142000   6.6345920
  24.2912160  20.5426490  13.4373520  23.9869230  21.4218470  13.6623880
  25.2458620  20.6026280  13.4730960  22.8193950  24.7487480   4.0340370
  22.0456210  24.2085100   3.8739090  23.5488580  24.2294090   3.6958130
  33.5781930  23.7452840   9.8266760  34.2981050  24.2408130   9.4362870
  33.3763750  23.0670730   9.1820630  29.0391870  15.1390800   3.9696150
  28.2256480  14.6403970   3.8941460  28.8453820  15.9789050   3.5532500
  28.9600730  23.8161900  15.7135760  28.8938040  22.8957570  15.4593350
  28.3305870  23.9137340  16.4280400  31.7540260  19.5110450   2.2658310
  32.6419880  19.8227680   2.0909650  31.7245350  18.6382700   1.8738890
  22.8631350  24.4167860   7.6719180  23.3810020  23.6136120   7.6176070
  22.4115370  24.3547000   8.5136010  27.7500850  25.6834140   2.9446480
  28.0916550  26.4276370   2.4489800  26.9213560  25.9965260   3.3071310
  20.3475890  21.3829230  14.5844880  19.9890830  22.0483080  15.1718220
  20.0530450  20.5512780  14.9557500  23.5489010  21.8413470  17.4684430
  23.2489150  21.9870650  16.5712250  24.3200250  21.2818760  17.3757820
  28.8917460  26.6382470  15.4639560  28.9062000  25.7063430  15.2458470
  28.1842560  26.7242230  16.1029330  35.1028670  23.2789810  14.8108140
  34.3776860  23.8718590  14.6137530  35.6304130  23.2713350  14.0121510
  35.0541780  27.6764550   4.4620300  34.4117940  27.0220170   4.7364020
  34.6672440  28.0819640   3.6860970  30.6328260  25.0049980   8.3091990
  30.9852080  24.4078110   7.6493360  29.7490590  24.6794210   8.4800240
  26.7191540  25.7647670   5.7162400  27.4062670  26.3116880   6.0969990
  25.9323960  26.3088400   5.7512010  26.0218750  22.7693700   5.3287760
  26.4781530  23.5798950   5.5547950  25.6706960  22.4516840   6.1606250
  28.3251360  28.2800040  12.5580060  28.9693580  28.4859420  13.2353480
  28.6880800  27.5188440  12.1050910  21.9230530  13.1131350   5.8010280
  21.7945160  13.1049250   6.7495200  21.0992550  13.4514440   5.4501290
  29.5983440  26.2832390  11.2757510  30.2405670  25.5825550  11.3889680
  30.1232790  27.0630830  11.0954400  31.3721060  27.0827290  14.4793570
  31.7077300  27.6693980  15.1571490  30.4521400  26.9520000  14.7091360
  18.9224460  14.8722470  15.2616980  18.2082980  15.0719390  15.8669590
  19.3419500  14.0962040  15.6331780  33.0255410  24.4852950   2.6610810
  32.7377110  24.9465640   3.4488690  33.8207580  24.0250720   2.9295030
  19.2097050  28.8602730  16.2483510  19.3188170  27.9197470  16.1078900
  18.5577610  29.1257480  15.5997240  27.2009640  27.1318620  17.6481630
  26.8806510  26.4127860  18.1927320  26.5268000  27.8073690  17.7217690
  25.2423810  27.9779070   2.5914780  25.2333910  28.7108760   1.9759290
  24.3222170  27.7310650   2.6841740  20.8430450  23.1993960   3.3361540
  20.2358400  23.9392860   3.3456840  21.3179800  23.2893320   2.5099740
  30.4163240  17.3644780  13.0118430  30.7844060  16.5439990  13.3398000
  29.5561440  17.4246670  13.4274080  33.7825270  16.3201720   3.8205990
  33.1538430  16.4247390   3.1064220  33.2877190  16.5398500   4.6099870
  25.7509300  18.5987670   5.2363870  25.0425450  19.0674010   5.6777480
  26.0353780  17.9409680   5.8709060  27.3765230  20.0184370  13.2356400
  27.8750480  20.4930190  13.9008250  27.5188180  19.0947890  13.4426430
  29.7824730  15.3238330   6.6759660  29.6592510  15.3424460   5.7269170
  30.7309290  15.3717270   6.7958060  26.8701520  30.5593630   5.9487640
  27.1243020  30.5215020   5.0267010  25.9214000  30.4326960   5.9415890
  23.9544320  16.9072750   2.6114580  24.8034850  17.3442900   2.5454770
  23.5875590  17.2193010   3.4386640  34.5832090  16.2352330  14.0784790
  34.0805690  16.9757730  14.4178600  35.3988750  16.6236330  13.7621580
  32.8754100  21.4785510   7.5246150  31.9344240  21.4935740   7.6993840
  33.1898170  20.6921470   7.9706450  21.5482500  20.5930180   1.7683000
  21.6286090  19.6457690   1.8800400  22.4402250  20.9237060   1.8743660
  34.8779680  28.6494360   9.2000410  35.0027100  29.4725530   9.6724220
  35.7445240  28.4385090   8.8524560  22.3497210  30.7425570   8.8717540
  23.0859690  30.1941030   9.1426110  22.7338130  31.6081580   8.7323530
  19.2342690  26.8099140   4.7459050  18.3082470  27.0520280   4.7364460
  19.6999120  27.6373400   4.6243800  21.3555490  29.9271640  18.0603120
  22.1568220  30.2483690  18.4738520  20.8407310  29.5667220  18.7823030
  30.1920120  26.0351510  18.0078530  29.5858280  26.0583110  17.2674280
  29.8874230  25.3034550  18.5445780  31.6220490  29.7631800  16.6187940
  32.5742240  29.6789820  16.5688180  31.4748710  30.4273510  17.2921730
  19.0753300  22.4145100  17.0039170  19.5792320  21.8352380  17.5755400
  18.3360720  22.6985330  17.5415540  26.1291240  23.8216090  16.5374690
  25.3636910  24.3901090  16.4529360  26.3107200  23.5292300  15.6442920
  33.2714590  25.5521420  17.0949710  34.0124060  25.8897180  16.5917170
  32.5087270  25.7213480  16.5419480  21.1076380  20.5574690  17.8989240
  21.1481720  20.2588560  18.8074470  21.9621880  20.9582300  17.7396760
  24.8854770  23.1570240   3.0592750  25.3071190  22.9910110   3.9024140
  25.0105610  22.3470470   2.5647890  23.0482190  19.1366790  15.8663730
  22.5178650  18.6457740  15.2387070  23.7170260  19.5650990  15.3321660
  31.9460250  23.6036250  15.6304920  32.3601270  23.7581330  16.4795340
  31.0111250  23.7291470  15.7930700  32.4182420  20.9432410  17.6344070
  33.0003190  20.1884730  17.5464550  32.5944190  21.4739850  16.8575550
  23.5354490  16.1029160  15.9461020  23.4411360  15.4849910  15.2211890
  22.9551880  16.8295450  15.7190930  26.3015930  14.6602400  12.9788410
  25.8533230  14.6826660  12.1333960  25.6681130  14.2621420  13.5758710
  26.7075480  23.5556730  13.6000850  27.1263590  24.3989460  13.4277090
  25.7884110  23.6928770  13.3707630  29.0439380  21.2872910  14.9838690
  29.1635590  20.6914050  15.7233530  29.9033380  21.3242600  14.5639990
  31.3827280  21.8410100  13.5601200  30.8562500  22.3652720  12.9566340
  31.7258620  22.4737490  14.1910930  24.5582900  29.8609740  14.7158580
  24.0203990  30.5855800  14.3967280  24.8116860  29.3840080  13.9255920
  25.8108150  17.8294260  16.2414510  26.4007840  17.5210110  16.9292330
  24.9928390  17.3574010  16.3974410  30.6301580  17.4460070  16.4747530
  29.9417100  16.7841610  16.4097520  31.3507600  16.9998340  16.9195990
  31.2601980  14.0411700   2.5337790  31.5404270  13.1979600   2.8897210
  30.4867710  14.2734810   3.0476540  27.4145110  31.0960950  14.9745230
  27.3403810  31.9996090  15.2817600  26.5123950  30.7772850  14.9467300
  27.9630440  30.2619460   2.5971590  28.8581230  30.6004430   2.6190350
  27.9948070  29.5398870   1.9695870  18.8172400  28.4235540   8.2778850
  19.1475410  27.5556600   8.0457490  19.2463400  28.6294060   9.1083810
  23.4134320  26.7544550   5.9380820  23.1129860  26.6309520   6.8384730
  23.3071810  25.8953140   5.5296550  19.3062610  29.2906130  11.0160480
  18.8693600  29.4706930  11.8484630  19.8740290  30.0480750  10.8742200
  34.9424790  28.7923130  15.3037790  34.3426780  28.8515690  14.5601710
  35.0718690  27.8528110  15.4334640  35.6382700  23.2788430   3.1441700
  36.4001610  23.8485080   3.2501390  35.6537070  22.7115630   3.9150010
  19.1387040  21.8026360   7.3749360  18.4835880  21.5338000   6.7309060
  19.9764990  21.6930840   6.9251340  36.6442670  24.1338530   7.9883630
  37.0151500  23.3505850   7.5819600  37.2844600  24.8227630   7.8100930
  33.6276430  25.5175110  13.4013950  32.8136270  25.9472270  13.6639740
  34.0350630  26.1293520  12.7883000  35.5867210  21.5091790   5.2943650
  35.2110810  20.7419720   4.8624940  34.8570330  21.8914490   5.7818580
  20.1762970  22.1878930  11.9152700  20.5436010  22.1006330  12.7948720
  19.6073790  21.4245480  11.8159560  34.9766830  20.6563310  14.9283170
  34.7452920  20.4276060  14.0281120  35.2371380  21.5762860  14.8828060
  19.7278970  19.0988020  15.8211120  18.8335020  19.0654780  16.1604830
  20.2676520  19.2974810  16.5862370  33.4154900  15.8819740  17.7062870
  34.2925080  15.8903140  18.0896870  33.4275740  15.1450580  17.0955220
  18.3525120  19.0125290   3.3174690  17.4489200  19.2755490   3.1426350
  18.8365740  19.2836460   2.5374650  34.8618170  19.7349280   8.5950890
  35.3855650  19.2411930   7.9641060  35.4477590  19.8699640   9.3398460
  35.0407890  19.8189150  12.1170440  34.0910600  19.7852690  12.2315430
  35.2220900  20.7289260  11.8820210  34.3518140  18.9922630   4.5343300
  34.8477260  18.7593500   5.3192180  34.1534210  18.1534470   4.1180940
  20.2318680  13.3736350  10.1694340  20.8794870  12.8233730   9.7289500
  20.6520520  13.6279500  10.9910150  35.7805300  17.6283580   7.0680980
  35.6704580  17.4739620   8.0063250  36.5412890  17.1004520   6.8256390
  34.1271020  13.5677710  13.5263980  34.7643240  14.1811850  13.8923170
  34.2745910  13.6038370  12.5813210  36.7434060  16.2302160   2.9343830
  35.9485560  16.1647280   3.4636740  36.9477340  17.1652800   2.9229180
  33.6852480  30.2693710   6.9282220  34.2811550  29.9478280   6.2516640
  33.9430630  29.7965530   7.7195490  19.9850680  13.5292020  12.9119660
  19.6365500  13.9855840  13.6777840  19.6538380  12.6349150  12.9942090
  21.5915050  26.7011620  17.0772850  21.5484680  26.3304530  17.9587310
  21.7226060  27.6389190  17.2174670  25.2921080  28.2571210  12.6782570
  25.0512440  28.5245770  11.7913090  26.2323720  28.4276940  12.7333430
  27.4975500  14.7203900  16.4339080  27.4364390  15.3125730  17.1834490
  28.4375880  14.6129860  16.2889340  30.1350060  14.3773960  16.0731370
  30.7490470  14.6953250  15.4112450  30.6799620  13.8922550  16.6927230
  36.5525240  30.2765590  13.4793210  36.0583520  30.6734460  12.7620340
  35.9438530  29.6514800  13.8730490  20.6571320  13.0568220  16.1870430
  21.2054310  12.8756270  15.4236540  20.7226630  12.2662330  16.7226740
  21.4303080  29.6473870  14.1970630  20.8363400  29.5158570  14.9360670
  21.4226920  28.8112010  13.7312730  30.8758100  12.9406100  12.4000660
  30.0017940  13.2741210  12.1973590  30.7668850  12.4679280  13.2252530
  31.7830080  15.1476970  13.7842380  31.4543440  14.3328730  13.4044110
  32.7312380  15.1046780  13.6608070  34.2364690  30.9189010  10.7579950
  33.7767660  31.6704820  10.3837970  33.6077150  30.1995480  10.6994750
  21.0615310  27.0132250  13.1478670  20.3349370  26.3937540  13.0804620
  21.1224460  27.4072860  12.2776750  24.6660410  29.2277250   9.9328080
  25.1825430  28.6164610   9.4076340  25.3157790  29.7306030  10.4239090
  27.4055910  30.1185740  10.7597060  27.6933720  29.8640040   9.8830070
  27.9179130  29.5663100  11.3502630  28.6232920  13.8575940  11.3393570
  27.8404710  14.3321440  11.6190330  28.3295850  12.9530770  11.2306750
  33.1753990  14.5599040   9.3842660  33.6162080  14.5044140   8.5364260
  32.9061580  15.4757050   9.4552840  35.0392560  14.1914280   7.3951480
  34.9780960  13.2475500   7.2482500  35.8184590  14.2994370   7.9404940
  19.3445310  30.3306640   6.3575430  19.1767350  29.6977320   7.0557320
  18.4779820  30.5366040   6.0069620  19.9673330  14.1623420   3.8607290
  20.7252690  14.2752300   3.2871320  19.5050500  14.9992620   3.8150720
  26.5087140  16.2762690   6.8509600  25.6961650  15.9019580   6.5105480
  27.0128780  15.5207770   7.1530790  31.0112120  12.9405140   8.0892670
  31.6141490  13.5125350   8.5641190  30.2705110  13.5044580   7.8666570
  34.1546720  13.3426700   3.3632950  34.3497350  14.2410150   3.6300380
  33.3676590  13.1113780   3.8565900  20.9508010  29.0239870   3.8025570
  20.4255630  29.4047900   3.0987530  20.8752590  29.6490640   4.5235280
  22.3398480  14.6887470   2.4009260  22.8691240  13.9017270   2.2717210
  22.9726800  15.3678660   2.6344790  24.5336320  14.4262610   5.4554650
  23.9039060  13.7249920   5.6224780  23.9941460  15.1866740   5.2387810
  27.4728270  31.0401840  18.1265260  28.3995580  30.8046110  18.1701220
  27.4578700  31.8673840  17.6451290  35.7073330  30.5827410   5.1239510
  35.8825520  29.8965150   4.4800430  35.0094900  31.1074460   4.7316180
  24.6591880  13.7046590  17.8907140  24.3776150  14.2080190  17.1267960
  25.0411580  12.9068340  17.5249270  23.5500980  30.9722250   2.6774820
  24.2819800  30.6881530   2.1298710  23.8094650  30.7335530   3.5674200
  22.7115770  27.0886980   2.6821150  22.0824650  27.5572080   3.2306980
  22.8263600  26.2436200   3.1167340  31.2607340  13.1200170  18.4687610
  31.1472790  13.4394780  19.3639130  32.0777080  13.5212680  18.1724890
  34.0405830  30.2671700  17.9506300  34.8331150  29.7720930  17.7432260
  34.3338980  30.9461840  18.5581910  28.2983530   4.1428170  65.8105580
  27.5225630   3.6628610  66.1004150  28.9496460   3.4633820  65.6361740
  22.3149360   4.4547980  66.6881340  21.4834240   4.1996690  67.0877850
  22.9230340   4.5258750  67.4239260  32.3190960   8.5488360  64.5904710
  31.8572490   7.7775600  64.9191880  33.1316510   8.5754430  65.0957160
  22.2950620   8.4888070  66.8839360  22.5978660   7.5985810  66.7049580
  23.0394210   9.0458290  66.6561610  28.5454270  10.8346370  64.2108700
  27.9265710  11.2903870  63.6403140  29.4006050  10.9897830  63.8098400
  27.7392520   6.8185360  65.8175740  27.6700800   5.8775300  65.6564870
  28.5012380   6.9086770  66.3898310  29.4117620   5.7185610  61.6040610
  28.7934890   6.1835060  61.0403330  29.9240870   6.4113090  62.0210120
  24.2749380   5.2461480  68.2824210  23.9418760   5.8730400  68.9245280
  24.4516060   5.7723360  67.5025880  23.4868480   7.2142280  70.0973390
  24.1042480   7.8893360  69.8157840  22.6261600   7.6230260  70.0060890
  18.7800820   6.4042140  58.9780240  18.4028800   6.8929240  58.2465140
  19.0373890   7.0767420  59.6086770  34.4046070   8.6781690  68.0128030
  33.7209590   9.3480800  68.0044700  34.9440360   8.8762340  67.2472890
  31.9404810  10.5225820  66.7273210  31.9531970  10.1188110  65.8595470
  31.3880030  11.2973110  66.6234640  33.2350230   7.2442040  61.8163380
  33.1246560   6.3016370  61.9412800  33.2318480   7.6057680  62.7026140
  31.3390250   5.4255660  68.0555820  31.7559040   5.2115770  67.2209280
  32.0630070   5.6828450  68.6264440  28.7770510   2.8707360  61.1725870
  27.8499790   2.8044740  61.4014340  28.9295330   3.8087490  61.0581110
  35.2852350   3.8242880  68.1472060  34.4570980   3.8935970  67.6722190
  35.8802830   4.4097190  67.6787890  32.8067800   4.4327660  61.6761120
  32.1880220   4.0947210  61.0287420  32.7892250   3.7887420  62.3840310
  24.3827150   3.3972100  63.9545600  23.9784150   2.6849350  63.4591500
  24.4690270   3.0525340  64.8433640  24.8508850   7.0839660  66.1184810
  24.5537140   6.4785130  65.4392590  25.8008670   7.1216970  66.0074170
  32.9394460  10.6571530  69.7807910  32.4625020  11.4643720  69.5880520
  32.2556250  10.0049860  69.9334120  30.9832500   3.6714470  58.6833870
  31.4225780   2.8336900  58.5371690  31.6960920   4.3043870  58.7698010
  22.7698500   3.6934670  71.3449980  22.6306270   4.5657470  71.7137380
  21.8879860   3.3507480  71.1997920  29.0927880   8.6110540  62.6515110
  29.5323790   9.3534870  62.2370500  29.0314770   8.8537110  63.5754070
  21.0831780   2.2917080  61.4552250  20.9629380   3.0179170  60.8433520
  20.7732670   1.5219990  60.9780160  18.7217150   5.4632220  67.2620890
  18.7997570   5.5980990  66.3176610  19.3358830   4.7548110  67.4549010
  19.9664780   7.1632410  63.6727070  19.5592860   7.3047000  62.8180670
  20.8577790   6.8792570  63.4698280  35.9226920   7.6096320  72.0099310
  36.0489980   7.3708200  71.0916490  35.9648300   6.7780860  72.4821390
  29.7843660  11.3124320  70.5794120  30.2988330  11.2232330  71.3816550
  28.9412740  11.6584020  70.8722030  31.7598060  11.5979660  60.0078120
  31.5999200  11.3082600  60.9059950  31.5944770  10.8219790  59.4723350
  24.2386440  11.3778190  61.7849740  24.0628920  10.4613730  61.5717540
  23.3842180  11.7365480  62.0247540  31.4624190   9.1067220  58.5676120
  30.7689350   9.1044510  57.9078400  32.2047050   8.6826540  58.1370290
  31.0274120  10.7329930  62.6424610  31.4831070   9.9519310  62.9563230
  31.3666640  11.4436750  63.1865790  18.7776670   6.5046390  69.8015350
  18.9407710   6.0351750  68.9834720  19.2429120   5.9969950  70.4664190
  25.2746470   1.9785800  58.0844430  24.7063370   1.5304050  57.4580340
  25.9835470   2.3378580  57.5509580  20.3515650   5.8797820  71.9611160
  19.9670440   5.2391490  72.5594120  20.6627840   6.5833940  72.5305890
  26.5012790   2.7274360  67.4419780  26.8682920   2.2532930  68.1881120
  26.3117850   3.6015930  67.7828120  24.2912160   1.7683000  69.7603990
  23.9869230   2.6474980  69.9854350  25.2458620   1.8282790  69.7961430
  22.8193950   5.9743990  60.3570840  22.0456210   5.4341610  60.1969560
  23.5488580   5.4550600  60.0188600  33.5781930   4.9709350  66.1497230
  34.2981050   5.4664640  65.7593340  33.3763750   4.2927240  65.5051100
  28.9600730   5.0418410  72.0366230  28.8938040   4.1214080  71.7823820
  28.3305870   5.1393850  72.7510870  22.8631350   5.6424370  63.9949650
  23.3810020   4.8392630  63.9406540  22.4115370   5.5803510  64.8366480
  27.7500850   6.9090650  59.2676950  28.0916550   7.6532880  58.7720270
  26.9213560   7.2221770  59.6301780  20.3475890   2.6085740  70.9075350
  19.9890830   3.2739590  71.4948690  20.0530450   1.7769290  71.2787970
  28.8917460   7.8638980  71.7870030  28.9062000   6.9319940  71.5688940
  28.1842560   7.9498740  72.4259800  34.0254530   2.0478800  58.0568640
  33.9418250   2.4793020  57.2065080  34.7448720   2.5077150  58.4895460
  35.1028670   4.5046320  71.1338610  34.3776860   5.0975100  70.9368000
  35.6304130   4.4969860  70.3351980  35.0541780   8.9021060  60.7850770
  34.4117940   8.2476680  61.0594490  34.6672440   9.3076150  60.0091440
  30.6328260   6.2306490  64.6322460  30.9852080   5.6334620  63.9723830
  29.7490590   5.9050720  64.8030710  26.7191540   6.9904180  62.0392870
  27.4062670   7.5373390  62.4200460  25.9323960   7.5344910  62.0742480
  18.8583940   2.6077000  57.5309950  19.7278790   2.8901800  57.8145870
  18.3674260   3.4212870  57.4158760  26.0218750   3.9950210  61.6518230
  26.4781530   4.8055460  61.8778420  25.6706960   3.6773350  62.4836720
  28.3251360   9.5056550  68.8810530  28.9693580   9.7115930  69.5583950
  28.6880800   8.7444950  68.4281380  29.5983440   7.5088900  67.5987980
  30.2405670   6.8082060  67.7120150  30.1232790   8.2887340  67.4184870
  33.4439160   7.7937520  57.3227120  33.2176740   7.0767960  57.9151760
  33.0535360   7.5449960  56.4848870  31.3721060   8.3083800  70.8024040
  31.7077300   8.8950490  71.4801960  30.4521400   8.1776510  71.0321830
  19.2255190  11.8204380  58.0971580  19.5852830  12.4193720  57.4428850
  19.0847530  12.3664270  58.8706610  33.0255410   5.7109460  58.9841280
  32.7377110   6.1722150  59.7719160  33.8207580   5.2507230  59.2525500
  19.2097050  10.0859240  72.5713980  19.3188170   9.1453980  72.4309370
  18.5577610  10.3513990  71.9227710  25.2423810   9.2035580  58.9145250
  25.2333910   9.9365270  58.2989760  24.3222170   8.9567160  59.0072210
  20.8430450   4.4250470  59.6592010  20.2358400   5.1649370  59.6687310
  21.3179800   4.5149830  58.8330210  28.2283410   9.2663820  57.5770440
  28.3295390   9.0627810  56.6472420  27.3285150   9.0122100  57.7818220
  26.8701520  11.7850140  62.2718110  27.1243020  11.7471530  61.3497480
  25.9214000  11.6583470  62.2646360  32.8754100   2.7042020  63.8476620
  31.9344240   2.7192250  64.0224310  33.1898170   1.9177980  64.2936920
  22.8535740   4.3861620  57.4080580  23.6199010   4.2742980  57.9706010
  22.9310430   3.6899590  56.7557350  34.8779680   9.8750870  65.5230880
  35.0027100  10.6982040  65.9954690  35.7445240   9.6641600  65.1755030
  22.3497210  11.9682080  65.1948010  23.0859690  11.4197540  65.4656580
  22.7338130  12.8338090  65.0554000  19.2342690   8.0355650  61.0689520
  18.3082470   8.2776790  61.0594930  19.6999120   8.8629910  60.9474270
  25.4599520  11.1412390  57.0173580  26.2528130  11.4301220  56.5655370
  24.9403870  10.7104560  56.3386060  34.5129690  10.3682520  58.4410320
  34.2271200   9.9547660  57.6264500  34.3149240  11.2970230  58.3210840
  25.9776920   6.3615800  56.8815930  25.8727560   5.7468150  57.6077310
  25.8101140   5.8381690  56.0978940  26.1291240   5.0472600  72.8605160
  25.3636910   5.6157600  72.7759830  26.3107200   4.7548810  71.9673390
  29.2179650   5.4235830  57.4857920  28.6689750   5.8705130  58.1300660
  29.8398910   4.9185080  58.0095590  24.8854770   4.3826750  59.3823220
  25.3071190   4.2166620  60.2254610  25.0105610   3.5726980  58.8878360
  27.3982410   3.4064360  56.6300320  27.9188070   2.6913380  56.2641470
  28.0450810   4.0450230  56.9300830  31.9460250   4.8292760  71.9535390
  32.3601270   4.9837840  72.8025810  31.0111250   4.9547980  72.1161170
  26.7075480   4.7813240  69.9231320  27.1263590   5.6245970  69.7507560
  25.7884110   4.9185280  69.6938100  29.0439380   2.5129420  71.3069160
  29.1635590   1.9170560  72.0464000  29.9033380   2.5499110  70.8870460
  31.3827280   3.0666610  69.8831670  30.8562500   3.5909230  69.2796810
  31.7258620   3.6994000  70.5141400  24.5582900  11.0866250  71.0389050
  24.0203990  11.8112310  70.7197750  24.8116860  10.6096590  70.2486390
  27.4145110  12.3217460  71.2975700  27.3403810  13.2252600  71.6048070
  26.5123950  12.0029360  71.2697770  27.9630440  11.4875970  58.9202060
  28.8581230  11.8260940  58.9420820  27.9948070  10.7655380  58.2926340
  21.6026600   6.8603020  57.1489060  22.0401470   7.4032690  57.8046640
  22.0874330   6.0349970  57.1585400  18.8172400   9.6492050  64.6009320
  19.1475410   8.7813110  64.3687960  19.2463400   9.8550570  65.4314280
  23.4134320   7.9801060  62.2611290  23.1129860   7.8566030  63.1615200
  23.3071810   7.1209650  61.8527020  19.3062610  10.5162640  67.3390950
  18.8693600  10.6963440  68.1715100  19.8740290  11.2737260  67.1972670
  34.9424790  10.0179640  71.6268260  34.3426780  10.0772200  70.8832180
  35.0718690   9.0784620  71.7565110  36.1826240   7.7597460  56.9637970
  35.3519200   7.8274110  57.4345200  36.3598070   8.6501580  56.6604830
  35.6382700   4.5044940  59.4672170  36.4001610   5.0741590  59.5731860
  35.6537070   3.9372140  60.2380480  19.1387040   3.0282870  63.6979830
  18.4835880   2.7594510  63.0539530  19.9764990   2.9187350  63.2481810
  36.6442670   5.3595040  64.3114100  37.0151500   4.5762360  63.9050070
  37.2844600   6.0484140  64.1331400  33.6276430   6.7431620  69.7244420
  32.8136270   7.1728780  69.9870210  34.0350630   7.3550030  69.1113470
  35.6901870   4.7979310  56.6244690  35.9650710   5.7058190  56.4963910
  35.5012610   4.7341840  57.5606680  35.5867210   2.7348300  61.6174120
  35.2110810   1.9676230  61.1855410  34.8570330   3.1171000  62.1049050
  20.1762970   3.4135440  68.2383170  20.5436010   3.3262840  69.1179190
  19.6073790   2.6501990  68.1390030  34.9766830   1.8819820  71.2513640
  34.7452920   1.6532570  70.3511590  35.2371380   2.8019370  71.2058530
  33.6852480  11.4950220  63.2512690  34.2811550  11.1734790  62.5747110
  33.9430630  11.0222040  64.0425960  25.2921080   9.4827720  69.0013040
  25.0512440   9.7502280  68.1143560  26.2323720   9.6533450  69.0563900
  36.5525240  11.5022100  69.8023680  36.0583520  11.8990970  69.0850810
  35.9438530  10.8771310  70.1960960  21.4303080  10.8730380  70.5201100
  20.8363400  10.7415080  71.2591140  21.4226920  10.0368520  70.0543200
  34.2364690  12.1445520  67.0810420  33.7767660  12.8961330  66.7068440
  33.6077150  11.4251990  67.0225220  21.0615310   8.2388760  69.4709140
  20.3349370   7.6194050  69.4035090  21.1224460   8.6329370  68.6007220
  24.6660410  10.4533760  66.2558550  25.1825430   9.8421120  65.7306810
  25.3157790  10.9562540  66.7469560  27.4055910  11.3442250  67.0827530
  27.6933720  11.0896550  66.2060540  27.9179130  10.7919610  67.6733100
  19.3445310  11.5563150  62.6805900  19.1767350  10.9233830  63.3787790
  18.4779820  11.7622550  62.3300090  20.9508010  10.2496380  60.1256040
  20.4255630  10.6304410  59.4218000  20.8752590  10.8747150  60.8465750
  35.7073330  11.8083920  61.4469980  35.8825520  11.1221660  60.8030900
  35.0094900  12.3330970  61.0546650  23.5500980  12.1978760  59.0005290
  24.2819800  11.9138040  58.4529180  23.8094650  11.9592040  59.8904670
  22.7115770   8.3143490  59.0051620  22.0824650   8.7828590  59.5537450
  22.8263600   7.4692710  59.4397810  28.2983530   4.1428170  47.0362090
  27.5225630   3.6628610  47.3260660  28.9496460   3.4633820  46.8618250
  22.3149360   4.4547980  47.9137850  21.4834240   4.1996690  48.3134360
  22.9230340   4.5258750  48.6495770  32.3190960   8.5488360  45.8161220
  31.8572490   7.7775600  46.1448390  33.1316510   8.5754430  46.3213670
  22.2950620   8.4888070  48.1095870  22.5978660   7.5985810  47.9306090
  23.0394210   9.0458290  47.8818120  28.5454270  10.8346370  45.4365210
  27.9265710  11.2903870  44.8659650  29.4006050  10.9897830  45.0354910
  27.7392520   6.8185360  47.0432250  27.6700800   5.8775300  46.8821380
  28.5012380   6.9086770  47.6154820  29.4117620   5.7185610  42.8297120
  28.7934890   6.1835060  42.2659840  29.9240870   6.4113090  43.2466630
  24.2749380   5.2461480  49.5080720  23.9418760   5.8730400  50.1501790
  24.4516060   5.7723360  48.7282390  23.4868480   7.2142280  51.3229900
  24.1042480   7.8893360  51.0414350  22.6261600   7.6230260  51.2317400
  18.7800820   6.4042140  40.2036750  18.4028800   6.8929240  39.4721650
  19.0373890   7.0767420  40.8343280  34.4046070   8.6781690  49.2384540
  33.7209590   9.3480800  49.2301210  34.9440360   8.8762340  48.4729400
  31.9404810  10.5225820  47.9529720  31.9531970  10.1188110  47.0851980
  31.3880030  11.2973110  47.8491150  33.2350230   7.2442040  43.0419890
  33.1246560   6.3016370  43.1669310  33.2318480   7.6057680  43.9282650
  31.3390250   5.4255660  49.2812330  31.7559040   5.2115770  48.4465790
  32.0630070   5.6828450  49.8520950  28.7770510   2.8707360  42.3982380
  27.8499790   2.8044740  42.6270850  28.9295330   3.8087490  42.2837620
  35.2852350   3.8242880  49.3728570  34.4570980   3.8935970  48.8978700
  35.8802830   4.4097190  48.9044400  32.8067800   4.4327660  42.9017630
  32.1880220   4.0947210  42.2543930  32.7892250   3.7887420  43.6096820
  24.3827150   3.3972100  45.1802110  23.9784150   2.6849350  44.6848010
  24.4690270   3.0525340  46.0690150  24.8508850   7.0839660  47.3441320
  24.5537140   6.4785130  46.6649100  25.8008670   7.1216970  47.2330680
  32.9394460  10.6571530  51.0064420  32.4625020  11.4643720  50.8137030
  32.2556250  10.0049860  51.1590630  23.9427280   6.8221350  53.9949120
  23.0455810   7.0461320  54.2422520  23.9680150   6.9456290  53.0460520
  30.9832500   3.6714470  39.9090380  31.4225780   2.8336900  39.7628200
  31.6960920   4.3043870  39.9954520  22.7698500   3.6934670  52.5706490
  22.6306270   4.5657470  52.9393890  21.8879860   3.3507480  52.4254430
  29.0927880   8.6110540  43.8771620  29.5323790   9.3534870  43.4627010
  29.0314770   8.8537110  44.8010580  24.5678850   9.6356370  54.7791640
  24.5394280  10.0399320  53.9120070  24.4043820   8.7066730  54.6163240
  21.0831780   2.2917080  42.6808760  20.9629380   3.0179170  42.0690030
  20.7732670   1.5219990  42.2036670  36.5193670  10.4183470  56.0755810
  36.9953390  10.8966360  56.7544890  37.1400830  10.3500960  55.3501310
  18.7217150   5.4632220  48.4877400  18.7997570   5.5980990  47.5433120
  19.3358830   4.7548110  48.6805520  19.9664780   7.1632410  44.8983580
  19.5592860   7.3047000  44.0437180  20.8577790   6.8792570  44.6954790
  35.9226920   7.6096320  53.2355820  36.0489980   7.3708200  52.3173000
  35.9648300   6.7780860  53.7077900  29.7843660  11.3124320  51.8050630
  30.2988330  11.2232330  52.6073060  28.9412740  11.6584020  52.0978540
  31.7598060  11.5979660  41.2334630  31.5999200  11.3082600  42.1316460
  31.5944770  10.8219790  40.6979860  24.2386440  11.3778190  43.0106250
  24.0628920  10.4613730  42.7974050  23.3842180  11.7365480  43.2504050
  31.4624190   9.1067220  39.7932630  30.7689350   9.1044510  39.1334910
  32.2047050   8.6826540  39.3626800  31.0274120  10.7329930  43.8681120
  31.4831070   9.9519310  44.1819740  31.3666640  11.4436750  44.4122300
  18.7776670   6.5046390  51.0271860  18.9407710   6.0351750  50.2091230
  19.2429120   5.9969950  51.6920700  25.2746470   1.9785800  39.3100940
  24.7063370   1.5304050  38.6836850  25.9835470   2.3378580  38.7766090
  20.3515650   5.8797820  53.1867670  19.9670440   5.2391490  53.7850630
  20.6627840   6.5833940  53.7562400  26.5012790   2.7274360  48.6676290
  26.8682920   2.2532930  49.4137630  26.3117850   3.6015930  49.0084630
  24.2912160   1.7683000  50.9860500  23.9869230   2.6474980  51.2110860
  25.2458620   1.8282790  51.0217940  22.8193950   5.9743990  41.5827350
  22.0456210   5.4341610  41.4226070  23.5488580   5.4550600  41.2445110
  33.5781930   4.9709350  47.3753740  34.2981050   5.4664640  46.9849850
  33.3763750   4.2927240  46.7307610  28.9600730   5.0418410  53.2622740
  28.8938040   4.1214080  53.0080330  28.3305870   5.1393850  53.9767380
  22.8631350   5.6424370  45.2206160  23.3810020   4.8392630  45.1663050
  22.4115370   5.5803510  46.0622990  27.7500850   6.9090650  40.4933460
  28.0916550   7.6532880  39.9976780  26.9213560   7.2221770  40.8558290
  20.3475890   2.6085740  52.1331860  19.9890830   3.2739590  52.7205200
  20.0530450   1.7769290  52.5044480  23.5489010   3.0669980  55.0171410
  23.2489150   3.2127160  54.1199230  24.3200250   2.5075270  54.9244800
  28.8917460   7.8638980  53.0126540  28.9062000   6.9319940  52.7945450
  28.1842560   7.9498740  53.6516310  34.0254530   2.0478800  39.2825150
  33.9418250   2.4793020  38.4321590  34.7448720   2.5077150  39.7151970
  35.1028670   4.5046320  52.3595120  34.3776860   5.0975100  52.1624510
  35.6304130   4.4969860  51.5608490  35.0541780   8.9021060  42.0107280
  34.4117940   8.2476680  42.2851000  34.6672440   9.3076150  41.2347950
  30.6328260   6.2306490  45.8578970  30.9852080   5.6334620  45.1980340
  29.7490590   5.9050720  46.0287220  26.7191540   6.9904180  43.2649380
  27.4062670   7.5373390  43.6456970  25.9323960   7.5344910  43.2998990
  18.8583940   2.6077000  38.7566460  19.7278790   2.8901800  39.0402380
  18.3674260   3.4212870  38.6415270  26.0218750   3.9950210  42.8774740
  26.4781530   4.8055460  43.1034930  25.6706960   3.6773350  43.7093230
  28.3251360   9.5056550  50.1067040  28.9693580   9.7115930  50.7840460
  28.6880800   8.7444950  49.6537890  29.5983440   7.5088900  48.8244490
  30.2405670   6.8082060  48.9376660  30.1232790   8.2887340  48.6441380
  33.4439160   7.7937520  38.5483630  33.2176740   7.0767960  39.1408270
  33.0535360   7.5449960  37.7105380  31.3721060   8.3083800  52.0280550
  31.7077300   8.8950490  52.7058470  30.4521400   8.1776510  52.2578340
  19.2255190  11.8204380  39.3228090  19.5852830  12.4193720  38.6685360
  19.0847530  12.3664270  40.0963120  33.0255410   5.7109460  40.2097790
  32.7377110   6.1722150  40.9975670  33.8207580   5.2507230  40.4782010
  19.2097050  10.0859240  53.7970490  19.3188170   9.1453980  53.6565880
  18.5577610  10.3513990  53.1484220  27.2009640   8.3575130  55.1968610
  26.8806510   7.6384370  55.7414300  26.5268000   9.0330200  55.2704670
  25.2423810   9.2035580  40.1401760  25.2333910   9.9365270  39.5246270
  24.3222170   8.9567160  40.2328720  20.8430450   4.4250470  40.8848520
  20.2358400   5.1649370  40.8943820  21.3179800   4.5149830  40.0586720
  28.2283410   9.2663820  38.8026950  28.3295390   9.0627810  37.8728930
  27.3285150   9.0122100  39.0074730  26.8701520  11.7850140  43.4974620
  27.1243020  11.7471530  42.5753990  25.9214000  11.6583470  43.4902870
  32.8754100   2.7042020  45.0733130  31.9344240   2.7192250  45.2480820
  33.1898170   1.9177980  45.5193430  22.8535740   4.3861620  38.6337090
  23.6199010   4.2742980  39.1962520  22.9310430   3.6899590  37.9813860
  34.8779680   9.8750870  46.7487390  35.0027100  10.6982040  47.2211200
  35.7445240   9.6641600  46.4011540  22.3497210  11.9682080  46.4204520
  23.0859690  11.4197540  46.6913090  22.7338130  12.8338090  46.2810510
  19.2342690   8.0355650  42.2946030  18.3082470   8.2776790  42.2851440
  19.6999120   8.8629910  42.1730780  21.3555490  11.1528150  55.6090100
  22.1568220  11.4740200  56.0225500  20.8407310  10.7923730  56.3310010
  25.4599520  11.1412390  38.2430090  26.2528130  11.4301220  37.7911880
  24.9403870  10.7104560  37.5642570  30.1920120   7.2608020  55.5565510
  29.5858280   7.2839620  54.8161260  29.8874230   6.5291060  56.0932760
  31.6220490  10.9888310  54.1674920  32.5742240  10.9046330  54.1175160
  31.4748710  11.6530020  54.8408710  34.5129690  10.3682520  39.6666830
  34.2271200   9.9547660  38.8521010  34.3149240  11.2970230  39.5467350
  19.0753300   3.6401610  54.5526150  19.5792320   3.0608890  55.1242380
  18.3360720   3.9241840  55.0902520  25.9776920   6.3615800  38.1072440
  25.8727560   5.7468150  38.8333820  25.8101140   5.8381690  37.3235450
  26.1291240   5.0472600  54.0861670  25.3636910   5.6157600  54.0016340
  26.3107200   4.7548810  53.1929900  29.2179650   5.4235830  38.7114430
  28.6689750   5.8705130  39.3557170  29.8398910   4.9185080  39.2352100
  33.2714590   6.7777930  54.6436690  34.0124060   7.1153690  54.1404150
  32.5087270   6.9469990  54.0906460  21.1076380   1.7831200  55.4476220
  21.1481720   1.4845070  56.3561450  21.9621880   2.1838810  55.2883740
  24.8854770   4.3826750  40.6079730  25.3071190   4.2166620  41.4511120
  25.0105610   3.5726980  40.1134870  27.3982410   3.4064360  37.8556830
  27.9188070   2.6913380  37.4897980  28.0450810   4.0450230  38.1557340
  31.9460250   4.8292760  53.1791900  32.3601270   4.9837840  54.0282320
  31.0111250   4.9547980  53.3417680  26.7075480   4.7813240  51.1487830
  27.1263590   5.6245970  50.9764070  25.7884110   4.9185280  50.9194610
  29.0439380   2.5129420  52.5325670  29.1635590   1.9170560  53.2720510
  29.9033380   2.5499110  52.1126970  31.3827280   3.0666610  51.1088180
  30.8562500   3.5909230  50.5053320  31.7258620   3.6994000  51.7397910
  24.5582900  11.0866250  52.2645560  24.0203990  11.8112310  51.9454260
  24.8116860  10.6096590  51.4742900  27.4145110  12.3217460  52.5232210
  27.3403810  13.2252600  52.8304580  26.5123950  12.0029360  52.4954280
  27.9630440  11.4875970  40.1458570  28.8581230  11.8260940  40.1677330
  27.9948070  10.7655380  39.5182850  21.6026600   6.8603020  38.3745570
  22.0401470   7.4032690  39.0303150  22.0874330   6.0349970  38.3841910
  18.8172400   9.6492050  45.8265830  19.1475410   8.7813110  45.5944470
  19.2463400   9.8550570  46.6570790  23.4134320   7.9801060  43.4867800
  23.1129860   7.8566030  44.3871710  23.3071810   7.1209650  43.0783530
  19.3062610  10.5162640  48.5647460  18.8693600  10.6963440  49.3971610
  19.8740290  11.2737260  48.4229180  34.9424790  10.0179640  52.8524770
  34.3426780  10.0772200  52.1088690  35.0718690   9.0784620  52.9821620
  36.1826240   7.7597460  38.1894480  35.3519200   7.8274110  38.6601710
  36.3598070   8.6501580  37.8861340  35.6382700   4.5044940  40.6928680
  36.4001610   5.0741590  40.7988370  35.6537070   3.9372140  41.4636990
  19.1387040   3.0282870  44.9236340  18.4835880   2.7594510  44.2796040
  19.9764990   2.9187350  44.4738320  36.6442670   5.3595040  45.5370610
  37.0151500   4.5762360  45.1306580  37.2844600   6.0484140  45.3587910
  33.6276430   6.7431620  50.9500930  32.8136270   7.1728780  51.2126720
  34.0350630   7.3550030  50.3369980  35.6901870   4.7979310  37.8501200
  35.9650710   5.7058190  37.7220420  35.5012610   4.7341840  38.7863190
  35.5867210   2.7348300  42.8430630  35.2110810   1.9676230  42.4111920
  34.8570330   3.1171000  43.3305560  20.1762970   3.4135440  49.4639680
  20.5436010   3.3262840  50.3435700  19.6073790   2.6501990  49.3646540
  34.9766830   1.8819820  52.4770150  34.7452920   1.6532570  51.5768100
  35.2371380   2.8019370  52.4315040  33.6852480  11.4950220  44.4769200
  34.2811550  11.1734790  43.8003620  33.9430630  11.0222040  45.2682470
  21.5915050   7.9268130  54.6259830  21.5484680   7.5561040  55.5074290
  21.7226060   8.8645700  54.7661650  25.2921080   9.4827720  50.2269550
  25.0512440   9.7502280  49.3400070  26.2323720   9.6533450  50.2820410
  36.5525240  11.5022100  51.0280190  36.0583520  11.8990970  50.3107320
  35.9438530  10.8771310  51.4217470  21.4303080  10.8730380  51.7457610
  20.8363400  10.7415080  52.4847650  21.4226920  10.0368520  51.2799710
  34.2364690  12.1445520  48.3066930  33.7767660  12.8961330  47.9324950
  33.6077150  11.4251990  48.2481730  21.0615310   8.2388760  50.6965650
  20.3349370   7.6194050  50.6291600  21.1224460   8.6329370  49.8263730
  24.6660410  10.4533760  47.4815060  25.1825430   9.8421120  46.9563320
  25.3157790  10.9562540  47.9726070  27.4055910  11.3442250  48.3084040
  27.6933720  11.0896550  47.4317050  27.9179130  10.7919610  48.8989610
  19.3445310  11.5563150  43.9062410  19.1767350  10.9233830  44.6044300
  18.4779820  11.7622550  43.5556600  20.9508010  10.2496380  41.3512550
  20.4255630  10.6304410  40.6474510  20.8752590  10.8747150  42.0722260
  27.4728270  12.2658350  55.6752240  28.3995580  12.0302620  55.7188200
  27.4578700  13.0930350  55.1938270  35.7073330  11.8083920  42.6726490
  35.8825520  11.1221660  42.0287410  35.0094900  12.3330970  42.2803160
  23.5500980  12.1978760  40.2261800  24.2819800  11.9138040  39.6785690
  23.8094650  11.9592040  41.1161180  22.7115770   8.3143490  40.2308130
  22.0824650   8.7828590  40.7793960  22.8263600   7.4692710  40.6654320
  34.0405830  11.4928210  55.4993280  34.8331150  10.9977440  55.2919240
  34.3338980  12.1718350  56.1068890  28.2983530   4.1428170  28.2618600
  27.5225630   3.6628610  28.5517170  28.9496460   3.4633820  28.0874760
  22.3149360   4.4547980  29.1394360  21.4834240   4.1996690  29.5390870
  22.9230340   4.5258750  29.8752280  32.3190960   8.5488360  27.0417730
  31.8572490   7.7775600  27.3704900  33.1316510   8.5754430  27.5470180
  22.2950620   8.4888070  29.3352380  22.5978660   7.5985810  29.1562600
  23.0394210   9.0458290  29.1074630  28.5454270  10.8346370  26.6621720
  27.9265710  11.2903870  26.0916160  29.4006050  10.9897830  26.2611420
  27.7392520   6.8185360  28.2688760  27.6700800   5.8775300  28.1077890
  28.5012380   6.9086770  28.8411330  29.4117620   5.7185610  24.0553630
  28.7934890   6.1835060  23.4916350  29.9240870   6.4113090  24.4723140
  24.2749380   5.2461480  30.7337230  23.9418760   5.8730400  31.3758300
  24.4516060   5.7723360  29.9538900  23.4868480   7.2142280  32.5486410
  24.1042480   7.8893360  32.2670860  22.6261600   7.6230260  32.4573910
  18.7800820   6.4042140  21.4293260  18.4028800   6.8929240  20.6978160
  19.0373890   7.0767420  22.0599790  34.4046070   8.6781690  30.4641050
  33.7209590   9.3480800  30.4557720  34.9440360   8.8762340  29.6985910
  31.9404810  10.5225820  29.1786230  31.9531970  10.1188110  28.3108490
  31.3880030  11.2973110  29.0747660  33.2350230   7.2442040  24.2676400
  33.1246560   6.3016370  24.3925820  33.2318480   7.6057680  25.1539160
  31.3390250   5.4255660  30.5068840  31.7559040   5.2115770  29.6722300
  32.0630070   5.6828450  31.0777460  28.7770510   2.8707360  23.6238890
  27.8499790   2.8044740  23.8527360  28.9295330   3.8087490  23.5094130
  35.2852350   3.8242880  30.5985080  34.4570980   3.8935970  30.1235210
  35.8802830   4.4097190  30.1300910  32.8067800   4.4327660  24.1274140
  32.1880220   4.0947210  23.4800440  32.7892250   3.7887420  24.8353330
  24.3827150   3.3972100  26.4058620  23.9784150   2.6849350  25.9104520
  24.4690270   3.0525340  27.2946660  24.8508850   7.0839660  28.5697830
  24.5537140   6.4785130  27.8905610  25.8008670   7.1216970  28.4587190
  32.9394460  10.6571530  32.2320930  32.4625020  11.4643720  32.0393540
  32.2556250  10.0049860  32.3847140  23.9427280   6.8221350  35.2205630
  23.0455810   7.0461320  35.4679030  23.9680150   6.9456290  34.2717030
  30.9832500   3.6714470  21.1346890  31.4225780   2.8336900  20.9884710
  31.6960920   4.3043870  21.2211030  22.7698500   3.6934670  33.7963000
  22.6306270   4.5657470  34.1650400  21.8879860   3.3507480  33.6510940
  29.0927880   8.6110540  25.1028130  29.5323790   9.3534870  24.6883520
  29.0314770   8.8537110  26.0267090  24.5678850   9.6356370  36.0048150
  24.5394280  10.0399320  35.1376580  24.4043820   8.7066730  35.8419750
  21.0831780   2.2917080  23.9065270  20.9629380   3.0179170  23.2946540
  20.7732670   1.5219990  23.4293180  36.5193670  10.4183470  37.3012320
  36.9953390  10.8966360  37.9801400  37.1400830  10.3500960  36.5757820
  18.7217150   5.4632220  29.7133910  18.7997570   5.5980990  28.7689630
  19.3358830   4.7548110  29.9062030  19.9664780   7.1632410  26.1240090
  19.5592860   7.3047000  25.2693690  20.8577790   6.8792570  25.9211300
  35.9226920   7.6096320  34.4612330  36.0489980   7.3708200  33.5429510
  35.9648300   6.7780860  34.9334410  29.7843660  11.3124320  33.0307140
  30.2988330  11.2232330  33.8329570  28.9412740  11.6584020  33.3235050
  31.7598060  11.5979660  22.4591140  31.5999200  11.3082600  23.3572970
  31.5944770  10.8219790  21.9236370  24.2386440  11.3778190  24.2362760
  24.0628920  10.4613730  24.0230560  23.3842180  11.7365480  24.4760560
  31.4624190   9.1067220  21.0189140  30.7689350   9.1044510  20.3591420
  32.2047050   8.6826540  20.5883310  31.0274120  10.7329930  25.0937630
  31.4831070   9.9519310  25.4076250  31.3666640  11.4436750  25.6378810
  18.7776670   6.5046390  32.2528370  18.9407710   6.0351750  31.4347740
  19.2429120   5.9969950  32.9177210  25.2746470   1.9785800  20.5357450
  24.7063370   1.5304050  19.9093360  25.9835470   2.3378580  20.0022600
  20.3515650   5.8797820  34.4124180  19.9670440   5.2391490  35.0107140
  20.6627840   6.5833940  34.9818910  26.5012790   2.7274360  29.8932800
  26.8682920   2.2532930  30.6394140  26.3117850   3.6015930  30.2341140
  24.2912160   1.7683000  32.2117010  23.9869230   2.6474980  32.4367370
  25.2458620   1.8282790  32.2474450  22.8193950   5.9743990  22.8083860
  22.0456210   5.4341610  22.6482580  23.5488580   5.4550600  22.4701620
  33.5781930   4.9709350  28.6010250  34.2981050   5.4664640  28.2106360
  33.3763750   4.2927240  27.9564120  28.9600730   5.0418410  34.4879250
  28.8938040   4.1214080  34.2336840  28.3305870   5.1393850  35.2023890
  22.8631350   5.6424370  26.4462670  23.3810020   4.8392630  26.3919560
  22.4115370   5.5803510  27.2879500  27.7500850   6.9090650  21.7189970
  28.0916550   7.6532880  21.2233290  26.9213560   7.2221770  22.0814800
  20.3475890   2.6085740  33.3588370  19.9890830   3.2739590  33.9461710
  20.0530450   1.7769290  33.7300990  23.5489010   3.0669980  36.2427920
  23.2489150   3.2127160  35.3455740  24.3200250   2.5075270  36.1501310
  28.8917460   7.8638980  34.2383050  28.9062000   6.9319940  34.0201960
  28.1842560   7.9498740  34.8772820  34.0254530   2.0478800  20.5081660
  33.9418250   2.4793020  19.6578100  34.7448720   2.5077150  20.9408480
  35.1028670   4.5046320  33.5851630  34.3776860   5.0975100  33.3881020
  35.6304130   4.4969860  32.7865000  35.0541780   8.9021060  23.2363790
  34.4117940   8.2476680  23.5107510  34.6672440   9.3076150  22.4604460
  30.6328260   6.2306490  27.0835480  30.9852080   5.6334620  26.4236850
  29.7490590   5.9050720  27.2543730  26.7191540   6.9904180  24.4905890
  27.4062670   7.5373390  24.8713480  25.9323960   7.5344910  24.5255500
  18.8583940   2.6077000  19.9822970  19.7278790   2.8901800  20.2658890
  18.3674260   3.4212870  19.8671780  26.0218750   3.9950210  24.1031250
  26.4781530   4.8055460  24.3291440  25.6706960   3.6773350  24.9349740
  28.3251360   9.5056550  31.3323550  28.9693580   9.7115930  32.0096970
  28.6880800   8.7444950  30.8794400  29.5983440   7.5088900  30.0501000
  30.2405670   6.8082060  30.1633170  30.1232790   8.2887340  29.8697890
  33.4439160   7.7937520  19.7740140  33.2176740   7.0767960  20.3664780
  33.0535360   7.5449960  18.9361890  31.3721060   8.3083800  33.2537060
  31.7077300   8.8950490  33.9314980  30.4521400   8.1776510  33.4834850
  19.2255190  11.8204380  20.5484600  19.5852830  12.4193720  19.8941870
  19.0847530  12.3664270  21.3219630  33.0255410   5.7109460  21.4354300
  32.7377110   6.1722150  22.2232180  33.8207580   5.2507230  21.7038520
  19.2097050  10.0859240  35.0227000  19.3188170   9.1453980  34.8822390
  18.5577610  10.3513990  34.3740730  27.2009640   8.3575130  36.4225120
  26.8806510   7.6384370  36.9670810  26.5268000   9.0330200  36.4961180
  25.2423810   9.2035580  21.3658270  25.2333910   9.9365270  20.7502780
  24.3222170   8.9567160  21.4585230  20.8430450   4.4250470  22.1105030
  20.2358400   5.1649370  22.1200330  21.3179800   4.5149830  21.2843230
  28.2283410   9.2663820  20.0283460  28.3295390   9.0627810  19.0985440
  27.3285150   9.0122100  20.2331240  26.8701520  11.7850140  24.7231130
  27.1243020  11.7471530  23.8010500  25.9214000  11.6583470  24.7159380
  32.8754100   2.7042020  26.2989640  31.9344240   2.7192250  26.4737330
  33.1898170   1.9177980  26.7449940  22.8535740   4.3861620  19.8593600
  23.6199010   4.2742980  20.4219030  22.9310430   3.6899590  19.2070370
  34.8779680   9.8750870  27.9743900  35.0027100  10.6982040  28.4467710
  35.7445240   9.6641600  27.6268050  22.3497210  11.9682080  27.6461030
  23.0859690  11.4197540  27.9169600  22.7338130  12.8338090  27.5067020
  19.2342690   8.0355650  23.5202540  18.3082470   8.2776790  23.5107950
  19.6999120   8.8629910  23.3987290  21.3555490  11.1528150  36.8346610
  22.1568220  11.4740200  37.2482010  20.8407310  10.7923730  37.5566520
  25.4599520  11.1412390  19.4686600  26.2528130  11.4301220  19.0168390
  24.9403870  10.7104560  18.7899080  30.1920120   7.2608020  36.7822020
  29.5858280   7.2839620  36.0417770  29.8874230   6.5291060  37.3189270
  31.6220490  10.9888310  35.3931430  32.5742240  10.9046330  35.3431670
  31.4748710  11.6530020  36.0665220  34.5129690  10.3682520  20.8923340
  34.2271200   9.9547660  20.0777520  34.3149240  11.2970230  20.7723860
  19.0753300   3.6401610  35.7782660  19.5792320   3.0608890  36.3498890
  18.3360720   3.9241840  36.3159030  25.9776920   6.3615800  19.3328950
  25.8727560   5.7468150  20.0590330  25.8101140   5.8381690  18.5491960
  26.1291240   5.0472600  35.3118180  25.3636910   5.6157600  35.2272850
  26.3107200   4.7548810  34.4186410  29.2179650   5.4235830  19.9370940
  28.6689750   5.8705130  20.5813680  29.8398910   4.9185080  20.4608610
  33.2714590   6.7777930  35.8693200  34.0124060   7.1153690  35.3660660
  32.5087270   6.9469990  35.3162970  21.1076380   1.7831200  36.6732730
  21.1481720   1.4845070  37.5817960  21.9621880   2.1838810  36.5140250
  24.8854770   4.3826750  21.8336240  25.3071190   4.2166620  22.6767630
  25.0105610   3.5726980  21.3391380  27.3982410   3.4064360  19.0813340
  27.9188070   2.6913380  18.7154490  28.0450810   4.0450230  19.3813850
  31.9460250   4.8292760  34.4048410  32.3601270   4.9837840  35.2538830
  31.0111250   4.9547980  34.5674190  26.7075480   4.7813240  32.3744340
  27.1263590   5.6245970  32.2020580  25.7884110   4.9185280  32.1451120
  29.0439380   2.5129420  33.7582180  29.1635590   1.9170560  34.4977020
  29.9033380   2.5499110  33.3383480  31.3827280   3.0666610  32.3344690
  30.8562500   3.5909230  31.7309830  31.7258620   3.6994000  32.9654420
  24.5582900  11.0866250  33.4902070  24.0203990  11.8112310  33.1710770
  24.8116860  10.6096590  32.6999410  27.4145110  12.3217460  33.7488720
  27.3403810  13.2252600  34.0561090  26.5123950  12.0029360  33.7210790
  27.9630440  11.4875970  21.3715080  28.8581230  11.8260940  21.3933840
  27.9948070  10.7655380  20.7439360  21.6026600   6.8603020  19.6002080
  22.0401470   7.4032690  20.2559660  22.0874330   6.0349970  19.6098420
  18.8172400   9.6492050  27.0522340  19.1475410   8.7813110  26.8200980
  19.2463400   9.8550570  27.8827300  23.4134320   7.9801060  24.7124310
  23.1129860   7.8566030  25.6128220  23.3071810   7.1209650  24.3040040
  19.3062610  10.5162640  29.7903970  18.8693600  10.6963440  30.6228120
  19.8740290  11.2737260  29.6485690  34.9424790  10.0179640  34.0781280
  34.3426780  10.0772200  33.3345200  35.0718690   9.0784620  34.2078130
  36.1826240   7.7597460  19.4150990  35.3519200   7.8274110  19.8858220
  36.3598070   8.6501580  19.1117850  35.6382700   4.5044940  21.9185190
  36.4001610   5.0741590  22.0244880  35.6537070   3.9372140  22.6893500
  19.1387040   3.0282870  26.1492850  18.4835880   2.7594510  25.5052550
  19.9764990   2.9187350  25.6994830  36.6442670   5.3595040  26.7627120
  37.0151500   4.5762360  26.3563090  37.2844600   6.0484140  26.5844420
  33.6276430   6.7431620  32.1757440  32.8136270   7.1728780  32.4383230
  34.0350630   7.3550030  31.5626490  35.6901870   4.7979310  19.0757710
  35.9650710   5.7058190  18.9476930  35.5012610   4.7341840  20.0119700
  35.5867210   2.7348300  24.0687140  35.2110810   1.9676230  23.6368430
  34.8570330   3.1171000  24.5562070  20.1762970   3.4135440  30.6896190
  20.5436010   3.3262840  31.5692210  19.6073790   2.6501990  30.5903050
  34.9766830   1.8819820  33.7026660  34.7452920   1.6532570  32.8024610
  35.2371380   2.8019370  33.6571550  33.6852480  11.4950220  25.7025710
  34.2811550  11.1734790  25.0260130  33.9430630  11.0222040  26.4938980
  21.5915050   7.9268130  35.8516340  21.5484680   7.5561040  36.7330800
  21.7226060   8.8645700  35.9918160  25.2921080   9.4827720  31.4526060
  25.0512440   9.7502280  30.5656580  26.2323720   9.6533450  31.5076920
  36.5525240  11.5022100  32.2536700  36.0583520  11.8990970  31.5363830
  35.9438530  10.8771310  32.6473980  21.4303080  10.8730380  32.9714120
  20.8363400  10.7415080  33.7104160  21.4226920  10.0368520  32.5056220
  34.2364690  12.1445520  29.5323440  33.7767660  12.8961330  29.1581460
  33.6077150  11.4251990  29.4738240  21.0615310   8.2388760  31.9222160
  20.3349370   7.6194050  31.8548110  21.1224460   8.6329370  31.0520240
  24.6660410  10.4533760  28.7071570  25.1825430   9.8421120  28.1819830
  25.3157790  10.9562540  29.1982580  27.4055910  11.3442250  29.5340550
  27.6933720  11.0896550  28.6573560  27.9179130  10.7919610  30.1246120
  19.3445310  11.5563150  25.1318920  19.1767350  10.9233830  25.8300810
  18.4779820  11.7622550  24.7813110  20.9508010  10.2496380  22.5769060
  20.4255630  10.6304410  21.8731020  20.8752590  10.8747150  23.2978770
  27.4728270  12.2658350  36.9008750  28.3995580  12.0302620  36.9444710
  27.4578700  13.0930350  36.4194780  35.7073330  11.8083920  23.8983000
  35.8825520  11.1221660  23.2543920  35.0094900  12.3330970  23.5059670
  23.5500980  12.1978760  21.4518310  24.2819800  11.9138040  20.9042200
  23.8094650  11.9592040  22.3417690  22.7115770   8.3143490  21.4564640
  22.0824650   8.7828590  22.0050470  22.8263600   7.4692710  21.8910830
  34.0405830  11.4928210  36.7249790  34.8331150  10.9977440  36.5175750
  34.3338980  12.1718350  37.3325400  28.2983530   4.1428170   9.4875110
  27.5225630   3.6628610   9.7773680  28.9496460   3.4633820   9.3131270
  22.3149360   4.4547980  10.3650870  21.4834240   4.1996690  10.7647380
  22.9230340   4.5258750  11.1008790  32.3190960   8.5488360   8.2674240
  31.8572490   7.7775600   8.5961410  33.1316510   8.5754430   8.7726690
  22.2950620   8.4888070  10.5608890  22.5978660   7.5985810  10.3819110
  23.0394210   9.0458290  10.3331140  28.5454270  10.8346370   7.8878230
  27.9265710  11.2903870   7.3172670  29.4006050  10.9897830   7.4867930
  27.7392520   6.8185360   9.4945270  27.6700800   5.8775300   9.3334400
  28.5012380   6.9086770  10.0667840  29.4117620   5.7185610   5.2810140
  28.7934890   6.1835060   4.7172860  29.9240870   6.4113090   5.6979650
  24.2749380   5.2461480  11.9593740  23.9418760   5.8730400  12.6014810
  24.4516060   5.7723360  11.1795410  23.4868480   7.2142280  13.7742920
  24.1042480   7.8893360  13.4927370  22.6261600   7.6230260  13.6830420
  18.7800820   6.4042140   2.6549770  18.4028800   6.8929240   1.9234670
  19.0373890   7.0767420   3.2856300  34.4046070   8.6781690  11.6897560
  33.7209590   9.3480800  11.6814230  34.9440360   8.8762340  10.9242420
  31.9404810  10.5225820  10.4042740  31.9531970  10.1188110   9.5365000
  31.3880030  11.2973110  10.3004170  33.2350230   7.2442040   5.4932910
  33.1246560   6.3016370   5.6182330  33.2318480   7.6057680   6.3795670
  31.3390250   5.4255660  11.7325350  31.7559040   5.2115770  10.8978810
  32.0630070   5.6828450  12.3033970  28.7770510   2.8707360   4.8495400
  27.8499790   2.8044740   5.0783870  28.9295330   3.8087490   4.7350640
  35.2852350   3.8242880  11.8241590  34.4570980   3.8935970  11.3491720
  35.8802830   4.4097190  11.3557420  32.8067800   4.4327660   5.3530650
  32.1880220   4.0947210   4.7056950  32.7892250   3.7887420   6.0609840
  24.3827150   3.3972100   7.6315130  23.9784150   2.6849350   7.1361030
  24.4690270   3.0525340   8.5203170  24.8508850   7.0839660   9.7954340
  24.5537140   6.4785130   9.1162120  25.8008670   7.1216970   9.6843700
  32.9394460  10.6571530  13.4577440  32.4625020  11.4643720  13.2650050
  32.2556250  10.0049860  13.6103650  23.9427280   6.8221350  16.4462140
  23.0455810   7.0461320  16.6935540  23.9680150   6.9456290  15.4973540
  30.9832500   3.6714470   2.3603400  31.4225780   2.8336900   2.2141220
  31.6960920   4.3043870   2.4467540  22.7698500   3.6934670  15.0219510
  22.6306270   4.5657470  15.3906910  21.8879860   3.3507480  14.8767450
  29.0927880   8.6110540   6.3284640  29.5323790   9.3534870   5.9140030
  29.0314770   8.8537110   7.2523600  24.5678850   9.6356370  17.2304660
  24.5394280  10.0399320  16.3633090  24.4043820   8.7066730  17.0676260
  21.0831780   2.2917080   5.1321780  20.9629380   3.0179170   4.5203050
  20.7732670   1.5219990   4.6549690  36.5193670  10.4183470  18.5268830
  36.9953390  10.8966360  19.2057910  37.1400830  10.3500960  17.8014330
  18.7217150   5.4632220  10.9390420  18.7997570   5.5980990   9.9946140
  19.3358830   4.7548110  11.1318540  19.9664780   7.1632410   7.3496600
  19.5592860   7.3047000   6.4950200  20.8577790   6.8792570   7.1467810
  35.9226920   7.6096320  15.6868840  36.0489980   7.3708200  14.7686020
  35.9648300   6.7780860  16.1590920  29.7843660  11.3124320  14.2563650
  30.2988330  11.2232330  15.0586080  28.9412740  11.6584020  14.5491560
  31.7598060  11.5979660   3.6847650  31.5999200  11.3082600   4.5829480
  31.5944770  10.8219790   3.1492880  24.2386440  11.3778190   5.4619270
  24.0628920  10.4613730   5.2487070  23.3842180  11.7365480   5.7017070
  31.0274120  10.7329930   6.3194140  31.4831070   9.9519310   6.6332760
  31.3666640  11.4436750   6.8635320  18.7776670   6.5046390  13.4784880
  18.9407710   6.0351750  12.6604250  19.2429120   5.9969950  14.1433720
  20.3515650   5.8797820  15.6380690  19.9670440   5.2391490  16.2363650
  20.6627840   6.5833940  16.2075420  26.5012790   2.7274360  11.1189310
  26.8682920   2.2532930  11.8650650  26.3117850   3.6015930  11.4597650
  24.2912160   1.7683000  13.4373520  23.9869230   2.6474980  13.6623880
  25.2458620   1.8282790  13.4730960  22.8193950   5.9743990   4.0340370
  22.0456210   5.4341610   3.8739090  23.5488580   5.4550600   3.6958130
  33.5781930   4.9709350   9.8266760  34.2981050   5.4664640   9.4362870
  33.3763750   4.2927240   9.1820630  28.9600730   5.0418410  15.7135760
  28.8938040   4.1214080  15.4593350  28.3305870   5.1393850  16.4280400
  22.8631350   5.6424370   7.6719180  23.3810020   4.8392630   7.6176070
  22.4115370   5.5803510   8.5136010  27.7500850   6.9090650   2.9446480
  28.0916550   7.6532880   2.4489800  26.9213560   7.2221770   3.3071310
  20.3475890   2.6085740  14.5844880  19.9890830   3.2739590  15.1718220
  20.0530450   1.7769290  14.9557500  23.5489010   3.0669980  17.4684430
  23.2489150   3.2127160  16.5712250  24.3200250   2.5075270  17.3757820
  28.8917460   7.8638980  15.4639560  28.9062000   6.9319940  15.2458470
  28.1842560   7.9498740  16.1029330  35.1028670   4.5046320  14.8108140
  34.3776860   5.0975100  14.6137530  35.6304130   4.4969860  14.0121510
  35.0541780   8.9021060   4.4620300  34.4117940   8.2476680   4.7364020
  34.6672440   9.3076150   3.6860970  30.6328260   6.2306490   8.3091990
  30.9852080   5.6334620   7.6493360  29.7490590   5.9050720   8.4800240
  26.7191540   6.9904180   5.7162400  27.4062670   7.5373390   6.0969990
  25.9323960   7.5344910   5.7512010  26.0218750   3.9950210   5.3287760
  26.4781530   4.8055460   5.5547950  25.6706960   3.6773350   6.1606250
  28.3251360   9.5056550  12.5580060  28.9693580   9.7115930  13.2353480
  28.6880800   8.7444950  12.1050910  29.5983440   7.5088900  11.2757510
  30.2405670   6.8082060  11.3889680  30.1232790   8.2887340  11.0954400
  31.3721060   8.3083800  14.4793570  31.7077300   8.8950490  15.1571490
  30.4521400   8.1776510  14.7091360  33.0255410   5.7109460   2.6610810
  32.7377110   6.1722150   3.4488690  33.8207580   5.2507230   2.9295030
  19.2097050  10.0859240  16.2483510  19.3188170   9.1453980  16.1078900
  18.5577610  10.3513990  15.5997240  27.2009640   8.3575130  17.6481630
  26.8806510   7.6384370  18.1927320  26.5268000   9.0330200  17.7217690
  25.2423810   9.2035580   2.5914780  25.2333910   9.9365270   1.9759290
  24.3222170   8.9567160   2.6841740  20.8430450   4.4250470   3.3361540
  20.2358400   5.1649370   3.3456840  21.3179800   4.5149830   2.5099740
  26.8701520  11.7850140   5.9487640  27.1243020  11.7471530   5.0267010
  25.9214000  11.6583470   5.9415890  32.8754100   2.7042020   7.5246150
  31.9344240   2.7192250   7.6993840  33.1898170   1.9177980   7.9706450
  34.8779680   9.8750870   9.2000410  35.0027100  10.6982040   9.6724220
  35.7445240   9.6641600   8.8524560  22.3497210  11.9682080   8.8717540
  23.0859690  11.4197540   9.1426110  22.7338130  12.8338090   8.7323530
  19.2342690   8.0355650   4.7459050  18.3082470   8.2776790   4.7364460
  19.6999120   8.8629910   4.6243800  21.3555490  11.1528150  18.0603120
  22.1568220  11.4740200  18.4738520  20.8407310  10.7923730  18.7823030
  30.1920120   7.2608020  18.0078530  29.5858280   7.2839620  17.2674280
  29.8874230   6.5291060  18.5445780  31.6220490  10.9888310  16.6187940
  32.5742240  10.9046330  16.5688180  31.4748710  11.6530020  17.2921730
  19.0753300   3.6401610  17.0039170  19.5792320   3.0608890  17.5755400
  18.3360720   3.9241840  17.5415540  26.1291240   5.0472600  16.5374690
  25.3636910   5.6157600  16.4529360  26.3107200   4.7548810  15.6442920
  33.2714590   6.7777930  17.0949710  34.0124060   7.1153690  16.5917170
  32.5087270   6.9469990  16.5419480  21.1076380   1.7831200  17.8989240
  21.1481720   1.4845070  18.8074470  21.9621880   2.1838810  17.7396760
  24.8854770   4.3826750   3.0592750  25.3071190   4.2166620   3.9024140
  25.0105610   3.5726980   2.5647890  31.9460250   4.8292760  15.6304920
  32.3601270   4.9837840  16.4795340  31.0111250   4.9547980  15.7930700
  26.7075480   4.7813240  13.6000850  27.1263590   5.6245970  13.4277090
  25.7884110   4.9185280  13.3707630  29.0439380   2.5129420  14.9838690
  29.1635590   1.9170560  15.7233530  29.9033380   2.5499110  14.5639990
  31.3827280   3.0666610  13.5601200  30.8562500   3.5909230  12.9566340
  31.7258620   3.6994000  14.1910930  24.5582900  11.0866250  14.7158580
  24.0203990  11.8112310  14.3967280  24.8116860  10.6096590  13.9255920
  27.4145110  12.3217460  14.9745230  27.3403810  13.2252600  15.2817600
  26.5123950  12.0029360  14.9467300  27.9630440  11.4875970   2.5971590
  28.8581230  11.8260940   2.6190350  27.9948070  10.7655380   1.9695870
  18.8172400   9.6492050   8.2778850  19.1475410   8.7813110   8.0457490
  19.2463400   9.8550570   9.1083810  23.4134320   7.9801060   5.9380820
  23.1129860   7.8566030   6.8384730  23.3071810   7.1209650   5.5296550
  19.3062610  10.5162640  11.0160480  18.8693600  10.6963440  11.8484630
  19.8740290  11.2737260  10.8742200  34.9424790  10.0179640  15.3037790
  34.3426780  10.0772200  14.5601710  35.0718690   9.0784620  15.4334640
  35.6382700   4.5044940   3.1441700  36.4001610   5.0741590   3.2501390
  35.6537070   3.9372140   3.9150010  19.1387040   3.0282870   7.3749360
  18.4835880   2.7594510   6.7309060  19.9764990   2.9187350   6.9251340
  36.6442670   5.3595040   7.9883630  37.0151500   4.5762360   7.5819600
  37.2844600   6.0484140   7.8100930  33.6276430   6.7431620  13.4013950
  32.8136270   7.1728780  13.6639740  34.0350630   7.3550030  12.7883000
  35.5867210   2.7348300   5.2943650  35.2110810   1.9676230   4.8624940
  34.8570330   3.1171000   5.7818580  20.1762970   3.4135440  11.9152700
  20.5436010   3.3262840  12.7948720  19.6073790   2.6501990  11.8159560
  34.9766830   1.8819820  14.9283170  34.7452920   1.6532570  14.0281120
  35.2371380   2.8019370  14.8828060  33.6852480  11.4950220   6.9282220
  34.2811550  11.1734790   6.2516640  33.9430630  11.0222040   7.7195490
  21.5915050   7.9268130  17.0772850  21.5484680   7.5561040  17.9587310
  21.7226060   8.8645700  17.2174670  25.2921080   9.4827720  12.6782570
  25.0512440   9.7502280  11.7913090  26.2323720   9.6533450  12.7333430
  36.5525240  11.5022100  13.4793210  36.0583520  11.8990970  12.7620340
  35.9438530  10.8771310  13.8730490  21.4303080  10.8730380  14.1970630
  20.8363400  10.7415080  14.9360670  21.4226920  10.0368520  13.7312730
  34.2364690  12.1445520  10.7579950  33.7767660  12.8961330  10.3837970
  33.6077150  11.4251990  10.6994750  21.0615310   8.2388760  13.1478670
  20.3349370   7.6194050  13.0804620  21.1224460   8.6329370  12.2776750
  24.6660410  10.4533760   9.9328080  25.1825430   9.8421120   9.4076340
  25.3157790  10.9562540  10.4239090  27.4055910  11.3442250  10.7597060
  27.6933720  11.0896550   9.8830070  27.9179130  10.7919610  11.3502630
  19.3445310  11.5563150   6.3575430  19.1767350  10.9233830   7.0557320
  18.4779820  11.7622550   6.0069620  20.9508010  10.2496380   3.8025570
  20.4255630  10.6304410   3.0987530  20.8752590  10.8747150   4.5235280
  27.4728270  12.2658350  18.1265260  28.3995580  12.0302620  18.1701220
  27.4578700  13.0930350  17.6451290  35.7073330  11.8083920   5.1239510
  35.8825520  11.1221660   4.4800430  35.0094900  12.3330970   4.7316180
  23.5500980  12.1978760   2.6774820  24.2819800  11.9138040   2.1298710
  23.8094650  11.9592040   3.5674200  22.7115770   8.3143490   2.6821150
  22.0824650   8.7828590   3.2306980  22.8263600   7.4692710   3.1167340
  34.0405830  11.4928210  17.9506300  34.8331150  10.9977440  17.7432260
  34.3338980  12.1718350  18.5581910  11.3922000  96.2366600  63.9296310
  11.3116050  95.3221210  63.6588020  10.9786420  96.7333670  63.2236020
   9.5240040  98.0145620  65.8105580   8.7482140  97.5346060  66.1004150
  10.1752970  97.3351270  65.6361740   3.5405870  98.3265430  66.6881340
   2.7090750  98.0714140  67.0877850   4.1486850  98.3976200  67.4239260
   9.9954200  93.4973190  66.0444670  10.3719020  92.6245070  65.9318340
   9.8973710  93.8331890  65.1535110   4.1259210  91.8698820  61.5062110
   4.2325960  92.7702550  61.8130870   3.2151570  91.8216790  61.2156760
  13.7778320  90.9923630  62.9773010  14.5987940  90.5020200  63.0198490
  13.8112400  91.5821290  63.7304850   5.9666940  94.8385190  65.8387290
   6.4745160  95.3366160  66.4792310   6.4980180  94.0620390  65.6626650
  18.0677870  93.0090380  69.5416640  17.3630040  93.3972090  69.0231750
  18.3335790  93.7040670  70.1437570   4.2503040  89.4783750  70.1050710
   4.2521480  89.9956140  69.2996610   3.4207350  89.0013930  70.0820640
  14.0139800  92.9324010  65.7500550  13.3095370  93.2208900  66.3303660
  14.3751960  93.7424120  65.3900110   3.9318370  91.1893710  68.1121160
   4.2735180  92.0335760  67.8175030   2.9934180  91.3377450  68.2286500
  17.0826720  92.3778800  66.1409760  16.1351630  92.4117780  66.2725190
  17.4076710  93.1917750  66.5259120   7.6146260  88.6775980  64.4365750
   7.9221240  88.1222870  63.7201250   6.6846960  88.8120440  64.2538740
  10.0027020  96.7424810  61.1725870   9.0756300  96.6762190  61.4014340
  10.1551840  97.6804940  61.0581110   9.9896100  93.0141810  58.1693030
   9.0499770  93.1755770  58.2545490  10.3079360  93.7327490  57.6229020
  16.5108860  97.6960330  68.1472060  15.6827490  97.7653420  67.6722190
  17.1059340  98.2814640  67.6787890  14.0324310  98.3045110  61.6761120
  13.4136730  97.9664660  61.0287420  14.0148760  97.6604870  62.3840310
  13.4750870  94.4829650  69.0926930  13.0622050  95.3083360  69.3466920
  12.7426820  93.8974690  68.9003290   5.6083660  97.2689550  63.9545600
   5.2040660  96.5566800  63.4591500   5.6946780  96.9242790  64.8433640
   4.3212280  94.0432760  67.7344640   4.8726870  94.1528100  66.9597890
   4.8355790  94.4170360  68.4499870  12.2089010  97.5431920  58.6833870
  12.6482290  96.7054350  58.5371690  12.9217430  98.1761320  58.7698010
   3.9955010  97.5652120  71.3449980   3.8562780  98.4374920  71.7137380
   3.1136370  97.2224930  71.1997920  15.7906150  88.7974730  56.9974910
  15.4778810  88.8901560  57.8973980  16.5518620  89.3755760  56.9472340
   2.3088290  96.1634530  61.4552250   2.1885890  96.8896620  60.8433520
   1.9989180  95.3937440  60.9780160  17.0007440  93.5346230  72.9749050
  16.3851710  94.0425900  72.4464510  16.6803860  92.6344560  72.9174990
   4.7751950  89.5069600  64.8375920   4.3320100  90.2879140  64.5060440
   5.3336940  89.8299490  65.5446860   9.0621760  92.3738120  70.4411240
   8.6001130  92.5821140  71.2531180   8.6599870  91.5597470  70.1381910
  14.0626270  93.5947070  71.5707900  13.2119860  93.2952820  71.8916970
  13.9028060  93.8389080  70.6591720   7.8910770  89.1280300  59.7181750
   7.2664950  89.1240170  60.4435060   7.8040890  88.2611260  59.3217720
   6.8127850  90.0516930  66.6965520   7.1100180  90.9579760  66.6157540
   7.3613410  89.5635710  66.0825090   4.5666170  94.6303170  62.5657170
   4.3407090  94.4140340  63.4703790   3.7858700  95.0631630  62.2203140
  11.7963930  94.6366540  61.1647820  11.1972820  95.3602340  60.9811440
  12.3443540  94.5743320  60.3824270  10.4028800  93.2730080  63.1951100
  10.7958370  93.5902280  62.3819790  10.7645650  92.3941960  63.3095620
  10.9883940  95.8635830  67.2901880  10.2565060  96.3722640  67.6391980
  10.5908280  95.0465810  66.9890660   7.4261330  92.5390030  65.6954370
   7.4297390  92.0979980  64.8458910   8.3212450  92.8607360  65.8026190
   3.2763710  92.4216520  64.6548580   2.9363760  92.8991750  65.4115630
   2.5141030  91.9681640  64.2949680   7.4881480  93.5402110  58.6861130
   7.6094300  93.4988590  59.6346950   7.1029990  94.4026260  58.5307860
  11.4509850  91.3169510  66.7024820  11.4682590  91.7678160  67.5466670
  11.2025430  90.4175150  66.9158260   6.5002980  95.8503250  58.0844430
   5.9319880  95.4021500  57.4580340   7.2091980  96.2096030  57.5509580
   7.7269300  96.5991810  67.4419780   8.0939430  96.1250380  68.1881120
   7.5374360  97.4733380  67.7828120   5.5168670  95.6400450  69.7603990
   5.2125740  96.5192430  69.9854350   6.4715130  95.7000240  69.7961430
  10.2648380  90.2364760  60.2926620   9.4512990  89.7377930  60.2171930
  10.0710330  91.0763010  59.8762970  12.9796770  94.6084410  58.5888780
  13.8676390  94.9201640  58.4140120  12.9501860  93.7356660  58.1969360
  15.2511040  95.9196250  58.0568640  15.1674760  96.3510470  57.2065080
  15.9705230  96.3794600  58.4895460   7.2475260  97.8667660  61.6518230
   7.7038040  98.6772910  61.8778420   6.8963470  97.5490800  62.4836720
   3.1487040  88.2105310  62.1240750   3.0201670  88.2023210  63.0725670
   2.3249060  88.5488400  61.7731760  11.6419750  92.4618740  69.3348900
  12.0100570  91.6413950  69.6628470  10.7817950  92.5220630  69.7504550
  15.0081780  91.4175680  60.1436460  14.3794940  91.5221350  59.4294690
  14.5133700  91.6372460  60.9330340   6.9765810  93.6961630  61.5594340
   6.2681960  94.1647970  62.0007950   7.2610290  93.0383640  62.1939530
   8.6021740  95.1158330  69.5586870   9.1006990  95.5904150  70.2238720
   8.7444690  94.1921850  69.7656900  11.0081240  90.4212290  62.9990130
  10.8849020  90.4398420  62.0499640  11.9565800  90.4691230  63.1188530
   5.1800830  92.0046710  58.9345050   6.0291360  92.4416860  58.8685240
   4.8132100  92.3166970  59.7617110  15.8088600  91.3326290  70.4015260
  15.3062200  92.0731690  70.7409070  16.6245260  91.7210290  70.0852050
  14.1010610  96.5759470  63.8476620  13.1600750  96.5909700  64.0224310
  14.4154680  95.7895430  64.2936920   4.0792250  98.2579070  57.4080580
   4.8455520  98.1460430  57.9706010   4.1566940  97.5617040  56.7557350
   2.7739010  95.6904140  58.0913470   2.8542600  94.7431650  58.2030870
   3.6658760  96.0211020  58.1974130   6.1111280  98.2544200  59.3823220
   6.5327700  98.0884070  60.2254610   6.2362120  97.4444430  58.8878360
   4.2738700  94.2340750  72.1894200   3.7435160  93.7431700  71.5617540
   4.9426770  94.6624950  71.6552130   8.6238920  97.2781810  56.6300320
   9.1444580  96.5630830  56.2641470   9.2707320  97.9167680  56.9300830
   4.7611000  91.2003120  72.2691490   4.6667870  90.5823870  71.5442360
   4.1808390  91.9269410  72.0421400   7.5272440  89.7576360  69.3018880
   7.0789740  89.7800620  68.4564430   6.8937640  89.3595380  69.8989180
  10.2695890  96.3846870  71.3069160  10.3892100  95.7888010  72.0464000
  11.1289890  96.4216560  70.8870460  12.6083790  96.9384060  69.8831670
  12.0819010  97.4626680  69.2796810  12.9515130  97.5711450  70.5141400
   5.0070180  94.3277430  56.3281380   4.8059240  93.4644790  56.6894720
   4.8362230  94.2410790  55.3902980  12.4858490  89.1385660  58.8568260
  12.7660780  88.2953560  59.2127680  11.7124220  89.3708770  59.3707010
   3.8052980  91.4278050  56.3159260   4.1078880  91.4345480  55.4078410
   4.5447570  91.0775910  56.8126920   7.0237910  90.3712670  57.3015460
   6.6759910  89.6936660  56.7217910   7.2250680  89.9102180  58.1158850
  13.3133990  91.6941610  57.9198320  13.7318870  91.5072590  57.0794980
  13.0070050  90.8420660  58.2301250  16.8123720  96.6065750  61.6174120
  16.4367320  95.8393680  61.1855410  16.0826840  96.9888450  62.1049050
  16.2023340  95.7537270  71.2513640  15.9709430  95.5250020  70.3511590
  16.4627890  96.6736820  71.2058530  16.0874680  94.8323240  64.9181360
  16.6112160  94.3385890  64.2871530  16.6734100  94.9673600  65.6628930
  16.2664400  94.9163110  68.4400910  15.3167110  94.8826650  68.5545900
  16.4477410  95.8263220  68.2050680   1.7683000  89.2204120  56.5902190
   2.4911130  89.7613060  56.9083410   2.0407520  88.9467540  55.7143730
  15.5774650  94.0896590  60.8573770  16.0733770  93.8567460  61.6422650
  15.3790720  93.2508430  60.4411410  17.0061810  92.7257540  63.3911450
  16.8961090  92.5713580  64.3293720  17.7669400  92.1978480  63.1486860
  15.3527530  88.6651670  69.8494450  15.9899750  89.2785810  70.2153640
  15.5002420  88.7012330  68.9043680  17.8952080  90.5565460  56.6317590
  18.8201390  90.4246640  56.4235880  17.8727870  90.6358280  57.5854040
  17.9690570  91.3276120  59.2574300  17.1742070  91.2621240  59.7867210
  18.1733850  92.2626760  59.2459650  12.1014610  88.0380060  68.7231130
  11.2274450  88.3715170  68.5204060  11.9925360  87.5653240  69.5483000
  13.0086590  90.2450930  70.1072850  12.6799950  89.4302690  69.7274580
  13.9568890  90.2020740  69.9838540   9.8489430  88.9549900  67.6624040
   9.0661220  89.4295400  67.9420800   9.5552360  88.0504730  67.5537220
  14.4010500  89.6573000  65.7073130  14.8418590  89.6018100  64.8594730
  14.1318090  90.5731010  65.7783310  16.2649070  89.2888240  63.7181950
  16.2037470  88.3449460  63.5712970  17.0441100  89.3968330  64.2635410
   7.7343650  91.3736650  63.1740070   6.9218160  90.9993540  62.8335950
   8.2385290  90.6181730  63.4761260  12.2368630  88.0379100  64.4123140
  12.8398000  88.6099310  64.8871660  11.4961620  88.6018540  64.1897040
  15.3803230  88.4400660  59.6863420  15.5753860  89.3384110  59.9530850
  14.5933100  88.2087740  60.1796370   3.5654990  89.7861430  58.7239730
   4.0947750  88.9991230  58.5947680   4.1983310  90.4652620  58.9575260
   5.7592830  89.5236570  61.7785120   5.1295570  88.8223880  61.9455250
   5.2197970  90.2840700  61.5618280  11.3922000  96.2366600  45.1552820
  11.3116050  95.3221210  44.8844530  10.9786420  96.7333670  44.4492530
   9.5240040  98.0145620  47.0362090   8.7482140  97.5346060  47.3260660
  10.1752970  97.3351270  46.8618250   3.5405870  98.3265430  47.9137850
   2.7090750  98.0714140  48.3134360   4.1486850  98.3976200  48.6495770
   9.9954200  93.4973190  47.2701180  10.3719020  92.6245070  47.1574850
   9.8973710  93.8331890  46.3791620   4.1259210  91.8698820  42.7318620
   4.2325960  92.7702550  43.0387380   3.2151570  91.8216790  42.4413270
  13.7778320  90.9923630  44.2029520  14.5987940  90.5020200  44.2455000
  13.8112400  91.5821290  44.9561360   5.9666940  94.8385190  47.0643800
   6.4745160  95.3366160  47.7048820   6.4980180  94.0620390  46.8883160
  18.0677870  93.0090380  50.7673150  17.3630040  93.3972090  50.2488260
  18.3335790  93.7040670  51.3694080   4.2503040  89.4783750  51.3307220
   4.2521480  89.9956140  50.5253120   3.4207350  89.0013930  51.3077150
  14.0139800  92.9324010  46.9757060  13.3095370  93.2208900  47.5560170
  14.3751960  93.7424120  46.6156620   3.9318370  91.1893710  49.3377670
   4.2735180  92.0335760  49.0431540   2.9934180  91.3377450  49.4543010
  17.0826720  92.3778800  47.3666270  16.1351630  92.4117780  47.4981700
  17.4076710  93.1917750  47.7515630   7.6146260  88.6775980  45.6622260
   7.9221240  88.1222870  44.9457760   6.6846960  88.8120440  45.4795250
  10.0027020  96.7424810  42.3982380   9.0756300  96.6762190  42.6270850
  10.1551840  97.6804940  42.2837620   9.9896100  93.0141810  39.3949540
   9.0499770  93.1755770  39.4802000  10.3079360  93.7327490  38.8485530
  16.5108860  97.6960330  49.3728570  15.6827490  97.7653420  48.8978700
  17.1059340  98.2814640  48.9044400  14.0324310  98.3045110  42.9017630
  13.4136730  97.9664660  42.2543930  14.0148760  97.6604870  43.6096820
  13.4750870  94.4829650  50.3183440  13.0622050  95.3083360  50.5723430
  12.7426820  93.8974690  50.1259800   5.6083660  97.2689550  45.1802110
   5.2040660  96.5566800  44.6848010   5.6946780  96.9242790  46.0690150
   4.3212280  94.0432760  48.9601150   4.8726870  94.1528100  48.1854400
   4.8355790  94.4170360  49.6756380  12.2089010  97.5431920  39.9090380
  12.6482290  96.7054350  39.7628200  12.9217430  98.1761320  39.9954520
   3.9955010  97.5652120  52.5706490   3.8562780  98.4374920  52.9393890
   3.1136370  97.2224930  52.4254430  15.7906150  88.7974730  38.2231420
  15.4778810  88.8901560  39.1230490  16.5518620  89.3755760  38.1728850
   2.3088290  96.1634530  42.6808760   2.1885890  96.8896620  42.0690030
   1.9989180  95.3937440  42.2036670  17.0007440  93.5346230  54.2005560
  16.3851710  94.0425900  53.6721020  16.6803860  92.6344560  54.1431500
   4.7751950  89.5069600  46.0632430   4.3320100  90.2879140  45.7316950
   5.3336940  89.8299490  46.7703370   9.0621760  92.3738120  51.6667750
   8.6001130  92.5821140  52.4787690   8.6599870  91.5597470  51.3638420
  14.0626270  93.5947070  52.7964410  13.2119860  93.2952820  53.1173480
  13.9028060  93.8389080  51.8848230  11.1575980  95.0948820  54.8963200
  11.4829390  94.2612570  54.5565430  11.9456310  95.6177340  55.0441530
   7.8910770  89.1280300  40.9438260   7.2664950  89.1240170  41.6691570
   7.8040890  88.2611260  40.5474230   6.8127850  90.0516930  47.9222030
   7.1100180  90.9579760  47.8414050   7.3613410  89.5635710  47.3081600
   4.5666170  94.6303170  43.7913680   4.3407090  94.4140340  44.6960300
   3.7858700  95.0631630  43.4459650  11.7963930  94.6366540  42.3904330
  11.1972820  95.3602340  42.2067950  12.3443540  94.5743320  41.6080780
   7.0065380  95.5288750  54.4573950   6.9108980  94.5883480  54.3074350
   7.8497360  95.7503820  54.0622020  10.4028800  93.2730080  44.4207610
  10.7958370  93.5902280  43.6076300  10.7645650  92.3941960  44.5352130
   8.7120970  92.0237390  55.6804470   8.0219290  91.8309590  56.3150560
   9.4553270  92.3072030  56.2128770  10.9883940  95.8635830  48.5158390
  10.2565060  96.3722640  48.8648490  10.5908280  95.0465810  48.2147170
   7.4261330  92.5390030  46.9210880   7.4297390  92.0979980  46.0715420
   8.3212450  92.8607360  47.0282700   3.2763710  92.4216520  45.8805090
   2.9363760  92.8991750  46.6372140   2.5141030  91.9681640  45.5206190
   7.4881480  93.5402110  39.9117640   7.6094300  93.4988590  40.8603460
   7.1029990  94.4026260  39.7564370  11.4509850  91.3169510  47.9281330
  11.4682590  91.7678160  48.7723180  11.2025430  90.4175150  48.1414770
   6.5002980  95.8503250  39.3100940   5.9319880  95.4021500  38.6836850
   7.2091980  96.2096030  38.7766090  14.8780600  88.7301690  53.7667710
  15.2026370  87.9991350  54.2925690  14.9137110  88.4115330  52.8648700
   7.7269300  96.5991810  48.6676290   8.0939430  96.1250380  49.4137630
   7.5374360  97.4733380  49.0084630   5.5168670  95.6400450  50.9860500
   5.2125740  96.5192430  51.2110860   6.4715130  95.7000240  51.0217940
  10.2648380  90.2364760  41.5183130   9.4512990  89.7377930  41.4428440
  10.0710330  91.0763010  41.1019480  12.9796770  94.6084410  39.8145290
  13.8676390  94.9201640  39.6396630  12.9501860  93.7356660  39.4225870
   4.7745520  96.9387430  55.0171410   4.4745660  97.0844610  54.1199230
   5.5456760  96.3792720  54.9244800  15.2511040  95.9196250  39.2825150
  15.1674760  96.3510470  38.4321590  15.9705230  96.3794600  39.7151970
   7.2475260  97.8667660  42.8774740   7.7038040  98.6772910  43.1034930
   6.8963470  97.5490800  43.7093230   3.1487040  88.2105310  43.3497260
   3.0201670  88.2023210  44.2982180   2.3249060  88.5488400  42.9988270
  11.6419750  92.4618740  50.5605410  12.0100570  91.6413950  50.8884980
  10.7817950  92.5220630  50.9761060  15.0081780  91.4175680  41.3692970
  14.3794940  91.5221350  40.6551200  14.5133700  91.6372460  42.1586850
   6.9765810  93.6961630  42.7850850   6.2681960  94.1647970  43.2264460
   7.2610290  93.0383640  43.4196040   8.6021740  95.1158330  50.7843380
   9.1006990  95.5904150  51.4495230   8.7444690  94.1921850  50.9913410
  11.0081240  90.4212290  44.2246640  10.8849020  90.4398420  43.2756150
  11.9565800  90.4691230  44.3445040   5.1800830  92.0046710  40.1601560
   6.0291360  92.4416860  40.0941750   4.8132100  92.3166970  40.9873620
  15.8088600  91.3326290  51.6271770  15.3062200  92.0731690  51.9665580
  16.6245260  91.7210290  51.3108560  14.1010610  96.5759470  45.0733130
  13.1600750  96.5909700  45.2480820  14.4154680  95.7895430  45.5193430
   4.0792250  98.2579070  38.6337090   4.8455520  98.1460430  39.1962520
   4.1566940  97.5617040  37.9813860   2.7739010  95.6904140  39.3169980
   2.8542600  94.7431650  39.4287380   3.6658760  96.0211020  39.4230640
   2.3332890  95.6548650  55.4476220   2.3738230  95.3562520  56.3561450
   3.1878390  96.0556260  55.2883740   6.1111280  98.2544200  40.6079730
   6.5327700  98.0884070  41.4511120   6.2362120  97.4444430  40.1134870
   4.2738700  94.2340750  53.4150710   3.7435160  93.7431700  52.7874050
   4.9426770  94.6624950  52.8808640   8.6238920  97.2781810  37.8556830
   9.1444580  96.5630830  37.4897980   9.2707320  97.9167680  38.1557340
  13.6438930  96.0406370  55.1831050  14.2259700  95.2858690  55.0951530
  13.8200700  96.5713810  54.4062530   4.7611000  91.2003120  53.4948000
   4.6667870  90.5823870  52.7698870   4.1808390  91.9269410  53.2677910
   7.5272440  89.7576360  50.5275390   7.0789740  89.7800620  49.6820940
   6.8937640  89.3595380  51.1245690  10.2695890  96.3846870  52.5325670
  10.3892100  95.7888010  53.2720510  11.1289890  96.4216560  52.1126970
  12.6083790  96.9384060  51.1088180  12.0819010  97.4626680  50.5053320
  12.9515130  97.5711450  51.7397910   5.0070180  94.3277430  37.5537890
   4.8059240  93.4644790  37.9151230   4.8362230  94.2410790  36.6159490
   7.0364660  92.9268220  53.7901490   7.6264350  92.6184070  54.4779310
   6.2184900  92.4547970  53.9461390  11.8558090  92.5434030  54.0234510
  11.1673610  91.8815570  53.9584500  12.5764110  92.0972300  54.4682970
  12.4858490  89.1385660  40.0824770  12.7660780  88.2953560  40.4384190
  11.7124220  89.3708770  40.5963520   3.8052980  91.4278050  37.5415770
   4.1078880  91.4345480  36.6334920   4.5447570  91.0775910  38.0383430
   7.0237910  90.3712670  38.5271970   6.6759910  89.6936660  37.9474420
   7.2250680  89.9102180  39.3415360  13.3133990  91.6941610  39.1454830
  13.7318870  91.5072590  38.3051490  13.0070050  90.8420660  39.4557760
  16.8123720  96.6065750  42.8430630  16.4367320  95.8393680  42.4111920
  16.0826840  96.9888450  43.3305560  16.2023340  95.7537270  52.4770150
  15.9709430  95.5250020  51.5768100  16.4627890  96.6736820  52.4315040
  14.6411410  90.9793700  55.2549850  15.5181590  90.9877100  55.6383850
  14.6532250  90.2424540  54.6442200  16.0874680  94.8323240  46.1437870
  16.6112160  94.3385890  45.5128040  16.6734100  94.9673600  46.8885440
  16.2664400  94.9163110  49.6657420  15.3167110  94.8826650  49.7802410
  16.4477410  95.8263220  49.4307190   1.7683000  89.2204120  37.8158700
   2.4911130  89.7613060  38.1339920   2.0407520  88.9467540  36.9400240
  15.5774650  94.0896590  42.0830280  16.0733770  93.8567460  42.8679160
  15.3790720  93.2508430  41.6667920  17.0061810  92.7257540  44.6167960
  16.8961090  92.5713580  45.5550230  17.7669400  92.1978480  44.3743370
  15.3527530  88.6651670  51.0750960  15.9899750  89.2785810  51.4410150
  15.5002420  88.7012330  50.1300190  17.8952080  90.5565460  37.8574100
  18.8201390  90.4246640  37.6492390  17.8727870  90.6358280  38.8110550
  17.9690570  91.3276120  40.4830810  17.1742070  91.2621240  41.0123720
  18.1733850  92.2626760  40.4716160   8.7232010  89.8177860  53.9826060
   8.6620900  90.4099690  54.7321470   9.6632390  89.7103820  53.8376320
  11.3606570  89.4747920  53.6218350  11.9746980  89.7927210  52.9599430
  11.9056130  88.9896510  54.2414210   1.8827830  88.1542180  53.7357410
   2.4310820  87.9730230  52.9723520   1.9483140  87.3636290  54.2713720
  12.1014610  88.0380060  49.9487640  11.2274450  88.3715170  49.7460570
  11.9925360  87.5653240  50.7739510  13.0086590  90.2450930  51.3329360
  12.6799950  89.4302690  50.9531090  13.9568890  90.2020740  51.2095050
   9.8489430  88.9549900  48.8880550   9.0661220  89.4295400  49.1677310
   9.5552360  88.0504730  48.7793730  14.4010500  89.6573000  46.9329640
  14.8418590  89.6018100  46.0851240  14.1318090  90.5731010  47.0039820
  16.2649070  89.2888240  44.9438460  16.2037470  88.3449460  44.7969480
  17.0441100  89.3968330  45.4891920   7.7343650  91.3736650  44.3996580
   6.9218160  90.9993540  44.0592460   8.2385290  90.6181730  44.7017770
  12.2368630  88.0379100  45.6379650  12.8398000  88.6099310  46.1128170
  11.4961620  88.6018540  45.4153550  15.3803230  88.4400660  40.9119930
  15.5753860  89.3384110  41.1787360  14.5933100  88.2087740  41.4052880
   3.5654990  89.7861430  39.9496240   4.0947750  88.9991230  39.8204190
   4.1983310  90.4652620  40.1831770   5.7592830  89.5236570  43.0041630
   5.1295570  88.8223880  43.1711760   5.2197970  90.2840700  42.7874790
   5.8848390  88.8020550  55.4394120   5.6032660  89.3054150  54.6754940
   6.2668090  88.0042300  55.0736250  12.4863850  88.2174130  56.0174590
  12.3729300  88.5368740  56.9126110  13.3033590  88.6186640  55.7211870
  11.3922000  96.2366600  26.3809330  11.3116050  95.3221210  26.1101040
  10.9786420  96.7333670  25.6749040   9.5240040  98.0145620  28.2618600
   8.7482140  97.5346060  28.5517170  10.1752970  97.3351270  28.0874760
   3.5405870  98.3265430  29.1394360   2.7090750  98.0714140  29.5390870
   4.1486850  98.3976200  29.8752280   9.9954200  93.4973190  28.4957690
  10.3719020  92.6245070  28.3831360   9.8973710  93.8331890  27.6048130
   4.1259210  91.8698820  23.9575130   4.2325960  92.7702550  24.2643890
   3.2151570  91.8216790  23.6669780  13.7778320  90.9923630  25.4286030
  14.5987940  90.5020200  25.4711510  13.8112400  91.5821290  26.1817870
   5.9666940  94.8385190  28.2900310   6.4745160  95.3366160  28.9305330
   6.4980180  94.0620390  28.1139670  18.0677870  93.0090380  31.9929660
  17.3630040  93.3972090  31.4744770  18.3335790  93.7040670  32.5950590
   4.2503040  89.4783750  32.5563730   4.2521480  89.9956140  31.7509630
   3.4207350  89.0013930  32.5333660  14.0139800  92.9324010  28.2013570
  13.3095370  93.2208900  28.7816680  14.3751960  93.7424120  27.8413130
   3.9318370  91.1893710  30.5634180   4.2735180  92.0335760  30.2688050
   2.9934180  91.3377450  30.6799520  17.0826720  92.3778800  28.5922780
  16.1351630  92.4117780  28.7238210  17.4076710  93.1917750  28.9772140
   7.6146260  88.6775980  26.8878770   7.9221240  88.1222870  26.1714270
   6.6846960  88.8120440  26.7051760  10.0027020  96.7424810  23.6238890
   9.0756300  96.6762190  23.8527360  10.1551840  97.6804940  23.5094130
   9.9896100  93.0141810  20.6206050   9.0499770  93.1755770  20.7058510
  10.3079360  93.7327490  20.0742040  16.5108860  97.6960330  30.5985080
  15.6827490  97.7653420  30.1235210  17.1059340  98.2814640  30.1300910
  14.0324310  98.3045110  24.1274140  13.4136730  97.9664660  23.4800440
  14.0148760  97.6604870  24.8353330  13.4750870  94.4829650  31.5439950
  13.0622050  95.3083360  31.7979940  12.7426820  93.8974690  31.3516310
   5.6083660  97.2689550  26.4058620   5.2040660  96.5566800  25.9104520
   5.6946780  96.9242790  27.2946660   4.3212280  94.0432760  30.1857660
   4.8726870  94.1528100  29.4110910   4.8355790  94.4170360  30.9012890
  12.2089010  97.5431920  21.1346890  12.6482290  96.7054350  20.9884710
  12.9217430  98.1761320  21.2211030   3.9955010  97.5652120  33.7963000
   3.8562780  98.4374920  34.1650400   3.1136370  97.2224930  33.6510940
  15.7906150  88.7974730  19.4487930  15.4778810  88.8901560  20.3487000
  16.5518620  89.3755760  19.3985360   2.3088290  96.1634530  23.9065270
   2.1885890  96.8896620  23.2946540   1.9989180  95.3937440  23.4293180
  17.0007440  93.5346230  35.4262070  16.3851710  94.0425900  34.8977530
  16.6803860  92.6344560  35.3688010   4.7751950  89.5069600  27.2888940
   4.3320100  90.2879140  26.9573460   5.3336940  89.8299490  27.9959880
   9.0621760  92.3738120  32.8924260   8.6001130  92.5821140  33.7044200
   8.6599870  91.5597470  32.5894930  14.0626270  93.5947070  34.0220920
  13.2119860  93.2952820  34.3429990  13.9028060  93.8389080  33.1104740
  11.1575980  95.0948820  36.1219710  11.4829390  94.2612570  35.7821940
  11.9456310  95.6177340  36.2698040   7.8910770  89.1280300  22.1694770
   7.2664950  89.1240170  22.8948080   7.8040890  88.2611260  21.7730740
   6.8127850  90.0516930  29.1478540   7.1100180  90.9579760  29.0670560
   7.3613410  89.5635710  28.5338110   4.5666170  94.6303170  25.0170190
   4.3407090  94.4140340  25.9216810   3.7858700  95.0631630  24.6716160
  11.7963930  94.6366540  23.6160840  11.1972820  95.3602340  23.4324460
  12.3443540  94.5743320  22.8337290   7.0065380  95.5288750  35.6830460
   6.9108980  94.5883480  35.5330860   7.8497360  95.7503820  35.2878530
  10.4028800  93.2730080  25.6464120  10.7958370  93.5902280  24.8332810
  10.7645650  92.3941960  25.7608640   8.7120970  92.0237390  36.9060980
   8.0219290  91.8309590  37.5407070   9.4553270  92.3072030  37.4385280
  10.9883940  95.8635830  29.7414900  10.2565060  96.3722640  30.0905000
  10.5908280  95.0465810  29.4403680   7.4261330  92.5390030  28.1467390
   7.4297390  92.0979980  27.2971930   8.3212450  92.8607360  28.2539210
   3.2763710  92.4216520  27.1061600   2.9363760  92.8991750  27.8628650
   2.5141030  91.9681640  26.7462700   7.4881480  93.5402110  21.1374150
   7.6094300  93.4988590  22.0859970   7.1029990  94.4026260  20.9820880
  11.4509850  91.3169510  29.1537840  11.4682590  91.7678160  29.9979690
  11.2025430  90.4175150  29.3671280   6.5002980  95.8503250  20.5357450
   5.9319880  95.4021500  19.9093360   7.2091980  96.2096030  20.0022600
  14.8780600  88.7301690  34.9924220  15.2026370  87.9991350  35.5182200
  14.9137110  88.4115330  34.0905210   7.7269300  96.5991810  29.8932800
   8.0939430  96.1250380  30.6394140   7.5374360  97.4733380  30.2341140
   5.5168670  95.6400450  32.2117010   5.2125740  96.5192430  32.4367370
   6.4715130  95.7000240  32.2474450  10.2648380  90.2364760  22.7439640
   9.4512990  89.7377930  22.6684950  10.0710330  91.0763010  22.3275990
  12.9796770  94.6084410  21.0401800  13.8676390  94.9201640  20.8653140
  12.9501860  93.7356660  20.6482380   4.7745520  96.9387430  36.2427920
   4.4745660  97.0844610  35.3455740   5.5456760  96.3792720  36.1501310
  15.2511040  95.9196250  20.5081660  15.1674760  96.3510470  19.6578100
  15.9705230  96.3794600  20.9408480   7.2475260  97.8667660  24.1031250
   7.7038040  98.6772910  24.3291440   6.8963470  97.5490800  24.9349740
   3.1487040  88.2105310  24.5753770   3.0201670  88.2023210  25.5238690
   2.3249060  88.5488400  24.2244780  11.6419750  92.4618740  31.7861920
  12.0100570  91.6413950  32.1141490  10.7817950  92.5220630  32.2017570
  15.0081780  91.4175680  22.5949480  14.3794940  91.5221350  21.8807710
  14.5133700  91.6372460  23.3843360   6.9765810  93.6961630  24.0107360
   6.2681960  94.1647970  24.4520970   7.2610290  93.0383640  24.6452550
   8.6021740  95.1158330  32.0099890   9.1006990  95.5904150  32.6751740
   8.7444690  94.1921850  32.2169920  11.0081240  90.4212290  25.4503150
  10.8849020  90.4398420  24.5012660  11.9565800  90.4691230  25.5701550
   5.1800830  92.0046710  21.3858070   6.0291360  92.4416860  21.3198260
   4.8132100  92.3166970  22.2130130  15.8088600  91.3326290  32.8528280
  15.3062200  92.0731690  33.1922090  16.6245260  91.7210290  32.5365070
  14.1010610  96.5759470  26.2989640  13.1600750  96.5909700  26.4737330
  14.4154680  95.7895430  26.7449940   4.0792250  98.2579070  19.8593600
   4.8455520  98.1460430  20.4219030   4.1566940  97.5617040  19.2070370
   2.7739010  95.6904140  20.5426490   2.8542600  94.7431650  20.6543890
   3.6658760  96.0211020  20.6487150   2.3332890  95.6548650  36.6732730
   2.3738230  95.3562520  37.5817960   3.1878390  96.0556260  36.5140250
   6.1111280  98.2544200  21.8336240   6.5327700  98.0884070  22.6767630
   6.2362120  97.4444430  21.3391380   4.2738700  94.2340750  34.6407220
   3.7435160  93.7431700  34.0130560   4.9426770  94.6624950  34.1065150
   8.6238920  97.2781810  19.0813340   9.1444580  96.5630830  18.7154490
   9.2707320  97.9167680  19.3813850  13.6438930  96.0406370  36.4087560
  14.2259700  95.2858690  36.3208040  13.8200700  96.5713810  35.6319040
   4.7611000  91.2003120  34.7204510   4.6667870  90.5823870  33.9955380
   4.1808390  91.9269410  34.4934420   7.5272440  89.7576360  31.7531900
   7.0789740  89.7800620  30.9077450   6.8937640  89.3595380  32.3502200
  10.2695890  96.3846870  33.7582180  10.3892100  95.7888010  34.4977020
  11.1289890  96.4216560  33.3383480  12.6083790  96.9384060  32.3344690
  12.0819010  97.4626680  31.7309830  12.9515130  97.5711450  32.9654420
   5.0070180  94.3277430  18.7794400   4.8059240  93.4644790  19.1407740
   4.8362230  94.2410790  17.8416000   7.0364660  92.9268220  35.0158000
   7.6264350  92.6184070  35.7035820   6.2184900  92.4547970  35.1717900
  11.8558090  92.5434030  35.2491020  11.1673610  91.8815570  35.1841010
  12.5764110  92.0972300  35.6939480  12.4858490  89.1385660  21.3081280
  12.7660780  88.2953560  21.6640700  11.7124220  89.3708770  21.8220030
   3.8052980  91.4278050  18.7672280   4.1078880  91.4345480  17.8591430
   4.5447570  91.0775910  19.2639940   7.0237910  90.3712670  19.7528480
   6.6759910  89.6936660  19.1730930   7.2250680  89.9102180  20.5671870
  13.3133990  91.6941610  20.3711340  13.7318870  91.5072590  19.5308000
  13.0070050  90.8420660  20.6814270  16.8123720  96.6065750  24.0687140
  16.4367320  95.8393680  23.6368430  16.0826840  96.9888450  24.5562070
  16.2023340  95.7537270  33.7026660  15.9709430  95.5250020  32.8024610
  16.4627890  96.6736820  33.6571550  14.6411410  90.9793700  36.4806360
  15.5181590  90.9877100  36.8640360  14.6532250  90.2424540  35.8698710
  16.0874680  94.8323240  27.3694380  16.6112160  94.3385890  26.7384550
  16.6734100  94.9673600  28.1141950  16.2664400  94.9163110  30.8913930
  15.3167110  94.8826650  31.0058920  16.4477410  95.8263220  30.6563700
   1.7683000  89.2204120  19.0415210   2.4911130  89.7613060  19.3596430
   2.0407520  88.9467540  18.1656750  15.5774650  94.0896590  23.3086790
  16.0733770  93.8567460  24.0935670  15.3790720  93.2508430  22.8924430
  17.0061810  92.7257540  25.8424470  16.8961090  92.5713580  26.7806740
  17.7669400  92.1978480  25.5999880  15.3527530  88.6651670  32.3007470
  15.9899750  89.2785810  32.6666660  15.5002420  88.7012330  31.3556700
  17.8952080  90.5565460  19.0830610  18.8201390  90.4246640  18.8748900
  17.8727870  90.6358280  20.0367060  17.9690570  91.3276120  21.7087320
  17.1742070  91.2621240  22.2380230  18.1733850  92.2626760  21.6972670
   8.7232010  89.8177860  35.2082570   8.6620900  90.4099690  35.9577980
   9.6632390  89.7103820  35.0632830  11.3606570  89.4747920  34.8474860
  11.9746980  89.7927210  34.1855940  11.9056130  88.9896510  35.4670720
   1.8827830  88.1542180  34.9613920   2.4310820  87.9730230  34.1980030
   1.9483140  87.3636290  35.4970230  12.1014610  88.0380060  31.1744150
  11.2274450  88.3715170  30.9717080  11.9925360  87.5653240  31.9996020
  13.0086590  90.2450930  32.5585870  12.6799950  89.4302690  32.1787600
  13.9568890  90.2020740  32.4351560   9.8489430  88.9549900  30.1137060
   9.0661220  89.4295400  30.3933820   9.5552360  88.0504730  30.0050240
  14.4010500  89.6573000  28.1586150  14.8418590  89.6018100  27.3107750
  14.1318090  90.5731010  28.2296330  16.2649070  89.2888240  26.1694970
  16.2037470  88.3449460  26.0225990  17.0441100  89.3968330  26.7148430
   7.7343650  91.3736650  25.6253090   6.9218160  90.9993540  25.2848970
   8.2385290  90.6181730  25.9274280  12.2368630  88.0379100  26.8636160
  12.8398000  88.6099310  27.3384680  11.4961620  88.6018540  26.6410060
  15.3803230  88.4400660  22.1376440  15.5753860  89.3384110  22.4043870
  14.5933100  88.2087740  22.6309390   3.5654990  89.7861430  21.1752750
   4.0947750  88.9991230  21.0460700   4.1983310  90.4652620  21.4088280
   5.7592830  89.5236570  24.2298140   5.1295570  88.8223880  24.3968270
   5.2197970  90.2840700  24.0131300   5.8848390  88.8020550  36.6650630
   5.6032660  89.3054150  35.9011450   6.2668090  88.0042300  36.2992760
  12.4863850  88.2174130  37.2431100  12.3729300  88.5368740  38.1382620
  13.3033590  88.6186640  36.9468380  11.3922000  96.2366600   7.6065840
  11.3116050  95.3221210   7.3357550  10.9786420  96.7333670   6.9005550
   9.5240040  98.0145620   9.4875110   8.7482140  97.5346060   9.7773680
  10.1752970  97.3351270   9.3131270   3.5405870  98.3265430  10.3650870
   2.7090750  98.0714140  10.7647380   4.1486850  98.3976200  11.1008790
   9.9954200  93.4973190   9.7214200  10.3719020  92.6245070   9.6087870
   9.8973710  93.8331890   8.8304640   4.1259210  91.8698820   5.1831640
   4.2325960  92.7702550   5.4900400   3.2151570  91.8216790   4.8926290
  13.7778320  90.9923630   6.6542540  14.5987940  90.5020200   6.6968020
  13.8112400  91.5821290   7.4074380   5.9666940  94.8385190   9.5156820
   6.4745160  95.3366160  10.1561840   6.4980180  94.0620390   9.3396180
  18.0677870  93.0090380  13.2186170  17.3630040  93.3972090  12.7001280
  18.3335790  93.7040670  13.8207100   4.2503040  89.4783750  13.7820240
   4.2521480  89.9956140  12.9766140   3.4207350  89.0013930  13.7590170
  14.0139800  92.9324010   9.4270080  13.3095370  93.2208900  10.0073190
  14.3751960  93.7424120   9.0669640   3.9318370  91.1893710  11.7890690
   4.2735180  92.0335760  11.4944560   2.9934180  91.3377450  11.9056030
  17.0826720  92.3778800   9.8179290  16.1351630  92.4117780   9.9494720
  17.4076710  93.1917750  10.2028650   7.6146260  88.6775980   8.1135280
   7.9221240  88.1222870   7.3970780   6.6846960  88.8120440   7.9308270
  10.0027020  96.7424810   4.8495400   9.0756300  96.6762190   5.0783870
  10.1551840  97.6804940   4.7350640  16.5108860  97.6960330  11.8241590
  15.6827490  97.7653420  11.3491720  17.1059340  98.2814640  11.3557420
  14.0324310  98.3045110   5.3530650  13.4136730  97.9664660   4.7056950
  14.0148760  97.6604870   6.0609840  13.4750870  94.4829650  12.7696460
  13.0622050  95.3083360  13.0236450  12.7426820  93.8974690  12.5772820
   5.6083660  97.2689550   7.6315130   5.2040660  96.5566800   7.1361030
   5.6946780  96.9242790   8.5203170   4.3212280  94.0432760  11.4114170
   4.8726870  94.1528100  10.6367420   4.8355790  94.4170360  12.1269400
  12.2089010  97.5431920   2.3603400  12.6482290  96.7054350   2.2141220
  12.9217430  98.1761320   2.4467540   3.9955010  97.5652120  15.0219510
   3.8562780  98.4374920  15.3906910   3.1136370  97.2224930  14.8767450
   2.3088290  96.1634530   5.1321780   2.1885890  96.8896620   4.5203050
   1.9989180  95.3937440   4.6549690  17.0007440  93.5346230  16.6518580
  16.3851710  94.0425900  16.1234040  16.6803860  92.6344560  16.5944520
   4.7751950  89.5069600   8.5145450   4.3320100  90.2879140   8.1829970
   5.3336940  89.8299490   9.2216390   9.0621760  92.3738120  14.1180770
   8.6001130  92.5821140  14.9300710   8.6599870  91.5597470  13.8151440
  14.0626270  93.5947070  15.2477430  13.2119860  93.2952820  15.5686500
  13.9028060  93.8389080  14.3361250  11.1575980  95.0948820  17.3476220
  11.4829390  94.2612570  17.0078450  11.9456310  95.6177340  17.4954550
   7.8910770  89.1280300   3.3951280   7.2664950  89.1240170   4.1204590
   7.8040890  88.2611260   2.9987250   6.8127850  90.0516930  10.3735050
   7.1100180  90.9579760  10.2927070   7.3613410  89.5635710   9.7594620
   4.5666170  94.6303170   6.2426700   4.3407090  94.4140340   7.1473320
   3.7858700  95.0631630   5.8972670  11.7963930  94.6366540   4.8417350
  11.1972820  95.3602340   4.6580970  12.3443540  94.5743320   4.0593800
   7.0065380  95.5288750  16.9086970   6.9108980  94.5883480  16.7587370
   7.8497360  95.7503820  16.5135040  10.4028800  93.2730080   6.8720630
  10.7958370  93.5902280   6.0589320  10.7645650  92.3941960   6.9865150
   8.7120970  92.0237390  18.1317490   8.0219290  91.8309590  18.7663580
   9.4553270  92.3072030  18.6641790  10.9883940  95.8635830  10.9671410
  10.2565060  96.3722640  11.3161510  10.5908280  95.0465810  10.6660190
   7.4261330  92.5390030   9.3723900   7.4297390  92.0979980   8.5228440
   8.3212450  92.8607360   9.4795720   3.2763710  92.4216520   8.3318110
   2.9363760  92.8991750   9.0885160   2.5141030  91.9681640   7.9719210
   7.4881480  93.5402110   2.3630660   7.6094300  93.4988590   3.3116480
   7.1029990  94.4026260   2.2077390  11.4509850  91.3169510  10.3794350
  11.4682590  91.7678160  11.2236200  11.2025430  90.4175150  10.5927790
  14.8780600  88.7301690  16.2180730  15.2026370  87.9991350  16.7438710
  14.9137110  88.4115330  15.3161720   7.7269300  96.5991810  11.1189310
   8.0939430  96.1250380  11.8650650   7.5374360  97.4733380  11.4597650
   5.5168670  95.6400450  13.4373520   5.2125740  96.5192430  13.6623880
   6.4715130  95.7000240  13.4730960  10.2648380  90.2364760   3.9696150
   9.4512990  89.7377930   3.8941460  10.0710330  91.0763010   3.5532500
  12.9796770  94.6084410   2.2658310  13.8676390  94.9201640   2.0909650
  12.9501860  93.7356660   1.8738890   4.7745520  96.9387430  17.4684430
   4.4745660  97.0844610  16.5712250   5.5456760  96.3792720  17.3757820
   7.2475260  97.8667660   5.3287760   7.7038040  98.6772910   5.5547950
   6.8963470  97.5490800   6.1606250   3.1487040  88.2105310   5.8010280
   3.0201670  88.2023210   6.7495200   2.3249060  88.5488400   5.4501290
  11.6419750  92.4618740  13.0118430  12.0100570  91.6413950  13.3398000
  10.7817950  92.5220630  13.4274080  15.0081780  91.4175680   3.8205990
  14.3794940  91.5221350   3.1064220  14.5133700  91.6372460   4.6099870
   6.9765810  93.6961630   5.2363870   6.2681960  94.1647970   5.6777480
   7.2610290  93.0383640   5.8709060   8.6021740  95.1158330  13.2356400
   9.1006990  95.5904150  13.9008250   8.7444690  94.1921850  13.4426430
  11.0081240  90.4212290   6.6759660  10.8849020  90.4398420   5.7269170
  11.9565800  90.4691230   6.7958060   5.1800830  92.0046710   2.6114580
   6.0291360  92.4416860   2.5454770   4.8132100  92.3166970   3.4386640
  15.8088600  91.3326290  14.0784790  15.3062200  92.0731690  14.4178600
  16.6245260  91.7210290  13.7621580  14.1010610  96.5759470   7.5246150
  13.1600750  96.5909700   7.6993840  14.4154680  95.7895430   7.9706450
   2.7739010  95.6904140   1.7683000   2.8542600  94.7431650   1.8800400
   3.6658760  96.0211020   1.8743660   2.3332890  95.6548650  17.8989240
   2.3738230  95.3562520  18.8074470   3.1878390  96.0556260  17.7396760
   6.1111280  98.2544200   3.0592750   6.5327700  98.0884070   3.9024140
   6.2362120  97.4444430   2.5647890   4.2738700  94.2340750  15.8663730
   3.7435160  93.7431700  15.2387070   4.9426770  94.6624950  15.3321660
  13.6438930  96.0406370  17.6344070  14.2259700  95.2858690  17.5464550
  13.8200700  96.5713810  16.8575550   4.7611000  91.2003120  15.9461020
   4.6667870  90.5823870  15.2211890   4.1808390  91.9269410  15.7190930
   7.5272440  89.7576360  12.9788410   7.0789740  89.7800620  12.1333960
   6.8937640  89.3595380  13.5758710  10.2695890  96.3846870  14.9838690
  10.3892100  95.7888010  15.7233530  11.1289890  96.4216560  14.5639990
  12.6083790  96.9384060  13.5601200  12.0819010  97.4626680  12.9566340
  12.9515130  97.5711450  14.1910930   7.0364660  92.9268220  16.2414510
   7.6264350  92.6184070  16.9292330   6.2184900  92.4547970  16.3974410
  11.8558090  92.5434030  16.4747530  11.1673610  91.8815570  16.4097520
  12.5764110  92.0972300  16.9195990  12.4858490  89.1385660   2.5337790
  12.7660780  88.2953560   2.8897210  11.7124220  89.3708770   3.0476540
  16.8123720  96.6065750   5.2943650  16.4367320  95.8393680   4.8624940
  16.0826840  96.9888450   5.7818580  16.2023340  95.7537270  14.9283170
  15.9709430  95.5250020  14.0281120  16.4627890  96.6736820  14.8828060
  14.6411410  90.9793700  17.7062870  15.5181590  90.9877100  18.0896870
  14.6532250  90.2424540  17.0955220  16.0874680  94.8323240   8.5950890
  16.6112160  94.3385890   7.9641060  16.6734100  94.9673600   9.3398460
  16.2664400  94.9163110  12.1170440  15.3167110  94.8826650  12.2315430
  16.4477410  95.8263220  11.8820210  15.5774650  94.0896590   4.5343300
  16.0733770  93.8567460   5.3192180  15.3790720  93.2508430   4.1180940
  17.0061810  92.7257540   7.0680980  16.8961090  92.5713580   8.0063250
  17.7669400  92.1978480   6.8256390  15.3527530  88.6651670  13.5263980
  15.9899750  89.2785810  13.8923170  15.5002420  88.7012330  12.5813210
  17.9690570  91.3276120   2.9343830  17.1742070  91.2621240   3.4636740
  18.1733850  92.2626760   2.9229180   8.7232010  89.8177860  16.4339080
   8.6620900  90.4099690  17.1834490   9.6632390  89.7103820  16.2889340
  11.3606570  89.4747920  16.0731370  11.9746980  89.7927210  15.4112450
  11.9056130  88.9896510  16.6927230   1.8827830  88.1542180  16.1870430
   2.4310820  87.9730230  15.4236540   1.9483140  87.3636290  16.7226740
  12.1014610  88.0380060  12.4000660  11.2274450  88.3715170  12.1973590
  11.9925360  87.5653240  13.2252530  13.0086590  90.2450930  13.7842380
  12.6799950  89.4302690  13.4044110  13.9568890  90.2020740  13.6608070
   9.8489430  88.9549900  11.3393570   9.0661220  89.4295400  11.6190330
   9.5552360  88.0504730  11.2306750  14.4010500  89.6573000   9.3842660
  14.8418590  89.6018100   8.5364260  14.1318090  90.5731010   9.4552840
  16.2649070  89.2888240   7.3951480  16.2037470  88.3449460   7.2482500
  17.0441100  89.3968330   7.9404940   7.7343650  91.3736650   6.8509600
   6.9218160  90.9993540   6.5105480   8.2385290  90.6181730   7.1530790
  12.2368630  88.0379100   8.0892670  12.8398000  88.6099310   8.5641190
  11.4961620  88.6018540   7.8666570  15.3803230  88.4400660   3.3632950
  15.5753860  89.3384110   3.6300380  14.5933100  88.2087740   3.8565900
   3.5654990  89.7861430   2.4009260   4.0947750  88.9991230   2.2717210
   4.1983310  90.4652620   2.6344790   5.7592830  89.5236570   5.4554650
   5.1295570  88.8223880   5.6224780   5.2197970  90.2840700   5.2387810
   5.8848390  88.8020550  17.8907140   5.6032660  89.3054150  17.1267960
   6.2668090  88.0042300  17.5249270  12.4863850  88.2174130  18.4687610
  12.3729300  88.5368740  19.3639130  13.3033590  88.6186640  18.1724890
  11.3922000  77.4623110  63.9296310  11.3116050  76.5477720  63.6588020
  10.9786420  77.9590180  63.2236020   9.5240040  79.2402130  65.8105580
   8.7482140  78.7602570  66.1004150  10.1752970  78.5607780  65.6361740
   3.5405870  79.5521940  66.6881340   2.7090750  79.2970650  67.0877850
   4.1486850  79.6232710  67.4239260  13.5447470  83.6462320  64.5904710
  13.0829000  82.8749560  64.9191880  14.3573020  83.6728390  65.0957160
   3.5207130  83.5862030  66.8839360   3.8235170  82.6959770  66.7049580
   4.2650720  84.1432250  66.6561610   9.7710780  85.9320330  64.2108700
   9.1522220  86.3877830  63.6403140  10.6262560  86.0871790  63.8098400
   8.9649030  81.9159320  65.8175740   8.8957310  80.9749260  65.6564870
   9.7268890  82.0060730  66.3898310   9.9954200  74.7229700  66.0444670
  10.3719020  73.8501580  65.9318340   9.8973710  75.0588400  65.1535110
   4.1259210  73.0955330  61.5062110   4.2325960  73.9959060  61.8130870
   3.2151570  73.0473300  61.2156760  13.7778320  72.2180140  62.9773010
  14.5987940  71.7276710  63.0198490  13.8112400  72.8077800  63.7304850
   5.9666940  76.0641700  65.8387290   6.4745160  76.5622670  66.4792310
   6.4980180  75.2876900  65.6626650  18.0677870  74.2346890  69.5416640
  17.3630040  74.6228600  69.0231750  18.3335790  74.9297180  70.1437570
   4.2503040  70.7040260  70.1050710   4.2521480  71.2212650  69.2996610
   3.4207350  70.2270440  70.0820640  10.6374130  80.8159570  61.6040610
  10.0191400  81.2809020  61.0403330  11.1497380  81.5087050  62.0210120
   5.5005890  80.3435440  68.2824210   5.1675270  80.9704360  68.9245280
   5.6772570  80.8697320  67.5025880  14.0139800  74.1580520  65.7500550
  13.3095370  74.4465410  66.3303660  14.3751960  74.9680630  65.3900110
   3.9318370  72.4150220  68.1121160   4.2735180  73.2592270  67.8175030
   2.9934180  72.5633960  68.2286500   4.7124990  82.3116240  70.0973390
   5.3298990  82.9867320  69.8157840   3.8518110  82.7204220  70.0060890
  15.6302580  83.7755650  68.0128030  14.9466100  84.4454760  68.0044700
  16.1696870  83.9736300  67.2472890  17.0826720  73.6035310  66.1409760
  16.1351630  73.6374290  66.2725190  17.4076710  74.4174260  66.5259120
   7.6146260  69.9032490  64.4365750   7.9221240  69.3479380  63.7201250
   6.6846960  70.0376950  64.2538740  13.1661320  85.6199780  66.7273210
  13.1788480  85.2162070  65.8595470  12.6136540  86.3947070  66.6234640
  14.4606740  82.3416000  61.8163380  14.3503070  81.3990330  61.9412800
  14.4574990  82.7031640  62.7026140  12.5646760  80.5229620  68.0555820
  12.9815550  80.3089730  67.2209280  13.2886580  80.7802410  68.6264440
  10.0027020  77.9681320  61.1725870   9.0756300  77.9018700  61.4014340
  10.1551840  78.9061450  61.0581110   9.9896100  74.2398320  58.1693030
   9.0499770  74.4012280  58.2545490  10.3079360  74.9584000  57.6229020
  16.5108860  78.9216840  68.1472060  15.6827490  78.9909930  67.6722190
  17.1059340  79.5071150  67.6787890  14.0324310  79.5301620  61.6761120
  13.4136730  79.1921170  61.0287420  14.0148760  78.8861380  62.3840310
  13.4750870  75.7086160  69.0926930  13.0622050  76.5339870  69.3466920
  12.7426820  75.1231200  68.9003290   5.6083660  78.4946060  63.9545600
   5.2040660  77.7823310  63.4591500   5.6946780  78.1499300  64.8433640
   6.0765360  82.1813620  66.1184810   5.7793650  81.5759090  65.4392590
   7.0265180  82.2190930  66.0074170   4.3212280  75.2689270  67.7344640
   4.8726870  75.3784610  66.9597890   4.8355790  75.6426870  68.4499870
  14.1650970  85.7545490  69.7807910  13.6881530  86.5617680  69.5880520
  13.4812760  85.1023820  69.9334120  12.2089010  78.7688430  58.6833870
  12.6482290  77.9310860  58.5371690  12.9217430  79.4017830  58.7698010
   3.9955010  78.7908630  71.3449980   3.8562780  79.6631430  71.7137380
   3.1136370  78.4481440  71.1997920  10.3184390  83.7084500  62.6515110
  10.7580300  84.4508830  62.2370500  10.2571280  83.9511070  63.5754070
  15.7906150  70.0231240  56.9974910  15.4778810  70.1158070  57.8973980
  16.5518620  70.6012270  56.9472340   2.3088290  77.3891040  61.4552250
   2.1885890  78.1153130  60.8433520   1.9989180  76.6193950  60.9780160
  17.1483430  82.7070280  72.0099310  17.2746490  82.4682160  71.0916490
  17.1904810  81.8754820  72.4821390  11.0100170  86.4098280  70.5794120
  11.5244840  86.3206290  71.3816550  10.1669250  86.7557980  70.8722030
  12.9854570  86.6953620  60.0078120  12.8255710  86.4056560  60.9059950
  12.8201280  85.9193750  59.4723350   5.4642950  86.4752150  61.7849740
   5.2885430  85.5587690  61.5717540   4.6098690  86.8339440  62.0247540
  12.6880700  84.2041180  58.5676120  11.9945860  84.2018470  57.9078400
  13.4303560  83.7800500  58.1370290  12.2530630  85.8303890  62.6424610
  12.7087580  85.0493270  62.9563230  12.5923150  86.5410710  63.1865790
  17.0007440  74.7602740  72.9749050  16.3851710  75.2682410  72.4464510
  16.6803860  73.8601070  72.9174990   4.7751950  70.7326110  64.8375920
   4.3320100  71.5135650  64.5060440   5.3336940  71.0556000  65.5446860
   9.0621760  73.5994630  70.4411240   8.6001130  73.8077650  71.2531180
   8.6599870  72.7853980  70.1381910  14.0626270  74.8203580  71.5707900
  13.2119860  74.5209330  71.8916970  13.9028060  75.0645590  70.6591720
   7.8910770  70.3536810  59.7181750   7.2664950  70.3496680  60.4435060
   7.8040890  69.4867770  59.3217720   6.8127850  71.2773440  66.6965520
   7.1100180  72.1836270  66.6157540   7.3613410  70.7892220  66.0825090
   4.5666170  75.8559680  62.5657170   4.3407090  75.6396850  63.4703790
   3.7858700  76.2888140  62.2203140  11.7963930  75.8623050  61.1647820
  11.1972820  76.5858850  60.9811440  12.3443540  75.7999830  60.3824270
  10.4028800  74.4986590  63.1951100  10.7958370  74.8158790  62.3819790
  10.7645650  73.6198470  63.3095620  10.9883940  77.0892340  67.2901880
  10.2565060  77.5979150  67.6391980  10.5908280  76.2722320  66.9890660
   7.4261330  73.7646540  65.6954370   7.4297390  73.3236490  64.8458910
   8.3212450  74.0863870  65.8026190   3.2763710  73.6473030  64.6548580
   2.9363760  74.1248260  65.4115630   2.5141030  73.1938150  64.2949680
   7.4881480  74.7658620  58.6861130   7.6094300  74.7245100  59.6346950
   7.1029990  75.6282770  58.5307860  11.4509850  72.5426020  66.7024820
  11.4682590  72.9934670  67.5466670  11.2025430  71.6431660  66.9158260
   6.5002980  77.0759760  58.0844430   5.9319880  76.6278010  57.4580340
   7.2091980  77.4352540  57.5509580   7.7269300  77.8248320  67.4419780
   8.0939430  77.3506890  68.1881120   7.5374360  78.6989890  67.7828120
   5.5168670  76.8656960  69.7603990   5.2125740  77.7448940  69.9854350
   6.4715130  76.9256750  69.7961430   4.0450460  81.0717950  60.3570840
   3.2712720  80.5315570  60.1969560   4.7745090  80.5524560  60.0188600
  14.8038440  80.0683310  66.1497230  15.5237560  80.5638600  65.7593340
  14.6020260  79.3901200  65.5051100  10.2648380  71.4621270  60.2926620
   9.4512990  70.9634440  60.2171930  10.0710330  72.3019520  59.8762970
  10.1857240  80.1392370  72.0366230  10.1194550  79.2188040  71.7823820
   9.5562380  80.2367810  72.7510870  12.9796770  75.8340920  58.5888780
  13.8676390  76.1458150  58.4140120  12.9501860  74.9613170  58.1969360
   4.0887860  80.7398330  63.9949650   4.6066530  79.9366590  63.9406540
   3.6371880  80.6777470  64.8366480   8.9757360  82.0064610  59.2676950
   9.3173060  82.7506840  58.7720270   8.1470070  82.3195730  59.6301780
  10.1173970  82.9612940  71.7870030  10.1318510  82.0293900  71.5688940
   9.4099070  83.0472700  72.4259800  15.2511040  77.1452760  58.0568640
  15.1674760  77.5766980  57.2065080  15.9705230  77.6051110  58.4895460
  16.3285180  79.6020280  71.1338610  15.6033370  80.1949060  70.9368000
  16.8560640  79.5943820  70.3351980  16.2798290  83.9995020  60.7850770
  15.6374450  83.3450640  61.0594490  15.8928950  84.4050110  60.0091440
  11.8584770  81.3280450  64.6322460  12.2108590  80.7308580  63.9723830
  10.9747100  81.0024680  64.8030710   7.9448050  82.0878140  62.0392870
   8.6319180  82.6347350  62.4200460   7.1580470  82.6318870  62.0742480
   7.2475260  79.0924170  61.6518230   7.7038040  79.9029420  61.8778420
   6.8963470  78.7747310  62.4836720   9.5507870  84.6030510  68.8810530
  10.1950090  84.8089890  69.5583950   9.9137310  83.8418910  68.4281380
   3.1487040  69.4361820  62.1240750   3.0201670  69.4279720  63.0725670
   2.3249060  69.7744910  61.7731760  10.8239950  82.6062860  67.5987980
  11.4662180  81.9056020  67.7120150  11.3489300  83.3861300  67.4184870
  14.6695670  82.8911480  57.3227120  14.4433250  82.1741920  57.9151760
  14.2791870  82.6423920  56.4848870  12.5977570  83.4057760  70.8024040
  12.9333810  83.9924450  71.4801960  11.6777910  83.2750470  71.0321830
  14.2511920  80.8083420  58.9841280  13.9633620  81.2696110  59.7719160
  15.0464090  80.3481190  59.2525500   6.4680320  84.3009540  58.9145250
   6.4590420  85.0339230  58.2989760   5.5478680  84.0541120  59.0072210
  11.6419750  73.6875250  69.3348900  12.0100570  72.8670460  69.6628470
  10.7817950  73.7477140  69.7504550  15.0081780  72.6432190  60.1436460
  14.3794940  72.7477860  59.4294690  14.5133700  72.8628970  60.9330340
   9.4539920  84.3637780  57.5770440   9.5551900  84.1601770  56.6472420
   8.5541660  84.1096060  57.7818220   6.9765810  74.9218140  61.5594340
   6.2681960  75.3904480  62.0007950   7.2610290  74.2640150  62.1939530
   8.6021740  76.3414840  69.5586870   9.1006990  76.8160660  70.2238720
   8.7444690  75.4178360  69.7656900  11.0081240  71.6468800  62.9990130
  10.8849020  71.6654930  62.0499640  11.9565800  71.6947740  63.1188530
   8.0958030  86.8824100  62.2718110   8.3499530  86.8445490  61.3497480
   7.1470510  86.7557430  62.2646360   5.1800830  73.2303220  58.9345050
   6.0291360  73.6673370  58.8685240   4.8132100  73.5423480  59.7617110
  15.8088600  72.5582800  70.4015260  15.3062200  73.2988200  70.7409070
  16.6245260  72.9466800  70.0852050  14.1010610  77.8015980  63.8476620
  13.1600750  77.8166210  64.0224310  14.4154680  77.0151940  64.2936920
   4.0792250  79.4835580  57.4080580   4.8455520  79.3716940  57.9706010
   4.1566940  78.7873550  56.7557350   2.7739010  76.9160650  58.0913470
   2.8542600  75.9688160  58.2030870   3.6658760  77.2467530  58.1974130
  16.1036190  84.9724830  65.5230880  16.2283610  85.7956000  65.9954690
  16.9701750  84.7615560  65.1755030   3.5753720  87.0656040  65.1948010
   4.3116200  86.5171500  65.4656580   3.9594640  87.9312050  65.0554000
   6.6856030  86.2386350  57.0173580   7.4784640  86.5275180  56.5655370
   6.1660380  85.8078520  56.3386060  15.7386200  85.4656480  58.4410320
  15.4527710  85.0521620  57.6264500  15.5405750  86.3944190  58.3210840
   7.2033430  81.4589760  56.8815930   7.0984070  80.8442110  57.6077310
   7.0357650  80.9355650  56.0978940   7.3547750  80.1446560  72.8605160
   6.5893420  80.7131560  72.7759830   7.5363710  79.8522770  71.9673390
  10.4436160  80.5209790  57.4857920   9.8946260  80.9679090  58.1300660
  11.0655420  80.0159040  58.0095590   6.1111280  79.4800710  59.3823220
   6.5327700  79.3140580  60.2254610   6.2362120  78.6700940  58.8878360
   4.2738700  75.4597260  72.1894200   3.7435160  74.9688210  71.5617540
   4.9426770  75.8881460  71.6552130   8.6238920  78.5038320  56.6300320
   9.1444580  77.7887340  56.2641470   9.2707320  79.1424190  56.9300830
  13.1716760  79.9266720  71.9535390  13.5857780  80.0811800  72.8025810
  12.2367760  80.0521940  72.1161170   4.7611000  72.4259630  72.2691490
   4.6667870  71.8080380  71.5442360   4.1808390  73.1525920  72.0421400
   7.5272440  70.9832870  69.3018880   7.0789740  71.0057130  68.4564430
   6.8937640  70.5851890  69.8989180   7.9331990  79.8787200  69.9231320
   8.3520100  80.7219930  69.7507560   7.0140620  80.0159240  69.6938100
  10.2695890  77.6103380  71.3069160  10.3892100  77.0144520  72.0464000
  11.1289890  77.6473070  70.8870460  12.6083790  78.1640570  69.8831670
  12.0819010  78.6883190  69.2796810  12.9515130  78.7967960  70.5141400
   5.0070180  75.5533940  56.3281380   4.8059240  74.6901300  56.6894720
   4.8362230  75.4667300  55.3902980   5.7839410  86.1840210  71.0389050
   5.2460500  86.9086270  70.7197750   6.0373370  85.7070550  70.2486390
  12.4858490  70.3642170  58.8568260  12.7660780  69.5210070  59.2127680
  11.7124220  70.5965280  59.3707010   3.8052980  72.6534560  56.3159260
   4.1078880  72.6601990  55.4078410   4.5447570  72.3032420  56.8126920
   8.6401620  87.4191420  71.2975700   8.5660320  88.3226560  71.6048070
   7.7380460  87.1003320  71.2697770   7.0237910  71.5969180  57.3015460
   6.6759910  70.9193170  56.7217910   7.2250680  71.1358690  58.1158850
   9.1886950  86.5849930  58.9202060  10.0837740  86.9234900  58.9420820
   9.2204580  85.8629340  58.2926340   2.8283110  81.9576980  57.1489060
   3.2657980  82.5006650  57.8046640   3.3130840  81.1323930  57.1585400
   4.6390830  83.0775020  62.2611290   4.3386370  82.9539990  63.1615200
   4.5328320  82.2183610  61.8527020  16.1681300  85.1153600  71.6268260
  15.5683290  85.1746160  70.8832180  16.2975200  84.1758580  71.7565110
  17.4082750  82.8571420  56.9637970  16.5775710  82.9248070  57.4345200
  17.5854580  83.7475540  56.6604830  16.8639210  79.6018900  59.4672170
  17.6258120  80.1715550  59.5731860  16.8793580  79.0346100  60.2380480
  17.8699180  80.4569000  64.3114100  18.2408010  79.6736320  63.9050070
  18.5101110  81.1458100  64.1331400  14.8532940  81.8405580  69.7244420
  14.0392780  82.2702740  69.9870210  15.2607140  82.4523990  69.1113470
  16.9158380  79.8953270  56.6244690  17.1907220  80.8032150  56.4963910
  16.7269120  79.8315800  57.5606680  13.3133990  72.9198120  57.9198320
  13.7318870  72.7329100  57.0794980  13.0070050  72.0677170  58.2301250
  16.8123720  77.8322260  61.6174120  16.4367320  77.0650190  61.1855410
  16.0826840  78.2144960  62.1049050  16.2023340  76.9793780  71.2513640
  15.9709430  76.7506530  70.3511590  16.4627890  77.8993330  71.2058530
  16.0874680  76.0579750  64.9181360  16.6112160  75.5642400  64.2871530
  16.6734100  76.1930110  65.6628930  16.2664400  76.1419620  68.4400910
  15.3167110  76.1083160  68.5545900  16.4477410  77.0519730  68.2050680
   1.7683000  70.4460630  56.5902190   2.4911130  70.9869570  56.9083410
   2.0407520  70.1724050  55.7143730  15.5774650  75.3153100  60.8573770
  16.0733770  75.0823970  61.6422650  15.3790720  74.4764940  60.4411410
  17.0061810  73.9514050  63.3911450  16.8961090  73.7970090  64.3293720
  17.7669400  73.4234990  63.1486860  15.3527530  69.8908180  69.8494450
  15.9899750  70.5042320  70.2153640  15.5002420  69.9268840  68.9043680
  17.8952080  71.7821970  56.6317590  18.8201390  71.6503150  56.4235880
  17.8727870  71.8614790  57.5854040  17.9690570  72.5532630  59.2574300
  17.1742070  72.4877750  59.7867210  18.1733850  73.4883270  59.2459650
  14.9108990  86.5924180  63.2512690  15.5068060  86.2708750  62.5747110
  15.1687140  86.1196000  64.0425960   6.5177590  84.5801680  69.0013040
   6.2768950  84.8476240  68.1143560   7.4580230  84.7507410  69.0563900
  17.7781750  86.5996060  69.8023680  17.2840030  86.9964930  69.0850810
  17.1695040  85.9745270  70.1960960   2.6559590  85.9704340  70.5201100
   2.0619910  85.8389040  71.2591140   2.6483430  85.1342480  70.0543200
  12.1014610  69.2636570  68.7231130  11.2274450  69.5971680  68.5204060
  11.9925360  68.7909750  69.5483000  13.0086590  71.4707440  70.1072850
  12.6799950  70.6559200  69.7274580  13.9568890  71.4277250  69.9838540
  15.4621200  87.2419480  67.0810420  15.0024170  87.9935290  66.7068440
  14.8333660  86.5225950  67.0225220   2.2871820  83.3362720  69.4709140
   1.5605880  82.7168010  69.4035090   2.3480970  83.7303330  68.6007220
   5.8916920  85.5507720  66.2558550   6.4081940  84.9395080  65.7306810
   6.5414300  86.0536500  66.7469560   8.6312420  86.4416210  67.0827530
   8.9190230  86.1870510  66.2060540   9.1435640  85.8893570  67.6733100
   9.8489430  70.1806410  67.6624040   9.0661220  70.6551910  67.9420800
   9.5552360  69.2761240  67.5537220  14.4010500  70.8829510  65.7073130
  14.8418590  70.8274610  64.8594730  14.1318090  71.7987520  65.7783310
  16.2649070  70.5144750  63.7181950  16.2037470  69.5705970  63.5712970
  17.0441100  70.6224840  64.2635410   7.7343650  72.5993160  63.1740070
   6.9218160  72.2250050  62.8335950   8.2385290  71.8438240  63.4761260
  12.2368630  69.2635610  64.4123140  12.8398000  69.8355820  64.8871660
  11.4961620  69.8275050  64.1897040  15.3803230  69.6657170  59.6863420
  15.5753860  70.5640620  59.9530850  14.5933100  69.4344250  60.1796370
   2.1764520  85.3470340  60.1256040   1.6512140  85.7278370  59.4218000
   2.1009100  85.9721110  60.8465750   3.5654990  71.0117940  58.7239730
   4.0947750  70.2247740  58.5947680   4.1983310  71.6909130  58.9575260
   5.7592830  70.7493080  61.7785120   5.1295570  70.0480390  61.9455250
   5.2197970  71.5097210  61.5618280  16.9329840  86.9057880  61.4469980
  17.1082030  86.2195620  60.8030900  16.2351410  87.4304930  61.0546650
   4.7757490  87.2952720  59.0005290   5.5076310  87.0112000  58.4529180
   5.0351160  87.0566000  59.8904670   3.9372280  83.4117450  59.0051620
   3.3081160  83.8802550  59.5537450   4.0520110  82.5666670  59.4397810
  11.3922000  77.4623110  45.1552820  11.3116050  76.5477720  44.8844530
  10.9786420  77.9590180  44.4492530   9.5240040  79.2402130  47.0362090
   8.7482140  78.7602570  47.3260660  10.1752970  78.5607780  46.8618250
   3.5405870  79.5521940  47.9137850   2.7090750  79.2970650  48.3134360
   4.1486850  79.6232710  48.6495770  13.5447470  83.6462320  45.8161220
  13.0829000  82.8749560  46.1448390  14.3573020  83.6728390  46.3213670
   3.5207130  83.5862030  48.1095870   3.8235170  82.6959770  47.9306090
   4.2650720  84.1432250  47.8818120   9.7710780  85.9320330  45.4365210
   9.1522220  86.3877830  44.8659650  10.6262560  86.0871790  45.0354910
   8.9649030  81.9159320  47.0432250   8.8957310  80.9749260  46.8821380
   9.7268890  82.0060730  47.6154820   9.9954200  74.7229700  47.2701180
  10.3719020  73.8501580  47.1574850   9.8973710  75.0588400  46.3791620
   4.1259210  73.0955330  42.7318620   4.2325960  73.9959060  43.0387380
   3.2151570  73.0473300  42.4413270  13.7778320  72.2180140  44.2029520
  14.5987940  71.7276710  44.2455000  13.8112400  72.8077800  44.9561360
   5.9666940  76.0641700  47.0643800   6.4745160  76.5622670  47.7048820
   6.4980180  75.2876900  46.8883160  18.0677870  74.2346890  50.7673150
  17.3630040  74.6228600  50.2488260  18.3335790  74.9297180  51.3694080
   4.2503040  70.7040260  51.3307220   4.2521480  71.2212650  50.5253120
   3.4207350  70.2270440  51.3077150  10.6374130  80.8159570  42.8297120
  10.0191400  81.2809020  42.2659840  11.1497380  81.5087050  43.2466630
   5.5005890  80.3435440  49.5080720   5.1675270  80.9704360  50.1501790
   5.6772570  80.8697320  48.7282390  14.0139800  74.1580520  46.9757060
  13.3095370  74.4465410  47.5560170  14.3751960  74.9680630  46.6156620
   3.9318370  72.4150220  49.3377670   4.2735180  73.2592270  49.0431540
   2.9934180  72.5633960  49.4543010   4.7124990  82.3116240  51.3229900
   5.3298990  82.9867320  51.0414350   3.8518110  82.7204220  51.2317400
  15.6302580  83.7755650  49.2384540  14.9466100  84.4454760  49.2301210
  16.1696870  83.9736300  48.4729400  17.0826720  73.6035310  47.3666270
  16.1351630  73.6374290  47.4981700  17.4076710  74.4174260  47.7515630
   7.6146260  69.9032490  45.6622260   7.9221240  69.3479380  44.9457760
   6.6846960  70.0376950  45.4795250  13.1661320  85.6199780  47.9529720
  13.1788480  85.2162070  47.0851980  12.6136540  86.3947070  47.8491150
  14.4606740  82.3416000  43.0419890  14.3503070  81.3990330  43.1669310
  14.4574990  82.7031640  43.9282650  12.5646760  80.5229620  49.2812330
  12.9815550  80.3089730  48.4465790  13.2886580  80.7802410  49.8520950
  10.0027020  77.9681320  42.3982380   9.0756300  77.9018700  42.6270850
  10.1551840  78.9061450  42.2837620   9.9896100  74.2398320  39.3949540
   9.0499770  74.4012280  39.4802000  10.3079360  74.9584000  38.8485530
  16.5108860  78.9216840  49.3728570  15.6827490  78.9909930  48.8978700
  17.1059340  79.5071150  48.9044400  14.0324310  79.5301620  42.9017630
  13.4136730  79.1921170  42.2543930  14.0148760  78.8861380  43.6096820
  13.4750870  75.7086160  50.3183440  13.0622050  76.5339870  50.5723430
  12.7426820  75.1231200  50.1259800   5.6083660  78.4946060  45.1802110
   5.2040660  77.7823310  44.6848010   5.6946780  78.1499300  46.0690150
   6.0765360  82.1813620  47.3441320   5.7793650  81.5759090  46.6649100
   7.0265180  82.2190930  47.2330680   4.3212280  75.2689270  48.9601150
   4.8726870  75.3784610  48.1854400   4.8355790  75.6426870  49.6756380
  14.1650970  85.7545490  51.0064420  13.6881530  86.5617680  50.8137030
  13.4812760  85.1023820  51.1590630   5.1683790  81.9195310  53.9949120
   4.2712320  82.1435280  54.2422520   5.1936660  82.0430250  53.0460520
  12.2089010  78.7688430  39.9090380  12.6482290  77.9310860  39.7628200
  12.9217430  79.4017830  39.9954520   3.9955010  78.7908630  52.5706490
   3.8562780  79.6631430  52.9393890   3.1136370  78.4481440  52.4254430
  10.3184390  83.7084500  43.8771620  10.7580300  84.4508830  43.4627010
  10.2571280  83.9511070  44.8010580   5.7935360  84.7330330  54.7791640
   5.7650790  85.1373280  53.9120070   5.6300330  83.8040690  54.6163240
  15.7906150  70.0231240  38.2231420  15.4778810  70.1158070  39.1230490
  16.5518620  70.6012270  38.1728850   2.3088290  77.3891040  42.6808760
   2.1885890  78.1153130  42.0690030   1.9989180  76.6193950  42.2036670
  17.7450180  85.5157430  56.0755810  18.2209900  85.9940320  56.7544890
  18.3657340  85.4474920  55.3501310  17.1483430  82.7070280  53.2355820
  17.2746490  82.4682160  52.3173000  17.1904810  81.8754820  53.7077900
  11.0100170  86.4098280  51.8050630  11.5244840  86.3206290  52.6073060
  10.1669250  86.7557980  52.0978540  12.9854570  86.6953620  41.2334630
  12.8255710  86.4056560  42.1316460  12.8201280  85.9193750  40.6979860
   5.4642950  86.4752150  43.0106250   5.2885430  85.5587690  42.7974050
   4.6098690  86.8339440  43.2504050  12.6880700  84.2041180  39.7932630
  11.9945860  84.2018470  39.1334910  13.4303560  83.7800500  39.3626800
  12.2530630  85.8303890  43.8681120  12.7087580  85.0493270  44.1819740
  12.5923150  86.5410710  44.4122300  17.0007440  74.7602740  54.2005560
  16.3851710  75.2682410  53.6721020  16.6803860  73.8601070  54.1431500
   4.7751950  70.7326110  46.0632430   4.3320100  71.5135650  45.7316950
   5.3336940  71.0556000  46.7703370   9.0621760  73.5994630  51.6667750
   8.6001130  73.8077650  52.4787690   8.6599870  72.7853980  51.3638420
  14.0626270  74.8203580  52.7964410  13.2119860  74.5209330  53.1173480
  13.9028060  75.0645590  51.8848230  11.1575980  76.3205330  54.8963200
  11.4829390  75.4869080  54.5565430  11.9456310  76.8433850  55.0441530
   7.8910770  70.3536810  40.9438260   7.2664950  70.3496680  41.6691570
   7.8040890  69.4867770  40.5474230   6.8127850  71.2773440  47.9222030
   7.1100180  72.1836270  47.8414050   7.3613410  70.7892220  47.3081600
   4.5666170  75.8559680  43.7913680   4.3407090  75.6396850  44.6960300
   3.7858700  76.2888140  43.4459650  11.7963930  75.8623050  42.3904330
  11.1972820  76.5858850  42.2067950  12.3443540  75.7999830  41.6080780
   7.0065380  76.7545260  54.4573950   6.9108980  75.8139990  54.3074350
   7.8497360  76.9760330  54.0622020  10.4028800  74.4986590  44.4207610
  10.7958370  74.8158790  43.6076300  10.7645650  73.6198470  44.5352130
   8.7120970  73.2493900  55.6804470   8.0219290  73.0566100  56.3150560
   9.4553270  73.5328540  56.2128770  10.9883940  77.0892340  48.5158390
  10.2565060  77.5979150  48.8648490  10.5908280  76.2722320  48.2147170
   7.4261330  73.7646540  46.9210880   7.4297390  73.3236490  46.0715420
   8.3212450  74.0863870  47.0282700   3.2763710  73.6473030  45.8805090
   2.9363760  74.1248260  46.6372140   2.5141030  73.1938150  45.5206190
   7.4881480  74.7658620  39.9117640   7.6094300  74.7245100  40.8603460
   7.1029990  75.6282770  39.7564370  11.4509850  72.5426020  47.9281330
  11.4682590  72.9934670  48.7723180  11.2025430  71.6431660  48.1414770
   6.5002980  77.0759760  39.3100940   5.9319880  76.6278010  38.6836850
   7.2091980  77.4352540  38.7766090  14.8780600  69.9558200  53.7667710
  15.2026370  69.2247860  54.2925690  14.9137110  69.6371840  52.8648700
   7.7269300  77.8248320  48.6676290   8.0939430  77.3506890  49.4137630
   7.5374360  78.6989890  49.0084630   5.5168670  76.8656960  50.9860500
   5.2125740  77.7448940  51.2110860   6.4715130  76.9256750  51.0217940
   4.0450460  81.0717950  41.5827350   3.2712720  80.5315570  41.4226070
   4.7745090  80.5524560  41.2445110  14.8038440  80.0683310  47.3753740
  15.5237560  80.5638600  46.9849850  14.6020260  79.3901200  46.7307610
  10.2648380  71.4621270  41.5183130   9.4512990  70.9634440  41.4428440
  10.0710330  72.3019520  41.1019480  10.1857240  80.1392370  53.2622740
  10.1194550  79.2188040  53.0080330   9.5562380  80.2367810  53.9767380
  12.9796770  75.8340920  39.8145290  13.8676390  76.1458150  39.6396630
  12.9501860  74.9613170  39.4225870   4.0887860  80.7398330  45.2206160
   4.6066530  79.9366590  45.1663050   3.6371880  80.6777470  46.0622990
   8.9757360  82.0064610  40.4933460   9.3173060  82.7506840  39.9976780
   8.1470070  82.3195730  40.8558290   4.7745520  78.1643940  55.0171410
   4.4745660  78.3101120  54.1199230   5.5456760  77.6049230  54.9244800
  10.1173970  82.9612940  53.0126540  10.1318510  82.0293900  52.7945450
   9.4099070  83.0472700  53.6516310  15.2511040  77.1452760  39.2825150
  15.1674760  77.5766980  38.4321590  15.9705230  77.6051110  39.7151970
  16.3285180  79.6020280  52.3595120  15.6033370  80.1949060  52.1624510
  16.8560640  79.5943820  51.5608490  16.2798290  83.9995020  42.0107280
  15.6374450  83.3450640  42.2851000  15.8928950  84.4050110  41.2347950
  11.8584770  81.3280450  45.8578970  12.2108590  80.7308580  45.1980340
  10.9747100  81.0024680  46.0287220   7.9448050  82.0878140  43.2649380
   8.6319180  82.6347350  43.6456970   7.1580470  82.6318870  43.2998990
   7.2475260  79.0924170  42.8774740   7.7038040  79.9029420  43.1034930
   6.8963470  78.7747310  43.7093230   9.5507870  84.6030510  50.1067040
  10.1950090  84.8089890  50.7840460   9.9137310  83.8418910  49.6537890
   3.1487040  69.4361820  43.3497260   3.0201670  69.4279720  44.2982180
   2.3249060  69.7744910  42.9988270  10.8239950  82.6062860  48.8244490
  11.4662180  81.9056020  48.9376660  11.3489300  83.3861300  48.6441380
  14.6695670  82.8911480  38.5483630  14.4433250  82.1741920  39.1408270
  14.2791870  82.6423920  37.7105380  12.5977570  83.4057760  52.0280550
  12.9333810  83.9924450  52.7058470  11.6777910  83.2750470  52.2578340
  14.2511920  80.8083420  40.2097790  13.9633620  81.2696110  40.9975670
  15.0464090  80.3481190  40.4782010   8.4266150  83.4549090  55.1968610
   8.1063020  82.7358330  55.7414300   7.7524510  84.1304160  55.2704670
   6.4680320  84.3009540  40.1401760   6.4590420  85.0339230  39.5246270
   5.5478680  84.0541120  40.2328720  11.6419750  73.6875250  50.5605410
  12.0100570  72.8670460  50.8884980  10.7817950  73.7477140  50.9761060
  15.0081780  72.6432190  41.3692970  14.3794940  72.7477860  40.6551200
  14.5133700  72.8628970  42.1586850   9.4539920  84.3637780  38.8026950
   9.5551900  84.1601770  37.8728930   8.5541660  84.1096060  39.0074730
   6.9765810  74.9218140  42.7850850   6.2681960  75.3904480  43.2264460
   7.2610290  74.2640150  43.4196040   8.6021740  76.3414840  50.7843380
   9.1006990  76.8160660  51.4495230   8.7444690  75.4178360  50.9913410
  11.0081240  71.6468800  44.2246640  10.8849020  71.6654930  43.2756150
  11.9565800  71.6947740  44.3445040   8.0958030  86.8824100  43.4974620
   8.3499530  86.8445490  42.5753990   7.1470510  86.7557430  43.4902870
   5.1800830  73.2303220  40.1601560   6.0291360  73.6673370  40.0941750
   4.8132100  73.5423480  40.9873620  15.8088600  72.5582800  51.6271770
  15.3062200  73.2988200  51.9665580  16.6245260  72.9466800  51.3108560
  14.1010610  77.8015980  45.0733130  13.1600750  77.8166210  45.2480820
  14.4154680  77.0151940  45.5193430   4.0792250  79.4835580  38.6337090
   4.8455520  79.3716940  39.1962520   4.1566940  78.7873550  37.9813860
   2.7739010  76.9160650  39.3169980   2.8542600  75.9688160  39.4287380
   3.6658760  77.2467530  39.4230640  16.1036190  84.9724830  46.7487390
  16.2283610  85.7956000  47.2211200  16.9701750  84.7615560  46.4011540
   3.5753720  87.0656040  46.4204520   4.3116200  86.5171500  46.6913090
   3.9594640  87.9312050  46.2810510   2.5812000  86.2502110  55.6090100
   3.3824730  86.5714160  56.0225500   2.0663820  85.8897690  56.3310010
   6.6856030  86.2386350  38.2430090   7.4784640  86.5275180  37.7911880
   6.1660380  85.8078520  37.5642570  11.4176630  82.3581980  55.5565510
  10.8114790  82.3813580  54.8161260  11.1130740  81.6265020  56.0932760
  12.8477000  86.0862270  54.1674920  13.7998750  86.0020290  54.1175160
  12.7005220  86.7503980  54.8408710  15.7386200  85.4656480  39.6666830
  15.4527710  85.0521620  38.8521010  15.5405750  86.3944190  39.5467350
   7.2033430  81.4589760  38.1072440   7.0984070  80.8442110  38.8333820
   7.0357650  80.9355650  37.3235450   7.3547750  80.1446560  54.0861670
   6.5893420  80.7131560  54.0016340   7.5363710  79.8522770  53.1929900
  10.4436160  80.5209790  38.7114430   9.8946260  80.9679090  39.3557170
  11.0655420  80.0159040  39.2352100  14.4971100  81.8751890  54.6436690
  15.2380570  82.2127650  54.1404150  13.7343780  82.0443950  54.0906460
   2.3332890  76.8805160  55.4476220   2.3738230  76.5819030  56.3561450
   3.1878390  77.2812770  55.2883740   6.1111280  79.4800710  40.6079730
   6.5327700  79.3140580  41.4511120   6.2362120  78.6700940  40.1134870
   4.2738700  75.4597260  53.4150710   3.7435160  74.9688210  52.7874050
   4.9426770  75.8881460  52.8808640   8.6238920  78.5038320  37.8556830
   9.1444580  77.7887340  37.4897980   9.2707320  79.1424190  38.1557340
  13.1716760  79.9266720  53.1791900  13.5857780  80.0811800  54.0282320
  12.2367760  80.0521940  53.3417680  13.6438930  77.2662880  55.1831050
  14.2259700  76.5115200  55.0951530  13.8200700  77.7970320  54.4062530
   4.7611000  72.4259630  53.4948000   4.6667870  71.8080380  52.7698870
   4.1808390  73.1525920  53.2677910   7.5272440  70.9832870  50.5275390
   7.0789740  71.0057130  49.6820940   6.8937640  70.5851890  51.1245690
   7.9331990  79.8787200  51.1487830   8.3520100  80.7219930  50.9764070
   7.0140620  80.0159240  50.9194610  10.2695890  77.6103380  52.5325670
  10.3892100  77.0144520  53.2720510  11.1289890  77.6473070  52.1126970
  12.6083790  78.1640570  51.1088180  12.0819010  78.6883190  50.5053320
  12.9515130  78.7967960  51.7397910   5.0070180  75.5533940  37.5537890
   4.8059240  74.6901300  37.9151230   4.8362230  75.4667300  36.6159490
   5.7839410  86.1840210  52.2645560   5.2460500  86.9086270  51.9454260
   6.0373370  85.7070550  51.4742900   7.0364660  74.1524730  53.7901490
   7.6264350  73.8440580  54.4779310   6.2184900  73.6804480  53.9461390
  11.8558090  73.7690540  54.0234510  11.1673610  73.1072080  53.9584500
  12.5764110  73.3228810  54.4682970  12.4858490  70.3642170  40.0824770
  12.7660780  69.5210070  40.4384190  11.7124220  70.5965280  40.5963520
   3.8052980  72.6534560  37.5415770   4.1078880  72.6601990  36.6334920
   4.5447570  72.3032420  38.0383430   8.6401620  87.4191420  52.5232210
   8.5660320  88.3226560  52.8304580   7.7380460  87.1003320  52.4954280
   7.0237910  71.5969180  38.5271970   6.6759910  70.9193170  37.9474420
   7.2250680  71.1358690  39.3415360   9.1886950  86.5849930  40.1458570
  10.0837740  86.9234900  40.1677330   9.2204580  85.8629340  39.5182850
   2.8283110  81.9576980  38.3745570   3.2657980  82.5006650  39.0303150
   3.3130840  81.1323930  38.3841910   4.6390830  83.0775020  43.4867800
   4.3386370  82.9539990  44.3871710   4.5328320  82.2183610  43.0783530
  16.1681300  85.1153600  52.8524770  15.5683290  85.1746160  52.1088690
  16.2975200  84.1758580  52.9821620  17.4082750  82.8571420  38.1894480
  16.5775710  82.9248070  38.6601710  17.5854580  83.7475540  37.8861340
  16.8639210  79.6018900  40.6928680  17.6258120  80.1715550  40.7988370
  16.8793580  79.0346100  41.4636990  17.8699180  80.4569000  45.5370610
  18.2408010  79.6736320  45.1306580  18.5101110  81.1458100  45.3587910
  14.8532940  81.8405580  50.9500930  14.0392780  82.2702740  51.2126720
  15.2607140  82.4523990  50.3369980  16.9158380  79.8953270  37.8501200
  17.1907220  80.8032150  37.7220420  16.7269120  79.8315800  38.7863190
  13.3133990  72.9198120  39.1454830  13.7318870  72.7329100  38.3051490
  13.0070050  72.0677170  39.4557760  16.8123720  77.8322260  42.8430630
  16.4367320  77.0650190  42.4111920  16.0826840  78.2144960  43.3305560
  16.2023340  76.9793780  52.4770150  15.9709430  76.7506530  51.5768100
  16.4627890  77.8993330  52.4315040  14.6411410  72.2050210  55.2549850
  15.5181590  72.2133610  55.6383850  14.6532250  71.4681050  54.6442200
  16.0874680  76.0579750  46.1437870  16.6112160  75.5642400  45.5128040
  16.6734100  76.1930110  46.8885440  16.2664400  76.1419620  49.6657420
  15.3167110  76.1083160  49.7802410  16.4477410  77.0519730  49.4307190
   1.7683000  70.4460630  37.8158700   2.4911130  70.9869570  38.1339920
   2.0407520  70.1724050  36.9400240  15.5774650  75.3153100  42.0830280
  16.0733770  75.0823970  42.8679160  15.3790720  74.4764940  41.6667920
  17.0061810  73.9514050  44.6167960  16.8961090  73.7970090  45.5550230
  17.7669400  73.4234990  44.3743370  15.3527530  69.8908180  51.0750960
  15.9899750  70.5042320  51.4410150  15.5002420  69.9268840  50.1300190
  17.8952080  71.7821970  37.8574100  18.8201390  71.6503150  37.6492390
  17.8727870  71.8614790  38.8110550  17.9690570  72.5532630  40.4830810
  17.1742070  72.4877750  41.0123720  18.1733850  73.4883270  40.4716160
  14.9108990  86.5924180  44.4769200  15.5068060  86.2708750  43.8003620
  15.1687140  86.1196000  45.2682470   2.8171560  83.0242090  54.6259830
   2.7741190  82.6535000  55.5074290   2.9482570  83.9619660  54.7661650
   6.5177590  84.5801680  50.2269550   6.2768950  84.8476240  49.3400070
   7.4580230  84.7507410  50.2820410   8.7232010  71.0434370  53.9826060
   8.6620900  71.6356200  54.7321470   9.6632390  70.9360330  53.8376320
  11.3606570  70.7004430  53.6218350  11.9746980  71.0183720  52.9599430
  11.9056130  70.2153020  54.2414210  17.7781750  86.5996060  51.0280190
  17.2840030  86.9964930  50.3107320  17.1695040  85.9745270  51.4217470
   1.8827830  69.3798690  53.7357410   2.4310820  69.1986740  52.9723520
   1.9483140  68.5892800  54.2713720   2.6559590  85.9704340  51.7457610
   2.0619910  85.8389040  52.4847650   2.6483430  85.1342480  51.2799710
  12.1014610  69.2636570  49.9487640  11.2274450  69.5971680  49.7460570
  11.9925360  68.7909750  50.7739510  13.0086590  71.4707440  51.3329360
  12.6799950  70.6559200  50.9531090  13.9568890  71.4277250  51.2095050
  15.4621200  87.2419480  48.3066930  15.0024170  87.9935290  47.9324950
  14.8333660  86.5225950  48.2481730   2.2871820  83.3362720  50.6965650
   1.5605880  82.7168010  50.6291600   2.3480970  83.7303330  49.8263730
   5.8916920  85.5507720  47.4815060   6.4081940  84.9395080  46.9563320
   6.5414300  86.0536500  47.9726070   8.6312420  86.4416210  48.3084040
   8.9190230  86.1870510  47.4317050   9.1435640  85.8893570  48.8989610
   9.8489430  70.1806410  48.8880550   9.0661220  70.6551910  49.1677310
   9.5552360  69.2761240  48.7793730  14.4010500  70.8829510  46.9329640
  14.8418590  70.8274610  46.0851240  14.1318090  71.7987520  47.0039820
  16.2649070  70.5144750  44.9438460  16.2037470  69.5705970  44.7969480
  17.0441100  70.6224840  45.4891920   7.7343650  72.5993160  44.3996580
   6.9218160  72.2250050  44.0592460   8.2385290  71.8438240  44.7017770
  12.2368630  69.2635610  45.6379650  12.8398000  69.8355820  46.1128170
  11.4961620  69.8275050  45.4153550  15.3803230  69.6657170  40.9119930
  15.5753860  70.5640620  41.1787360  14.5933100  69.4344250  41.4052880
   2.1764520  85.3470340  41.3512550   1.6512140  85.7278370  40.6474510
   2.1009100  85.9721110  42.0722260   3.5654990  71.0117940  39.9496240
   4.0947750  70.2247740  39.8204190   4.1983310  71.6909130  40.1831770
   5.7592830  70.7493080  43.0041630   5.1295570  70.0480390  43.1711760
   5.2197970  71.5097210  42.7874790   8.6984780  87.3632310  55.6752240
   9.6252090  87.1276580  55.7188200   8.6835210  88.1904310  55.1938270
  16.9329840  86.9057880  42.6726490  17.1082030  86.2195620  42.0287410
  16.2351410  87.4304930  42.2803160   5.8848390  70.0277060  55.4394120
   5.6032660  70.5310660  54.6754940   6.2668090  69.2298810  55.0736250
   4.7757490  87.2952720  40.2261800   5.5076310  87.0112000  39.6785690
   5.0351160  87.0566000  41.1161180   3.9372280  83.4117450  40.2308130
   3.3081160  83.8802550  40.7793960   4.0520110  82.5666670  40.6654320
  12.4863850  69.4430640  56.0174590  12.3729300  69.7625250  56.9126110
  13.3033590  69.8443150  55.7211870  15.2662340  86.5902170  55.4993280
  16.0587660  86.0951400  55.2919240  15.5595490  87.2692310  56.1068890
  11.3922000  77.4623110  26.3809330  11.3116050  76.5477720  26.1101040
  10.9786420  77.9590180  25.6749040   9.5240040  79.2402130  28.2618600
   8.7482140  78.7602570  28.5517170  10.1752970  78.5607780  28.0874760
   3.5405870  79.5521940  29.1394360   2.7090750  79.2970650  29.5390870
   4.1486850  79.6232710  29.8752280  13.5447470  83.6462320  27.0417730
  13.0829000  82.8749560  27.3704900  14.3573020  83.6728390  27.5470180
   3.5207130  83.5862030  29.3352380   3.8235170  82.6959770  29.1562600
   4.2650720  84.1432250  29.1074630   9.7710780  85.9320330  26.6621720
   9.1522220  86.3877830  26.0916160  10.6262560  86.0871790  26.2611420
   8.9649030  81.9159320  28.2688760   8.8957310  80.9749260  28.1077890
   9.7268890  82.0060730  28.8411330   9.9954200  74.7229700  28.4957690
  10.3719020  73.8501580  28.3831360   9.8973710  75.0588400  27.6048130
   4.1259210  73.0955330  23.9575130   4.2325960  73.9959060  24.2643890
   3.2151570  73.0473300  23.6669780  13.7778320  72.2180140  25.4286030
  14.5987940  71.7276710  25.4711510  13.8112400  72.8077800  26.1817870
   5.9666940  76.0641700  28.2900310   6.4745160  76.5622670  28.9305330
   6.4980180  75.2876900  28.1139670  18.0677870  74.2346890  31.9929660
  17.3630040  74.6228600  31.4744770  18.3335790  74.9297180  32.5950590
   4.2503040  70.7040260  32.5563730   4.2521480  71.2212650  31.7509630
   3.4207350  70.2270440  32.5333660  10.6374130  80.8159570  24.0553630
  10.0191400  81.2809020  23.4916350  11.1497380  81.5087050  24.4723140
   5.5005890  80.3435440  30.7337230   5.1675270  80.9704360  31.3758300
   5.6772570  80.8697320  29.9538900  14.0139800  74.1580520  28.2013570
  13.3095370  74.4465410  28.7816680  14.3751960  74.9680630  27.8413130
   3.9318370  72.4150220  30.5634180   4.2735180  73.2592270  30.2688050
   2.9934180  72.5633960  30.6799520   4.7124990  82.3116240  32.5486410
   5.3298990  82.9867320  32.2670860   3.8518110  82.7204220  32.4573910
  15.6302580  83.7755650  30.4641050  14.9466100  84.4454760  30.4557720
  16.1696870  83.9736300  29.6985910  17.0826720  73.6035310  28.5922780
  16.1351630  73.6374290  28.7238210  17.4076710  74.4174260  28.9772140
   7.6146260  69.9032490  26.8878770   7.9221240  69.3479380  26.1714270
   6.6846960  70.0376950  26.7051760  13.1661320  85.6199780  29.1786230
  13.1788480  85.2162070  28.3108490  12.6136540  86.3947070  29.0747660
  14.4606740  82.3416000  24.2676400  14.3503070  81.3990330  24.3925820
  14.4574990  82.7031640  25.1539160  12.5646760  80.5229620  30.5068840
  12.9815550  80.3089730  29.6722300  13.2886580  80.7802410  31.0777460
  10.0027020  77.9681320  23.6238890   9.0756300  77.9018700  23.8527360
  10.1551840  78.9061450  23.5094130   9.9896100  74.2398320  20.6206050
   9.0499770  74.4012280  20.7058510  10.3079360  74.9584000  20.0742040
  16.5108860  78.9216840  30.5985080  15.6827490  78.9909930  30.1235210
  17.1059340  79.5071150  30.1300910  14.0324310  79.5301620  24.1274140
  13.4136730  79.1921170  23.4800440  14.0148760  78.8861380  24.8353330
  13.4750870  75.7086160  31.5439950  13.0622050  76.5339870  31.7979940
  12.7426820  75.1231200  31.3516310   5.6083660  78.4946060  26.4058620
   5.2040660  77.7823310  25.9104520   5.6946780  78.1499300  27.2946660
   6.0765360  82.1813620  28.5697830   5.7793650  81.5759090  27.8905610
   7.0265180  82.2190930  28.4587190   4.3212280  75.2689270  30.1857660
   4.8726870  75.3784610  29.4110910   4.8355790  75.6426870  30.9012890
  14.1650970  85.7545490  32.2320930  13.6881530  86.5617680  32.0393540
  13.4812760  85.1023820  32.3847140   5.1683790  81.9195310  35.2205630
   4.2712320  82.1435280  35.4679030   5.1936660  82.0430250  34.2717030
  12.2089010  78.7688430  21.1346890  12.6482290  77.9310860  20.9884710
  12.9217430  79.4017830  21.2211030   3.9955010  78.7908630  33.7963000
   3.8562780  79.6631430  34.1650400   3.1136370  78.4481440  33.6510940
  10.3184390  83.7084500  25.1028130  10.7580300  84.4508830  24.6883520
  10.2571280  83.9511070  26.0267090   5.7935360  84.7330330  36.0048150
   5.7650790  85.1373280  35.1376580   5.6300330  83.8040690  35.8419750
  15.7906150  70.0231240  19.4487930  15.4778810  70.1158070  20.3487000
  16.5518620  70.6012270  19.3985360   2.3088290  77.3891040  23.9065270
   2.1885890  78.1153130  23.2946540   1.9989180  76.6193950  23.4293180
  17.7450180  85.5157430  37.3012320  18.2209900  85.9940320  37.9801400
  18.3657340  85.4474920  36.5757820  17.1483430  82.7070280  34.4612330
  17.2746490  82.4682160  33.5429510  17.1904810  81.8754820  34.9334410
  11.0100170  86.4098280  33.0307140  11.5244840  86.3206290  33.8329570
  10.1669250  86.7557980  33.3235050  12.9854570  86.6953620  22.4591140
  12.8255710  86.4056560  23.3572970  12.8201280  85.9193750  21.9236370
   5.4642950  86.4752150  24.2362760   5.2885430  85.5587690  24.0230560
   4.6098690  86.8339440  24.4760560  12.6880700  84.2041180  21.0189140
  11.9945860  84.2018470  20.3591420  13.4303560  83.7800500  20.5883310
  12.2530630  85.8303890  25.0937630  12.7087580  85.0493270  25.4076250
  12.5923150  86.5410710  25.6378810  17.0007440  74.7602740  35.4262070
  16.3851710  75.2682410  34.8977530  16.6803860  73.8601070  35.3688010
   4.7751950  70.7326110  27.2888940   4.3320100  71.5135650  26.9573460
   5.3336940  71.0556000  27.9959880   9.0621760  73.5994630  32.8924260
   8.6001130  73.8077650  33.7044200   8.6599870  72.7853980  32.5894930
  14.0626270  74.8203580  34.0220920  13.2119860  74.5209330  34.3429990
  13.9028060  75.0645590  33.1104740  11.1575980  76.3205330  36.1219710
  11.4829390  75.4869080  35.7821940  11.9456310  76.8433850  36.2698040
   7.8910770  70.3536810  22.1694770   7.2664950  70.3496680  22.8948080
   7.8040890  69.4867770  21.7730740   6.8127850  71.2773440  29.1478540
   7.1100180  72.1836270  29.0670560   7.3613410  70.7892220  28.5338110
   4.5666170  75.8559680  25.0170190   4.3407090  75.6396850  25.9216810
   3.7858700  76.2888140  24.6716160  11.7963930  75.8623050  23.6160840
  11.1972820  76.5858850  23.4324460  12.3443540  75.7999830  22.8337290
   7.0065380  76.7545260  35.6830460   6.9108980  75.8139990  35.5330860
   7.8497360  76.9760330  35.2878530  10.4028800  74.4986590  25.6464120
  10.7958370  74.8158790  24.8332810  10.7645650  73.6198470  25.7608640
   8.7120970  73.2493900  36.9060980   8.0219290  73.0566100  37.5407070
   9.4553270  73.5328540  37.4385280  10.9883940  77.0892340  29.7414900
  10.2565060  77.5979150  30.0905000  10.5908280  76.2722320  29.4403680
   7.4261330  73.7646540  28.1467390   7.4297390  73.3236490  27.2971930
   8.3212450  74.0863870  28.2539210   3.2763710  73.6473030  27.1061600
   2.9363760  74.1248260  27.8628650   2.5141030  73.1938150  26.7462700
   7.4881480  74.7658620  21.1374150   7.6094300  74.7245100  22.0859970
   7.1029990  75.6282770  20.9820880  11.4509850  72.5426020  29.1537840
  11.4682590  72.9934670  29.9979690  11.2025430  71.6431660  29.3671280
   6.5002980  77.0759760  20.5357450   5.9319880  76.6278010  19.9093360
   7.2091980  77.4352540  20.0022600  14.8780600  69.9558200  34.9924220
  15.2026370  69.2247860  35.5182200  14.9137110  69.6371840  34.0905210
   7.7269300  77.8248320  29.8932800   8.0939430  77.3506890  30.6394140
   7.5374360  78.6989890  30.2341140   5.5168670  76.8656960  32.2117010
   5.2125740  77.7448940  32.4367370   6.4715130  76.9256750  32.2474450
   4.0450460  81.0717950  22.8083860   3.2712720  80.5315570  22.6482580
   4.7745090  80.5524560  22.4701620  14.8038440  80.0683310  28.6010250
  15.5237560  80.5638600  28.2106360  14.6020260  79.3901200  27.9564120
  10.2648380  71.4621270  22.7439640   9.4512990  70.9634440  22.6684950
  10.0710330  72.3019520  22.3275990  10.1857240  80.1392370  34.4879250
  10.1194550  79.2188040  34.2336840   9.5562380  80.2367810  35.2023890
  12.9796770  75.8340920  21.0401800  13.8676390  76.1458150  20.8653140
  12.9501860  74.9613170  20.6482380   4.0887860  80.7398330  26.4462670
   4.6066530  79.9366590  26.3919560   3.6371880  80.6777470  27.2879500
   8.9757360  82.0064610  21.7189970   9.3173060  82.7506840  21.2233290
   8.1470070  82.3195730  22.0814800   4.7745520  78.1643940  36.2427920
   4.4745660  78.3101120  35.3455740   5.5456760  77.6049230  36.1501310
  10.1173970  82.9612940  34.2383050  10.1318510  82.0293900  34.0201960
   9.4099070  83.0472700  34.8772820  15.2511040  77.1452760  20.5081660
  15.1674760  77.5766980  19.6578100  15.9705230  77.6051110  20.9408480
  16.3285180  79.6020280  33.5851630  15.6033370  80.1949060  33.3881020
  16.8560640  79.5943820  32.7865000  16.2798290  83.9995020  23.2363790
  15.6374450  83.3450640  23.5107510  15.8928950  84.4050110  22.4604460
  11.8584770  81.3280450  27.0835480  12.2108590  80.7308580  26.4236850
  10.9747100  81.0024680  27.2543730   7.9448050  82.0878140  24.4905890
   8.6319180  82.6347350  24.8713480   7.1580470  82.6318870  24.5255500
   7.2475260  79.0924170  24.1031250   7.7038040  79.9029420  24.3291440
   6.8963470  78.7747310  24.9349740   9.5507870  84.6030510  31.3323550
  10.1950090  84.8089890  32.0096970   9.9137310  83.8418910  30.8794400
   3.1487040  69.4361820  24.5753770   3.0201670  69.4279720  25.5238690
   2.3249060  69.7744910  24.2244780  10.8239950  82.6062860  30.0501000
  11.4662180  81.9056020  30.1633170  11.3489300  83.3861300  29.8697890
  14.6695670  82.8911480  19.7740140  14.4433250  82.1741920  20.3664780
  14.2791870  82.6423920  18.9361890  12.5977570  83.4057760  33.2537060
  12.9333810  83.9924450  33.9314980  11.6777910  83.2750470  33.4834850
  14.2511920  80.8083420  21.4354300  13.9633620  81.2696110  22.2232180
  15.0464090  80.3481190  21.7038520   8.4266150  83.4549090  36.4225120
   8.1063020  82.7358330  36.9670810   7.7524510  84.1304160  36.4961180
   6.4680320  84.3009540  21.3658270   6.4590420  85.0339230  20.7502780
   5.5478680  84.0541120  21.4585230  11.6419750  73.6875250  31.7861920
  12.0100570  72.8670460  32.1141490  10.7817950  73.7477140  32.2017570
  15.0081780  72.6432190  22.5949480  14.3794940  72.7477860  21.8807710
  14.5133700  72.8628970  23.3843360   9.4539920  84.3637780  20.0283460
   9.5551900  84.1601770  19.0985440   8.5541660  84.1096060  20.2331240
   6.9765810  74.9218140  24.0107360   6.2681960  75.3904480  24.4520970
   7.2610290  74.2640150  24.6452550   8.6021740  76.3414840  32.0099890
   9.1006990  76.8160660  32.6751740   8.7444690  75.4178360  32.2169920
  11.0081240  71.6468800  25.4503150  10.8849020  71.6654930  24.5012660
  11.9565800  71.6947740  25.5701550   8.0958030  86.8824100  24.7231130
   8.3499530  86.8445490  23.8010500   7.1470510  86.7557430  24.7159380
   5.1800830  73.2303220  21.3858070   6.0291360  73.6673370  21.3198260
   4.8132100  73.5423480  22.2130130  15.8088600  72.5582800  32.8528280
  15.3062200  73.2988200  33.1922090  16.6245260  72.9466800  32.5365070
  14.1010610  77.8015980  26.2989640  13.1600750  77.8166210  26.4737330
  14.4154680  77.0151940  26.7449940   4.0792250  79.4835580  19.8593600
   4.8455520  79.3716940  20.4219030   4.1566940  78.7873550  19.2070370
   2.7739010  76.9160650  20.5426490   2.8542600  75.9688160  20.6543890
   3.6658760  77.2467530  20.6487150  16.1036190  84.9724830  27.9743900
  16.2283610  85.7956000  28.4467710  16.9701750  84.7615560  27.6268050
   3.5753720  87.0656040  27.6461030   4.3116200  86.5171500  27.9169600
   3.9594640  87.9312050  27.5067020   2.5812000  86.2502110  36.8346610
   3.3824730  86.5714160  37.2482010   2.0663820  85.8897690  37.5566520
   6.6856030  86.2386350  19.4686600   7.4784640  86.5275180  19.0168390
   6.1660380  85.8078520  18.7899080  11.4176630  82.3581980  36.7822020
  10.8114790  82.3813580  36.0417770  11.1130740  81.6265020  37.3189270
  12.8477000  86.0862270  35.3931430  13.7998750  86.0020290  35.3431670
  12.7005220  86.7503980  36.0665220  15.7386200  85.4656480  20.8923340
  15.4527710  85.0521620  20.0777520  15.5405750  86.3944190  20.7723860
   7.2033430  81.4589760  19.3328950   7.0984070  80.8442110  20.0590330
   7.0357650  80.9355650  18.5491960   7.3547750  80.1446560  35.3118180
   6.5893420  80.7131560  35.2272850   7.5363710  79.8522770  34.4186410
  10.4436160  80.5209790  19.9370940   9.8946260  80.9679090  20.5813680
  11.0655420  80.0159040  20.4608610  14.4971100  81.8751890  35.8693200
  15.2380570  82.2127650  35.3660660  13.7343780  82.0443950  35.3162970
   2.3332890  76.8805160  36.6732730   2.3738230  76.5819030  37.5817960
   3.1878390  77.2812770  36.5140250   6.1111280  79.4800710  21.8336240
   6.5327700  79.3140580  22.6767630   6.2362120  78.6700940  21.3391380
   4.2738700  75.4597260  34.6407220   3.7435160  74.9688210  34.0130560
   4.9426770  75.8881460  34.1065150   8.6238920  78.5038320  19.0813340
   9.1444580  77.7887340  18.7154490   9.2707320  79.1424190  19.3813850
  13.1716760  79.9266720  34.4048410  13.5857780  80.0811800  35.2538830
  12.2367760  80.0521940  34.5674190  13.6438930  77.2662880  36.4087560
  14.2259700  76.5115200  36.3208040  13.8200700  77.7970320  35.6319040
   4.7611000  72.4259630  34.7204510   4.6667870  71.8080380  33.9955380
   4.1808390  73.1525920  34.4934420   7.5272440  70.9832870  31.7531900
   7.0789740  71.0057130  30.9077450   6.8937640  70.5851890  32.3502200
   7.9331990  79.8787200  32.3744340   8.3520100  80.7219930  32.2020580
   7.0140620  80.0159240  32.1451120  10.2695890  77.6103380  33.7582180
  10.3892100  77.0144520  34.4977020  11.1289890  77.6473070  33.3383480
  12.6083790  78.1640570  32.3344690  12.0819010  78.6883190  31.7309830
  12.9515130  78.7967960  32.9654420   5.0070180  75.5533940  18.7794400
   4.8059240  74.6901300  19.1407740   4.8362230  75.4667300  17.8416000
   5.7839410  86.1840210  33.4902070   5.2460500  86.9086270  33.1710770
   6.0373370  85.7070550  32.6999410   7.0364660  74.1524730  35.0158000
   7.6264350  73.8440580  35.7035820   6.2184900  73.6804480  35.1717900
  11.8558090  73.7690540  35.2491020  11.1673610  73.1072080  35.1841010
  12.5764110  73.3228810  35.6939480  12.4858490  70.3642170  21.3081280
  12.7660780  69.5210070  21.6640700  11.7124220  70.5965280  21.8220030
   3.8052980  72.6534560  18.7672280   4.1078880  72.6601990  17.8591430
   4.5447570  72.3032420  19.2639940   8.6401620  87.4191420  33.7488720
   8.5660320  88.3226560  34.0561090   7.7380460  87.1003320  33.7210790
   7.0237910  71.5969180  19.7528480   6.6759910  70.9193170  19.1730930
   7.2250680  71.1358690  20.5671870   9.1886950  86.5849930  21.3715080
  10.0837740  86.9234900  21.3933840   9.2204580  85.8629340  20.7439360
   2.8283110  81.9576980  19.6002080   3.2657980  82.5006650  20.2559660
   3.3130840  81.1323930  19.6098420   4.6390830  83.0775020  24.7124310
   4.3386370  82.9539990  25.6128220   4.5328320  82.2183610  24.3040040
  16.1681300  85.1153600  34.0781280  15.5683290  85.1746160  33.3345200
  16.2975200  84.1758580  34.2078130  17.4082750  82.8571420  19.4150990
  16.5775710  82.9248070  19.8858220  17.5854580  83.7475540  19.1117850
  16.8639210  79.6018900  21.9185190  17.6258120  80.1715550  22.0244880
  16.8793580  79.0346100  22.6893500  17.8699180  80.4569000  26.7627120
  18.2408010  79.6736320  26.3563090  18.5101110  81.1458100  26.5844420
  14.8532940  81.8405580  32.1757440  14.0392780  82.2702740  32.4383230
  15.2607140  82.4523990  31.5626490  16.9158380  79.8953270  19.0757710
  17.1907220  80.8032150  18.9476930  16.7269120  79.8315800  20.0119700
  13.3133990  72.9198120  20.3711340  13.7318870  72.7329100  19.5308000
  13.0070050  72.0677170  20.6814270  16.8123720  77.8322260  24.0687140
  16.4367320  77.0650190  23.6368430  16.0826840  78.2144960  24.5562070
  16.2023340  76.9793780  33.7026660  15.9709430  76.7506530  32.8024610
  16.4627890  77.8993330  33.6571550  14.6411410  72.2050210  36.4806360
  15.5181590  72.2133610  36.8640360  14.6532250  71.4681050  35.8698710
  16.0874680  76.0579750  27.3694380  16.6112160  75.5642400  26.7384550
  16.6734100  76.1930110  28.1141950  16.2664400  76.1419620  30.8913930
  15.3167110  76.1083160  31.0058920  16.4477410  77.0519730  30.6563700
   1.7683000  70.4460630  19.0415210   2.4911130  70.9869570  19.3596430
   2.0407520  70.1724050  18.1656750  15.5774650  75.3153100  23.3086790
  16.0733770  75.0823970  24.0935670  15.3790720  74.4764940  22.8924430
  17.0061810  73.9514050  25.8424470  16.8961090  73.7970090  26.7806740
  17.7669400  73.4234990  25.5999880  15.3527530  69.8908180  32.3007470
  15.9899750  70.5042320  32.6666660  15.5002420  69.9268840  31.3556700
  17.8952080  71.7821970  19.0830610  18.8201390  71.6503150  18.8748900
  17.8727870  71.8614790  20.0367060  17.9690570  72.5532630  21.7087320
  17.1742070  72.4877750  22.2380230  18.1733850  73.4883270  21.6972670
  14.9108990  86.5924180  25.7025710  15.5068060  86.2708750  25.0260130
  15.1687140  86.1196000  26.4938980   2.8171560  83.0242090  35.8516340
   2.7741190  82.6535000  36.7330800   2.9482570  83.9619660  35.9918160
   6.5177590  84.5801680  31.4526060   6.2768950  84.8476240  30.5656580
   7.4580230  84.7507410  31.5076920   8.7232010  71.0434370  35.2082570
   8.6620900  71.6356200  35.9577980   9.6632390  70.9360330  35.0632830
  11.3606570  70.7004430  34.8474860  11.9746980  71.0183720  34.1855940
  11.9056130  70.2153020  35.4670720  17.7781750  86.5996060  32.2536700
  17.2840030  86.9964930  31.5363830  17.1695040  85.9745270  32.6473980
   1.8827830  69.3798690  34.9613920   2.4310820  69.1986740  34.1980030
   1.9483140  68.5892800  35.4970230   2.6559590  85.9704340  32.9714120
   2.0619910  85.8389040  33.7104160   2.6483430  85.1342480  32.5056220
  12.1014610  69.2636570  31.1744150  11.2274450  69.5971680  30.9717080
  11.9925360  68.7909750  31.9996020  13.0086590  71.4707440  32.5585870
  12.6799950  70.6559200  32.1787600  13.9568890  71.4277250  32.4351560
  15.4621200  87.2419480  29.5323440  15.0024170  87.9935290  29.1581460
  14.8333660  86.5225950  29.4738240   2.2871820  83.3362720  31.9222160
   1.5605880  82.7168010  31.8548110   2.3480970  83.7303330  31.0520240
   5.8916920  85.5507720  28.7071570   6.4081940  84.9395080  28.1819830
   6.5414300  86.0536500  29.1982580   8.6312420  86.4416210  29.5340550
   8.9190230  86.1870510  28.6573560   9.1435640  85.8893570  30.1246120
   9.8489430  70.1806410  30.1137060   9.0661220  70.6551910  30.3933820
   9.5552360  69.2761240  30.0050240  14.4010500  70.8829510  28.1586150
  14.8418590  70.8274610  27.3107750  14.1318090  71.7987520  28.2296330
  16.2649070  70.5144750  26.1694970  16.2037470  69.5705970  26.0225990
  17.0441100  70.6224840  26.7148430   7.7343650  72.5993160  25.6253090
   6.9218160  72.2250050  25.2848970   8.2385290  71.8438240  25.9274280
  12.2368630  69.2635610  26.8636160  12.8398000  69.8355820  27.3384680
  11.4961620  69.8275050  26.6410060  15.3803230  69.6657170  22.1376440
  15.5753860  70.5640620  22.4043870  14.5933100  69.4344250  22.6309390
   2.1764520  85.3470340  22.5769060   1.6512140  85.7278370  21.8731020
   2.1009100  85.9721110  23.2978770   3.5654990  71.0117940  21.1752750
   4.0947750  70.2247740  21.0460700   4.1983310  71.6909130  21.4088280
   5.7592830  70.7493080  24.2298140   5.1295570  70.0480390  24.3968270
   5.2197970  71.5097210  24.0131300   8.6984780  87.3632310  36.9008750
   9.6252090  87.1276580  36.9444710   8.6835210  88.1904310  36.4194780
  16.9329840  86.9057880  23.8983000  17.1082030  86.2195620  23.2543920
  16.2351410  87.4304930  23.5059670   5.8848390  70.0277060  36.6650630
   5.6032660  70.5310660  35.9011450   6.2668090  69.2298810  36.2992760
   4.7757490  87.2952720  21.4518310   5.5076310  87.0112000  20.9042200
   5.0351160  87.0566000  22.3417690   3.9372280  83.4117450  21.4564640
   3.3081160  83.8802550  22.0050470   4.0520110  82.5666670  21.8910830
  12.4863850  69.4430640  37.2431100  12.3729300  69.7625250  38.1382620
  13.3033590  69.8443150  36.9468380  15.2662340  86.5902170  36.7249790
  16.0587660  86.0951400  36.5175750  15.5595490  87.2692310  37.3325400
  11.3922000  77.4623110   7.6065840  11.3116050  76.5477720   7.3357550
  10.9786420  77.9590180   6.9005550   9.5240040  79.2402130   9.4875110
   8.7482140  78.7602570   9.7773680  10.1752970  78.5607780   9.3131270
   3.5405870  79.5521940  10.3650870   2.7090750  79.2970650  10.7647380
   4.1486850  79.6232710  11.1008790  13.5447470  83.6462320   8.2674240
  13.0829000  82.8749560   8.5961410  14.3573020  83.6728390   8.7726690
   3.5207130  83.5862030  10.5608890   3.8235170  82.6959770  10.3819110
   4.2650720  84.1432250  10.3331140   9.7710780  85.9320330   7.8878230
   9.1522220  86.3877830   7.3172670  10.6262560  86.0871790   7.4867930
   8.9649030  81.9159320   9.4945270   8.8957310  80.9749260   9.3334400
   9.7268890  82.0060730  10.0667840   9.9954200  74.7229700   9.7214200
  10.3719020  73.8501580   9.6087870   9.8973710  75.0588400   8.8304640
   4.1259210  73.0955330   5.1831640   4.2325960  73.9959060   5.4900400
   3.2151570  73.0473300   4.8926290  13.7778320  72.2180140   6.6542540
  14.5987940  71.7276710   6.6968020  13.8112400  72.8077800   7.4074380
   5.9666940  76.0641700   9.5156820   6.4745160  76.5622670  10.1561840
   6.4980180  75.2876900   9.3396180  18.0677870  74.2346890  13.2186170
  17.3630040  74.6228600  12.7001280  18.3335790  74.9297180  13.8207100
   4.2503040  70.7040260  13.7820240   4.2521480  71.2212650  12.9766140
   3.4207350  70.2270440  13.7590170  10.6374130  80.8159570   5.2810140
  10.0191400  81.2809020   4.7172860  11.1497380  81.5087050   5.6979650
   5.5005890  80.3435440  11.9593740   5.1675270  80.9704360  12.6014810
   5.6772570  80.8697320  11.1795410  14.0139800  74.1580520   9.4270080
  13.3095370  74.4465410  10.0073190  14.3751960  74.9680630   9.0669640
   3.9318370  72.4150220  11.7890690   4.2735180  73.2592270  11.4944560
   2.9934180  72.5633960  11.9056030   4.7124990  82.3116240  13.7742920
   5.3298990  82.9867320  13.4927370   3.8518110  82.7204220  13.6830420
  15.6302580  83.7755650  11.6897560  14.9466100  84.4454760  11.6814230
  16.1696870  83.9736300  10.9242420  17.0826720  73.6035310   9.8179290
  16.1351630  73.6374290   9.9494720  17.4076710  74.4174260  10.2028650
   7.6146260  69.9032490   8.1135280   7.9221240  69.3479380   7.3970780
   6.6846960  70.0376950   7.9308270  13.1661320  85.6199780  10.4042740
  13.1788480  85.2162070   9.5365000  12.6136540  86.3947070  10.3004170
  14.4606740  82.3416000   5.4932910  14.3503070  81.3990330   5.6182330
  14.4574990  82.7031640   6.3795670  12.5646760  80.5229620  11.7325350
  12.9815550  80.3089730  10.8978810  13.2886580  80.7802410  12.3033970
  10.0027020  77.9681320   4.8495400   9.0756300  77.9018700   5.0783870
  10.1551840  78.9061450   4.7350640  16.5108860  78.9216840  11.8241590
  15.6827490  78.9909930  11.3491720  17.1059340  79.5071150  11.3557420
  14.0324310  79.5301620   5.3530650  13.4136730  79.1921170   4.7056950
  14.0148760  78.8861380   6.0609840  13.4750870  75.7086160  12.7696460
  13.0622050  76.5339870  13.0236450  12.7426820  75.1231200  12.5772820
   5.6083660  78.4946060   7.6315130   5.2040660  77.7823310   7.1361030
   5.6946780  78.1499300   8.5203170   6.0765360  82.1813620   9.7954340
   5.7793650  81.5759090   9.1162120   7.0265180  82.2190930   9.6843700
   4.3212280  75.2689270  11.4114170   4.8726870  75.3784610  10.6367420
   4.8355790  75.6426870  12.1269400  14.1650970  85.7545490  13.4577440
  13.6881530  86.5617680  13.2650050  13.4812760  85.1023820  13.6103650
   5.1683790  81.9195310  16.4462140   4.2712320  82.1435280  16.6935540
   5.1936660  82.0430250  15.4973540  12.2089010  78.7688430   2.3603400
  12.6482290  77.9310860   2.2141220  12.9217430  79.4017830   2.4467540
   3.9955010  78.7908630  15.0219510   3.8562780  79.6631430  15.3906910
   3.1136370  78.4481440  14.8767450  10.3184390  83.7084500   6.3284640
  10.7580300  84.4508830   5.9140030  10.2571280  83.9511070   7.2523600
   5.7935360  84.7330330  17.2304660   5.7650790  85.1373280  16.3633090
   5.6300330  83.8040690  17.0676260   2.3088290  77.3891040   5.1321780
   2.1885890  78.1153130   4.5203050   1.9989180  76.6193950   4.6549690
  17.7450180  85.5157430  18.5268830  18.2209900  85.9940320  19.2057910
  18.3657340  85.4474920  17.8014330  17.1483430  82.7070280  15.6868840
  17.2746490  82.4682160  14.7686020  17.1904810  81.8754820  16.1590920
  11.0100170  86.4098280  14.2563650  11.5244840  86.3206290  15.0586080
  10.1669250  86.7557980  14.5491560  12.9854570  86.6953620   3.6847650
  12.8255710  86.4056560   4.5829480  12.8201280  85.9193750   3.1492880
   5.4642950  86.4752150   5.4619270   5.2885430  85.5587690   5.2487070
   4.6098690  86.8339440   5.7017070  12.2530630  85.8303890   6.3194140
  12.7087580  85.0493270   6.6332760  12.5923150  86.5410710   6.8635320
  17.0007440  74.7602740  16.6518580  16.3851710  75.2682410  16.1234040
  16.6803860  73.8601070  16.5944520   4.7751950  70.7326110   8.5145450
   4.3320100  71.5135650   8.1829970   5.3336940  71.0556000   9.2216390
   9.0621760  73.5994630  14.1180770   8.6001130  73.8077650  14.9300710
   8.6599870  72.7853980  13.8151440  14.0626270  74.8203580  15.2477430
  13.2119860  74.5209330  15.5686500  13.9028060  75.0645590  14.3361250
  11.1575980  76.3205330  17.3476220  11.4829390  75.4869080  17.0078450
  11.9456310  76.8433850  17.4954550   7.8910770  70.3536810   3.3951280
   7.2664950  70.3496680   4.1204590   7.8040890  69.4867770   2.9987250
   6.8127850  71.2773440  10.3735050   7.1100180  72.1836270  10.2927070
   7.3613410  70.7892220   9.7594620   4.5666170  75.8559680   6.2426700
   4.3407090  75.6396850   7.1473320   3.7858700  76.2888140   5.8972670
  11.7963930  75.8623050   4.8417350  11.1972820  76.5858850   4.6580970
  12.3443540  75.7999830   4.0593800   7.0065380  76.7545260  16.9086970
   6.9108980  75.8139990  16.7587370   7.8497360  76.9760330  16.5135040
  10.4028800  74.4986590   6.8720630  10.7958370  74.8158790   6.0589320
  10.7645650  73.6198470   6.9865150   8.7120970  73.2493900  18.1317490
   8.0219290  73.0566100  18.7663580   9.4553270  73.5328540  18.6641790
  10.9883940  77.0892340  10.9671410  10.2565060  77.5979150  11.3161510
  10.5908280  76.2722320  10.6660190   7.4261330  73.7646540   9.3723900
   7.4297390  73.3236490   8.5228440   8.3212450  74.0863870   9.4795720
   3.2763710  73.6473030   8.3318110   2.9363760  74.1248260   9.0885160
   2.5141030  73.1938150   7.9719210   7.4881480  74.7658620   2.3630660
   7.6094300  74.7245100   3.3116480   7.1029990  75.6282770   2.2077390
  11.4509850  72.5426020  10.3794350  11.4682590  72.9934670  11.2236200
  11.2025430  71.6431660  10.5927790  14.8780600  69.9558200  16.2180730
  15.2026370  69.2247860  16.7438710  14.9137110  69.6371840  15.3161720
   7.7269300  77.8248320  11.1189310   8.0939430  77.3506890  11.8650650
   7.5374360  78.6989890  11.4597650   5.5168670  76.8656960  13.4373520
   5.2125740  77.7448940  13.6623880   6.4715130  76.9256750  13.4730960
   4.0450460  81.0717950   4.0340370   3.2712720  80.5315570   3.8739090
   4.7745090  80.5524560   3.6958130  14.8038440  80.0683310   9.8266760
  15.5237560  80.5638600   9.4362870  14.6020260  79.3901200   9.1820630
  10.2648380  71.4621270   3.9696150   9.4512990  70.9634440   3.8941460
  10.0710330  72.3019520   3.5532500  10.1857240  80.1392370  15.7135760
  10.1194550  79.2188040  15.4593350   9.5562380  80.2367810  16.4280400
  12.9796770  75.8340920   2.2658310  13.8676390  76.1458150   2.0909650
  12.9501860  74.9613170   1.8738890   4.0887860  80.7398330   7.6719180
   4.6066530  79.9366590   7.6176070   3.6371880  80.6777470   8.5136010
   8.9757360  82.0064610   2.9446480   9.3173060  82.7506840   2.4489800
   8.1470070  82.3195730   3.3071310   4.7745520  78.1643940  17.4684430
   4.4745660  78.3101120  16.5712250   5.5456760  77.6049230  17.3757820
  10.1173970  82.9612940  15.4639560  10.1318510  82.0293900  15.2458470
   9.4099070  83.0472700  16.1029330  16.3285180  79.6020280  14.8108140
  15.6033370  80.1949060  14.6137530  16.8560640  79.5943820  14.0121510
  16.2798290  83.9995020   4.4620300  15.6374450  83.3450640   4.7364020
  15.8928950  84.4050110   3.6860970  11.8584770  81.3280450   8.3091990
  12.2108590  80.7308580   7.6493360  10.9747100  81.0024680   8.4800240
   7.9448050  82.0878140   5.7162400   8.6319180  82.6347350   6.0969990
   7.1580470  82.6318870   5.7512010   7.2475260  79.0924170   5.3287760
   7.7038040  79.9029420   5.5547950   6.8963470  78.7747310   6.1606250
   9.5507870  84.6030510  12.5580060  10.1950090  84.8089890  13.2353480
   9.9137310  83.8418910  12.1050910   3.1487040  69.4361820   5.8010280
   3.0201670  69.4279720   6.7495200   2.3249060  69.7744910   5.4501290
  10.8239950  82.6062860  11.2757510  11.4662180  81.9056020  11.3889680
  11.3489300  83.3861300  11.0954400  12.5977570  83.4057760  14.4793570
  12.9333810  83.9924450  15.1571490  11.6777910  83.2750470  14.7091360
  14.2511920  80.8083420   2.6610810  13.9633620  81.2696110   3.4488690
  15.0464090  80.3481190   2.9295030   8.4266150  83.4549090  17.6481630
   8.1063020  82.7358330  18.1927320   7.7524510  84.1304160  17.7217690
   6.4680320  84.3009540   2.5914780   6.4590420  85.0339230   1.9759290
   5.5478680  84.0541120   2.6841740  11.6419750  73.6875250  13.0118430
  12.0100570  72.8670460  13.3398000  10.7817950  73.7477140  13.4274080
  15.0081780  72.6432190   3.8205990  14.3794940  72.7477860   3.1064220
  14.5133700  72.8628970   4.6099870   6.9765810  74.9218140   5.2363870
   6.2681960  75.3904480   5.6777480   7.2610290  74.2640150   5.8709060
   8.6021740  76.3414840  13.2356400   9.1006990  76.8160660  13.9008250
   8.7444690  75.4178360  13.4426430  11.0081240  71.6468800   6.6759660
  10.8849020  71.6654930   5.7269170  11.9565800  71.6947740   6.7958060
   8.0958030  86.8824100   5.9487640   8.3499530  86.8445490   5.0267010
   7.1470510  86.7557430   5.9415890   5.1800830  73.2303220   2.6114580
   6.0291360  73.6673370   2.5454770   4.8132100  73.5423480   3.4386640
  15.8088600  72.5582800  14.0784790  15.3062200  73.2988200  14.4178600
  16.6245260  72.9466800  13.7621580  14.1010610  77.8015980   7.5246150
  13.1600750  77.8166210   7.6993840  14.4154680  77.0151940   7.9706450
   2.7739010  76.9160650   1.7683000   2.8542600  75.9688160   1.8800400
   3.6658760  77.2467530   1.8743660  16.1036190  84.9724830   9.2000410
  16.2283610  85.7956000   9.6724220  16.9701750  84.7615560   8.8524560
   3.5753720  87.0656040   8.8717540   4.3116200  86.5171500   9.1426110
   3.9594640  87.9312050   8.7323530   2.5812000  86.2502110  18.0603120
   3.3824730  86.5714160  18.4738520   2.0663820  85.8897690  18.7823030
  11.4176630  82.3581980  18.0078530  10.8114790  82.3813580  17.2674280
  11.1130740  81.6265020  18.5445780  12.8477000  86.0862270  16.6187940
  13.7998750  86.0020290  16.5688180  12.7005220  86.7503980  17.2921730
   7.3547750  80.1446560  16.5374690   6.5893420  80.7131560  16.4529360
   7.5363710  79.8522770  15.6442920  14.4971100  81.8751890  17.0949710
  15.2380570  82.2127650  16.5917170  13.7343780  82.0443950  16.5419480
   2.3332890  76.8805160  17.8989240   2.3738230  76.5819030  18.8074470
   3.1878390  77.2812770  17.7396760   6.1111280  79.4800710   3.0592750
   6.5327700  79.3140580   3.9024140   6.2362120  78.6700940   2.5647890
   4.2738700  75.4597260  15.8663730   3.7435160  74.9688210  15.2387070
   4.9426770  75.8881460  15.3321660  13.1716760  79.9266720  15.6304920
  13.5857780  80.0811800  16.4795340  12.2367760  80.0521940  15.7930700
  13.6438930  77.2662880  17.6344070  14.2259700  76.5115200  17.5464550
  13.8200700  77.7970320  16.8575550   4.7611000  72.4259630  15.9461020
   4.6667870  71.8080380  15.2211890   4.1808390  73.1525920  15.7190930
   7.5272440  70.9832870  12.9788410   7.0789740  71.0057130  12.1333960
   6.8937640  70.5851890  13.5758710   7.9331990  79.8787200  13.6000850
   8.3520100  80.7219930  13.4277090   7.0140620  80.0159240  13.3707630
  10.2695890  77.6103380  14.9838690  10.3892100  77.0144520  15.7233530
  11.1289890  77.6473070  14.5639990  12.6083790  78.1640570  13.5601200
  12.0819010  78.6883190  12.9566340  12.9515130  78.7967960  14.1910930
   5.7839410  86.1840210  14.7158580   5.2460500  86.9086270  14.3967280
   6.0373370  85.7070550  13.9255920   7.0364660  74.1524730  16.2414510
   7.6264350  73.8440580  16.9292330   6.2184900  73.6804480  16.3974410
  11.8558090  73.7690540  16.4747530  11.1673610  73.1072080  16.4097520
  12.5764110  73.3228810  16.9195990  12.4858490  70.3642170   2.5337790
  12.7660780  69.5210070   2.8897210  11.7124220  70.5965280   3.0476540
   8.6401620  87.4191420  14.9745230   8.5660320  88.3226560  15.2817600
   7.7380460  87.1003320  14.9467300   9.1886950  86.5849930   2.5971590
  10.0837740  86.9234900   2.6190350   9.2204580  85.8629340   1.9695870
   4.6390830  83.0775020   5.9380820   4.3386370  82.9539990   6.8384730
   4.5328320  82.2183610   5.5296550  16.1681300  85.1153600  15.3037790
  15.5683290  85.1746160  14.5601710  16.2975200  84.1758580  15.4334640
  16.8639210  79.6018900   3.1441700  17.6258120  80.1715550   3.2501390
  16.8793580  79.0346100   3.9150010  17.8699180  80.4569000   7.9883630
  18.2408010  79.6736320   7.5819600  18.5101110  81.1458100   7.8100930
  14.8532940  81.8405580  13.4013950  14.0392780  82.2702740  13.6639740
  15.2607140  82.4523990  12.7883000  16.8123720  77.8322260   5.2943650
  16.4367320  77.0650190   4.8624940  16.0826840  78.2144960   5.7818580
  16.2023340  76.9793780  14.9283170  15.9709430  76.7506530  14.0281120
  16.4627890  77.8993330  14.8828060  14.6411410  72.2050210  17.7062870
  15.5181590  72.2133610  18.0896870  14.6532250  71.4681050  17.0955220
  16.0874680  76.0579750   8.5950890  16.6112160  75.5642400   7.9641060
  16.6734100  76.1930110   9.3398460  16.2664400  76.1419620  12.1170440
  15.3167110  76.1083160  12.2315430  16.4477410  77.0519730  11.8820210
  15.5774650  75.3153100   4.5343300  16.0733770  75.0823970   5.3192180
  15.3790720  74.4764940   4.1180940  17.0061810  73.9514050   7.0680980
  16.8961090  73.7970090   8.0063250  17.7669400  73.4234990   6.8256390
  15.3527530  69.8908180  13.5263980  15.9899750  70.5042320  13.8923170
  15.5002420  69.9268840  12.5813210  17.9690570  72.5532630   2.9343830
  17.1742070  72.4877750   3.4636740  18.1733850  73.4883270   2.9229180
  14.9108990  86.5924180   6.9282220  15.5068060  86.2708750   6.2516640
  15.1687140  86.1196000   7.7195490   2.8171560  83.0242090  17.0772850
   2.7741190  82.6535000  17.9587310   2.9482570  83.9619660  17.2174670
   6.5177590  84.5801680  12.6782570   6.2768950  84.8476240  11.7913090
   7.4580230  84.7507410  12.7333430   8.7232010  71.0434370  16.4339080
   8.6620900  71.6356200  17.1834490   9.6632390  70.9360330  16.2889340
  11.3606570  70.7004430  16.0731370  11.9746980  71.0183720  15.4112450
  11.9056130  70.2153020  16.6927230  17.7781750  86.5996060  13.4793210
  17.2840030  86.9964930  12.7620340  17.1695040  85.9745270  13.8730490
   1.8827830  69.3798690  16.1870430   2.4310820  69.1986740  15.4236540
   1.9483140  68.5892800  16.7226740   2.6559590  85.9704340  14.1970630
   2.0619910  85.8389040  14.9360670   2.6483430  85.1342480  13.7312730
  12.1014610  69.2636570  12.4000660  11.2274450  69.5971680  12.1973590
  11.9925360  68.7909750  13.2252530  13.0086590  71.4707440  13.7842380
  12.6799950  70.6559200  13.4044110  13.9568890  71.4277250  13.6608070
  15.4621200  87.2419480  10.7579950  15.0024170  87.9935290  10.3837970
  14.8333660  86.5225950  10.6994750   2.2871820  83.3362720  13.1478670
   1.5605880  82.7168010  13.0804620   2.3480970  83.7303330  12.2776750
   5.8916920  85.5507720   9.9328080   6.4081940  84.9395080   9.4076340
   6.5414300  86.0536500  10.4239090   8.6312420  86.4416210  10.7597060
   8.9190230  86.1870510   9.8830070   9.1435640  85.8893570  11.3502630
   9.8489430  70.1806410  11.3393570   9.0661220  70.6551910  11.6190330
   9.5552360  69.2761240  11.2306750  14.4010500  70.8829510   9.3842660
  14.8418590  70.8274610   8.5364260  14.1318090  71.7987520   9.4552840
  16.2649070  70.5144750   7.3951480  16.2037470  69.5705970   7.2482500
  17.0441100  70.6224840   7.9404940   7.7343650  72.5993160   6.8509600
   6.9218160  72.2250050   6.5105480   8.2385290  71.8438240   7.1530790
  12.2368630  69.2635610   8.0892670  12.8398000  69.8355820   8.5641190
  11.4961620  69.8275050   7.8666570  15.3803230  69.6657170   3.3632950
  15.5753860  70.5640620   3.6300380  14.5933100  69.4344250   3.8565900
   2.1764520  85.3470340   3.8025570   1.6512140  85.7278370   3.0987530
   2.1009100  85.9721110   4.5235280   3.5654990  71.0117940   2.4009260
   4.0947750  70.2247740   2.2717210   4.1983310  71.6909130   2.6344790
   5.7592830  70.7493080   5.4554650   5.1295570  70.0480390   5.6224780
   5.2197970  71.5097210   5.2387810   8.6984780  87.3632310  18.1265260
   9.6252090  87.1276580  18.1701220   8.6835210  88.1904310  17.6451290
  16.9329840  86.9057880   5.1239510  17.1082030  86.2195620   4.4800430
  16.2351410  87.4304930   4.7316180   5.8848390  70.0277060  17.8907140
   5.6032660  70.5310660  17.1267960   6.2668090  69.2298810  17.5249270
   4.7757490  87.2952720   2.6774820   5.5076310  87.0112000   2.1298710
   5.0351160  87.0566000   3.5674200   3.9372280  83.4117450   2.6821150
   3.3081160  83.8802550   3.2306980   4.0520110  82.5666670   3.1167340
  12.4863850  69.4430640  18.4687610  12.3729300  69.7625250  19.3639130
  13.3033590  69.8443150  18.1724890  15.2662340  86.5902170  17.9506300
  16.0587660  86.0951400  17.7432260  15.5595490  87.2692310  18.5581910
  11.3922000  58.6879620  63.9296310  11.3116050  57.7734230  63.6588020
  10.9786420  59.1846690  63.2236020   9.5240040  60.4658640  65.8105580
   8.7482140  59.9859080  66.1004150  10.1752970  59.7864290  65.6361740
   3.5405870  60.7778450  66.6881340   2.7090750  60.5227160  67.0877850
   4.1486850  60.8489220  67.4239260  13.5447470  64.8718830  64.5904710
  13.0829000  64.1006070  64.9191880  14.3573020  64.8984900  65.0957160
   3.5207130  64.8118540  66.8839360   3.8235170  63.9216280  66.7049580
   4.2650720  65.3688760  66.6561610   9.7710780  67.1576840  64.2108700
   9.1522220  67.6134340  63.6403140  10.6262560  67.3128300  63.8098400
   8.9649030  63.1415830  65.8175740   8.8957310  62.2005770  65.6564870
   9.7268890  63.2317240  66.3898310   9.9954200  55.9486210  66.0444670
  10.3719020  55.0758090  65.9318340   9.8973710  56.2844910  65.1535110
   4.1259210  54.3211840  61.5062110   4.2325960  55.2215570  61.8130870
   3.2151570  54.2729810  61.2156760  13.7778320  53.4436650  62.9773010
  14.5987940  52.9533220  63.0198490  13.8112400  54.0334310  63.7304850
   5.9666940  57.2898210  65.8387290   6.4745160  57.7879180  66.4792310
   6.4980180  56.5133410  65.6626650  18.0677870  55.4603400  69.5416640
  17.3630040  55.8485110  69.0231750  18.3335790  56.1553690  70.1437570
   4.2503040  51.9296770  70.1050710   4.2521480  52.4469160  69.2996610
   3.4207350  51.4526950  70.0820640  10.6374130  62.0416080  61.6040610
  10.0191400  62.5065530  61.0403330  11.1497380  62.7343560  62.0210120
   5.5005890  61.5691950  68.2824210   5.1675270  62.1960870  68.9245280
   5.6772570  62.0953830  67.5025880  14.0139800  55.3837030  65.7500550
  13.3095370  55.6721920  66.3303660  14.3751960  56.1937140  65.3900110
   3.9318370  53.6406730  68.1121160   4.2735180  54.4848780  67.8175030
   2.9934180  53.7890470  68.2286500   4.7124990  63.5372750  70.0973390
   5.3298990  64.2123830  69.8157840   3.8518110  63.9460730  70.0060890
  15.6302580  65.0012160  68.0128030  14.9466100  65.6711270  68.0044700
  16.1696870  65.1992810  67.2472890  17.0826720  54.8291820  66.1409760
  16.1351630  54.8630800  66.2725190  17.4076710  55.6430770  66.5259120
   7.6146260  51.1289000  64.4365750   7.9221240  50.5735890  63.7201250
   6.6846960  51.2633460  64.2538740  13.1661320  66.8456290  66.7273210
  13.1788480  66.4418580  65.8595470  12.6136540  67.6203580  66.6234640
  14.4606740  63.5672510  61.8163380  14.3503070  62.6246840  61.9412800
  14.4574990  63.9288150  62.7026140  12.5646760  61.7486130  68.0555820
  12.9815550  61.5346240  67.2209280  13.2886580  62.0058920  68.6264440
  10.0027020  59.1937830  61.1725870   9.0756300  59.1275210  61.4014340
  10.1551840  60.1317960  61.0581110   9.9896100  55.4654830  58.1693030
   9.0499770  55.6268790  58.2545490  10.3079360  56.1840510  57.6229020
  16.5108860  60.1473350  68.1472060  15.6827490  60.2166440  67.6722190
  17.1059340  60.7327660  67.6787890  14.0324310  60.7558130  61.6761120
  13.4136730  60.4177680  61.0287420  14.0148760  60.1117890  62.3840310
  13.4750870  56.9342670  69.0926930  13.0622050  57.7596380  69.3466920
  12.7426820  56.3487710  68.9003290   5.6083660  59.7202570  63.9545600
   5.2040660  59.0079820  63.4591500   5.6946780  59.3755810  64.8433640
   6.0765360  63.4070130  66.1184810   5.7793650  62.8015600  65.4392590
   7.0265180  63.4447440  66.0074170   4.3212280  56.4945780  67.7344640
   4.8726870  56.6041120  66.9597890   4.8355790  56.8683380  68.4499870
  14.1650970  66.9802000  69.7807910  13.6881530  67.7874190  69.5880520
  13.4812760  66.3280330  69.9334120  12.2089010  59.9944940  58.6833870
  12.6482290  59.1567370  58.5371690  12.9217430  60.6274340  58.7698010
   3.9955010  60.0165140  71.3449980   3.8562780  60.8887940  71.7137380
   3.1136370  59.6737950  71.1997920  10.3184390  64.9341010  62.6515110
  10.7580300  65.6765340  62.2370500  10.2571280  65.1767580  63.5754070
  15.7906150  51.2487750  56.9974910  15.4778810  51.3414580  57.8973980
  16.5518620  51.8268780  56.9472340   2.3088290  58.6147550  61.4552250
   2.1885890  59.3409640  60.8433520   1.9989180  57.8450460  60.9780160
  17.1483430  63.9326790  72.0099310  17.2746490  63.6938670  71.0916490
  17.1904810  63.1011330  72.4821390  11.0100170  67.6354790  70.5794120
  11.5244840  67.5462800  71.3816550  10.1669250  67.9814490  70.8722030
  12.9854570  67.9210130  60.0078120  12.8255710  67.6313070  60.9059950
  12.8201280  67.1450260  59.4723350   5.4642950  67.7008660  61.7849740
   5.2885430  66.7844200  61.5717540   4.6098690  68.0595950  62.0247540
  12.6880700  65.4297690  58.5676120  11.9945860  65.4274980  57.9078400
  13.4303560  65.0057010  58.1370290  12.2530630  67.0560400  62.6424610
  12.7087580  66.2749780  62.9563230  12.5923150  67.7667220  63.1865790
  17.0007440  55.9859250  72.9749050  16.3851710  56.4938920  72.4464510
  16.6803860  55.0857580  72.9174990   4.7751950  51.9582620  64.8375920
   4.3320100  52.7392160  64.5060440   5.3336940  52.2812510  65.5446860
   9.0621760  54.8251140  70.4411240   8.6001130  55.0334160  71.2531180
   8.6599870  54.0110490  70.1381910  14.0626270  56.0460090  71.5707900
  13.2119860  55.7465840  71.8916970  13.9028060  56.2902100  70.6591720
   7.8910770  51.5793320  59.7181750   7.2664950  51.5753190  60.4435060
   7.8040890  50.7124280  59.3217720   6.8127850  52.5029950  66.6965520
   7.1100180  53.4092780  66.6157540   7.3613410  52.0148730  66.0825090
   4.5666170  57.0816190  62.5657170   4.3407090  56.8653360  63.4703790
   3.7858700  57.5144650  62.2203140  11.7963930  57.0879560  61.1647820
  11.1972820  57.8115360  60.9811440  12.3443540  57.0256340  60.3824270
  10.4028800  55.7243100  63.1951100  10.7958370  56.0415300  62.3819790
  10.7645650  54.8454980  63.3095620  10.9883940  58.3148850  67.2901880
  10.2565060  58.8235660  67.6391980  10.5908280  57.4978830  66.9890660
   7.4261330  54.9903050  65.6954370   7.4297390  54.5493000  64.8458910
   8.3212450  55.3120380  65.8026190   3.2763710  54.8729540  64.6548580
   2.9363760  55.3504770  65.4115630   2.5141030  54.4194660  64.2949680
   7.4881480  55.9915130  58.6861130   7.6094300  55.9501610  59.6346950
   7.1029990  56.8539280  58.5307860  11.4509850  53.7682530  66.7024820
  11.4682590  54.2191180  67.5466670  11.2025430  52.8688170  66.9158260
   6.5002980  58.3016270  58.0844430   5.9319880  57.8534520  57.4580340
   7.2091980  58.6609050  57.5509580   7.7269300  59.0504830  67.4419780
   8.0939430  58.5763400  68.1881120   7.5374360  59.9246400  67.7828120
   5.5168670  58.0913470  69.7603990   5.2125740  58.9705450  69.9854350
   6.4715130  58.1513260  69.7961430   4.0450460  62.2974460  60.3570840
   3.2712720  61.7572080  60.1969560   4.7745090  61.7781070  60.0188600
  14.8038440  61.2939820  66.1497230  15.5237560  61.7895110  65.7593340
  14.6020260  60.6157710  65.5051100  10.2648380  52.6877780  60.2926620
   9.4512990  52.1890950  60.2171930  10.0710330  53.5276030  59.8762970
  10.1857240  61.3648880  72.0366230  10.1194550  60.4444550  71.7823820
   9.5562380  61.4624320  72.7510870  12.9796770  57.0597430  58.5888780
  13.8676390  57.3714660  58.4140120  12.9501860  56.1869680  58.1969360
   4.0887860  61.9654840  63.9949650   4.6066530  61.1623100  63.9406540
   3.6371880  61.9033980  64.8366480   8.9757360  63.2321120  59.2676950
   9.3173060  63.9763350  58.7720270   8.1470070  63.5452240  59.6301780
  10.1173970  64.1869450  71.7870030  10.1318510  63.2550410  71.5688940
   9.4099070  64.2729210  72.4259800  15.2511040  58.3709270  58.0568640
  15.1674760  58.8023490  57.2065080  15.9705230  58.8307620  58.4895460
  16.3285180  60.8276790  71.1338610  15.6033370  61.4205570  70.9368000
  16.8560640  60.8200330  70.3351980  16.2798290  65.2251530  60.7850770
  15.6374450  64.5707150  61.0594490  15.8928950  65.6306620  60.0091440
  11.8584770  62.5536960  64.6322460  12.2108590  61.9565090  63.9723830
  10.9747100  62.2281190  64.8030710   7.9448050  63.3134650  62.0392870
   8.6319180  63.8603860  62.4200460   7.1580470  63.8575380  62.0742480
   7.2475260  60.3180680  61.6518230   7.7038040  61.1285930  61.8778420
   6.8963470  60.0003820  62.4836720   9.5507870  65.8287020  68.8810530
  10.1950090  66.0346400  69.5583950   9.9137310  65.0675420  68.4281380
   3.1487040  50.6618330  62.1240750   3.0201670  50.6536230  63.0725670
   2.3249060  51.0001420  61.7731760  10.8239950  63.8319370  67.5987980
  11.4662180  63.1312530  67.7120150  11.3489300  64.6117810  67.4184870
  14.6695670  64.1167990  57.3227120  14.4433250  63.3998430  57.9151760
  14.2791870  63.8680430  56.4848870  12.5977570  64.6314270  70.8024040
  12.9333810  65.2180960  71.4801960  11.6777910  64.5006980  71.0321830
  14.2511920  62.0339930  58.9841280  13.9633620  62.4952620  59.7719160
  15.0464090  61.5737700  59.2525500   6.4680320  65.5266050  58.9145250
   6.4590420  66.2595740  58.2989760   5.5478680  65.2797630  59.0072210
  11.6419750  54.9131760  69.3348900  12.0100570  54.0926970  69.6628470
  10.7817950  54.9733650  69.7504550  15.0081780  53.8688700  60.1436460
  14.3794940  53.9734370  59.4294690  14.5133700  54.0885480  60.9330340
   9.4539920  65.5894290  57.5770440   9.5551900  65.3858280  56.6472420
   8.5541660  65.3352570  57.7818220   6.9765810  56.1474650  61.5594340
   6.2681960  56.6160990  62.0007950   7.2610290  55.4896660  62.1939530
   8.6021740  57.5671350  69.5586870   9.1006990  58.0417170  70.2238720
   8.7444690  56.6434870  69.7656900  11.0081240  52.8725310  62.9990130
  10.8849020  52.8911440  62.0499640  11.9565800  52.9204250  63.1188530
   8.0958030  68.1080610  62.2718110   8.3499530  68.0702000  61.3497480
   7.1470510  67.9813940  62.2646360   5.1800830  54.4559730  58.9345050
   6.0291360  54.8929880  58.8685240   4.8132100  54.7679990  59.7617110
  15.8088600  53.7839310  70.4015260  15.3062200  54.5244710  70.7409070
  16.6245260  54.1723310  70.0852050  14.1010610  59.0272490  63.8476620
  13.1600750  59.0422720  64.0224310  14.4154680  58.2408450  64.2936920
   4.0792250  60.7092090  57.4080580   4.8455520  60.5973450  57.9706010
   4.1566940  60.0130060  56.7557350   2.7739010  58.1417160  58.0913470
   2.8542600  57.1944670  58.2030870   3.6658760  58.4724040  58.1974130
  16.1036190  66.1981340  65.5230880  16.2283610  67.0212510  65.9954690
  16.9701750  65.9872070  65.1755030   3.5753720  68.2912550  65.1948010
   4.3116200  67.7428010  65.4656580   3.9594640  69.1568560  65.0554000
   6.6856030  67.4642860  57.0173580   7.4784640  67.7531690  56.5655370
   6.1660380  67.0335030  56.3386060  15.7386200  66.6912990  58.4410320
  15.4527710  66.2778130  57.6264500  15.5405750  67.6200700  58.3210840
   7.2033430  62.6846270  56.8815930   7.0984070  62.0698620  57.6077310
   7.0357650  62.1612160  56.0978940   7.3547750  61.3703070  72.8605160
   6.5893420  61.9388070  72.7759830   7.5363710  61.0779280  71.9673390
  10.4436160  61.7466300  57.4857920   9.8946260  62.1935600  58.1300660
  11.0655420  61.2415550  58.0095590   6.1111280  60.7057220  59.3823220
   6.5327700  60.5397090  60.2254610   6.2362120  59.8957450  58.8878360
   4.2738700  56.6853770  72.1894200   3.7435160  56.1944720  71.5617540
   4.9426770  57.1137970  71.6552130   8.6238920  59.7294830  56.6300320
   9.1444580  59.0143850  56.2641470   9.2707320  60.3680700  56.9300830
  13.1716760  61.1523230  71.9535390  13.5857780  61.3068310  72.8025810
  12.2367760  61.2778450  72.1161170   4.7611000  53.6516140  72.2691490
   4.6667870  53.0336890  71.5442360   4.1808390  54.3782430  72.0421400
   7.5272440  52.2089380  69.3018880   7.0789740  52.2313640  68.4564430
   6.8937640  51.8108400  69.8989180   7.9331990  61.1043710  69.9231320
   8.3520100  61.9476440  69.7507560   7.0140620  61.2415750  69.6938100
  10.2695890  58.8359890  71.3069160  10.3892100  58.2401030  72.0464000
  11.1289890  58.8729580  70.8870460  12.6083790  59.3897080  69.8831670
  12.0819010  59.9139700  69.2796810  12.9515130  60.0224470  70.5141400
   5.0070180  56.7790450  56.3281380   4.8059240  55.9157810  56.6894720
   4.8362230  56.6923810  55.3902980   5.7839410  67.4096720  71.0389050
   5.2460500  68.1342780  70.7197750   6.0373370  66.9327060  70.2486390
  12.4858490  51.5898680  58.8568260  12.7660780  50.7466580  59.2127680
  11.7124220  51.8221790  59.3707010   3.8052980  53.8791070  56.3159260
   4.1078880  53.8858500  55.4078410   4.5447570  53.5288930  56.8126920
   8.6401620  68.6447930  71.2975700   8.5660320  69.5483070  71.6048070
   7.7380460  68.3259830  71.2697770   7.0237910  52.8225690  57.3015460
   6.6759910  52.1449680  56.7217910   7.2250680  52.3615200  58.1158850
   9.1886950  67.8106440  58.9202060  10.0837740  68.1491410  58.9420820
   9.2204580  67.0885850  58.2926340   2.8283110  63.1833490  57.1489060
   3.2657980  63.7263160  57.8046640   3.3130840  62.3580440  57.1585400
   4.6390830  64.3031530  62.2611290   4.3386370  64.1796500  63.1615200
   4.5328320  63.4440120  61.8527020  16.1681300  66.3410110  71.6268260
  15.5683290  66.4002670  70.8832180  16.2975200  65.4015090  71.7565110
  17.4082750  64.0827930  56.9637970  16.5775710  64.1504580  57.4345200
  17.5854580  64.9732050  56.6604830  16.8639210  60.8275410  59.4672170
  17.6258120  61.3972060  59.5731860  16.8793580  60.2602610  60.2380480
  17.8699180  61.6825510  64.3114100  18.2408010  60.8992830  63.9050070
  18.5101110  62.3714610  64.1331400  14.8532940  63.0662090  69.7244420
  14.0392780  63.4959250  69.9870210  15.2607140  63.6780500  69.1113470
  16.9158380  61.1209780  56.6244690  17.1907220  62.0288660  56.4963910
  16.7269120  61.0572310  57.5606680  13.3133990  54.1454630  57.9198320
  13.7318870  53.9585610  57.0794980  13.0070050  53.2933680  58.2301250
  16.8123720  59.0578770  61.6174120  16.4367320  58.2906700  61.1855410
  16.0826840  59.4401470  62.1049050  16.2023340  58.2050290  71.2513640
  15.9709430  57.9763040  70.3511590  16.4627890  59.1249840  71.2058530
  16.0874680  57.2836260  64.9181360  16.6112160  56.7898910  64.2871530
  16.6734100  57.4186620  65.6628930  16.2664400  57.3676130  68.4400910
  15.3167110  57.3339670  68.5545900  16.4477410  58.2776240  68.2050680
   1.7683000  51.6717140  56.5902190   2.4911130  52.2126080  56.9083410
   2.0407520  51.3980560  55.7143730  15.5774650  56.5409610  60.8573770
  16.0733770  56.3080480  61.6422650  15.3790720  55.7021450  60.4411410
  17.0061810  55.1770560  63.3911450  16.8961090  55.0226600  64.3293720
  17.7669400  54.6491500  63.1486860  15.3527530  51.1164690  69.8494450
  15.9899750  51.7298830  70.2153640  15.5002420  51.1525350  68.9043680
  17.8952080  53.0078480  56.6317590  18.8201390  52.8759660  56.4235880
  17.8727870  53.0871300  57.5854040  17.9690570  53.7789140  59.2574300
  17.1742070  53.7134260  59.7867210  18.1733850  54.7139780  59.2459650
  14.9108990  67.8180690  63.2512690  15.5068060  67.4965260  62.5747110
  15.1687140  67.3452510  64.0425960   6.5177590  65.8058190  69.0013040
   6.2768950  66.0732750  68.1143560   7.4580230  65.9763920  69.0563900
  17.7781750  67.8252570  69.8023680  17.2840030  68.2221440  69.0850810
  17.1695040  67.2001780  70.1960960   2.6559590  67.1960850  70.5201100
   2.0619910  67.0645550  71.2591140   2.6483430  66.3598990  70.0543200
  12.1014610  50.4893080  68.7231130  11.2274450  50.8228190  68.5204060
  11.9925360  50.0166260  69.5483000  13.0086590  52.6963950  70.1072850
  12.6799950  51.8815710  69.7274580  13.9568890  52.6533760  69.9838540
  15.4621200  68.4675990  67.0810420  15.0024170  69.2191800  66.7068440
  14.8333660  67.7482460  67.0225220   2.2871820  64.5619230  69.4709140
   1.5605880  63.9424520  69.4035090   2.3480970  64.9559840  68.6007220
   5.8916920  66.7764230  66.2558550   6.4081940  66.1651590  65.7306810
   6.5414300  67.2793010  66.7469560   8.6312420  67.6672720  67.0827530
   8.9190230  67.4127020  66.2060540   9.1435640  67.1150080  67.6733100
   9.8489430  51.4062920  67.6624040   9.0661220  51.8808420  67.9420800
   9.5552360  50.5017750  67.5537220  14.4010500  52.1086020  65.7073130
  14.8418590  52.0531120  64.8594730  14.1318090  53.0244030  65.7783310
  16.2649070  51.7401260  63.7181950  16.2037470  50.7962480  63.5712970
  17.0441100  51.8481350  64.2635410   7.7343650  53.8249670  63.1740070
   6.9218160  53.4506560  62.8335950   8.2385290  53.0694750  63.4761260
  12.2368630  50.4892120  64.4123140  12.8398000  51.0612330  64.8871660
  11.4961620  51.0531560  64.1897040  15.3803230  50.8913680  59.6863420
  15.5753860  51.7897130  59.9530850  14.5933100  50.6600760  60.1796370
   2.1764520  66.5726850  60.1256040   1.6512140  66.9534880  59.4218000
   2.1009100  67.1977620  60.8465750   3.5654990  52.2374450  58.7239730
   4.0947750  51.4504250  58.5947680   4.1983310  52.9165640  58.9575260
   5.7592830  51.9749590  61.7785120   5.1295570  51.2736900  61.9455250
   5.2197970  52.7353720  61.5618280  16.9329840  68.1314390  61.4469980
  17.1082030  67.4452130  60.8030900  16.2351410  68.6561440  61.0546650
   4.7757490  68.5209230  59.0005290   5.5076310  68.2368510  58.4529180
   5.0351160  68.2822510  59.8904670   3.9372280  64.6373960  59.0051620
   3.3081160  65.1059060  59.5537450   4.0520110  63.7923180  59.4397810
  11.3922000  58.6879620  45.1552820  11.3116050  57.7734230  44.8844530
  10.9786420  59.1846690  44.4492530   9.5240040  60.4658640  47.0362090
   8.7482140  59.9859080  47.3260660  10.1752970  59.7864290  46.8618250
   3.5405870  60.7778450  47.9137850   2.7090750  60.5227160  48.3134360
   4.1486850  60.8489220  48.6495770  13.5447470  64.8718830  45.8161220
  13.0829000  64.1006070  46.1448390  14.3573020  64.8984900  46.3213670
   3.5207130  64.8118540  48.1095870   3.8235170  63.9216280  47.9306090
   4.2650720  65.3688760  47.8818120   9.7710780  67.1576840  45.4365210
   9.1522220  67.6134340  44.8659650  10.6262560  67.3128300  45.0354910
   8.9649030  63.1415830  47.0432250   8.8957310  62.2005770  46.8821380
   9.7268890  63.2317240  47.6154820   9.9954200  55.9486210  47.2701180
  10.3719020  55.0758090  47.1574850   9.8973710  56.2844910  46.3791620
   4.1259210  54.3211840  42.7318620   4.2325960  55.2215570  43.0387380
   3.2151570  54.2729810  42.4413270  13.7778320  53.4436650  44.2029520
  14.5987940  52.9533220  44.2455000  13.8112400  54.0334310  44.9561360
   5.9666940  57.2898210  47.0643800   6.4745160  57.7879180  47.7048820
   6.4980180  56.5133410  46.8883160  18.0677870  55.4603400  50.7673150
  17.3630040  55.8485110  50.2488260  18.3335790  56.1553690  51.3694080
   4.2503040  51.9296770  51.3307220   4.2521480  52.4469160  50.5253120
   3.4207350  51.4526950  51.3077150  10.6374130  62.0416080  42.8297120
  10.0191400  62.5065530  42.2659840  11.1497380  62.7343560  43.2466630
   5.5005890  61.5691950  49.5080720   5.1675270  62.1960870  50.1501790
   5.6772570  62.0953830  48.7282390  14.0139800  55.3837030  46.9757060
  13.3095370  55.6721920  47.5560170  14.3751960  56.1937140  46.6156620
   3.9318370  53.6406730  49.3377670   4.2735180  54.4848780  49.0431540
   2.9934180  53.7890470  49.4543010   4.7124990  63.5372750  51.3229900
   5.3298990  64.2123830  51.0414350   3.8518110  63.9460730  51.2317400
  15.6302580  65.0012160  49.2384540  14.9466100  65.6711270  49.2301210
  16.1696870  65.1992810  48.4729400  17.0826720  54.8291820  47.3666270
  16.1351630  54.8630800  47.4981700  17.4076710  55.6430770  47.7515630
   7.6146260  51.1289000  45.6622260   7.9221240  50.5735890  44.9457760
   6.6846960  51.2633460  45.4795250  13.1661320  66.8456290  47.9529720
  13.1788480  66.4418580  47.0851980  12.6136540  67.6203580  47.8491150
  14.4606740  63.5672510  43.0419890  14.3503070  62.6246840  43.1669310
  14.4574990  63.9288150  43.9282650  12.5646760  61.7486130  49.2812330
  12.9815550  61.5346240  48.4465790  13.2886580  62.0058920  49.8520950
  10.0027020  59.1937830  42.3982380   9.0756300  59.1275210  42.6270850
  10.1551840  60.1317960  42.2837620   9.9896100  55.4654830  39.3949540
   9.0499770  55.6268790  39.4802000  10.3079360  56.1840510  38.8485530
  16.5108860  60.1473350  49.3728570  15.6827490  60.2166440  48.8978700
  17.1059340  60.7327660  48.9044400  14.0324310  60.7558130  42.9017630
  13.4136730  60.4177680  42.2543930  14.0148760  60.1117890  43.6096820
  13.4750870  56.9342670  50.3183440  13.0622050  57.7596380  50.5723430
  12.7426820  56.3487710  50.1259800   5.6083660  59.7202570  45.1802110
   5.2040660  59.0079820  44.6848010   5.6946780  59.3755810  46.0690150
   6.0765360  63.4070130  47.3441320   5.7793650  62.8015600  46.6649100
   7.0265180  63.4447440  47.2330680   4.3212280  56.4945780  48.9601150
   4.8726870  56.6041120  48.1854400   4.8355790  56.8683380  49.6756380
  14.1650970  66.9802000  51.0064420  13.6881530  67.7874190  50.8137030
  13.4812760  66.3280330  51.1590630   5.1683790  63.1451820  53.9949120
   4.2712320  63.3691790  54.2422520   5.1936660  63.2686760  53.0460520
  12.2089010  59.9944940  39.9090380  12.6482290  59.1567370  39.7628200
  12.9217430  60.6274340  39.9954520   3.9955010  60.0165140  52.5706490
   3.8562780  60.8887940  52.9393890   3.1136370  59.6737950  52.4254430
  10.3184390  64.9341010  43.8771620  10.7580300  65.6765340  43.4627010
  10.2571280  65.1767580  44.8010580   5.7935360  65.9586840  54.7791640
   5.7650790  66.3629790  53.9120070   5.6300330  65.0297200  54.6163240
  15.7906150  51.2487750  38.2231420  15.4778810  51.3414580  39.1230490
  16.5518620  51.8268780  38.1728850   2.3088290  58.6147550  42.6808760
   2.1885890  59.3409640  42.0690030   1.9989180  57.8450460  42.2036670
  17.7450180  66.7413940  56.0755810  18.2209900  67.2196830  56.7544890
  18.3657340  66.6731430  55.3501310  17.1483430  63.9326790  53.2355820
  17.2746490  63.6938670  52.3173000  17.1904810  63.1011330  53.7077900
  11.0100170  67.6354790  51.8050630  11.5244840  67.5462800  52.6073060
  10.1669250  67.9814490  52.0978540  12.9854570  67.9210130  41.2334630
  12.8255710  67.6313070  42.1316460  12.8201280  67.1450260  40.6979860
   5.4642950  67.7008660  43.0106250   5.2885430  66.7844200  42.7974050
   4.6098690  68.0595950  43.2504050  12.6880700  65.4297690  39.7932630
  11.9945860  65.4274980  39.1334910  13.4303560  65.0057010  39.3626800
  12.2530630  67.0560400  43.8681120  12.7087580  66.2749780  44.1819740
  12.5923150  67.7667220  44.4122300  17.0007440  55.9859250  54.2005560
  16.3851710  56.4938920  53.6721020  16.6803860  55.0857580  54.1431500
   4.7751950  51.9582620  46.0632430   4.3320100  52.7392160  45.7316950
   5.3336940  52.2812510  46.7703370   9.0621760  54.8251140  51.6667750
   8.6001130  55.0334160  52.4787690   8.6599870  54.0110490  51.3638420
  14.0626270  56.0460090  52.7964410  13.2119860  55.7465840  53.1173480
  13.9028060  56.2902100  51.8848230  11.1575980  57.5461840  54.8963200
  11.4829390  56.7125590  54.5565430  11.9456310  58.0690360  55.0441530
   7.8910770  51.5793320  40.9438260   7.2664950  51.5753190  41.6691570
   7.8040890  50.7124280  40.5474230   6.8127850  52.5029950  47.9222030
   7.1100180  53.4092780  47.8414050   7.3613410  52.0148730  47.3081600
   4.5666170  57.0816190  43.7913680   4.3407090  56.8653360  44.6960300
   3.7858700  57.5144650  43.4459650  11.7963930  57.0879560  42.3904330
  11.1972820  57.8115360  42.2067950  12.3443540  57.0256340  41.6080780
   7.0065380  57.9801770  54.4573950   6.9108980  57.0396500  54.3074350
   7.8497360  58.2016840  54.0622020  10.4028800  55.7243100  44.4207610
  10.7958370  56.0415300  43.6076300  10.7645650  54.8454980  44.5352130
   8.7120970  54.4750410  55.6804470   8.0219290  54.2822610  56.3150560
   9.4553270  54.7585050  56.2128770  10.9883940  58.3148850  48.5158390
  10.2565060  58.8235660  48.8648490  10.5908280  57.4978830  48.2147170
   7.4261330  54.9903050  46.9210880   7.4297390  54.5493000  46.0715420
   8.3212450  55.3120380  47.0282700   3.2763710  54.8729540  45.8805090
   2.9363760  55.3504770  46.6372140   2.5141030  54.4194660  45.5206190
   7.4881480  55.9915130  39.9117640   7.6094300  55.9501610  40.8603460
   7.1029990  56.8539280  39.7564370  11.4509850  53.7682530  47.9281330
  11.4682590  54.2191180  48.7723180  11.2025430  52.8688170  48.1414770
   6.5002980  58.3016270  39.3100940   5.9319880  57.8534520  38.6836850
   7.2091980  58.6609050  38.7766090  14.8780600  51.1814710  53.7667710
  15.2026370  50.4504370  54.2925690  14.9137110  50.8628350  52.8648700
   7.7269300  59.0504830  48.6676290   8.0939430  58.5763400  49.4137630
   7.5374360  59.9246400  49.0084630   5.5168670  58.0913470  50.9860500
   5.2125740  58.9705450  51.2110860   6.4715130  58.1513260  51.0217940
   4.0450460  62.2974460  41.5827350   3.2712720  61.7572080  41.4226070
   4.7745090  61.7781070  41.2445110  14.8038440  61.2939820  47.3753740
  15.5237560  61.7895110  46.9849850  14.6020260  60.6157710  46.7307610
  10.2648380  52.6877780  41.5183130   9.4512990  52.1890950  41.4428440
  10.0710330  53.5276030  41.1019480  10.1857240  61.3648880  53.2622740
  10.1194550  60.4444550  53.0080330   9.5562380  61.4624320  53.9767380
  12.9796770  57.0597430  39.8145290  13.8676390  57.3714660  39.6396630
  12.9501860  56.1869680  39.4225870   4.0887860  61.9654840  45.2206160
   4.6066530  61.1623100  45.1663050   3.6371880  61.9033980  46.0622990
   8.9757360  63.2321120  40.4933460   9.3173060  63.9763350  39.9976780
   8.1470070  63.5452240  40.8558290   4.7745520  59.3900450  55.0171410
   4.4745660  59.5357630  54.1199230   5.5456760  58.8305740  54.9244800
  10.1173970  64.1869450  53.0126540  10.1318510  63.2550410  52.7945450
   9.4099070  64.2729210  53.6516310  15.2511040  58.3709270  39.2825150
  15.1674760  58.8023490  38.4321590  15.9705230  58.8307620  39.7151970
  16.3285180  60.8276790  52.3595120  15.6033370  61.4205570  52.1624510
  16.8560640  60.8200330  51.5608490  16.2798290  65.2251530  42.0107280
  15.6374450  64.5707150  42.2851000  15.8928950  65.6306620  41.2347950
  11.8584770  62.5536960  45.8578970  12.2108590  61.9565090  45.1980340
  10.9747100  62.2281190  46.0287220   7.9448050  63.3134650  43.2649380
   8.6319180  63.8603860  43.6456970   7.1580470  63.8575380  43.2998990
   7.2475260  60.3180680  42.8774740   7.7038040  61.1285930  43.1034930
   6.8963470  60.0003820  43.7093230   9.5507870  65.8287020  50.1067040
  10.1950090  66.0346400  50.7840460   9.9137310  65.0675420  49.6537890
   3.1487040  50.6618330  43.3497260   3.0201670  50.6536230  44.2982180
   2.3249060  51.0001420  42.9988270  10.8239950  63.8319370  48.8244490
  11.4662180  63.1312530  48.9376660  11.3489300  64.6117810  48.6441380
  14.6695670  64.1167990  38.5483630  14.4433250  63.3998430  39.1408270
  14.2791870  63.8680430  37.7105380  12.5977570  64.6314270  52.0280550
  12.9333810  65.2180960  52.7058470  11.6777910  64.5006980  52.2578340
  14.2511920  62.0339930  40.2097790  13.9633620  62.4952620  40.9975670
  15.0464090  61.5737700  40.4782010   8.4266150  64.6805600  55.1968610
   8.1063020  63.9614840  55.7414300   7.7524510  65.3560670  55.2704670
   6.4680320  65.5266050  40.1401760   6.4590420  66.2595740  39.5246270
   5.5478680  65.2797630  40.2328720  11.6419750  54.9131760  50.5605410
  12.0100570  54.0926970  50.8884980  10.7817950  54.9733650  50.9761060
  15.0081780  53.8688700  41.3692970  14.3794940  53.9734370  40.6551200
  14.5133700  54.0885480  42.1586850   9.4539920  65.5894290  38.8026950
   9.5551900  65.3858280  37.8728930   8.5541660  65.3352570  39.0074730
   6.9765810  56.1474650  42.7850850   6.2681960  56.6160990  43.2264460
   7.2610290  55.4896660  43.4196040   8.6021740  57.5671350  50.7843380
   9.1006990  58.0417170  51.4495230   8.7444690  56.6434870  50.9913410
  11.0081240  52.8725310  44.2246640  10.8849020  52.8911440  43.2756150
  11.9565800  52.9204250  44.3445040   8.0958030  68.1080610  43.4974620
   8.3499530  68.0702000  42.5753990   7.1470510  67.9813940  43.4902870
   5.1800830  54.4559730  40.1601560   6.0291360  54.8929880  40.0941750
   4.8132100  54.7679990  40.9873620  15.8088600  53.7839310  51.6271770
  15.3062200  54.5244710  51.9665580  16.6245260  54.1723310  51.3108560
  14.1010610  59.0272490  45.0733130  13.1600750  59.0422720  45.2480820
  14.4154680  58.2408450  45.5193430   4.0792250  60.7092090  38.6337090
   4.8455520  60.5973450  39.1962520   4.1566940  60.0130060  37.9813860
   2.7739010  58.1417160  39.3169980   2.8542600  57.1944670  39.4287380
   3.6658760  58.4724040  39.4230640  16.1036190  66.1981340  46.7487390
  16.2283610  67.0212510  47.2211200  16.9701750  65.9872070  46.4011540
   3.5753720  68.2912550  46.4204520   4.3116200  67.7428010  46.6913090
   3.9594640  69.1568560  46.2810510   2.5812000  67.4758620  55.6090100
   3.3824730  67.7970670  56.0225500   2.0663820  67.1154200  56.3310010
   6.6856030  67.4642860  38.2430090   7.4784640  67.7531690  37.7911880
   6.1660380  67.0335030  37.5642570  11.4176630  63.5838490  55.5565510
  10.8114790  63.6070090  54.8161260  11.1130740  62.8521530  56.0932760
  12.8477000  67.3118780  54.1674920  13.7998750  67.2276800  54.1175160
  12.7005220  67.9760490  54.8408710  15.7386200  66.6912990  39.6666830
  15.4527710  66.2778130  38.8521010  15.5405750  67.6200700  39.5467350
   7.2033430  62.6846270  38.1072440   7.0984070  62.0698620  38.8333820
   7.0357650  62.1612160  37.3235450   7.3547750  61.3703070  54.0861670
   6.5893420  61.9388070  54.0016340   7.5363710  61.0779280  53.1929900
  10.4436160  61.7466300  38.7114430   9.8946260  62.1935600  39.3557170
  11.0655420  61.2415550  39.2352100  14.4971100  63.1008400  54.6436690
  15.2380570  63.4384160  54.1404150  13.7343780  63.2700460  54.0906460
   2.3332890  58.1061670  55.4476220   2.3738230  57.8075540  56.3561450
   3.1878390  58.5069280  55.2883740   6.1111280  60.7057220  40.6079730
   6.5327700  60.5397090  41.4511120   6.2362120  59.8957450  40.1134870
   4.2738700  56.6853770  53.4150710   3.7435160  56.1944720  52.7874050
   4.9426770  57.1137970  52.8808640   8.6238920  59.7294830  37.8556830
   9.1444580  59.0143850  37.4897980   9.2707320  60.3680700  38.1557340
  13.1716760  61.1523230  53.1791900  13.5857780  61.3068310  54.0282320
  12.2367760  61.2778450  53.3417680  13.6438930  58.4919390  55.1831050
  14.2259700  57.7371710  55.0951530  13.8200700  59.0226830  54.4062530
   4.7611000  53.6516140  53.4948000   4.6667870  53.0336890  52.7698870
   4.1808390  54.3782430  53.2677910   7.5272440  52.2089380  50.5275390
   7.0789740  52.2313640  49.6820940   6.8937640  51.8108400  51.1245690
   7.9331990  61.1043710  51.1487830   8.3520100  61.9476440  50.9764070
   7.0140620  61.2415750  50.9194610  10.2695890  58.8359890  52.5325670
  10.3892100  58.2401030  53.2720510  11.1289890  58.8729580  52.1126970
  12.6083790  59.3897080  51.1088180  12.0819010  59.9139700  50.5053320
  12.9515130  60.0224470  51.7397910   5.0070180  56.7790450  37.5537890
   4.8059240  55.9157810  37.9151230   4.8362230  56.6923810  36.6159490
   5.7839410  67.4096720  52.2645560   5.2460500  68.1342780  51.9454260
   6.0373370  66.9327060  51.4742900   7.0364660  55.3781240  53.7901490
   7.6264350  55.0697090  54.4779310   6.2184900  54.9060990  53.9461390
  11.8558090  54.9947050  54.0234510  11.1673610  54.3328590  53.9584500
  12.5764110  54.5485320  54.4682970  12.4858490  51.5898680  40.0824770
  12.7660780  50.7466580  40.4384190  11.7124220  51.8221790  40.5963520
   3.8052980  53.8791070  37.5415770   4.1078880  53.8858500  36.6334920
   4.5447570  53.5288930  38.0383430   8.6401620  68.6447930  52.5232210
   8.5660320  69.5483070  52.8304580   7.7380460  68.3259830  52.4954280
   7.0237910  52.8225690  38.5271970   6.6759910  52.1449680  37.9474420
   7.2250680  52.3615200  39.3415360   9.1886950  67.8106440  40.1458570
  10.0837740  68.1491410  40.1677330   9.2204580  67.0885850  39.5182850
   2.8283110  63.1833490  38.3745570   3.2657980  63.7263160  39.0303150
   3.3130840  62.3580440  38.3841910   4.6390830  64.3031530  43.4867800
   4.3386370  64.1796500  44.3871710   4.5328320  63.4440120  43.0783530
  16.1681300  66.3410110  52.8524770  15.5683290  66.4002670  52.1088690
  16.2975200  65.4015090  52.9821620  17.4082750  64.0827930  38.1894480
  16.5775710  64.1504580  38.6601710  17.5854580  64.9732050  37.8861340
  16.8639210  60.8275410  40.6928680  17.6258120  61.3972060  40.7988370
  16.8793580  60.2602610  41.4636990  17.8699180  61.6825510  45.5370610
  18.2408010  60.8992830  45.1306580  18.5101110  62.3714610  45.3587910
  14.8532940  63.0662090  50.9500930  14.0392780  63.4959250  51.2126720
  15.2607140  63.6780500  50.3369980  16.9158380  61.1209780  37.8501200
  17.1907220  62.0288660  37.7220420  16.7269120  61.0572310  38.7863190
  13.3133990  54.1454630  39.1454830  13.7318870  53.9585610  38.3051490
  13.0070050  53.2933680  39.4557760  16.8123720  59.0578770  42.8430630
  16.4367320  58.2906700  42.4111920  16.0826840  59.4401470  43.3305560
  16.2023340  58.2050290  52.4770150  15.9709430  57.9763040  51.5768100
  16.4627890  59.1249840  52.4315040  14.6411410  53.4306720  55.2549850
  15.5181590  53.4390120  55.6383850  14.6532250  52.6937560  54.6442200
  16.0874680  57.2836260  46.1437870  16.6112160  56.7898910  45.5128040
  16.6734100  57.4186620  46.8885440  16.2664400  57.3676130  49.6657420
  15.3167110  57.3339670  49.7802410  16.4477410  58.2776240  49.4307190
   1.7683000  51.6717140  37.8158700   2.4911130  52.2126080  38.1339920
   2.0407520  51.3980560  36.9400240  15.5774650  56.5409610  42.0830280
  16.0733770  56.3080480  42.8679160  15.3790720  55.7021450  41.6667920
  17.0061810  55.1770560  44.6167960  16.8961090  55.0226600  45.5550230
  17.7669400  54.6491500  44.3743370  15.3527530  51.1164690  51.0750960
  15.9899750  51.7298830  51.4410150  15.5002420  51.1525350  50.1300190
  17.8952080  53.0078480  37.8574100  18.8201390  52.8759660  37.6492390
  17.8727870  53.0871300  38.8110550  17.9690570  53.7789140  40.4830810
  17.1742070  53.7134260  41.0123720  18.1733850  54.7139780  40.4716160
  14.9108990  67.8180690  44.4769200  15.5068060  67.4965260  43.8003620
  15.1687140  67.3452510  45.2682470   2.8171560  64.2498600  54.6259830
   2.7741190  63.8791510  55.5074290   2.9482570  65.1876170  54.7661650
   6.5177590  65.8058190  50.2269550   6.2768950  66.0732750  49.3400070
   7.4580230  65.9763920  50.2820410   8.7232010  52.2690880  53.9826060
   8.6620900  52.8612710  54.7321470   9.6632390  52.1616840  53.8376320
  11.3606570  51.9260940  53.6218350  11.9746980  52.2440230  52.9599430
  11.9056130  51.4409530  54.2414210  17.7781750  67.8252570  51.0280190
  17.2840030  68.2221440  50.3107320  17.1695040  67.2001780  51.4217470
   1.8827830  50.6055200  53.7357410   2.4310820  50.4243250  52.9723520
   1.9483140  49.8149310  54.2713720   2.6559590  67.1960850  51.7457610
   2.0619910  67.0645550  52.4847650   2.6483430  66.3598990  51.2799710
  12.1014610  50.4893080  49.9487640  11.2274450  50.8228190  49.7460570
  11.9925360  50.0166260  50.7739510  13.0086590  52.6963950  51.3329360
  12.6799950  51.8815710  50.9531090  13.9568890  52.6533760  51.2095050
  15.4621200  68.4675990  48.3066930  15.0024170  69.2191800  47.9324950
  14.8333660  67.7482460  48.2481730   2.2871820  64.5619230  50.6965650
   1.5605880  63.9424520  50.6291600   2.3480970  64.9559840  49.8263730
   5.8916920  66.7764230  47.4815060   6.4081940  66.1651590  46.9563320
   6.5414300  67.2793010  47.9726070   8.6312420  67.6672720  48.3084040
   8.9190230  67.4127020  47.4317050   9.1435640  67.1150080  48.8989610
   9.8489430  51.4062920  48.8880550   9.0661220  51.8808420  49.1677310
   9.5552360  50.5017750  48.7793730  14.4010500  52.1086020  46.9329640
  14.8418590  52.0531120  46.0851240  14.1318090  53.0244030  47.0039820
  16.2649070  51.7401260  44.9438460  16.2037470  50.7962480  44.7969480
  17.0441100  51.8481350  45.4891920   7.7343650  53.8249670  44.3996580
   6.9218160  53.4506560  44.0592460   8.2385290  53.0694750  44.7017770
  12.2368630  50.4892120  45.6379650  12.8398000  51.0612330  46.1128170
  11.4961620  51.0531560  45.4153550  15.3803230  50.8913680  40.9119930
  15.5753860  51.7897130  41.1787360  14.5933100  50.6600760  41.4052880
   2.1764520  66.5726850  41.3512550   1.6512140  66.9534880  40.6474510
   2.1009100  67.1977620  42.0722260   3.5654990  52.2374450  39.9496240
   4.0947750  51.4504250  39.8204190   4.1983310  52.9165640  40.1831770
   5.7592830  51.9749590  43.0041630   5.1295570  51.2736900  43.1711760
   5.2197970  52.7353720  42.7874790   8.6984780  68.5888820  55.6752240
   9.6252090  68.3533090  55.7188200   8.6835210  69.4160820  55.1938270
  16.9329840  68.1314390  42.6726490  17.1082030  67.4452130  42.0287410
  16.2351410  68.6561440  42.2803160   5.8848390  51.2533570  55.4394120
   5.6032660  51.7567170  54.6754940   6.2668090  50.4555320  55.0736250
   4.7757490  68.5209230  40.2261800   5.5076310  68.2368510  39.6785690
   5.0351160  68.2822510  41.1161180   3.9372280  64.6373960  40.2308130
   3.3081160  65.1059060  40.7793960   4.0520110  63.7923180  40.6654320
  12.4863850  50.6687150  56.0174590  12.3729300  50.9881760  56.9126110
  13.3033590  51.0699660  55.7211870  15.2662340  67.8158680  55.4993280
  16.0587660  67.3207910  55.2919240  15.5595490  68.4948820  56.1068890
  11.3922000  58.6879620  26.3809330  11.3116050  57.7734230  26.1101040
  10.9786420  59.1846690  25.6749040   9.5240040  60.4658640  28.2618600
   8.7482140  59.9859080  28.5517170  10.1752970  59.7864290  28.0874760
   3.5405870  60.7778450  29.1394360   2.7090750  60.5227160  29.5390870
   4.1486850  60.8489220  29.8752280  13.5447470  64.8718830  27.0417730
  13.0829000  64.1006070  27.3704900  14.3573020  64.8984900  27.5470180
   3.5207130  64.8118540  29.3352380   3.8235170  63.9216280  29.1562600
   4.2650720  65.3688760  29.1074630   9.7710780  67.1576840  26.6621720
   9.1522220  67.6134340  26.0916160  10.6262560  67.3128300  26.2611420
   8.9649030  63.1415830  28.2688760   8.8957310  62.2005770  28.1077890
   9.7268890  63.2317240  28.8411330   9.9954200  55.9486210  28.4957690
  10.3719020  55.0758090  28.3831360   9.8973710  56.2844910  27.6048130
   4.1259210  54.3211840  23.9575130   4.2325960  55.2215570  24.2643890
   3.2151570  54.2729810  23.6669780  13.7778320  53.4436650  25.4286030
  14.5987940  52.9533220  25.4711510  13.8112400  54.0334310  26.1817870
   5.9666940  57.2898210  28.2900310   6.4745160  57.7879180  28.9305330
   6.4980180  56.5133410  28.1139670  18.0677870  55.4603400  31.9929660
  17.3630040  55.8485110  31.4744770  18.3335790  56.1553690  32.5950590
   4.2503040  51.9296770  32.5563730   4.2521480  52.4469160  31.7509630
   3.4207350  51.4526950  32.5333660  10.6374130  62.0416080  24.0553630
  10.0191400  62.5065530  23.4916350  11.1497380  62.7343560  24.4723140
   5.5005890  61.5691950  30.7337230   5.1675270  62.1960870  31.3758300
   5.6772570  62.0953830  29.9538900  14.0139800  55.3837030  28.2013570
  13.3095370  55.6721920  28.7816680  14.3751960  56.1937140  27.8413130
   3.9318370  53.6406730  30.5634180   4.2735180  54.4848780  30.2688050
   2.9934180  53.7890470  30.6799520   4.7124990  63.5372750  32.5486410
   5.3298990  64.2123830  32.2670860   3.8518110  63.9460730  32.4573910
  15.6302580  65.0012160  30.4641050  14.9466100  65.6711270  30.4557720
  16.1696870  65.1992810  29.6985910  17.0826720  54.8291820  28.5922780
  16.1351630  54.8630800  28.7238210  17.4076710  55.6430770  28.9772140
   7.6146260  51.1289000  26.8878770   7.9221240  50.5735890  26.1714270
   6.6846960  51.2633460  26.7051760  13.1661320  66.8456290  29.1786230
  13.1788480  66.4418580  28.3108490  12.6136540  67.6203580  29.0747660
  14.4606740  63.5672510  24.2676400  14.3503070  62.6246840  24.3925820
  14.4574990  63.9288150  25.1539160  12.5646760  61.7486130  30.5068840
  12.9815550  61.5346240  29.6722300  13.2886580  62.0058920  31.0777460
  10.0027020  59.1937830  23.6238890   9.0756300  59.1275210  23.8527360
  10.1551840  60.1317960  23.5094130   9.9896100  55.4654830  20.6206050
   9.0499770  55.6268790  20.7058510  10.3079360  56.1840510  20.0742040
  16.5108860  60.1473350  30.5985080  15.6827490  60.2166440  30.1235210
  17.1059340  60.7327660  30.1300910  14.0324310  60.7558130  24.1274140
  13.4136730  60.4177680  23.4800440  14.0148760  60.1117890  24.8353330
  13.4750870  56.9342670  31.5439950  13.0622050  57.7596380  31.7979940
  12.7426820  56.3487710  31.3516310   5.6083660  59.7202570  26.4058620
   5.2040660  59.0079820  25.9104520   5.6946780  59.3755810  27.2946660
   6.0765360  63.4070130  28.5697830   5.7793650  62.8015600  27.8905610
   7.0265180  63.4447440  28.4587190   4.3212280  56.4945780  30.1857660
   4.8726870  56.6041120  29.4110910   4.8355790  56.8683380  30.9012890
  14.1650970  66.9802000  32.2320930  13.6881530  67.7874190  32.0393540
  13.4812760  66.3280330  32.3847140   5.1683790  63.1451820  35.2205630
   4.2712320  63.3691790  35.4679030   5.1936660  63.2686760  34.2717030
  12.2089010  59.9944940  21.1346890  12.6482290  59.1567370  20.9884710
  12.9217430  60.6274340  21.2211030   3.9955010  60.0165140  33.7963000
   3.8562780  60.8887940  34.1650400   3.1136370  59.6737950  33.6510940
  10.3184390  64.9341010  25.1028130  10.7580300  65.6765340  24.6883520
  10.2571280  65.1767580  26.0267090   5.7935360  65.9586840  36.0048150
   5.7650790  66.3629790  35.1376580   5.6300330  65.0297200  35.8419750
  15.7906150  51.2487750  19.4487930  15.4778810  51.3414580  20.3487000
  16.5518620  51.8268780  19.3985360   2.3088290  58.6147550  23.9065270
   2.1885890  59.3409640  23.2946540   1.9989180  57.8450460  23.4293180
  17.7450180  66.7413940  37.3012320  18.2209900  67.2196830  37.9801400
  18.3657340  66.6731430  36.5757820  17.1483430  63.9326790  34.4612330
  17.2746490  63.6938670  33.5429510  17.1904810  63.1011330  34.9334410
  11.0100170  67.6354790  33.0307140  11.5244840  67.5462800  33.8329570
  10.1669250  67.9814490  33.3235050  12.9854570  67.9210130  22.4591140
  12.8255710  67.6313070  23.3572970  12.8201280  67.1450260  21.9236370
   5.4642950  67.7008660  24.2362760   5.2885430  66.7844200  24.0230560
   4.6098690  68.0595950  24.4760560  12.6880700  65.4297690  21.0189140
  11.9945860  65.4274980  20.3591420  13.4303560  65.0057010  20.5883310
  12.2530630  67.0560400  25.0937630  12.7087580  66.2749780  25.4076250
  12.5923150  67.7667220  25.6378810  17.0007440  55.9859250  35.4262070
  16.3851710  56.4938920  34.8977530  16.6803860  55.0857580  35.3688010
   4.7751950  51.9582620  27.2888940   4.3320100  52.7392160  26.9573460
   5.3336940  52.2812510  27.9959880   9.0621760  54.8251140  32.8924260
   8.6001130  55.0334160  33.7044200   8.6599870  54.0110490  32.5894930
  14.0626270  56.0460090  34.0220920  13.2119860  55.7465840  34.3429990
  13.9028060  56.2902100  33.1104740  11.1575980  57.5461840  36.1219710
  11.4829390  56.7125590  35.7821940  11.9456310  58.0690360  36.2698040
   7.8910770  51.5793320  22.1694770   7.2664950  51.5753190  22.8948080
   7.8040890  50.7124280  21.7730740   6.8127850  52.5029950  29.1478540
   7.1100180  53.4092780  29.0670560   7.3613410  52.0148730  28.5338110
   4.5666170  57.0816190  25.0170190   4.3407090  56.8653360  25.9216810
   3.7858700  57.5144650  24.6716160  11.7963930  57.0879560  23.6160840
  11.1972820  57.8115360  23.4324460  12.3443540  57.0256340  22.8337290
   7.0065380  57.9801770  35.6830460   6.9108980  57.0396500  35.5330860
   7.8497360  58.2016840  35.2878530  10.4028800  55.7243100  25.6464120
  10.7958370  56.0415300  24.8332810  10.7645650  54.8454980  25.7608640
   8.7120970  54.4750410  36.9060980   8.0219290  54.2822610  37.5407070
   9.4553270  54.7585050  37.4385280  10.9883940  58.3148850  29.7414900
  10.2565060  58.8235660  30.0905000  10.5908280  57.4978830  29.4403680
   7.4261330  54.9903050  28.1467390   7.4297390  54.5493000  27.2971930
   8.3212450  55.3120380  28.2539210   3.2763710  54.8729540  27.1061600
   2.9363760  55.3504770  27.8628650   2.5141030  54.4194660  26.7462700
   7.4881480  55.9915130  21.1374150   7.6094300  55.9501610  22.0859970
   7.1029990  56.8539280  20.9820880  11.4509850  53.7682530  29.1537840
  11.4682590  54.2191180  29.9979690  11.2025430  52.8688170  29.3671280
   6.5002980  58.3016270  20.5357450   5.9319880  57.8534520  19.9093360
   7.2091980  58.6609050  20.0022600  14.8780600  51.1814710  34.9924220
  15.2026370  50.4504370  35.5182200  14.9137110  50.8628350  34.0905210
   7.7269300  59.0504830  29.8932800   8.0939430  58.5763400  30.6394140
   7.5374360  59.9246400  30.2341140   5.5168670  58.0913470  32.2117010
   5.2125740  58.9705450  32.4367370   6.4715130  58.1513260  32.2474450
   4.0450460  62.2974460  22.8083860   3.2712720  61.7572080  22.6482580
   4.7745090  61.7781070  22.4701620  14.8038440  61.2939820  28.6010250
  15.5237560  61.7895110  28.2106360  14.6020260  60.6157710  27.9564120
  10.2648380  52.6877780  22.7439640   9.4512990  52.1890950  22.6684950
  10.0710330  53.5276030  22.3275990  10.1857240  61.3648880  34.4879250
  10.1194550  60.4444550  34.2336840   9.5562380  61.4624320  35.2023890
  12.9796770  57.0597430  21.0401800  13.8676390  57.3714660  20.8653140
  12.9501860  56.1869680  20.6482380   4.0887860  61.9654840  26.4462670
   4.6066530  61.1623100  26.3919560   3.6371880  61.9033980  27.2879500
   8.9757360  63.2321120  21.7189970   9.3173060  63.9763350  21.2233290
   8.1470070  63.5452240  22.0814800   4.7745520  59.3900450  36.2427920
   4.4745660  59.5357630  35.3455740   5.5456760  58.8305740  36.1501310
  10.1173970  64.1869450  34.2383050  10.1318510  63.2550410  34.0201960
   9.4099070  64.2729210  34.8772820  15.2511040  58.3709270  20.5081660
  15.1674760  58.8023490  19.6578100  15.9705230  58.8307620  20.9408480
  16.3285180  60.8276790  33.5851630  15.6033370  61.4205570  33.3881020
  16.8560640  60.8200330  32.7865000  16.2798290  65.2251530  23.2363790
  15.6374450  64.5707150  23.5107510  15.8928950  65.6306620  22.4604460
  11.8584770  62.5536960  27.0835480  12.2108590  61.9565090  26.4236850
  10.9747100  62.2281190  27.2543730   7.9448050  63.3134650  24.4905890
   8.6319180  63.8603860  24.8713480   7.1580470  63.8575380  24.5255500
   7.2475260  60.3180680  24.1031250   7.7038040  61.1285930  24.3291440
   6.8963470  60.0003820  24.9349740   9.5507870  65.8287020  31.3323550
  10.1950090  66.0346400  32.0096970   9.9137310  65.0675420  30.8794400
   3.1487040  50.6618330  24.5753770   3.0201670  50.6536230  25.5238690
   2.3249060  51.0001420  24.2244780  10.8239950  63.8319370  30.0501000
  11.4662180  63.1312530  30.1633170  11.3489300  64.6117810  29.8697890
  14.6695670  64.1167990  19.7740140  14.4433250  63.3998430  20.3664780
  14.2791870  63.8680430  18.9361890  12.5977570  64.6314270  33.2537060
  12.9333810  65.2180960  33.9314980  11.6777910  64.5006980  33.4834850
  14.2511920  62.0339930  21.4354300  13.9633620  62.4952620  22.2232180
  15.0464090  61.5737700  21.7038520   8.4266150  64.6805600  36.4225120
   8.1063020  63.9614840  36.9670810   7.7524510  65.3560670  36.4961180
   6.4680320  65.5266050  21.3658270   6.4590420  66.2595740  20.7502780
   5.5478680  65.2797630  21.4585230  11.6419750  54.9131760  31.7861920
  12.0100570  54.0926970  32.1141490  10.7817950  54.9733650  32.2017570
  15.0081780  53.8688700  22.5949480  14.3794940  53.9734370  21.8807710
  14.5133700  54.0885480  23.3843360   9.4539920  65.5894290  20.0283460
   9.5551900  65.3858280  19.0985440   8.5541660  65.3352570  20.2331240
   6.9765810  56.1474650  24.0107360   6.2681960  56.6160990  24.4520970
   7.2610290  55.4896660  24.6452550   8.6021740  57.5671350  32.0099890
   9.1006990  58.0417170  32.6751740   8.7444690  56.6434870  32.2169920
  11.0081240  52.8725310  25.4503150  10.8849020  52.8911440  24.5012660
  11.9565800  52.9204250  25.5701550   8.0958030  68.1080610  24.7231130
   8.3499530  68.0702000  23.8010500   7.1470510  67.9813940  24.7159380
   5.1800830  54.4559730  21.3858070   6.0291360  54.8929880  21.3198260
   4.8132100  54.7679990  22.2130130  15.8088600  53.7839310  32.8528280
  15.3062200  54.5244710  33.1922090  16.6245260  54.1723310  32.5365070
  14.1010610  59.0272490  26.2989640  13.1600750  59.0422720  26.4737330
  14.4154680  58.2408450  26.7449940   4.0792250  60.7092090  19.8593600
   4.8455520  60.5973450  20.4219030   4.1566940  60.0130060  19.2070370
   2.7739010  58.1417160  20.5426490   2.8542600  57.1944670  20.6543890
   3.6658760  58.4724040  20.6487150  16.1036190  66.1981340  27.9743900
  16.2283610  67.0212510  28.4467710  16.9701750  65.9872070  27.6268050
   3.5753720  68.2912550  27.6461030   4.3116200  67.7428010  27.9169600
   3.9594640  69.1568560  27.5067020   2.5812000  67.4758620  36.8346610
   3.3824730  67.7970670  37.2482010   2.0663820  67.1154200  37.5566520
   6.6856030  67.4642860  19.4686600   7.4784640  67.7531690  19.0168390
   6.1660380  67.0335030  18.7899080  11.4176630  63.5838490  36.7822020
  10.8114790  63.6070090  36.0417770  11.1130740  62.8521530  37.3189270
  12.8477000  67.3118780  35.3931430  13.7998750  67.2276800  35.3431670
  12.7005220  67.9760490  36.0665220  15.7386200  66.6912990  20.8923340
  15.4527710  66.2778130  20.0777520  15.5405750  67.6200700  20.7723860
   7.2033430  62.6846270  19.3328950   7.0984070  62.0698620  20.0590330
   7.0357650  62.1612160  18.5491960   7.3547750  61.3703070  35.3118180
   6.5893420  61.9388070  35.2272850   7.5363710  61.0779280  34.4186410
  10.4436160  61.7466300  19.9370940   9.8946260  62.1935600  20.5813680
  11.0655420  61.2415550  20.4608610  14.4971100  63.1008400  35.8693200
  15.2380570  63.4384160  35.3660660  13.7343780  63.2700460  35.3162970
   2.3332890  58.1061670  36.6732730   2.3738230  57.8075540  37.5817960
   3.1878390  58.5069280  36.5140250   6.1111280  60.7057220  21.8336240
   6.5327700  60.5397090  22.6767630   6.2362120  59.8957450  21.3391380
   4.2738700  56.6853770  34.6407220   3.7435160  56.1944720  34.0130560
   4.9426770  57.1137970  34.1065150   8.6238920  59.7294830  19.0813340
   9.1444580  59.0143850  18.7154490   9.2707320  60.3680700  19.3813850
  13.1716760  61.1523230  34.4048410  13.5857780  61.3068310  35.2538830
  12.2367760  61.2778450  34.5674190  13.6438930  58.4919390  36.4087560
  14.2259700  57.7371710  36.3208040  13.8200700  59.0226830  35.6319040
   4.7611000  53.6516140  34.7204510   4.6667870  53.0336890  33.9955380
   4.1808390  54.3782430  34.4934420   7.5272440  52.2089380  31.7531900
   7.0789740  52.2313640  30.9077450   6.8937640  51.8108400  32.3502200
   7.9331990  61.1043710  32.3744340   8.3520100  61.9476440  32.2020580
   7.0140620  61.2415750  32.1451120  10.2695890  58.8359890  33.7582180
  10.3892100  58.2401030  34.4977020  11.1289890  58.8729580  33.3383480
  12.6083790  59.3897080  32.3344690  12.0819010  59.9139700  31.7309830
  12.9515130  60.0224470  32.9654420   5.0070180  56.7790450  18.7794400
   4.8059240  55.9157810  19.1407740   4.8362230  56.6923810  17.8416000
   5.7839410  67.4096720  33.4902070   5.2460500  68.1342780  33.1710770
   6.0373370  66.9327060  32.6999410   7.0364660  55.3781240  35.0158000
   7.6264350  55.0697090  35.7035820   6.2184900  54.9060990  35.1717900
  11.8558090  54.9947050  35.2491020  11.1673610  54.3328590  35.1841010
  12.5764110  54.5485320  35.6939480  12.4858490  51.5898680  21.3081280
  12.7660780  50.7466580  21.6640700  11.7124220  51.8221790  21.8220030
   3.8052980  53.8791070  18.7672280   4.1078880  53.8858500  17.8591430
   4.5447570  53.5288930  19.2639940   8.6401620  68.6447930  33.7488720
   8.5660320  69.5483070  34.0561090   7.7380460  68.3259830  33.7210790
   7.0237910  52.8225690  19.7528480   6.6759910  52.1449680  19.1730930
   7.2250680  52.3615200  20.5671870   9.1886950  67.8106440  21.3715080
  10.0837740  68.1491410  21.3933840   9.2204580  67.0885850  20.7439360
   2.8283110  63.1833490  19.6002080   3.2657980  63.7263160  20.2559660
   3.3130840  62.3580440  19.6098420   4.6390830  64.3031530  24.7124310
   4.3386370  64.1796500  25.6128220   4.5328320  63.4440120  24.3040040
  16.1681300  66.3410110  34.0781280  15.5683290  66.4002670  33.3345200
  16.2975200  65.4015090  34.2078130  17.4082750  64.0827930  19.4150990
  16.5775710  64.1504580  19.8858220  17.5854580  64.9732050  19.1117850
  16.8639210  60.8275410  21.9185190  17.6258120  61.3972060  22.0244880
  16.8793580  60.2602610  22.6893500  17.8699180  61.6825510  26.7627120
  18.2408010  60.8992830  26.3563090  18.5101110  62.3714610  26.5844420
  14.8532940  63.0662090  32.1757440  14.0392780  63.4959250  32.4383230
  15.2607140  63.6780500  31.5626490  16.9158380  61.1209780  19.0757710
  17.1907220  62.0288660  18.9476930  16.7269120  61.0572310  20.0119700
  13.3133990  54.1454630  20.3711340  13.7318870  53.9585610  19.5308000
  13.0070050  53.2933680  20.6814270  16.8123720  59.0578770  24.0687140
  16.4367320  58.2906700  23.6368430  16.0826840  59.4401470  24.5562070
  16.2023340  58.2050290  33.7026660  15.9709430  57.9763040  32.8024610
  16.4627890  59.1249840  33.6571550  14.6411410  53.4306720  36.4806360
  15.5181590  53.4390120  36.8640360  14.6532250  52.6937560  35.8698710
  16.0874680  57.2836260  27.3694380  16.6112160  56.7898910  26.7384550
  16.6734100  57.4186620  28.1141950  16.2664400  57.3676130  30.8913930
  15.3167110  57.3339670  31.0058920  16.4477410  58.2776240  30.6563700
   1.7683000  51.6717140  19.0415210   2.4911130  52.2126080  19.3596430
   2.0407520  51.3980560  18.1656750  15.5774650  56.5409610  23.3086790
  16.0733770  56.3080480  24.0935670  15.3790720  55.7021450  22.8924430
  17.0061810  55.1770560  25.8424470  16.8961090  55.0226600  26.7806740
  17.7669400  54.6491500  25.5999880  15.3527530  51.1164690  32.3007470
  15.9899750  51.7298830  32.6666660  15.5002420  51.1525350  31.3556700
  17.8952080  53.0078480  19.0830610  18.8201390  52.8759660  18.8748900
  17.8727870  53.0871300  20.0367060  17.9690570  53.7789140  21.7087320
  17.1742070  53.7134260  22.2380230  18.1733850  54.7139780  21.6972670
  14.9108990  67.8180690  25.7025710  15.5068060  67.4965260  25.0260130
  15.1687140  67.3452510  26.4938980   2.8171560  64.2498600  35.8516340
   2.7741190  63.8791510  36.7330800   2.9482570  65.1876170  35.9918160
   6.5177590  65.8058190  31.4526060   6.2768950  66.0732750  30.5656580
   7.4580230  65.9763920  31.5076920   8.7232010  52.2690880  35.2082570
   8.6620900  52.8612710  35.9577980   9.6632390  52.1616840  35.0632830
  11.3606570  51.9260940  34.8474860  11.9746980  52.2440230  34.1855940
  11.9056130  51.4409530  35.4670720  17.7781750  67.8252570  32.2536700
  17.2840030  68.2221440  31.5363830  17.1695040  67.2001780  32.6473980
   1.8827830  50.6055200  34.9613920   2.4310820  50.4243250  34.1980030
   1.9483140  49.8149310  35.4970230   2.6559590  67.1960850  32.9714120
   2.0619910  67.0645550  33.7104160   2.6483430  66.3598990  32.5056220
  12.1014610  50.4893080  31.1744150  11.2274450  50.8228190  30.9717080
  11.9925360  50.0166260  31.9996020  13.0086590  52.6963950  32.5585870
  12.6799950  51.8815710  32.1787600  13.9568890  52.6533760  32.4351560
  15.4621200  68.4675990  29.5323440  15.0024170  69.2191800  29.1581460
  14.8333660  67.7482460  29.4738240   2.2871820  64.5619230  31.9222160
   1.5605880  63.9424520  31.8548110   2.3480970  64.9559840  31.0520240
   5.8916920  66.7764230  28.7071570   6.4081940  66.1651590  28.1819830
   6.5414300  67.2793010  29.1982580   8.6312420  67.6672720  29.5340550
   8.9190230  67.4127020  28.6573560   9.1435640  67.1150080  30.1246120
   9.8489430  51.4062920  30.1137060   9.0661220  51.8808420  30.3933820
   9.5552360  50.5017750  30.0050240  14.4010500  52.1086020  28.1586150
  14.8418590  52.0531120  27.3107750  14.1318090  53.0244030  28.2296330
  16.2649070  51.7401260  26.1694970  16.2037470  50.7962480  26.0225990
  17.0441100  51.8481350  26.7148430   7.7343650  53.8249670  25.6253090
   6.9218160  53.4506560  25.2848970   8.2385290  53.0694750  25.9274280
  12.2368630  50.4892120  26.8636160  12.8398000  51.0612330  27.3384680
  11.4961620  51.0531560  26.6410060  15.3803230  50.8913680  22.1376440
  15.5753860  51.7897130  22.4043870  14.5933100  50.6600760  22.6309390
   2.1764520  66.5726850  22.5769060   1.6512140  66.9534880  21.8731020
   2.1009100  67.1977620  23.2978770   3.5654990  52.2374450  21.1752750
   4.0947750  51.4504250  21.0460700   4.1983310  52.9165640  21.4088280
   5.7592830  51.9749590  24.2298140   5.1295570  51.2736900  24.3968270
   5.2197970  52.7353720  24.0131300   8.6984780  68.5888820  36.9008750
   9.6252090  68.3533090  36.9444710   8.6835210  69.4160820  36.4194780
  16.9329840  68.1314390  23.8983000  17.1082030  67.4452130  23.2543920
  16.2351410  68.6561440  23.5059670   5.8848390  51.2533570  36.6650630
   5.6032660  51.7567170  35.9011450   6.2668090  50.4555320  36.2992760
   4.7757490  68.5209230  21.4518310   5.5076310  68.2368510  20.9042200
   5.0351160  68.2822510  22.3417690   3.9372280  64.6373960  21.4564640
   3.3081160  65.1059060  22.0050470   4.0520110  63.7923180  21.8910830
  12.4863850  50.6687150  37.2431100  12.3729300  50.9881760  38.1382620
  13.3033590  51.0699660  36.9468380  15.2662340  67.8158680  36.7249790
  16.0587660  67.3207910  36.5175750  15.5595490  68.4948820  37.3325400
  11.3922000  58.6879620   7.6065840  11.3116050  57.7734230   7.3357550
  10.9786420  59.1846690   6.9005550   9.5240040  60.4658640   9.4875110
   8.7482140  59.9859080   9.7773680  10.1752970  59.7864290   9.3131270
   3.5405870  60.7778450  10.3650870   2.7090750  60.5227160  10.7647380
   4.1486850  60.8489220  11.1008790  13.5447470  64.8718830   8.2674240
  13.0829000  64.1006070   8.5961410  14.3573020  64.8984900   8.7726690
   3.5207130  64.8118540  10.5608890   3.8235170  63.9216280  10.3819110
   4.2650720  65.3688760  10.3331140   9.7710780  67.1576840   7.8878230
   9.1522220  67.6134340   7.3172670  10.6262560  67.3128300   7.4867930
   8.9649030  63.1415830   9.4945270   8.8957310  62.2005770   9.3334400
   9.7268890  63.2317240  10.0667840   9.9954200  55.9486210   9.7214200
  10.3719020  55.0758090   9.6087870   9.8973710  56.2844910   8.8304640
   4.1259210  54.3211840   5.1831640   4.2325960  55.2215570   5.4900400
   3.2151570  54.2729810   4.8926290  13.7778320  53.4436650   6.6542540
  14.5987940  52.9533220   6.6968020  13.8112400  54.0334310   7.4074380
   5.9666940  57.2898210   9.5156820   6.4745160  57.7879180  10.1561840
   6.4980180  56.5133410   9.3396180  18.0677870  55.4603400  13.2186170
  17.3630040  55.8485110  12.7001280  18.3335790  56.1553690  13.8207100
   4.2503040  51.9296770  13.7820240   4.2521480  52.4469160  12.9766140
   3.4207350  51.4526950  13.7590170  10.6374130  62.0416080   5.2810140
  10.0191400  62.5065530   4.7172860  11.1497380  62.7343560   5.6979650
   5.5005890  61.5691950  11.9593740   5.1675270  62.1960870  12.6014810
   5.6772570  62.0953830  11.1795410  14.0139800  55.3837030   9.4270080
  13.3095370  55.6721920  10.0073190  14.3751960  56.1937140   9.0669640
   3.9318370  53.6406730  11.7890690   4.2735180  54.4848780  11.4944560
   2.9934180  53.7890470  11.9056030   4.7124990  63.5372750  13.7742920
   5.3298990  64.2123830  13.4927370   3.8518110  63.9460730  13.6830420
  15.6302580  65.0012160  11.6897560  14.9466100  65.6711270  11.6814230
  16.1696870  65.1992810  10.9242420  17.0826720  54.8291820   9.8179290
  16.1351630  54.8630800   9.9494720  17.4076710  55.6430770  10.2028650
   7.6146260  51.1289000   8.1135280   7.9221240  50.5735890   7.3970780
   6.6846960  51.2633460   7.9308270  13.1661320  66.8456290  10.4042740
  13.1788480  66.4418580   9.5365000  12.6136540  67.6203580  10.3004170
  14.4606740  63.5672510   5.4932910  14.3503070  62.6246840   5.6182330
  14.4574990  63.9288150   6.3795670  12.5646760  61.7486130  11.7325350
  12.9815550  61.5346240  10.8978810  13.2886580  62.0058920  12.3033970
  10.0027020  59.1937830   4.8495400   9.0756300  59.1275210   5.0783870
  10.1551840  60.1317960   4.7350640  16.5108860  60.1473350  11.8241590
  15.6827490  60.2166440  11.3491720  17.1059340  60.7327660  11.3557420
  14.0324310  60.7558130   5.3530650  13.4136730  60.4177680   4.7056950
  14.0148760  60.1117890   6.0609840  13.4750870  56.9342670  12.7696460
  13.0622050  57.7596380  13.0236450  12.7426820  56.3487710  12.5772820
   5.6083660  59.7202570   7.6315130   5.2040660  59.0079820   7.1361030
   5.6946780  59.3755810   8.5203170   6.0765360  63.4070130   9.7954340
   5.7793650  62.8015600   9.1162120   7.0265180  63.4447440   9.6843700
   4.3212280  56.4945780  11.4114170   4.8726870  56.6041120  10.6367420
   4.8355790  56.8683380  12.1269400  14.1650970  66.9802000  13.4577440
  13.6881530  67.7874190  13.2650050  13.4812760  66.3280330  13.6103650
   5.1683790  63.1451820  16.4462140   4.2712320  63.3691790  16.6935540
   5.1936660  63.2686760  15.4973540  12.2089010  59.9944940   2.3603400
  12.6482290  59.1567370   2.2141220  12.9217430  60.6274340   2.4467540
   3.9955010  60.0165140  15.0219510   3.8562780  60.8887940  15.3906910
   3.1136370  59.6737950  14.8767450  10.3184390  64.9341010   6.3284640
  10.7580300  65.6765340   5.9140030  10.2571280  65.1767580   7.2523600
   5.7935360  65.9586840  17.2304660   5.7650790  66.3629790  16.3633090
   5.6300330  65.0297200  17.0676260   2.3088290  58.6147550   5.1321780
   2.1885890  59.3409640   4.5203050   1.9989180  57.8450460   4.6549690
  17.7450180  66.7413940  18.5268830  18.2209900  67.2196830  19.2057910
  18.3657340  66.6731430  17.8014330  17.1483430  63.9326790  15.6868840
  17.2746490  63.6938670  14.7686020  17.1904810  63.1011330  16.1590920
  11.0100170  67.6354790  14.2563650  11.5244840  67.5462800  15.0586080
  10.1669250  67.9814490  14.5491560  12.9854570  67.9210130   3.6847650
  12.8255710  67.6313070   4.5829480  12.8201280  67.1450260   3.1492880
   5.4642950  67.7008660   5.4619270   5.2885430  66.7844200   5.2487070
   4.6098690  68.0595950   5.7017070  12.2530630  67.0560400   6.3194140
  12.7087580  66.2749780   6.6332760  12.5923150  67.7667220   6.8635320
  17.0007440  55.9859250  16.6518580  16.3851710  56.4938920  16.1234040
  16.6803860  55.0857580  16.5944520   4.7751950  51.9582620   8.5145450
   4.3320100  52.7392160   8.1829970   5.3336940  52.2812510   9.2216390
   9.0621760  54.8251140  14.1180770   8.6001130  55.0334160  14.9300710
   8.6599870  54.0110490  13.8151440  14.0626270  56.0460090  15.2477430
  13.2119860  55.7465840  15.5686500  13.9028060  56.2902100  14.3361250
  11.1575980  57.5461840  17.3476220  11.4829390  56.7125590  17.0078450
  11.9456310  58.0690360  17.4954550   7.8910770  51.5793320   3.3951280
   7.2664950  51.5753190   4.1204590   7.8040890  50.7124280   2.9987250
   6.8127850  52.5029950  10.3735050   7.1100180  53.4092780  10.2927070
   7.3613410  52.0148730   9.7594620   4.5666170  57.0816190   6.2426700
   4.3407090  56.8653360   7.1473320   3.7858700  57.5144650   5.8972670
  11.7963930  57.0879560   4.8417350  11.1972820  57.8115360   4.6580970
  12.3443540  57.0256340   4.0593800   7.0065380  57.9801770  16.9086970
   6.9108980  57.0396500  16.7587370   7.8497360  58.2016840  16.5135040
  10.4028800  55.7243100   6.8720630  10.7958370  56.0415300   6.0589320
  10.7645650  54.8454980   6.9865150   8.7120970  54.4750410  18.1317490
   8.0219290  54.2822610  18.7663580   9.4553270  54.7585050  18.6641790
  10.9883940  58.3148850  10.9671410  10.2565060  58.8235660  11.3161510
  10.5908280  57.4978830  10.6660190   7.4261330  54.9903050   9.3723900
   7.4297390  54.5493000   8.5228440   8.3212450  55.3120380   9.4795720
   3.2763710  54.8729540   8.3318110   2.9363760  55.3504770   9.0885160
   2.5141030  54.4194660   7.9719210   7.4881480  55.9915130   2.3630660
   7.6094300  55.9501610   3.3116480   7.1029990  56.8539280   2.2077390
  11.4509850  53.7682530  10.3794350  11.4682590  54.2191180  11.2236200
  11.2025430  52.8688170  10.5927790  14.8780600  51.1814710  16.2180730
  15.2026370  50.4504370  16.7438710  14.9137110  50.8628350  15.3161720
   7.7269300  59.0504830  11.1189310   8.0939430  58.5763400  11.8650650
   7.5374360  59.9246400  11.4597650   5.5168670  58.0913470  13.4373520
   5.2125740  58.9705450  13.6623880   6.4715130  58.1513260  13.4730960
   4.0450460  62.2974460   4.0340370   3.2712720  61.7572080   3.8739090
   4.7745090  61.7781070   3.6958130  14.8038440  61.2939820   9.8266760
  15.5237560  61.7895110   9.4362870  14.6020260  60.6157710   9.1820630
  10.2648380  52.6877780   3.9696150   9.4512990  52.1890950   3.8941460
  10.0710330  53.5276030   3.5532500  10.1857240  61.3648880  15.7135760
  10.1194550  60.4444550  15.4593350   9.5562380  61.4624320  16.4280400
  12.9796770  57.0597430   2.2658310  13.8676390  57.3714660   2.0909650
  12.9501860  56.1869680   1.8738890   4.0887860  61.9654840   7.6719180
   4.6066530  61.1623100   7.6176070   3.6371880  61.9033980   8.5136010
   8.9757360  63.2321120   2.9446480   9.3173060  63.9763350   2.4489800
   8.1470070  63.5452240   3.3071310   4.7745520  59.3900450  17.4684430
   4.4745660  59.5357630  16.5712250   5.5456760  58.8305740  17.3757820
  10.1173970  64.1869450  15.4639560  10.1318510  63.2550410  15.2458470
   9.4099070  64.2729210  16.1029330  16.3285180  60.8276790  14.8108140
  15.6033370  61.4205570  14.6137530  16.8560640  60.8200330  14.0121510
  16.2798290  65.2251530   4.4620300  15.6374450  64.5707150   4.7364020
  15.8928950  65.6306620   3.6860970  11.8584770  62.5536960   8.3091990
  12.2108590  61.9565090   7.6493360  10.9747100  62.2281190   8.4800240
   7.9448050  63.3134650   5.7162400   8.6319180  63.8603860   6.0969990
   7.1580470  63.8575380   5.7512010   7.2475260  60.3180680   5.3287760
   7.7038040  61.1285930   5.5547950   6.8963470  60.0003820   6.1606250
   9.5507870  65.8287020  12.5580060  10.1950090  66.0346400  13.2353480
   9.9137310  65.0675420  12.1050910   3.1487040  50.6618330   5.8010280
   3.0201670  50.6536230   6.7495200   2.3249060  51.0001420   5.4501290
  10.8239950  63.8319370  11.2757510  11.4662180  63.1312530  11.3889680
  11.3489300  64.6117810  11.0954400  12.5977570  64.6314270  14.4793570
  12.9333810  65.2180960  15.1571490  11.6777910  64.5006980  14.7091360
  14.2511920  62.0339930   2.6610810  13.9633620  62.4952620   3.4488690
  15.0464090  61.5737700   2.9295030   8.4266150  64.6805600  17.6481630
   8.1063020  63.9614840  18.1927320   7.7524510  65.3560670  17.7217690
   6.4680320  65.5266050   2.5914780   6.4590420  66.2595740   1.9759290
   5.5478680  65.2797630   2.6841740  11.6419750  54.9131760  13.0118430
  12.0100570  54.0926970  13.3398000  10.7817950  54.9733650  13.4274080
  15.0081780  53.8688700   3.8205990  14.3794940  53.9734370   3.1064220
  14.5133700  54.0885480   4.6099870   6.9765810  56.1474650   5.2363870
   6.2681960  56.6160990   5.6777480   7.2610290  55.4896660   5.8709060
   8.6021740  57.5671350  13.2356400   9.1006990  58.0417170  13.9008250
   8.7444690  56.6434870  13.4426430  11.0081240  52.8725310   6.6759660
  10.8849020  52.8911440   5.7269170  11.9565800  52.9204250   6.7958060
   8.0958030  68.1080610   5.9487640   8.3499530  68.0702000   5.0267010
   7.1470510  67.9813940   5.9415890   5.1800830  54.4559730   2.6114580
   6.0291360  54.8929880   2.5454770   4.8132100  54.7679990   3.4386640
  15.8088600  53.7839310  14.0784790  15.3062200  54.5244710  14.4178600
  16.6245260  54.1723310  13.7621580  14.1010610  59.0272490   7.5246150
  13.1600750  59.0422720   7.6993840  14.4154680  58.2408450   7.9706450
   2.7739010  58.1417160   1.7683000   2.8542600  57.1944670   1.8800400
   3.6658760  58.4724040   1.8743660  16.1036190  66.1981340   9.2000410
  16.2283610  67.0212510   9.6724220  16.9701750  65.9872070   8.8524560
   3.5753720  68.2912550   8.8717540   4.3116200  67.7428010   9.1426110
   3.9594640  69.1568560   8.7323530   2.5812000  67.4758620  18.0603120
   3.3824730  67.7970670  18.4738520   2.0663820  67.1154200  18.7823030
  11.4176630  63.5838490  18.0078530  10.8114790  63.6070090  17.2674280
  11.1130740  62.8521530  18.5445780  12.8477000  67.3118780  16.6187940
  13.7998750  67.2276800  16.5688180  12.7005220  67.9760490  17.2921730
   7.3547750  61.3703070  16.5374690   6.5893420  61.9388070  16.4529360
   7.5363710  61.0779280  15.6442920  14.4971100  63.1008400  17.0949710
  15.2380570  63.4384160  16.5917170  13.7343780  63.2700460  16.5419480
   2.3332890  58.1061670  17.8989240   2.3738230  57.8075540  18.8074470
   3.1878390  58.5069280  17.7396760   6.1111280  60.7057220   3.0592750
   6.5327700  60.5397090   3.9024140   6.2362120  59.8957450   2.5647890
   4.2738700  56.6853770  15.8663730   3.7435160  56.1944720  15.2387070
   4.9426770  57.1137970  15.3321660  13.1716760  61.1523230  15.6304920
  13.5857780  61.3068310  16.4795340  12.2367760  61.2778450  15.7930700
  13.6438930  58.4919390  17.6344070  14.2259700  57.7371710  17.5464550
  13.8200700  59.0226830  16.8575550   4.7611000  53.6516140  15.9461020
   4.6667870  53.0336890  15.2211890   4.1808390  54.3782430  15.7190930
   7.5272440  52.2089380  12.9788410   7.0789740  52.2313640  12.1333960
   6.8937640  51.8108400  13.5758710   7.9331990  61.1043710  13.6000850
   8.3520100  61.9476440  13.4277090   7.0140620  61.2415750  13.3707630
  10.2695890  58.8359890  14.9838690  10.3892100  58.2401030  15.7233530
  11.1289890  58.8729580  14.5639990  12.6083790  59.3897080  13.5601200
  12.0819010  59.9139700  12.9566340  12.9515130  60.0224470  14.1910930
   5.7839410  67.4096720  14.7158580   5.2460500  68.1342780  14.3967280
   6.0373370  66.9327060  13.9255920   7.0364660  55.3781240  16.2414510
   7.6264350  55.0697090  16.9292330   6.2184900  54.9060990  16.3974410
  11.8558090  54.9947050  16.4747530  11.1673610  54.3328590  16.4097520
  12.5764110  54.5485320  16.9195990  12.4858490  51.5898680   2.5337790
  12.7660780  50.7466580   2.8897210  11.7124220  51.8221790   3.0476540
   8.6401620  68.6447930  14.9745230   8.5660320  69.5483070  15.2817600
   7.7380460  68.3259830  14.9467300   9.1886950  67.8106440   2.5971590
  10.0837740  68.1491410   2.6190350   9.2204580  67.0885850   1.9695870
   4.6390830  64.3031530   5.9380820   4.3386370  64.1796500   6.8384730
   4.5328320  63.4440120   5.5296550  16.1681300  66.3410110  15.3037790
  15.5683290  66.4002670  14.5601710  16.2975200  65.4015090  15.4334640
  16.8639210  60.8275410   3.1441700  17.6258120  61.3972060   3.2501390
  16.8793580  60.2602610   3.9150010  17.8699180  61.6825510   7.9883630
  18.2408010  60.8992830   7.5819600  18.5101110  62.3714610   7.8100930
  14.8532940  63.0662090  13.4013950  14.0392780  63.4959250  13.6639740
  15.2607140  63.6780500  12.7883000  16.8123720  59.0578770   5.2943650
  16.4367320  58.2906700   4.8624940  16.0826840  59.4401470   5.7818580
  16.2023340  58.2050290  14.9283170  15.9709430  57.9763040  14.0281120
  16.4627890  59.1249840  14.8828060  14.6411410  53.4306720  17.7062870
  15.5181590  53.4390120  18.0896870  14.6532250  52.6937560  17.0955220
  16.0874680  57.2836260   8.5950890  16.6112160  56.7898910   7.9641060
  16.6734100  57.4186620   9.3398460  16.2664400  57.3676130  12.1170440
  15.3167110  57.3339670  12.2315430  16.4477410  58.2776240  11.8820210
  15.5774650  56.5409610   4.5343300  16.0733770  56.3080480   5.3192180
  15.3790720  55.7021450   4.1180940  17.0061810  55.1770560   7.0680980
  16.8961090  55.0226600   8.0063250  17.7669400  54.6491500   6.8256390
  15.3527530  51.1164690  13.5263980  15.9899750  51.7298830  13.8923170
  15.5002420  51.1525350  12.5813210  17.9690570  53.7789140   2.9343830
  17.1742070  53.7134260   3.4636740  18.1733850  54.7139780   2.9229180
  14.9108990  67.8180690   6.9282220  15.5068060  67.4965260   6.2516640
  15.1687140  67.3452510   7.7195490   2.8171560  64.2498600  17.0772850
   2.7741190  63.8791510  17.9587310   2.9482570  65.1876170  17.2174670
   6.5177590  65.8058190  12.6782570   6.2768950  66.0732750  11.7913090
   7.4580230  65.9763920  12.7333430   8.7232010  52.2690880  16.4339080
   8.6620900  52.8612710  17.1834490   9.6632390  52.1616840  16.2889340
  11.3606570  51.9260940  16.0731370  11.9746980  52.2440230  15.4112450
  11.9056130  51.4409530  16.6927230  17.7781750  67.8252570  13.4793210
  17.2840030  68.2221440  12.7620340  17.1695040  67.2001780  13.8730490
   1.8827830  50.6055200  16.1870430   2.4310820  50.4243250  15.4236540
   1.9483140  49.8149310  16.7226740   2.6559590  67.1960850  14.1970630
   2.0619910  67.0645550  14.9360670   2.6483430  66.3598990  13.7312730
  12.1014610  50.4893080  12.4000660  11.2274450  50.8228190  12.1973590
  11.9925360  50.0166260  13.2252530  13.0086590  52.6963950  13.7842380
  12.6799950  51.8815710  13.4044110  13.9568890  52.6533760  13.6608070
  15.4621200  68.4675990  10.7579950  15.0024170  69.2191800  10.3837970
  14.8333660  67.7482460  10.6994750   2.2871820  64.5619230  13.1478670
   1.5605880  63.9424520  13.0804620   2.3480970  64.9559840  12.2776750
   5.8916920  66.7764230   9.9328080   6.4081940  66.1651590   9.4076340
   6.5414300  67.2793010  10.4239090   8.6312420  67.6672720  10.7597060
   8.9190230  67.4127020   9.8830070   9.1435640  67.1150080  11.3502630
   9.8489430  51.4062920  11.3393570   9.0661220  51.8808420  11.6190330
   9.5552360  50.5017750  11.2306750  14.4010500  52.1086020   9.3842660
  14.8418590  52.0531120   8.5364260  14.1318090  53.0244030   9.4552840
  16.2649070  51.7401260   7.3951480  16.2037470  50.7962480   7.2482500
  17.0441100  51.8481350   7.9404940   7.7343650  53.8249670   6.8509600
   6.9218160  53.4506560   6.5105480   8.2385290  53.0694750   7.1530790
  12.2368630  50.4892120   8.0892670  12.8398000  51.0612330   8.5641190
  11.4961620  51.0531560   7.8666570  15.3803230  50.8913680   3.3632950
  15.5753860  51.7897130   3.6300380  14.5933100  50.6600760   3.8565900
   2.1764520  66.5726850   3.8025570   1.6512140  66.9534880   3.0987530
   2.1009100  67.1977620   4.5235280   3.5654990  52.2374450   2.4009260
   4.0947750  51.4504250   2.2717210   4.1983310  52.9165640   2.6344790
   5.7592830  51.9749590   5.4554650   5.1295570  51.2736900   5.6224780
   5.2197970  52.7353720   5.2387810   8.6984780  68.5888820  18.1265260
   9.6252090  68.3533090  18.1701220   8.6835210  69.4160820  17.6451290
  16.9329840  68.1314390   5.1239510  17.1082030  67.4452130   4.4800430
  16.2351410  68.6561440   4.7316180   5.8848390  51.2533570  17.8907140
   5.6032660  51.7567170  17.1267960   6.2668090  50.4555320  17.5249270
   4.7757490  68.5209230   2.6774820   5.5076310  68.2368510   2.1298710
   5.0351160  68.2822510   3.5674200   3.9372280  64.6373960   2.6821150
   3.3081160  65.1059060   3.2306980   4.0520110  63.7923180   3.1167340
  12.4863850  50.6687150  18.4687610  12.3729300  50.9881760  19.3639130
  13.3033590  51.0699660  18.1724890  15.2662340  67.8158680  17.9506300
  16.0587660  67.3207910  17.7432260  15.5595490  68.4948820  18.5581910
  11.3922000  39.9136130  63.9296310  11.3116050  38.9990740  63.6588020
  10.9786420  40.4103200  63.2236020   9.5240040  41.6915150  65.8105580
   8.7482140  41.2115590  66.1004150  10.1752970  41.0120800  65.6361740
   3.5405870  42.0034960  66.6881340   2.7090750  41.7483670  67.0877850
   4.1486850  42.0745730  67.4239260  13.5447470  46.0975340  64.5904710
  13.0829000  45.3262580  64.9191880  14.3573020  46.1241410  65.0957160
   3.5207130  46.0375050  66.8839360   3.8235170  45.1472790  66.7049580
   4.2650720  46.5945270  66.6561610   9.7710780  48.3833350  64.2108700
   9.1522220  48.8390850  63.6403140  10.6262560  48.5384810  63.8098400
   8.9649030  44.3672340  65.8175740   8.8957310  43.4262280  65.6564870
   9.7268890  44.4573750  66.3898310   9.9954200  37.1742720  66.0444670
  10.3719020  36.3014600  65.9318340   9.8973710  37.5101420  65.1535110
   4.1259210  35.5468350  61.5062110   4.2325960  36.4472080  61.8130870
   3.2151570  35.4986320  61.2156760  13.7778320  34.6693160  62.9773010
  14.5987940  34.1789730  63.0198490  13.8112400  35.2590820  63.7304850
   5.9666940  38.5154720  65.8387290   6.4745160  39.0135690  66.4792310
   6.4980180  37.7389920  65.6626650  18.0677870  36.6859910  69.5416640
  17.3630040  37.0741620  69.0231750  18.3335790  37.3810200  70.1437570
   4.2503040  33.1553280  70.1050710   4.2521480  33.6725670  69.2996610
   3.4207350  32.6783460  70.0820640  10.6374130  43.2672590  61.6040610
  10.0191400  43.7322040  61.0403330  11.1497380  43.9600070  62.0210120
   5.5005890  42.7948460  68.2824210   5.1675270  43.4217380  68.9245280
   5.6772570  43.3210340  67.5025880  14.0139800  36.6093540  65.7500550
  13.3095370  36.8978430  66.3303660  14.3751960  37.4193650  65.3900110
   3.9318370  34.8663240  68.1121160   4.2735180  35.7105290  67.8175030
   2.9934180  35.0146980  68.2286500   4.7124990  44.7629260  70.0973390
   5.3298990  45.4380340  69.8157840   3.8518110  45.1717240  70.0060890
  15.6302580  46.2268670  68.0128030  14.9466100  46.8967780  68.0044700
  16.1696870  46.4249320  67.2472890  17.0826720  36.0548330  66.1409760
  16.1351630  36.0887310  66.2725190  17.4076710  36.8687280  66.5259120
   7.6146260  32.3545510  64.4365750   7.9221240  31.7992400  63.7201250
   6.6846960  32.4889970  64.2538740  13.1661320  48.0712800  66.7273210
  13.1788480  47.6675090  65.8595470  12.6136540  48.8460090  66.6234640
  14.4606740  44.7929020  61.8163380  14.3503070  43.8503350  61.9412800
  14.4574990  45.1544660  62.7026140  12.5646760  42.9742640  68.0555820
  12.9815550  42.7602750  67.2209280  13.2886580  43.2315430  68.6264440
  10.0027020  40.4194340  61.1725870   9.0756300  40.3531720  61.4014340
  10.1551840  41.3574470  61.0581110   9.9896100  36.6911340  58.1693030
   9.0499770  36.8525300  58.2545490  10.3079360  37.4097020  57.6229020
  16.5108860  41.3729860  68.1472060  15.6827490  41.4422950  67.6722190
  17.1059340  41.9584170  67.6787890  14.0324310  41.9814640  61.6761120
  13.4136730  41.6434190  61.0287420  14.0148760  41.3374400  62.3840310
  13.4750870  38.1599180  69.0926930  13.0622050  38.9852890  69.3466920
  12.7426820  37.5744220  68.9003290   5.6083660  40.9459080  63.9545600
   5.2040660  40.2336330  63.4591500   5.6946780  40.6012320  64.8433640
   6.0765360  44.6326640  66.1184810   5.7793650  44.0272110  65.4392590
   7.0265180  44.6703950  66.0074170   4.3212280  37.7202290  67.7344640
   4.8726870  37.8297630  66.9597890   4.8355790  38.0939890  68.4499870
  14.1650970  48.2058510  69.7807910  13.6881530  49.0130700  69.5880520
  13.4812760  47.5536840  69.9334120  12.2089010  41.2201450  58.6833870
  12.6482290  40.3823880  58.5371690  12.9217430  41.8530850  58.7698010
   3.9955010  41.2421650  71.3449980   3.8562780  42.1144450  71.7137380
   3.1136370  40.8994460  71.1997920  10.3184390  46.1597520  62.6515110
  10.7580300  46.9021850  62.2370500  10.2571280  46.4024090  63.5754070
  15.7906150  32.4744260  56.9974910  15.4778810  32.5671090  57.8973980
  16.5518620  33.0525290  56.9472340   2.3088290  39.8404060  61.4552250
   2.1885890  40.5666150  60.8433520   1.9989180  39.0706970  60.9780160
  17.1483430  45.1583300  72.0099310  17.2746490  44.9195180  71.0916490
  17.1904810  44.3267840  72.4821390  11.0100170  48.8611300  70.5794120
  11.5244840  48.7719310  71.3816550  10.1669250  49.2071000  70.8722030
  12.9854570  49.1466640  60.0078120  12.8255710  48.8569580  60.9059950
  12.8201280  48.3706770  59.4723350   5.4642950  48.9265170  61.7849740
   5.2885430  48.0100710  61.5717540   4.6098690  49.2852460  62.0247540
  12.6880700  46.6554200  58.5676120  11.9945860  46.6531490  57.9078400
  13.4303560  46.2313520  58.1370290  12.2530630  48.2816910  62.6424610
  12.7087580  47.5006290  62.9563230  12.5923150  48.9923730  63.1865790
  17.0007440  37.2115760  72.9749050  16.3851710  37.7195430  72.4464510
  16.6803860  36.3114090  72.9174990   4.7751950  33.1839130  64.8375920
   4.3320100  33.9648670  64.5060440   5.3336940  33.5069020  65.5446860
   9.0621760  36.0507650  70.4411240   8.6001130  36.2590670  71.2531180
   8.6599870  35.2367000  70.1381910  14.0626270  37.2716600  71.5707900
  13.2119860  36.9722350  71.8916970  13.9028060  37.5158610  70.6591720
   7.8910770  32.8049830  59.7181750   7.2664950  32.8009700  60.4435060
   7.8040890  31.9380790  59.3217720   6.8127850  33.7286460  66.6965520
   7.1100180  34.6349290  66.6157540   7.3613410  33.2405240  66.0825090
   4.5666170  38.3072700  62.5657170   4.3407090  38.0909870  63.4703790
   3.7858700  38.7401160  62.2203140  11.7963930  38.3136070  61.1647820
  11.1972820  39.0371870  60.9811440  12.3443540  38.2512850  60.3824270
  10.4028800  36.9499610  63.1951100  10.7958370  37.2671810  62.3819790
  10.7645650  36.0711490  63.3095620  10.9883940  39.5405360  67.2901880
  10.2565060  40.0492170  67.6391980  10.5908280  38.7235340  66.9890660
   7.4261330  36.2159560  65.6954370   7.4297390  35.7749510  64.8458910
   8.3212450  36.5376890  65.8026190   3.2763710  36.0986050  64.6548580
   2.9363760  36.5761280  65.4115630   2.5141030  35.6451170  64.2949680
   7.4881480  37.2171640  58.6861130   7.6094300  37.1758120  59.6346950
   7.1029990  38.0795790  58.5307860  11.4509850  34.9939040  66.7024820
  11.4682590  35.4447690  67.5466670  11.2025430  34.0944680  66.9158260
   6.5002980  39.5272780  58.0844430   5.9319880  39.0791030  57.4580340
   7.2091980  39.8865560  57.5509580   7.7269300  40.2761340  67.4419780
   8.0939430  39.8019910  68.1881120   7.5374360  41.1502910  67.7828120
   5.5168670  39.3169980  69.7603990   5.2125740  40.1961960  69.9854350
   6.4715130  39.3769770  69.7961430   4.0450460  43.5230970  60.3570840
   3.2712720  42.9828590  60.1969560   4.7745090  43.0037580  60.0188600
  14.8038440  42.5196330  66.1497230  15.5237560  43.0151620  65.7593340
  14.6020260  41.8414220  65.5051100  10.2648380  33.9134290  60.2926620
   9.4512990  33.4147460  60.2171930  10.0710330  34.7532540  59.8762970
  10.1857240  42.5905390  72.0366230  10.1194550  41.6701060  71.7823820
   9.5562380  42.6880830  72.7510870  12.9796770  38.2853940  58.5888780
  13.8676390  38.5971170  58.4140120  12.9501860  37.4126190  58.1969360
   4.0887860  43.1911350  63.9949650   4.6066530  42.3879610  63.9406540
   3.6371880  43.1290490  64.8366480   8.9757360  44.4577630  59.2676950
   9.3173060  45.2019860  58.7720270   8.1470070  44.7708750  59.6301780
  10.1173970  45.4125960  71.7870030  10.1318510  44.4806920  71.5688940
   9.4099070  45.4985720  72.4259800  15.2511040  39.5965780  58.0568640
  15.1674760  40.0280000  57.2065080  15.9705230  40.0564130  58.4895460
  16.3285180  42.0533300  71.1338610  15.6033370  42.6462080  70.9368000
  16.8560640  42.0456840  70.3351980  16.2798290  46.4508040  60.7850770
  15.6374450  45.7963660  61.0594490  15.8928950  46.8563130  60.0091440
  11.8584770  43.7793470  64.6322460  12.2108590  43.1821600  63.9723830
  10.9747100  43.4537700  64.8030710   7.9448050  44.5391160  62.0392870
   8.6319180  45.0860370  62.4200460   7.1580470  45.0831890  62.0742480
   7.2475260  41.5437190  61.6518230   7.7038040  42.3542440  61.8778420
   6.8963470  41.2260330  62.4836720   9.5507870  47.0543530  68.8810530
  10.1950090  47.2602910  69.5583950   9.9137310  46.2931930  68.4281380
   3.1487040  31.8874840  62.1240750   3.0201670  31.8792740  63.0725670
   2.3249060  32.2257930  61.7731760  10.8239950  45.0575880  67.5987980
  11.4662180  44.3569040  67.7120150  11.3489300  45.8374320  67.4184870
  14.6695670  45.3424500  57.3227120  14.4433250  44.6254940  57.9151760
  14.2791870  45.0936940  56.4848870  12.5977570  45.8570780  70.8024040
  12.9333810  46.4437470  71.4801960  11.6777910  45.7263490  71.0321830
  14.2511920  43.2596440  58.9841280  13.9633620  43.7209130  59.7719160
  15.0464090  42.7994210  59.2525500   6.4680320  46.7522560  58.9145250
   6.4590420  47.4852250  58.2989760   5.5478680  46.5054140  59.0072210
  11.6419750  36.1388270  69.3348900  12.0100570  35.3183480  69.6628470
  10.7817950  36.1990160  69.7504550  15.0081780  35.0945210  60.1436460
  14.3794940  35.1990880  59.4294690  14.5133700  35.3141990  60.9330340
   9.4539920  46.8150800  57.5770440   9.5551900  46.6114790  56.6472420
   8.5541660  46.5609080  57.7818220   6.9765810  37.3731160  61.5594340
   6.2681960  37.8417500  62.0007950   7.2610290  36.7153170  62.1939530
   8.6021740  38.7927860  69.5586870   9.1006990  39.2673680  70.2238720
   8.7444690  37.8691380  69.7656900  11.0081240  34.0981820  62.9990130
  10.8849020  34.1167950  62.0499640  11.9565800  34.1460760  63.1188530
   8.0958030  49.3337120  62.2718110   8.3499530  49.2958510  61.3497480
   7.1470510  49.2070450  62.2646360   5.1800830  35.6816240  58.9345050
   6.0291360  36.1186390  58.8685240   4.8132100  35.9936500  59.7617110
  15.8088600  35.0095820  70.4015260  15.3062200  35.7501220  70.7409070
  16.6245260  35.3979820  70.0852050  14.1010610  40.2529000  63.8476620
  13.1600750  40.2679230  64.0224310  14.4154680  39.4664960  64.2936920
   4.0792250  41.9348600  57.4080580   4.8455520  41.8229960  57.9706010
   4.1566940  41.2386570  56.7557350   2.7739010  39.3673670  58.0913470
   2.8542600  38.4201180  58.2030870   3.6658760  39.6980550  58.1974130
  16.1036190  47.4237850  65.5230880  16.2283610  48.2469020  65.9954690
  16.9701750  47.2128580  65.1755030   3.5753720  49.5169060  65.1948010
   4.3116200  48.9684520  65.4656580   3.9594640  50.3825070  65.0554000
   6.6856030  48.6899370  57.0173580   7.4784640  48.9788200  56.5655370
   6.1660380  48.2591540  56.3386060  15.7386200  47.9169500  58.4410320
  15.4527710  47.5034640  57.6264500  15.5405750  48.8457210  58.3210840
   7.2033430  43.9102780  56.8815930   7.0984070  43.2955130  57.6077310
   7.0357650  43.3868670  56.0978940   7.3547750  42.5959580  72.8605160
   6.5893420  43.1644580  72.7759830   7.5363710  42.3035790  71.9673390
  10.4436160  42.9722810  57.4857920   9.8946260  43.4192110  58.1300660
  11.0655420  42.4672060  58.0095590   6.1111280  41.9313730  59.3823220
   6.5327700  41.7653600  60.2254610   6.2362120  41.1213960  58.8878360
   4.2738700  37.9110280  72.1894200   3.7435160  37.4201230  71.5617540
   4.9426770  38.3394480  71.6552130   8.6238920  40.9551340  56.6300320
   9.1444580  40.2400360  56.2641470   9.2707320  41.5937210  56.9300830
  13.1716760  42.3779740  71.9535390  13.5857780  42.5324820  72.8025810
  12.2367760  42.5034960  72.1161170   4.7611000  34.8772650  72.2691490
   4.6667870  34.2593400  71.5442360   4.1808390  35.6038940  72.0421400
   7.5272440  33.4345890  69.3018880   7.0789740  33.4570150  68.4564430
   6.8937640  33.0364910  69.8989180   7.9331990  42.3300220  69.9231320
   8.3520100  43.1732950  69.7507560   7.0140620  42.4672260  69.6938100
  10.2695890  40.0616400  71.3069160  10.3892100  39.4657540  72.0464000
  11.1289890  40.0986090  70.8870460  12.6083790  40.6153590  69.8831670
  12.0819010  41.1396210  69.2796810  12.9515130  41.2480980  70.5141400
   5.0070180  38.0046960  56.3281380   4.8059240  37.1414320  56.6894720
   4.8362230  37.9180320  55.3902980   5.7839410  48.6353230  71.0389050
   5.2460500  49.3599290  70.7197750   6.0373370  48.1583570  70.2486390
  12.4858490  32.8155190  58.8568260  12.7660780  31.9723090  59.2127680
  11.7124220  33.0478300  59.3707010   3.8052980  35.1047580  56.3159260
   4.1078880  35.1115010  55.4078410   4.5447570  34.7545440  56.8126920
   8.6401620  49.8704440  71.2975700   8.5660320  50.7739580  71.6048070
   7.7380460  49.5516340  71.2697770   7.0237910  34.0482200  57.3015460
   6.6759910  33.3706190  56.7217910   7.2250680  33.5871710  58.1158850
   9.1886950  49.0362950  58.9202060  10.0837740  49.3747920  58.9420820
   9.2204580  48.3142360  58.2926340   2.8283110  44.4090000  57.1489060
   3.2657980  44.9519670  57.8046640   3.3130840  43.5836950  57.1585400
   4.6390830  45.5288040  62.2611290   4.3386370  45.4053010  63.1615200
   4.5328320  44.6696630  61.8527020  16.1681300  47.5666620  71.6268260
  15.5683290  47.6259180  70.8832180  16.2975200  46.6271600  71.7565110
  17.4082750  45.3084440  56.9637970  16.5775710  45.3761090  57.4345200
  17.5854580  46.1988560  56.6604830  16.8639210  42.0531920  59.4672170
  17.6258120  42.6228570  59.5731860  16.8793580  41.4859120  60.2380480
  17.8699180  42.9082020  64.3114100  18.2408010  42.1249340  63.9050070
  18.5101110  43.5971120  64.1331400  14.8532940  44.2918600  69.7244420
  14.0392780  44.7215760  69.9870210  15.2607140  44.9037010  69.1113470
  16.9158380  42.3466290  56.6244690  17.1907220  43.2545170  56.4963910
  16.7269120  42.2828820  57.5606680  13.3133990  35.3711140  57.9198320
  13.7318870  35.1842120  57.0794980  13.0070050  34.5190190  58.2301250
  16.8123720  40.2835280  61.6174120  16.4367320  39.5163210  61.1855410
  16.0826840  40.6657980  62.1049050  16.2023340  39.4306800  71.2513640
  15.9709430  39.2019550  70.3511590  16.4627890  40.3506350  71.2058530
  16.0874680  38.5092770  64.9181360  16.6112160  38.0155420  64.2871530
  16.6734100  38.6443130  65.6628930  16.2664400  38.5932640  68.4400910
  15.3167110  38.5596180  68.5545900  16.4477410  39.5032750  68.2050680
   1.7683000  32.8973650  56.5902190   2.4911130  33.4382590  56.9083410
   2.0407520  32.6237070  55.7143730  15.5774650  37.7666120  60.8573770
  16.0733770  37.5336990  61.6422650  15.3790720  36.9277960  60.4411410
  17.0061810  36.4027070  63.3911450  16.8961090  36.2483110  64.3293720
  17.7669400  35.8748010  63.1486860  15.3527530  32.3421200  69.8494450
  15.9899750  32.9555340  70.2153640  15.5002420  32.3781860  68.9043680
  17.8952080  34.2334990  56.6317590  18.8201390  34.1016170  56.4235880
  17.8727870  34.3127810  57.5854040  17.9690570  35.0045650  59.2574300
  17.1742070  34.9390770  59.7867210  18.1733850  35.9396290  59.2459650
  14.9108990  49.0437200  63.2512690  15.5068060  48.7221770  62.5747110
  15.1687140  48.5709020  64.0425960   6.5177590  47.0314700  69.0013040
   6.2768950  47.2989260  68.1143560   7.4580230  47.2020430  69.0563900
  17.7781750  49.0509080  69.8023680  17.2840030  49.4477950  69.0850810
  17.1695040  48.4258290  70.1960960   2.6559590  48.4217360  70.5201100
   2.0619910  48.2902060  71.2591140   2.6483430  47.5855500  70.0543200
  12.1014610  31.7149590  68.7231130  11.2274450  32.0484700  68.5204060
  11.9925360  31.2422770  69.5483000  13.0086590  33.9220460  70.1072850
  12.6799950  33.1072220  69.7274580  13.9568890  33.8790270  69.9838540
  15.4621200  49.6932500  67.0810420  15.0024170  50.4448310  66.7068440
  14.8333660  48.9738970  67.0225220   2.2871820  45.7875740  69.4709140
   1.5605880  45.1681030  69.4035090   2.3480970  46.1816350  68.6007220
   5.8916920  48.0020740  66.2558550   6.4081940  47.3908100  65.7306810
   6.5414300  48.5049520  66.7469560   8.6312420  48.8929230  67.0827530
   8.9190230  48.6383530  66.2060540   9.1435640  48.3406590  67.6733100
   9.8489430  32.6319430  67.6624040   9.0661220  33.1064930  67.9420800
   9.5552360  31.7274260  67.5537220  14.4010500  33.3342530  65.7073130
  14.8418590  33.2787630  64.8594730  14.1318090  34.2500540  65.7783310
  16.2649070  32.9657770  63.7181950  16.2037470  32.0218990  63.5712970
  17.0441100  33.0737860  64.2635410   7.7343650  35.0506180  63.1740070
   6.9218160  34.6763070  62.8335950   8.2385290  34.2951260  63.4761260
  12.2368630  31.7148630  64.4123140  12.8398000  32.2868840  64.8871660
  11.4961620  32.2788070  64.1897040  15.3803230  32.1170190  59.6863420
  15.5753860  33.0153640  59.9530850  14.5933100  31.8857270  60.1796370
   2.1764520  47.7983360  60.1256040   1.6512140  48.1791390  59.4218000
   2.1009100  48.4234130  60.8465750   3.5654990  33.4630960  58.7239730
   4.0947750  32.6760760  58.5947680   4.1983310  34.1422150  58.9575260
   5.7592830  33.2006100  61.7785120   5.1295570  32.4993410  61.9455250
   5.2197970  33.9610230  61.5618280  16.9329840  49.3570900  61.4469980
  17.1082030  48.6708640  60.8030900  16.2351410  49.8817950  61.0546650
   4.7757490  49.7465740  59.0005290   5.5076310  49.4625020  58.4529180
   5.0351160  49.5079020  59.8904670   3.9372280  45.8630470  59.0051620
   3.3081160  46.3315570  59.5537450   4.0520110  45.0179690  59.4397810
  11.3922000  39.9136130  45.1552820  11.3116050  38.9990740  44.8844530
  10.9786420  40.4103200  44.4492530   9.5240040  41.6915150  47.0362090
   8.7482140  41.2115590  47.3260660  10.1752970  41.0120800  46.8618250
   3.5405870  42.0034960  47.9137850   2.7090750  41.7483670  48.3134360
   4.1486850  42.0745730  48.6495770  13.5447470  46.0975340  45.8161220
  13.0829000  45.3262580  46.1448390  14.3573020  46.1241410  46.3213670
   3.5207130  46.0375050  48.1095870   3.8235170  45.1472790  47.9306090
   4.2650720  46.5945270  47.8818120   9.7710780  48.3833350  45.4365210
   9.1522220  48.8390850  44.8659650  10.6262560  48.5384810  45.0354910
   8.9649030  44.3672340  47.0432250   8.8957310  43.4262280  46.8821380
   9.7268890  44.4573750  47.6154820   9.9954200  37.1742720  47.2701180
  10.3719020  36.3014600  47.1574850   9.8973710  37.5101420  46.3791620
   4.1259210  35.5468350  42.7318620   4.2325960  36.4472080  43.0387380
   3.2151570  35.4986320  42.4413270  13.7778320  34.6693160  44.2029520
  14.5987940  34.1789730  44.2455000  13.8112400  35.2590820  44.9561360
   5.9666940  38.5154720  47.0643800   6.4745160  39.0135690  47.7048820
   6.4980180  37.7389920  46.8883160  18.0677870  36.6859910  50.7673150
  17.3630040  37.0741620  50.2488260  18.3335790  37.3810200  51.3694080
   4.2503040  33.1553280  51.3307220   4.2521480  33.6725670  50.5253120
   3.4207350  32.6783460  51.3077150  10.6374130  43.2672590  42.8297120
  10.0191400  43.7322040  42.2659840  11.1497380  43.9600070  43.2466630
   5.5005890  42.7948460  49.5080720   5.1675270  43.4217380  50.1501790
   5.6772570  43.3210340  48.7282390  14.0139800  36.6093540  46.9757060
  13.3095370  36.8978430  47.5560170  14.3751960  37.4193650  46.6156620
   3.9318370  34.8663240  49.3377670   4.2735180  35.7105290  49.0431540
   2.9934180  35.0146980  49.4543010   4.7124990  44.7629260  51.3229900
   5.3298990  45.4380340  51.0414350   3.8518110  45.1717240  51.2317400
  15.6302580  46.2268670  49.2384540  14.9466100  46.8967780  49.2301210
  16.1696870  46.4249320  48.4729400  17.0826720  36.0548330  47.3666270
  16.1351630  36.0887310  47.4981700  17.4076710  36.8687280  47.7515630
   7.6146260  32.3545510  45.6622260   7.9221240  31.7992400  44.9457760
   6.6846960  32.4889970  45.4795250  13.1661320  48.0712800  47.9529720
  13.1788480  47.6675090  47.0851980  12.6136540  48.8460090  47.8491150
  14.4606740  44.7929020  43.0419890  14.3503070  43.8503350  43.1669310
  14.4574990  45.1544660  43.9282650  12.5646760  42.9742640  49.2812330
  12.9815550  42.7602750  48.4465790  13.2886580  43.2315430  49.8520950
  10.0027020  40.4194340  42.3982380   9.0756300  40.3531720  42.6270850
  10.1551840  41.3574470  42.2837620   9.9896100  36.6911340  39.3949540
   9.0499770  36.8525300  39.4802000  10.3079360  37.4097020  38.8485530
  16.5108860  41.3729860  49.3728570  15.6827490  41.4422950  48.8978700
  17.1059340  41.9584170  48.9044400  14.0324310  41.9814640  42.9017630
  13.4136730  41.6434190  42.2543930  14.0148760  41.3374400  43.6096820
  13.4750870  38.1599180  50.3183440  13.0622050  38.9852890  50.5723430
  12.7426820  37.5744220  50.1259800   5.6083660  40.9459080  45.1802110
   5.2040660  40.2336330  44.6848010   5.6946780  40.6012320  46.0690150
   6.0765360  44.6326640  47.3441320   5.7793650  44.0272110  46.6649100
   7.0265180  44.6703950  47.2330680   4.3212280  37.7202290  48.9601150
   4.8726870  37.8297630  48.1854400   4.8355790  38.0939890  49.6756380
  14.1650970  48.2058510  51.0064420  13.6881530  49.0130700  50.8137030
  13.4812760  47.5536840  51.1590630   5.1683790  44.3708330  53.9949120
   4.2712320  44.5948300  54.2422520   5.1936660  44.4943270  53.0460520
  12.2089010  41.2201450  39.9090380  12.6482290  40.3823880  39.7628200
  12.9217430  41.8530850  39.9954520   3.9955010  41.2421650  52.5706490
   3.8562780  42.1144450  52.9393890   3.1136370  40.8994460  52.4254430
  10.3184390  46.1597520  43.8771620  10.7580300  46.9021850  43.4627010
  10.2571280  46.4024090  44.8010580   5.7935360  47.1843350  54.7791640
   5.7650790  47.5886300  53.9120070   5.6300330  46.2553710  54.6163240
  15.7906150  32.4744260  38.2231420  15.4778810  32.5671090  39.1230490
  16.5518620  33.0525290  38.1728850   2.3088290  39.8404060  42.6808760
   2.1885890  40.5666150  42.0690030   1.9989180  39.0706970  42.2036670
  17.7450180  47.9670450  56.0755810  18.2209900  48.4453340  56.7544890
  18.3657340  47.8987940  55.3501310  17.1483430  45.1583300  53.2355820
  17.2746490  44.9195180  52.3173000  17.1904810  44.3267840  53.7077900
  11.0100170  48.8611300  51.8050630  11.5244840  48.7719310  52.6073060
  10.1669250  49.2071000  52.0978540  12.9854570  49.1466640  41.2334630
  12.8255710  48.8569580  42.1316460  12.8201280  48.3706770  40.6979860
   5.4642950  48.9265170  43.0106250   5.2885430  48.0100710  42.7974050
   4.6098690  49.2852460  43.2504050  12.6880700  46.6554200  39.7932630
  11.9945860  46.6531490  39.1334910  13.4303560  46.2313520  39.3626800
  12.2530630  48.2816910  43.8681120  12.7087580  47.5006290  44.1819740
  12.5923150  48.9923730  44.4122300  17.0007440  37.2115760  54.2005560
  16.3851710  37.7195430  53.6721020  16.6803860  36.3114090  54.1431500
   4.7751950  33.1839130  46.0632430   4.3320100  33.9648670  45.7316950
   5.3336940  33.5069020  46.7703370   9.0621760  36.0507650  51.6667750
   8.6001130  36.2590670  52.4787690   8.6599870  35.2367000  51.3638420
  14.0626270  37.2716600  52.7964410  13.2119860  36.9722350  53.1173480
  13.9028060  37.5158610  51.8848230  11.1575980  38.7718350  54.8963200
  11.4829390  37.9382100  54.5565430  11.9456310  39.2946870  55.0441530
   7.8910770  32.8049830  40.9438260   7.2664950  32.8009700  41.6691570
   7.8040890  31.9380790  40.5474230   6.8127850  33.7286460  47.9222030
   7.1100180  34.6349290  47.8414050   7.3613410  33.2405240  47.3081600
   4.5666170  38.3072700  43.7913680   4.3407090  38.0909870  44.6960300
   3.7858700  38.7401160  43.4459650  11.7963930  38.3136070  42.3904330
  11.1972820  39.0371870  42.2067950  12.3443540  38.2512850  41.6080780
   7.0065380  39.2058280  54.4573950   6.9108980  38.2653010  54.3074350
   7.8497360  39.4273350  54.0622020  10.4028800  36.9499610  44.4207610
  10.7958370  37.2671810  43.6076300  10.7645650  36.0711490  44.5352130
   8.7120970  35.7006920  55.6804470   8.0219290  35.5079120  56.3150560
   9.4553270  35.9841560  56.2128770  10.9883940  39.5405360  48.5158390
  10.2565060  40.0492170  48.8648490  10.5908280  38.7235340  48.2147170
   7.4261330  36.2159560  46.9210880   7.4297390  35.7749510  46.0715420
   8.3212450  36.5376890  47.0282700   3.2763710  36.0986050  45.8805090
   2.9363760  36.5761280  46.6372140   2.5141030  35.6451170  45.5206190
   7.4881480  37.2171640  39.9117640   7.6094300  37.1758120  40.8603460
   7.1029990  38.0795790  39.7564370  11.4509850  34.9939040  47.9281330
  11.4682590  35.4447690  48.7723180  11.2025430  34.0944680  48.1414770
   6.5002980  39.5272780  39.3100940   5.9319880  39.0791030  38.6836850
   7.2091980  39.8865560  38.7766090  14.8780600  32.4071220  53.7667710
  15.2026370  31.6760880  54.2925690  14.9137110  32.0884860  52.8648700
   7.7269300  40.2761340  48.6676290   8.0939430  39.8019910  49.4137630
   7.5374360  41.1502910  49.0084630   5.5168670  39.3169980  50.9860500
   5.2125740  40.1961960  51.2110860   6.4715130  39.3769770  51.0217940
   4.0450460  43.5230970  41.5827350   3.2712720  42.9828590  41.4226070
   4.7745090  43.0037580  41.2445110  14.8038440  42.5196330  47.3753740
  15.5237560  43.0151620  46.9849850  14.6020260  41.8414220  46.7307610
  10.2648380  33.9134290  41.5183130   9.4512990  33.4147460  41.4428440
  10.0710330  34.7532540  41.1019480  10.1857240  42.5905390  53.2622740
  10.1194550  41.6701060  53.0080330   9.5562380  42.6880830  53.9767380
  12.9796770  38.2853940  39.8145290  13.8676390  38.5971170  39.6396630
  12.9501860  37.4126190  39.4225870   4.0887860  43.1911350  45.2206160
   4.6066530  42.3879610  45.1663050   3.6371880  43.1290490  46.0622990
   8.9757360  44.4577630  40.4933460   9.3173060  45.2019860  39.9976780
   8.1470070  44.7708750  40.8558290   4.7745520  40.6156960  55.0171410
   4.4745660  40.7614140  54.1199230   5.5456760  40.0562250  54.9244800
  10.1173970  45.4125960  53.0126540  10.1318510  44.4806920  52.7945450
   9.4099070  45.4985720  53.6516310  15.2511040  39.5965780  39.2825150
  15.1674760  40.0280000  38.4321590  15.9705230  40.0564130  39.7151970
  16.3285180  42.0533300  52.3595120  15.6033370  42.6462080  52.1624510
  16.8560640  42.0456840  51.5608490  16.2798290  46.4508040  42.0107280
  15.6374450  45.7963660  42.2851000  15.8928950  46.8563130  41.2347950
  11.8584770  43.7793470  45.8578970  12.2108590  43.1821600  45.1980340
  10.9747100  43.4537700  46.0287220   7.9448050  44.5391160  43.2649380
   8.6319180  45.0860370  43.6456970   7.1580470  45.0831890  43.2998990
   7.2475260  41.5437190  42.8774740   7.7038040  42.3542440  43.1034930
   6.8963470  41.2260330  43.7093230   9.5507870  47.0543530  50.1067040
  10.1950090  47.2602910  50.7840460   9.9137310  46.2931930  49.6537890
   3.1487040  31.8874840  43.3497260   3.0201670  31.8792740  44.2982180
   2.3249060  32.2257930  42.9988270  10.8239950  45.0575880  48.8244490
  11.4662180  44.3569040  48.9376660  11.3489300  45.8374320  48.6441380
  14.6695670  45.3424500  38.5483630  14.4433250  44.6254940  39.1408270
  14.2791870  45.0936940  37.7105380  12.5977570  45.8570780  52.0280550
  12.9333810  46.4437470  52.7058470  11.6777910  45.7263490  52.2578340
  14.2511920  43.2596440  40.2097790  13.9633620  43.7209130  40.9975670
  15.0464090  42.7994210  40.4782010   8.4266150  45.9062110  55.1968610
   8.1063020  45.1871350  55.7414300   7.7524510  46.5817180  55.2704670
   6.4680320  46.7522560  40.1401760   6.4590420  47.4852250  39.5246270
   5.5478680  46.5054140  40.2328720  11.6419750  36.1388270  50.5605410
  12.0100570  35.3183480  50.8884980  10.7817950  36.1990160  50.9761060
  15.0081780  35.0945210  41.3692970  14.3794940  35.1990880  40.6551200
  14.5133700  35.3141990  42.1586850   9.4539920  46.8150800  38.8026950
   9.5551900  46.6114790  37.8728930   8.5541660  46.5609080  39.0074730
   6.9765810  37.3731160  42.7850850   6.2681960  37.8417500  43.2264460
   7.2610290  36.7153170  43.4196040   8.6021740  38.7927860  50.7843380
   9.1006990  39.2673680  51.4495230   8.7444690  37.8691380  50.9913410
  11.0081240  34.0981820  44.2246640  10.8849020  34.1167950  43.2756150
  11.9565800  34.1460760  44.3445040   8.0958030  49.3337120  43.4974620
   8.3499530  49.2958510  42.5753990   7.1470510  49.2070450  43.4902870
   5.1800830  35.6816240  40.1601560   6.0291360  36.1186390  40.0941750
   4.8132100  35.9936500  40.9873620  15.8088600  35.0095820  51.6271770
  15.3062200  35.7501220  51.9665580  16.6245260  35.3979820  51.3108560
  14.1010610  40.2529000  45.0733130  13.1600750  40.2679230  45.2480820
  14.4154680  39.4664960  45.5193430   4.0792250  41.9348600  38.6337090
   4.8455520  41.8229960  39.1962520   4.1566940  41.2386570  37.9813860
   2.7739010  39.3673670  39.3169980   2.8542600  38.4201180  39.4287380
   3.6658760  39.6980550  39.4230640  16.1036190  47.4237850  46.7487390
  16.2283610  48.2469020  47.2211200  16.9701750  47.2128580  46.4011540
   3.5753720  49.5169060  46.4204520   4.3116200  48.9684520  46.6913090
   3.9594640  50.3825070  46.2810510   2.5812000  48.7015130  55.6090100
   3.3824730  49.0227180  56.0225500   2.0663820  48.3410710  56.3310010
   6.6856030  48.6899370  38.2430090   7.4784640  48.9788200  37.7911880
   6.1660380  48.2591540  37.5642570  11.4176630  44.8095000  55.5565510
  10.8114790  44.8326600  54.8161260  11.1130740  44.0778040  56.0932760
  12.8477000  48.5375290  54.1674920  13.7998750  48.4533310  54.1175160
  12.7005220  49.2017000  54.8408710  15.7386200  47.9169500  39.6666830
  15.4527710  47.5034640  38.8521010  15.5405750  48.8457210  39.5467350
   7.2033430  43.9102780  38.1072440   7.0984070  43.2955130  38.8333820
   7.0357650  43.3868670  37.3235450   7.3547750  42.5959580  54.0861670
   6.5893420  43.1644580  54.0016340   7.5363710  42.3035790  53.1929900
  10.4436160  42.9722810  38.7114430   9.8946260  43.4192110  39.3557170
  11.0655420  42.4672060  39.2352100  14.4971100  44.3264910  54.6436690
  15.2380570  44.6640670  54.1404150  13.7343780  44.4956970  54.0906460
   2.3332890  39.3318180  55.4476220   2.3738230  39.0332050  56.3561450
   3.1878390  39.7325790  55.2883740   6.1111280  41.9313730  40.6079730
   6.5327700  41.7653600  41.4511120   6.2362120  41.1213960  40.1134870
   4.2738700  37.9110280  53.4150710   3.7435160  37.4201230  52.7874050
   4.9426770  38.3394480  52.8808640   8.6238920  40.9551340  37.8556830
   9.1444580  40.2400360  37.4897980   9.2707320  41.5937210  38.1557340
  13.1716760  42.3779740  53.1791900  13.5857780  42.5324820  54.0282320
  12.2367760  42.5034960  53.3417680  13.6438930  39.7175900  55.1831050
  14.2259700  38.9628220  55.0951530  13.8200700  40.2483340  54.4062530
   4.7611000  34.8772650  53.4948000   4.6667870  34.2593400  52.7698870
   4.1808390  35.6038940  53.2677910   7.5272440  33.4345890  50.5275390
   7.0789740  33.4570150  49.6820940   6.8937640  33.0364910  51.1245690
   7.9331990  42.3300220  51.1487830   8.3520100  43.1732950  50.9764070
   7.0140620  42.4672260  50.9194610  10.2695890  40.0616400  52.5325670
  10.3892100  39.4657540  53.2720510  11.1289890  40.0986090  52.1126970
  12.6083790  40.6153590  51.1088180  12.0819010  41.1396210  50.5053320
  12.9515130  41.2480980  51.7397910   5.0070180  38.0046960  37.5537890
   4.8059240  37.1414320  37.9151230   4.8362230  37.9180320  36.6159490
   5.7839410  48.6353230  52.2645560   5.2460500  49.3599290  51.9454260
   6.0373370  48.1583570  51.4742900   7.0364660  36.6037750  53.7901490
   7.6264350  36.2953600  54.4779310   6.2184900  36.1317500  53.9461390
  11.8558090  36.2203560  54.0234510  11.1673610  35.5585100  53.9584500
  12.5764110  35.7741830  54.4682970  12.4858490  32.8155190  40.0824770
  12.7660780  31.9723090  40.4384190  11.7124220  33.0478300  40.5963520
   3.8052980  35.1047580  37.5415770   4.1078880  35.1115010  36.6334920
   4.5447570  34.7545440  38.0383430   8.6401620  49.8704440  52.5232210
   8.5660320  50.7739580  52.8304580   7.7380460  49.5516340  52.4954280
   7.0237910  34.0482200  38.5271970   6.6759910  33.3706190  37.9474420
   7.2250680  33.5871710  39.3415360   9.1886950  49.0362950  40.1458570
  10.0837740  49.3747920  40.1677330   9.2204580  48.3142360  39.5182850
   2.8283110  44.4090000  38.3745570   3.2657980  44.9519670  39.0303150
   3.3130840  43.5836950  38.3841910   4.6390830  45.5288040  43.4867800
   4.3386370  45.4053010  44.3871710   4.5328320  44.6696630  43.0783530
  16.1681300  47.5666620  52.8524770  15.5683290  47.6259180  52.1088690
  16.2975200  46.6271600  52.9821620  17.4082750  45.3084440  38.1894480
  16.5775710  45.3761090  38.6601710  17.5854580  46.1988560  37.8861340
  16.8639210  42.0531920  40.6928680  17.6258120  42.6228570  40.7988370
  16.8793580  41.4859120  41.4636990  17.8699180  42.9082020  45.5370610
  18.2408010  42.1249340  45.1306580  18.5101110  43.5971120  45.3587910
  14.8532940  44.2918600  50.9500930  14.0392780  44.7215760  51.2126720
  15.2607140  44.9037010  50.3369980  16.9158380  42.3466290  37.8501200
  17.1907220  43.2545170  37.7220420  16.7269120  42.2828820  38.7863190
  13.3133990  35.3711140  39.1454830  13.7318870  35.1842120  38.3051490
  13.0070050  34.5190190  39.4557760  16.8123720  40.2835280  42.8430630
  16.4367320  39.5163210  42.4111920  16.0826840  40.6657980  43.3305560
  16.2023340  39.4306800  52.4770150  15.9709430  39.2019550  51.5768100
  16.4627890  40.3506350  52.4315040  14.6411410  34.6563230  55.2549850
  15.5181590  34.6646630  55.6383850  14.6532250  33.9194070  54.6442200
  16.0874680  38.5092770  46.1437870  16.6112160  38.0155420  45.5128040
  16.6734100  38.6443130  46.8885440  16.2664400  38.5932640  49.6657420
  15.3167110  38.5596180  49.7802410  16.4477410  39.5032750  49.4307190
   1.7683000  32.8973650  37.8158700   2.4911130  33.4382590  38.1339920
   2.0407520  32.6237070  36.9400240  15.5774650  37.7666120  42.0830280
  16.0733770  37.5336990  42.8679160  15.3790720  36.9277960  41.6667920
  17.0061810  36.4027070  44.6167960  16.8961090  36.2483110  45.5550230
  17.7669400  35.8748010  44.3743370  15.3527530  32.3421200  51.0750960
  15.9899750  32.9555340  51.4410150  15.5002420  32.3781860  50.1300190
  17.8952080  34.2334990  37.8574100  18.8201390  34.1016170  37.6492390
  17.8727870  34.3127810  38.8110550  17.9690570  35.0045650  40.4830810
  17.1742070  34.9390770  41.0123720  18.1733850  35.9396290  40.4716160
  14.9108990  49.0437200  44.4769200  15.5068060  48.7221770  43.8003620
  15.1687140  48.5709020  45.2682470   2.8171560  45.4755110  54.6259830
   2.7741190  45.1048020  55.5074290   2.9482570  46.4132680  54.7661650
   6.5177590  47.0314700  50.2269550   6.2768950  47.2989260  49.3400070
   7.4580230  47.2020430  50.2820410   8.7232010  33.4947390  53.9826060
   8.6620900  34.0869220  54.7321470   9.6632390  33.3873350  53.8376320
  11.3606570  33.1517450  53.6218350  11.9746980  33.4696740  52.9599430
  11.9056130  32.6666040  54.2414210  17.7781750  49.0509080  51.0280190
  17.2840030  49.4477950  50.3107320  17.1695040  48.4258290  51.4217470
   1.8827830  31.8311710  53.7357410   2.4310820  31.6499760  52.9723520
   1.9483140  31.0405820  54.2713720   2.6559590  48.4217360  51.7457610
   2.0619910  48.2902060  52.4847650   2.6483430  47.5855500  51.2799710
  12.1014610  31.7149590  49.9487640  11.2274450  32.0484700  49.7460570
  11.9925360  31.2422770  50.7739510  13.0086590  33.9220460  51.3329360
  12.6799950  33.1072220  50.9531090  13.9568890  33.8790270  51.2095050
  15.4621200  49.6932500  48.3066930  15.0024170  50.4448310  47.9324950
  14.8333660  48.9738970  48.2481730   2.2871820  45.7875740  50.6965650
   1.5605880  45.1681030  50.6291600   2.3480970  46.1816350  49.8263730
   5.8916920  48.0020740  47.4815060   6.4081940  47.3908100  46.9563320
   6.5414300  48.5049520  47.9726070   8.6312420  48.8929230  48.3084040
   8.9190230  48.6383530  47.4317050   9.1435640  48.3406590  48.8989610
   9.8489430  32.6319430  48.8880550   9.0661220  33.1064930  49.1677310
   9.5552360  31.7274260  48.7793730  14.4010500  33.3342530  46.9329640
  14.8418590  33.2787630  46.0851240  14.1318090  34.2500540  47.0039820
  16.2649070  32.9657770  44.9438460  16.2037470  32.0218990  44.7969480
  17.0441100  33.0737860  45.4891920   7.7343650  35.0506180  44.3996580
   6.9218160  34.6763070  44.0592460   8.2385290  34.2951260  44.7017770
  12.2368630  31.7148630  45.6379650  12.8398000  32.2868840  46.1128170
  11.4961620  32.2788070  45.4153550  15.3803230  32.1170190  40.9119930
  15.5753860  33.0153640  41.1787360  14.5933100  31.8857270  41.4052880
   2.1764520  47.7983360  41.3512550   1.6512140  48.1791390  40.6474510
   2.1009100  48.4234130  42.0722260   3.5654990  33.4630960  39.9496240
   4.0947750  32.6760760  39.8204190   4.1983310  34.1422150  40.1831770
   5.7592830  33.2006100  43.0041630   5.1295570  32.4993410  43.1711760
   5.2197970  33.9610230  42.7874790   8.6984780  49.8145330  55.6752240
   9.6252090  49.5789600  55.7188200   8.6835210  50.6417330  55.1938270
  16.9329840  49.3570900  42.6726490  17.1082030  48.6708640  42.0287410
  16.2351410  49.8817950  42.2803160   5.8848390  32.4790080  55.4394120
   5.6032660  32.9823680  54.6754940   6.2668090  31.6811830  55.0736250
   4.7757490  49.7465740  40.2261800   5.5076310  49.4625020  39.6785690
   5.0351160  49.5079020  41.1161180   3.9372280  45.8630470  40.2308130
   3.3081160  46.3315570  40.7793960   4.0520110  45.0179690  40.6654320
  12.4863850  31.8943660  56.0174590  12.3729300  32.2138270  56.9126110
  13.3033590  32.2956170  55.7211870  15.2662340  49.0415190  55.4993280
  16.0587660  48.5464420  55.2919240  15.5595490  49.7205330  56.1068890
  11.3922000  39.9136130  26.3809330  11.3116050  38.9990740  26.1101040
  10.9786420  40.4103200  25.6749040   9.5240040  41.6915150  28.2618600
   8.7482140  41.2115590  28.5517170  10.1752970  41.0120800  28.0874760
   3.5405870  42.0034960  29.1394360   2.7090750  41.7483670  29.5390870
   4.1486850  42.0745730  29.8752280  13.5447470  46.0975340  27.0417730
  13.0829000  45.3262580  27.3704900  14.3573020  46.1241410  27.5470180
   3.5207130  46.0375050  29.3352380   3.8235170  45.1472790  29.1562600
   4.2650720  46.5945270  29.1074630   9.7710780  48.3833350  26.6621720
   9.1522220  48.8390850  26.0916160  10.6262560  48.5384810  26.2611420
   8.9649030  44.3672340  28.2688760   8.8957310  43.4262280  28.1077890
   9.7268890  44.4573750  28.8411330   9.9954200  37.1742720  28.4957690
  10.3719020  36.3014600  28.3831360   9.8973710  37.5101420  27.6048130
   4.1259210  35.5468350  23.9575130   4.2325960  36.4472080  24.2643890
   3.2151570  35.4986320  23.6669780  13.7778320  34.6693160  25.4286030
  14.5987940  34.1789730  25.4711510  13.8112400  35.2590820  26.1817870
   5.9666940  38.5154720  28.2900310   6.4745160  39.0135690  28.9305330
   6.4980180  37.7389920  28.1139670  18.0677870  36.6859910  31.9929660
  17.3630040  37.0741620  31.4744770  18.3335790  37.3810200  32.5950590
   4.2503040  33.1553280  32.5563730   4.2521480  33.6725670  31.7509630
   3.4207350  32.6783460  32.5333660  10.6374130  43.2672590  24.0553630
  10.0191400  43.7322040  23.4916350  11.1497380  43.9600070  24.4723140
   5.5005890  42.7948460  30.7337230   5.1675270  43.4217380  31.3758300
   5.6772570  43.3210340  29.9538900  14.0139800  36.6093540  28.2013570
  13.3095370  36.8978430  28.7816680  14.3751960  37.4193650  27.8413130
   3.9318370  34.8663240  30.5634180   4.2735180  35.7105290  30.2688050
   2.9934180  35.0146980  30.6799520   4.7124990  44.7629260  32.5486410
   5.3298990  45.4380340  32.2670860   3.8518110  45.1717240  32.4573910
  15.6302580  46.2268670  30.4641050  14.9466100  46.8967780  30.4557720
  16.1696870  46.4249320  29.6985910  17.0826720  36.0548330  28.5922780
  16.1351630  36.0887310  28.7238210  17.4076710  36.8687280  28.9772140
   7.6146260  32.3545510  26.8878770   7.9221240  31.7992400  26.1714270
   6.6846960  32.4889970  26.7051760  13.1661320  48.0712800  29.1786230
  13.1788480  47.6675090  28.3108490  12.6136540  48.8460090  29.0747660
  14.4606740  44.7929020  24.2676400  14.3503070  43.8503350  24.3925820
  14.4574990  45.1544660  25.1539160  12.5646760  42.9742640  30.5068840
  12.9815550  42.7602750  29.6722300  13.2886580  43.2315430  31.0777460
  10.0027020  40.4194340  23.6238890   9.0756300  40.3531720  23.8527360
  10.1551840  41.3574470  23.5094130   9.9896100  36.6911340  20.6206050
   9.0499770  36.8525300  20.7058510  10.3079360  37.4097020  20.0742040
  16.5108860  41.3729860  30.5985080  15.6827490  41.4422950  30.1235210
  17.1059340  41.9584170  30.1300910  14.0324310  41.9814640  24.1274140
  13.4136730  41.6434190  23.4800440  14.0148760  41.3374400  24.8353330
  13.4750870  38.1599180  31.5439950  13.0622050  38.9852890  31.7979940
  12.7426820  37.5744220  31.3516310   5.6083660  40.9459080  26.4058620
   5.2040660  40.2336330  25.9104520   5.6946780  40.6012320  27.2946660
   6.0765360  44.6326640  28.5697830   5.7793650  44.0272110  27.8905610
   7.0265180  44.6703950  28.4587190   4.3212280  37.7202290  30.1857660
   4.8726870  37.8297630  29.4110910   4.8355790  38.0939890  30.9012890
  14.1650970  48.2058510  32.2320930  13.6881530  49.0130700  32.0393540
  13.4812760  47.5536840  32.3847140   5.1683790  44.3708330  35.2205630
   4.2712320  44.5948300  35.4679030   5.1936660  44.4943270  34.2717030
  12.2089010  41.2201450  21.1346890  12.6482290  40.3823880  20.9884710
  12.9217430  41.8530850  21.2211030   3.9955010  41.2421650  33.7963000
   3.8562780  42.1144450  34.1650400   3.1136370  40.8994460  33.6510940
  10.3184390  46.1597520  25.1028130  10.7580300  46.9021850  24.6883520
  10.2571280  46.4024090  26.0267090   5.7935360  47.1843350  36.0048150
   5.7650790  47.5886300  35.1376580   5.6300330  46.2553710  35.8419750
  15.7906150  32.4744260  19.4487930  15.4778810  32.5671090  20.3487000
  16.5518620  33.0525290  19.3985360   2.3088290  39.8404060  23.9065270
   2.1885890  40.5666150  23.2946540   1.9989180  39.0706970  23.4293180
  17.7450180  47.9670450  37.3012320  18.2209900  48.4453340  37.9801400
  18.3657340  47.8987940  36.5757820  17.1483430  45.1583300  34.4612330
  17.2746490  44.9195180  33.5429510  17.1904810  44.3267840  34.9334410
  11.0100170  48.8611300  33.0307140  11.5244840  48.7719310  33.8329570
  10.1669250  49.2071000  33.3235050  12.9854570  49.1466640  22.4591140
  12.8255710  48.8569580  23.3572970  12.8201280  48.3706770  21.9236370
   5.4642950  48.9265170  24.2362760   5.2885430  48.0100710  24.0230560
   4.6098690  49.2852460  24.4760560  12.6880700  46.6554200  21.0189140
  11.9945860  46.6531490  20.3591420  13.4303560  46.2313520  20.5883310
  12.2530630  48.2816910  25.0937630  12.7087580  47.5006290  25.4076250
  12.5923150  48.9923730  25.6378810  17.0007440  37.2115760  35.4262070
  16.3851710  37.7195430  34.8977530  16.6803860  36.3114090  35.3688010
   4.7751950  33.1839130  27.2888940   4.3320100  33.9648670  26.9573460
   5.3336940  33.5069020  27.9959880   9.0621760  36.0507650  32.8924260
   8.6001130  36.2590670  33.7044200   8.6599870  35.2367000  32.5894930
  14.0626270  37.2716600  34.0220920  13.2119860  36.9722350  34.3429990
  13.9028060  37.5158610  33.1104740  11.1575980  38.7718350  36.1219710
  11.4829390  37.9382100  35.7821940  11.9456310  39.2946870  36.2698040
   7.8910770  32.8049830  22.1694770   7.2664950  32.8009700  22.8948080
   7.8040890  31.9380790  21.7730740   6.8127850  33.7286460  29.1478540
   7.1100180  34.6349290  29.0670560   7.3613410  33.2405240  28.5338110
   4.5666170  38.3072700  25.0170190   4.3407090  38.0909870  25.9216810
   3.7858700  38.7401160  24.6716160  11.7963930  38.3136070  23.6160840
  11.1972820  39.0371870  23.4324460  12.3443540  38.2512850  22.8337290
   7.0065380  39.2058280  35.6830460   6.9108980  38.2653010  35.5330860
   7.8497360  39.4273350  35.2878530  10.4028800  36.9499610  25.6464120
  10.7958370  37.2671810  24.8332810  10.7645650  36.0711490  25.7608640
   8.7120970  35.7006920  36.9060980   8.0219290  35.5079120  37.5407070
   9.4553270  35.9841560  37.4385280  10.9883940  39.5405360  29.7414900
  10.2565060  40.0492170  30.0905000  10.5908280  38.7235340  29.4403680
   7.4261330  36.2159560  28.1467390   7.4297390  35.7749510  27.2971930
   8.3212450  36.5376890  28.2539210   3.2763710  36.0986050  27.1061600
   2.9363760  36.5761280  27.8628650   2.5141030  35.6451170  26.7462700
   7.4881480  37.2171640  21.1374150   7.6094300  37.1758120  22.0859970
   7.1029990  38.0795790  20.9820880  11.4509850  34.9939040  29.1537840
  11.4682590  35.4447690  29.9979690  11.2025430  34.0944680  29.3671280
   6.5002980  39.5272780  20.5357450   5.9319880  39.0791030  19.9093360
   7.2091980  39.8865560  20.0022600  14.8780600  32.4071220  34.9924220
  15.2026370  31.6760880  35.5182200  14.9137110  32.0884860  34.0905210
   7.7269300  40.2761340  29.8932800   8.0939430  39.8019910  30.6394140
   7.5374360  41.1502910  30.2341140   5.5168670  39.3169980  32.2117010
   5.2125740  40.1961960  32.4367370   6.4715130  39.3769770  32.2474450
   4.0450460  43.5230970  22.8083860   3.2712720  42.9828590  22.6482580
   4.7745090  43.0037580  22.4701620  14.8038440  42.5196330  28.6010250
  15.5237560  43.0151620  28.2106360  14.6020260  41.8414220  27.9564120
  10.2648380  33.9134290  22.7439640   9.4512990  33.4147460  22.6684950
  10.0710330  34.7532540  22.3275990  10.1857240  42.5905390  34.4879250
  10.1194550  41.6701060  34.2336840   9.5562380  42.6880830  35.2023890
  12.9796770  38.2853940  21.0401800  13.8676390  38.5971170  20.8653140
  12.9501860  37.4126190  20.6482380   4.0887860  43.1911350  26.4462670
   4.6066530  42.3879610  26.3919560   3.6371880  43.1290490  27.2879500
   8.9757360  44.4577630  21.7189970   9.3173060  45.2019860  21.2233290
   8.1470070  44.7708750  22.0814800   4.7745520  40.6156960  36.2427920
   4.4745660  40.7614140  35.3455740   5.5456760  40.0562250  36.1501310
  10.1173970  45.4125960  34.2383050  10.1318510  44.4806920  34.0201960
   9.4099070  45.4985720  34.8772820  15.2511040  39.5965780  20.5081660
  15.1674760  40.0280000  19.6578100  15.9705230  40.0564130  20.9408480
  16.3285180  42.0533300  33.5851630  15.6033370  42.6462080  33.3881020
  16.8560640  42.0456840  32.7865000  16.2798290  46.4508040  23.2363790
  15.6374450  45.7963660  23.5107510  15.8928950  46.8563130  22.4604460
  11.8584770  43.7793470  27.0835480  12.2108590  43.1821600  26.4236850
  10.9747100  43.4537700  27.2543730   7.9448050  44.5391160  24.4905890
   8.6319180  45.0860370  24.8713480   7.1580470  45.0831890  24.5255500
   7.2475260  41.5437190  24.1031250   7.7038040  42.3542440  24.3291440
   6.8963470  41.2260330  24.9349740   9.5507870  47.0543530  31.3323550
  10.1950090  47.2602910  32.0096970   9.9137310  46.2931930  30.8794400
   3.1487040  31.8874840  24.5753770   3.0201670  31.8792740  25.5238690
   2.3249060  32.2257930  24.2244780  10.8239950  45.0575880  30.0501000
  11.4662180  44.3569040  30.1633170  11.3489300  45.8374320  29.8697890
  14.6695670  45.3424500  19.7740140  14.4433250  44.6254940  20.3664780
  14.2791870  45.0936940  18.9361890  12.5977570  45.8570780  33.2537060
  12.9333810  46.4437470  33.9314980  11.6777910  45.7263490  33.4834850
  14.2511920  43.2596440  21.4354300  13.9633620  43.7209130  22.2232180
  15.0464090  42.7994210  21.7038520   8.4266150  45.9062110  36.4225120
   8.1063020  45.1871350  36.9670810   7.7524510  46.5817180  36.4961180
   6.4680320  46.7522560  21.3658270   6.4590420  47.4852250  20.7502780
   5.5478680  46.5054140  21.4585230  11.6419750  36.1388270  31.7861920
  12.0100570  35.3183480  32.1141490  10.7817950  36.1990160  32.2017570
  15.0081780  35.0945210  22.5949480  14.3794940  35.1990880  21.8807710
  14.5133700  35.3141990  23.3843360   9.4539920  46.8150800  20.0283460
   9.5551900  46.6114790  19.0985440   8.5541660  46.5609080  20.2331240
   6.9765810  37.3731160  24.0107360   6.2681960  37.8417500  24.4520970
   7.2610290  36.7153170  24.6452550   8.6021740  38.7927860  32.0099890
   9.1006990  39.2673680  32.6751740   8.7444690  37.8691380  32.2169920
  11.0081240  34.0981820  25.4503150  10.8849020  34.1167950  24.5012660
  11.9565800  34.1460760  25.5701550   8.0958030  49.3337120  24.7231130
   8.3499530  49.2958510  23.8010500   7.1470510  49.2070450  24.7159380
   5.1800830  35.6816240  21.3858070   6.0291360  36.1186390  21.3198260
   4.8132100  35.9936500  22.2130130  15.8088600  35.0095820  32.8528280
  15.3062200  35.7501220  33.1922090  16.6245260  35.3979820  32.5365070
  14.1010610  40.2529000  26.2989640  13.1600750  40.2679230  26.4737330
  14.4154680  39.4664960  26.7449940   4.0792250  41.9348600  19.8593600
   4.8455520  41.8229960  20.4219030   4.1566940  41.2386570  19.2070370
   2.7739010  39.3673670  20.5426490   2.8542600  38.4201180  20.6543890
   3.6658760  39.6980550  20.6487150  16.1036190  47.4237850  27.9743900
  16.2283610  48.2469020  28.4467710  16.9701750  47.2128580  27.6268050
   3.5753720  49.5169060  27.6461030   4.3116200  48.9684520  27.9169600
   3.9594640  50.3825070  27.5067020   2.5812000  48.7015130  36.8346610
   3.3824730  49.0227180  37.2482010   2.0663820  48.3410710  37.5566520
   6.6856030  48.6899370  19.4686600   7.4784640  48.9788200  19.0168390
   6.1660380  48.2591540  18.7899080  11.4176630  44.8095000  36.7822020
  10.8114790  44.8326600  36.0417770  11.1130740  44.0778040  37.3189270
  12.8477000  48.5375290  35.3931430  13.7998750  48.4533310  35.3431670
  12.7005220  49.2017000  36.0665220  15.7386200  47.9169500  20.8923340
  15.4527710  47.5034640  20.0777520  15.5405750  48.8457210  20.7723860
   7.2033430  43.9102780  19.3328950   7.0984070  43.2955130  20.0590330
   7.0357650  43.3868670  18.5491960   7.3547750  42.5959580  35.3118180
   6.5893420  43.1644580  35.2272850   7.5363710  42.3035790  34.4186410
  10.4436160  42.9722810  19.9370940   9.8946260  43.4192110  20.5813680
  11.0655420  42.4672060  20.4608610  14.4971100  44.3264910  35.8693200
  15.2380570  44.6640670  35.3660660  13.7343780  44.4956970  35.3162970
   2.3332890  39.3318180  36.6732730   2.3738230  39.0332050  37.5817960
   3.1878390  39.7325790  36.5140250   6.1111280  41.9313730  21.8336240
   6.5327700  41.7653600  22.6767630   6.2362120  41.1213960  21.3391380
   4.2738700  37.9110280  34.6407220   3.7435160  37.4201230  34.0130560
   4.9426770  38.3394480  34.1065150   8.6238920  40.9551340  19.0813340
   9.1444580  40.2400360  18.7154490   9.2707320  41.5937210  19.3813850
  13.1716760  42.3779740  34.4048410  13.5857780  42.5324820  35.2538830
  12.2367760  42.5034960  34.5674190  13.6438930  39.7175900  36.4087560
  14.2259700  38.9628220  36.3208040  13.8200700  40.2483340  35.6319040
   4.7611000  34.8772650  34.7204510   4.6667870  34.2593400  33.9955380
   4.1808390  35.6038940  34.4934420   7.5272440  33.4345890  31.7531900
   7.0789740  33.4570150  30.9077450   6.8937640  33.0364910  32.3502200
   7.9331990  42.3300220  32.3744340   8.3520100  43.1732950  32.2020580
   7.0140620  42.4672260  32.1451120  10.2695890  40.0616400  33.7582180
  10.3892100  39.4657540  34.4977020  11.1289890  40.0986090  33.3383480
  12.6083790  40.6153590  32.3344690  12.0819010  41.1396210  31.7309830
  12.9515130  41.2480980  32.9654420   5.0070180  38.0046960  18.7794400
   4.8059240  37.1414320  19.1407740   4.8362230  37.9180320  17.8416000
   5.7839410  48.6353230  33.4902070   5.2460500  49.3599290  33.1710770
   6.0373370  48.1583570  32.6999410   7.0364660  36.6037750  35.0158000
   7.6264350  36.2953600  35.7035820   6.2184900  36.1317500  35.1717900
  11.8558090  36.2203560  35.2491020  11.1673610  35.5585100  35.1841010
  12.5764110  35.7741830  35.6939480  12.4858490  32.8155190  21.3081280
  12.7660780  31.9723090  21.6640700  11.7124220  33.0478300  21.8220030
   3.8052980  35.1047580  18.7672280   4.1078880  35.1115010  17.8591430
   4.5447570  34.7545440  19.2639940   8.6401620  49.8704440  33.7488720
   8.5660320  50.7739580  34.0561090   7.7380460  49.5516340  33.7210790
   7.0237910  34.0482200  19.7528480   6.6759910  33.3706190  19.1730930
   7.2250680  33.5871710  20.5671870   9.1886950  49.0362950  21.3715080
  10.0837740  49.3747920  21.3933840   9.2204580  48.3142360  20.7439360
   2.8283110  44.4090000  19.6002080   3.2657980  44.9519670  20.2559660
   3.3130840  43.5836950  19.6098420   4.6390830  45.5288040  24.7124310
   4.3386370  45.4053010  25.6128220   4.5328320  44.6696630  24.3040040
  16.1681300  47.5666620  34.0781280  15.5683290  47.6259180  33.3345200
  16.2975200  46.6271600  34.2078130  17.4082750  45.3084440  19.4150990
  16.5775710  45.3761090  19.8858220  17.5854580  46.1988560  19.1117850
  16.8639210  42.0531920  21.9185190  17.6258120  42.6228570  22.0244880
  16.8793580  41.4859120  22.6893500  17.8699180  42.9082020  26.7627120
  18.2408010  42.1249340  26.3563090  18.5101110  43.5971120  26.5844420
  14.8532940  44.2918600  32.1757440  14.0392780  44.7215760  32.4383230
  15.2607140  44.9037010  31.5626490  16.9158380  42.3466290  19.0757710
  17.1907220  43.2545170  18.9476930  16.7269120  42.2828820  20.0119700
  13.3133990  35.3711140  20.3711340  13.7318870  35.1842120  19.5308000
  13.0070050  34.5190190  20.6814270  16.8123720  40.2835280  24.0687140
  16.4367320  39.5163210  23.6368430  16.0826840  40.6657980  24.5562070
  16.2023340  39.4306800  33.7026660  15.9709430  39.2019550  32.8024610
  16.4627890  40.3506350  33.6571550  14.6411410  34.6563230  36.4806360
  15.5181590  34.6646630  36.8640360  14.6532250  33.9194070  35.8698710
  16.0874680  38.5092770  27.3694380  16.6112160  38.0155420  26.7384550
  16.6734100  38.6443130  28.1141950  16.2664400  38.5932640  30.8913930
  15.3167110  38.5596180  31.0058920  16.4477410  39.5032750  30.6563700
   1.7683000  32.8973650  19.0415210   2.4911130  33.4382590  19.3596430
   2.0407520  32.6237070  18.1656750  15.5774650  37.7666120  23.3086790
  16.0733770  37.5336990  24.0935670  15.3790720  36.9277960  22.8924430
  17.0061810  36.4027070  25.8424470  16.8961090  36.2483110  26.7806740
  17.7669400  35.8748010  25.5999880  15.3527530  32.3421200  32.3007470
  15.9899750  32.9555340  32.6666660  15.5002420  32.3781860  31.3556700
  17.8952080  34.2334990  19.0830610  18.8201390  34.1016170  18.8748900
  17.8727870  34.3127810  20.0367060  17.9690570  35.0045650  21.7087320
  17.1742070  34.9390770  22.2380230  18.1733850  35.9396290  21.6972670
  14.9108990  49.0437200  25.7025710  15.5068060  48.7221770  25.0260130
  15.1687140  48.5709020  26.4938980   2.8171560  45.4755110  35.8516340
   2.7741190  45.1048020  36.7330800   2.9482570  46.4132680  35.9918160
   6.5177590  47.0314700  31.4526060   6.2768950  47.2989260  30.5656580
   7.4580230  47.2020430  31.5076920   8.7232010  33.4947390  35.2082570
   8.6620900  34.0869220  35.9577980   9.6632390  33.3873350  35.0632830
  11.3606570  33.1517450  34.8474860  11.9746980  33.4696740  34.1855940
  11.9056130  32.6666040  35.4670720  17.7781750  49.0509080  32.2536700
  17.2840030  49.4477950  31.5363830  17.1695040  48.4258290  32.6473980
   1.8827830  31.8311710  34.9613920   2.4310820  31.6499760  34.1980030
   1.9483140  31.0405820  35.4970230   2.6559590  48.4217360  32.9714120
   2.0619910  48.2902060  33.7104160   2.6483430  47.5855500  32.5056220
  12.1014610  31.7149590  31.1744150  11.2274450  32.0484700  30.9717080
  11.9925360  31.2422770  31.9996020  13.0086590  33.9220460  32.5585870
  12.6799950  33.1072220  32.1787600  13.9568890  33.8790270  32.4351560
  15.4621200  49.6932500  29.5323440  15.0024170  50.4448310  29.1581460
  14.8333660  48.9738970  29.4738240   2.2871820  45.7875740  31.9222160
   1.5605880  45.1681030  31.8548110   2.3480970  46.1816350  31.0520240
   5.8916920  48.0020740  28.7071570   6.4081940  47.3908100  28.1819830
   6.5414300  48.5049520  29.1982580   8.6312420  48.8929230  29.5340550
   8.9190230  48.6383530  28.6573560   9.1435640  48.3406590  30.1246120
   9.8489430  32.6319430  30.1137060   9.0661220  33.1064930  30.3933820
   9.5552360  31.7274260  30.0050240  14.4010500  33.3342530  28.1586150
  14.8418590  33.2787630  27.3107750  14.1318090  34.2500540  28.2296330
  16.2649070  32.9657770  26.1694970  16.2037470  32.0218990  26.0225990
  17.0441100  33.0737860  26.7148430   7.7343650  35.0506180  25.6253090
   6.9218160  34.6763070  25.2848970   8.2385290  34.2951260  25.9274280
  12.2368630  31.7148630  26.8636160  12.8398000  32.2868840  27.3384680
  11.4961620  32.2788070  26.6410060  15.3803230  32.1170190  22.1376440
  15.5753860  33.0153640  22.4043870  14.5933100  31.8857270  22.6309390
   2.1764520  47.7983360  22.5769060   1.6512140  48.1791390  21.8731020
   2.1009100  48.4234130  23.2978770   3.5654990  33.4630960  21.1752750
   4.0947750  32.6760760  21.0460700   4.1983310  34.1422150  21.4088280
   5.7592830  33.2006100  24.2298140   5.1295570  32.4993410  24.3968270
   5.2197970  33.9610230  24.0131300   8.6984780  49.8145330  36.9008750
   9.6252090  49.5789600  36.9444710   8.6835210  50.6417330  36.4194780
  16.9329840  49.3570900  23.8983000  17.1082030  48.6708640  23.2543920
  16.2351410  49.8817950  23.5059670   5.8848390  32.4790080  36.6650630
   5.6032660  32.9823680  35.9011450   6.2668090  31.6811830  36.2992760
   4.7757490  49.7465740  21.4518310   5.5076310  49.4625020  20.9042200
   5.0351160  49.5079020  22.3417690   3.9372280  45.8630470  21.4564640
   3.3081160  46.3315570  22.0050470   4.0520110  45.0179690  21.8910830
  12.4863850  31.8943660  37.2431100  12.3729300  32.2138270  38.1382620
  13.3033590  32.2956170  36.9468380  15.2662340  49.0415190  36.7249790
  16.0587660  48.5464420  36.5175750  15.5595490  49.7205330  37.3325400
  11.3922000  39.9136130   7.6065840  11.3116050  38.9990740   7.3357550
  10.9786420  40.4103200   6.9005550   9.5240040  41.6915150   9.4875110
   8.7482140  41.2115590   9.7773680  10.1752970  41.0120800   9.3131270
   3.5405870  42.0034960  10.3650870   2.7090750  41.7483670  10.7647380
   4.1486850  42.0745730  11.1008790  13.5447470  46.0975340   8.2674240
  13.0829000  45.3262580   8.5961410  14.3573020  46.1241410   8.7726690
   3.5207130  46.0375050  10.5608890   3.8235170  45.1472790  10.3819110
   4.2650720  46.5945270  10.3331140   9.7710780  48.3833350   7.8878230
   9.1522220  48.8390850   7.3172670  10.6262560  48.5384810   7.4867930
   8.9649030  44.3672340   9.4945270   8.8957310  43.4262280   9.3334400
   9.7268890  44.4573750  10.0667840   9.9954200  37.1742720   9.7214200
  10.3719020  36.3014600   9.6087870   9.8973710  37.5101420   8.8304640
   4.1259210  35.5468350   5.1831640   4.2325960  36.4472080   5.4900400
   3.2151570  35.4986320   4.8926290  13.7778320  34.6693160   6.6542540
  14.5987940  34.1789730   6.6968020  13.8112400  35.2590820   7.4074380
   5.9666940  38.5154720   9.5156820   6.4745160  39.0135690  10.1561840
   6.4980180  37.7389920   9.3396180  18.0677870  36.6859910  13.2186170
  17.3630040  37.0741620  12.7001280  18.3335790  37.3810200  13.8207100
   4.2503040  33.1553280  13.7820240   4.2521480  33.6725670  12.9766140
   3.4207350  32.6783460  13.7590170  10.6374130  43.2672590   5.2810140
  10.0191400  43.7322040   4.7172860  11.1497380  43.9600070   5.6979650
   5.5005890  42.7948460  11.9593740   5.1675270  43.4217380  12.6014810
   5.6772570  43.3210340  11.1795410  14.0139800  36.6093540   9.4270080
  13.3095370  36.8978430  10.0073190  14.3751960  37.4193650   9.0669640
   3.9318370  34.8663240  11.7890690   4.2735180  35.7105290  11.4944560
   2.9934180  35.0146980  11.9056030   4.7124990  44.7629260  13.7742920
   5.3298990  45.4380340  13.4927370   3.8518110  45.1717240  13.6830420
  15.6302580  46.2268670  11.6897560  14.9466100  46.8967780  11.6814230
  16.1696870  46.4249320  10.9242420  17.0826720  36.0548330   9.8179290
  16.1351630  36.0887310   9.9494720  17.4076710  36.8687280  10.2028650
   7.6146260  32.3545510   8.1135280   7.9221240  31.7992400   7.3970780
   6.6846960  32.4889970   7.9308270  13.1661320  48.0712800  10.4042740
  13.1788480  47.6675090   9.5365000  12.6136540  48.8460090  10.3004170
  14.4606740  44.7929020   5.4932910  14.3503070  43.8503350   5.6182330
  14.4574990  45.1544660   6.3795670  12.5646760  42.9742640  11.7325350
  12.9815550  42.7602750  10.8978810  13.2886580  43.2315430  12.3033970
  10.0027020  40.4194340   4.8495400   9.0756300  40.3531720   5.0783870
  10.1551840  41.3574470   4.7350640  16.5108860  41.3729860  11.8241590
  15.6827490  41.4422950  11.3491720  17.1059340  41.9584170  11.3557420
  14.0324310  41.9814640   5.3530650  13.4136730  41.6434190   4.7056950
  14.0148760  41.3374400   6.0609840  13.4750870  38.1599180  12.7696460
  13.0622050  38.9852890  13.0236450  12.7426820  37.5744220  12.5772820
   5.6083660  40.9459080   7.6315130   5.2040660  40.2336330   7.1361030
   5.6946780  40.6012320   8.5203170   6.0765360  44.6326640   9.7954340
   5.7793650  44.0272110   9.1162120   7.0265180  44.6703950   9.6843700
   4.3212280  37.7202290  11.4114170   4.8726870  37.8297630  10.6367420
   4.8355790  38.0939890  12.1269400  14.1650970  48.2058510  13.4577440
  13.6881530  49.0130700  13.2650050  13.4812760  47.5536840  13.6103650
   5.1683790  44.3708330  16.4462140   4.2712320  44.5948300  16.6935540
   5.1936660  44.4943270  15.4973540  12.2089010  41.2201450   2.3603400
  12.6482290  40.3823880   2.2141220  12.9217430  41.8530850   2.4467540
   3.9955010  41.2421650  15.0219510   3.8562780  42.1144450  15.3906910
   3.1136370  40.8994460  14.8767450  10.3184390  46.1597520   6.3284640
  10.7580300  46.9021850   5.9140030  10.2571280  46.4024090   7.2523600
   5.7935360  47.1843350  17.2304660   5.7650790  47.5886300  16.3633090
   5.6300330  46.2553710  17.0676260   2.3088290  39.8404060   5.1321780
   2.1885890  40.5666150   4.5203050   1.9989180  39.0706970   4.6549690
  17.7450180  47.9670450  18.5268830  18.2209900  48.4453340  19.2057910
  18.3657340  47.8987940  17.8014330  17.1483430  45.1583300  15.6868840
  17.2746490  44.9195180  14.7686020  17.1904810  44.3267840  16.1590920
  11.0100170  48.8611300  14.2563650  11.5244840  48.7719310  15.0586080
  10.1669250  49.2071000  14.5491560  12.9854570  49.1466640   3.6847650
  12.8255710  48.8569580   4.5829480  12.8201280  48.3706770   3.1492880
   5.4642950  48.9265170   5.4619270   5.2885430  48.0100710   5.2487070
   4.6098690  49.2852460   5.7017070  12.2530630  48.2816910   6.3194140
  12.7087580  47.5006290   6.6332760  12.5923150  48.9923730   6.8635320
  17.0007440  37.2115760  16.6518580  16.3851710  37.7195430  16.1234040
  16.6803860  36.3114090  16.5944520   4.7751950  33.1839130   8.5145450
   4.3320100  33.9648670   8.1829970   5.3336940  33.5069020   9.2216390
   9.0621760  36.0507650  14.1180770   8.6001130  36.2590670  14.9300710
   8.6599870  35.2367000  13.8151440  14.0626270  37.2716600  15.2477430
  13.2119860  36.9722350  15.5686500  13.9028060  37.5158610  14.3361250
  11.1575980  38.7718350  17.3476220  11.4829390  37.9382100  17.0078450
  11.9456310  39.2946870  17.4954550   7.8910770  32.8049830   3.3951280
   7.2664950  32.8009700   4.1204590   7.8040890  31.9380790   2.9987250
   6.8127850  33.7286460  10.3735050   7.1100180  34.6349290  10.2927070
   7.3613410  33.2405240   9.7594620   4.5666170  38.3072700   6.2426700
   4.3407090  38.0909870   7.1473320   3.7858700  38.7401160   5.8972670
  11.7963930  38.3136070   4.8417350  11.1972820  39.0371870   4.6580970
  12.3443540  38.2512850   4.0593800   7.0065380  39.2058280  16.9086970
   6.9108980  38.2653010  16.7587370   7.8497360  39.4273350  16.5135040
  10.4028800  36.9499610   6.8720630  10.7958370  37.2671810   6.0589320
  10.7645650  36.0711490   6.9865150   8.7120970  35.7006920  18.1317490
   8.0219290  35.5079120  18.7663580   9.4553270  35.9841560  18.6641790
  10.9883940  39.5405360  10.9671410  10.2565060  40.0492170  11.3161510
  10.5908280  38.7235340  10.6660190   7.4261330  36.2159560   9.3723900
   7.4297390  35.7749510   8.5228440   8.3212450  36.5376890   9.4795720
   3.2763710  36.0986050   8.3318110   2.9363760  36.5761280   9.0885160
   2.5141030  35.6451170   7.9719210   7.4881480  37.2171640   2.3630660
   7.6094300  37.1758120   3.3116480   7.1029990  38.0795790   2.2077390
  11.4509850  34.9939040  10.3794350  11.4682590  35.4447690  11.2236200
  11.2025430  34.0944680  10.5927790  14.8780600  32.4071220  16.2180730
  15.2026370  31.6760880  16.7438710  14.9137110  32.0884860  15.3161720
   7.7269300  40.2761340  11.1189310   8.0939430  39.8019910  11.8650650
   7.5374360  41.1502910  11.4597650   5.5168670  39.3169980  13.4373520
   5.2125740  40.1961960  13.6623880   6.4715130  39.3769770  13.4730960
   4.0450460  43.5230970   4.0340370   3.2712720  42.9828590   3.8739090
   4.7745090  43.0037580   3.6958130  14.8038440  42.5196330   9.8266760
  15.5237560  43.0151620   9.4362870  14.6020260  41.8414220   9.1820630
  10.2648380  33.9134290   3.9696150   9.4512990  33.4147460   3.8941460
  10.0710330  34.7532540   3.5532500  10.1857240  42.5905390  15.7135760
  10.1194550  41.6701060  15.4593350   9.5562380  42.6880830  16.4280400
  12.9796770  38.2853940   2.2658310  13.8676390  38.5971170   2.0909650
  12.9501860  37.4126190   1.8738890   4.0887860  43.1911350   7.6719180
   4.6066530  42.3879610   7.6176070   3.6371880  43.1290490   8.5136010
   8.9757360  44.4577630   2.9446480   9.3173060  45.2019860   2.4489800
   8.1470070  44.7708750   3.3071310   4.7745520  40.6156960  17.4684430
   4.4745660  40.7614140  16.5712250   5.5456760  40.0562250  17.3757820
  10.1173970  45.4125960  15.4639560  10.1318510  44.4806920  15.2458470
   9.4099070  45.4985720  16.1029330  16.3285180  42.0533300  14.8108140
  15.6033370  42.6462080  14.6137530  16.8560640  42.0456840  14.0121510
  16.2798290  46.4508040   4.4620300  15.6374450  45.7963660   4.7364020
  15.8928950  46.8563130   3.6860970  11.8584770  43.7793470   8.3091990
  12.2108590  43.1821600   7.6493360  10.9747100  43.4537700   8.4800240
   7.9448050  44.5391160   5.7162400   8.6319180  45.0860370   6.0969990
   7.1580470  45.0831890   5.7512010   7.2475260  41.5437190   5.3287760
   7.7038040  42.3542440   5.5547950   6.8963470  41.2260330   6.1606250
   9.5507870  47.0543530  12.5580060  10.1950090  47.2602910  13.2353480
   9.9137310  46.2931930  12.1050910   3.1487040  31.8874840   5.8010280
   3.0201670  31.8792740   6.7495200   2.3249060  32.2257930   5.4501290
  10.8239950  45.0575880  11.2757510  11.4662180  44.3569040  11.3889680
  11.3489300  45.8374320  11.0954400  12.5977570  45.8570780  14.4793570
  12.9333810  46.4437470  15.1571490  11.6777910  45.7263490  14.7091360
  14.2511920  43.2596440   2.6610810  13.9633620  43.7209130   3.4488690
  15.0464090  42.7994210   2.9295030   8.4266150  45.9062110  17.6481630
   8.1063020  45.1871350  18.1927320   7.7524510  46.5817180  17.7217690
   6.4680320  46.7522560   2.5914780   6.4590420  47.4852250   1.9759290
   5.5478680  46.5054140   2.6841740  11.6419750  36.1388270  13.0118430
  12.0100570  35.3183480  13.3398000  10.7817950  36.1990160  13.4274080
  15.0081780  35.0945210   3.8205990  14.3794940  35.1990880   3.1064220
  14.5133700  35.3141990   4.6099870   6.9765810  37.3731160   5.2363870
   6.2681960  37.8417500   5.6777480   7.2610290  36.7153170   5.8709060
   8.6021740  38.7927860  13.2356400   9.1006990  39.2673680  13.9008250
   8.7444690  37.8691380  13.4426430  11.0081240  34.0981820   6.6759660
  10.8849020  34.1167950   5.7269170  11.9565800  34.1460760   6.7958060
   8.0958030  49.3337120   5.9487640   8.3499530  49.2958510   5.0267010
   7.1470510  49.2070450   5.9415890   5.1800830  35.6816240   2.6114580
   6.0291360  36.1186390   2.5454770   4.8132100  35.9936500   3.4386640
  15.8088600  35.0095820  14.0784790  15.3062200  35.7501220  14.4178600
  16.6245260  35.3979820  13.7621580  14.1010610  40.2529000   7.5246150
  13.1600750  40.2679230   7.6993840  14.4154680  39.4664960   7.9706450
   2.7739010  39.3673670   1.7683000   2.8542600  38.4201180   1.8800400
   3.6658760  39.6980550   1.8743660  16.1036190  47.4237850   9.2000410
  16.2283610  48.2469020   9.6724220  16.9701750  47.2128580   8.8524560
   3.5753720  49.5169060   8.8717540   4.3116200  48.9684520   9.1426110
   3.9594640  50.3825070   8.7323530   2.5812000  48.7015130  18.0603120
   3.3824730  49.0227180  18.4738520   2.0663820  48.3410710  18.7823030
  11.4176630  44.8095000  18.0078530  10.8114790  44.8326600  17.2674280
  11.1130740  44.0778040  18.5445780  12.8477000  48.5375290  16.6187940
  13.7998750  48.4533310  16.5688180  12.7005220  49.2017000  17.2921730
   7.3547750  42.5959580  16.5374690   6.5893420  43.1644580  16.4529360
   7.5363710  42.3035790  15.6442920  14.4971100  44.3264910  17.0949710
  15.2380570  44.6640670  16.5917170  13.7343780  44.4956970  16.5419480
   2.3332890  39.3318180  17.8989240   2.3738230  39.0332050  18.8074470
   3.1878390  39.7325790  17.7396760   6.1111280  41.9313730   3.0592750
   6.5327700  41.7653600   3.9024140   6.2362120  41.1213960   2.5647890
   4.2738700  37.9110280  15.8663730   3.7435160  37.4201230  15.2387070
   4.9426770  38.3394480  15.3321660  13.1716760  42.3779740  15.6304920
  13.5857780  42.5324820  16.4795340  12.2367760  42.5034960  15.7930700
  13.6438930  39.7175900  17.6344070  14.2259700  38.9628220  17.5464550
  13.8200700  40.2483340  16.8575550   4.7611000  34.8772650  15.9461020
   4.6667870  34.2593400  15.2211890   4.1808390  35.6038940  15.7190930
   7.5272440  33.4345890  12.9788410   7.0789740  33.4570150  12.1333960
   6.8937640  33.0364910  13.5758710   7.9331990  42.3300220  13.6000850
   8.3520100  43.1732950  13.4277090   7.0140620  42.4672260  13.3707630
  10.2695890  40.0616400  14.9838690  10.3892100  39.4657540  15.7233530
  11.1289890  40.0986090  14.5639990  12.6083790  40.6153590  13.5601200
  12.0819010  41.1396210  12.9566340  12.9515130  41.2480980  14.1910930
   5.7839410  48.6353230  14.7158580   5.2460500  49.3599290  14.3967280
   6.0373370  48.1583570  13.9255920   7.0364660  36.6037750  16.2414510
   7.6264350  36.2953600  16.9292330   6.2184900  36.1317500  16.3974410
  11.8558090  36.2203560  16.4747530  11.1673610  35.5585100  16.4097520
  12.5764110  35.7741830  16.9195990  12.4858490  32.8155190   2.5337790
  12.7660780  31.9723090   2.8897210  11.7124220  33.0478300   3.0476540
   8.6401620  49.8704440  14.9745230   8.5660320  50.7739580  15.2817600
   7.7380460  49.5516340  14.9467300   9.1886950  49.0362950   2.5971590
  10.0837740  49.3747920   2.6190350   9.2204580  48.3142360   1.9695870
   4.6390830  45.5288040   5.9380820   4.3386370  45.4053010   6.8384730
   4.5328320  44.6696630   5.5296550  16.1681300  47.5666620  15.3037790
  15.5683290  47.6259180  14.5601710  16.2975200  46.6271600  15.4334640
  16.8639210  42.0531920   3.1441700  17.6258120  42.6228570   3.2501390
  16.8793580  41.4859120   3.9150010  17.8699180  42.9082020   7.9883630
  18.2408010  42.1249340   7.5819600  18.5101110  43.5971120   7.8100930
  14.8532940  44.2918600  13.4013950  14.0392780  44.7215760  13.6639740
  15.2607140  44.9037010  12.7883000  16.8123720  40.2835280   5.2943650
  16.4367320  39.5163210   4.8624940  16.0826840  40.6657980   5.7818580
  16.2023340  39.4306800  14.9283170  15.9709430  39.2019550  14.0281120
  16.4627890  40.3506350  14.8828060  14.6411410  34.6563230  17.7062870
  15.5181590  34.6646630  18.0896870  14.6532250  33.9194070  17.0955220
  16.0874680  38.5092770   8.5950890  16.6112160  38.0155420   7.9641060
  16.6734100  38.6443130   9.3398460  16.2664400  38.5932640  12.1170440
  15.3167110  38.5596180  12.2315430  16.4477410  39.5032750  11.8820210
  15.5774650  37.7666120   4.5343300  16.0733770  37.5336990   5.3192180
  15.3790720  36.9277960   4.1180940  17.0061810  36.4027070   7.0680980
  16.8961090  36.2483110   8.0063250  17.7669400  35.8748010   6.8256390
  15.3527530  32.3421200  13.5263980  15.9899750  32.9555340  13.8923170
  15.5002420  32.3781860  12.5813210  17.9690570  35.0045650   2.9343830
  17.1742070  34.9390770   3.4636740  18.1733850  35.9396290   2.9229180
  14.9108990  49.0437200   6.9282220  15.5068060  48.7221770   6.2516640
  15.1687140  48.5709020   7.7195490   2.8171560  45.4755110  17.0772850
   2.7741190  45.1048020  17.9587310   2.9482570  46.4132680  17.2174670
   6.5177590  47.0314700  12.6782570   6.2768950  47.2989260  11.7913090
   7.4580230  47.2020430  12.7333430   8.7232010  33.4947390  16.4339080
   8.6620900  34.0869220  17.1834490   9.6632390  33.3873350  16.2889340
  11.3606570  33.1517450  16.0731370  11.9746980  33.4696740  15.4112450
  11.9056130  32.6666040  16.6927230  17.7781750  49.0509080  13.4793210
  17.2840030  49.4477950  12.7620340  17.1695040  48.4258290  13.8730490
   1.8827830  31.8311710  16.1870430   2.4310820  31.6499760  15.4236540
   1.9483140  31.0405820  16.7226740   2.6559590  48.4217360  14.1970630
   2.0619910  48.2902060  14.9360670   2.6483430  47.5855500  13.7312730
  12.1014610  31.7149590  12.4000660  11.2274450  32.0484700  12.1973590
  11.9925360  31.2422770  13.2252530  13.0086590  33.9220460  13.7842380
  12.6799950  33.1072220  13.4044110  13.9568890  33.8790270  13.6608070
  15.4621200  49.6932500  10.7579950  15.0024170  50.4448310  10.3837970
  14.8333660  48.9738970  10.6994750   2.2871820  45.7875740  13.1478670
   1.5605880  45.1681030  13.0804620   2.3480970  46.1816350  12.2776750
   5.8916920  48.0020740   9.9328080   6.4081940  47.3908100   9.4076340
   6.5414300  48.5049520  10.4239090   8.6312420  48.8929230  10.7597060
   8.9190230  48.6383530   9.8830070   9.1435640  48.3406590  11.3502630
   9.8489430  32.6319430  11.3393570   9.0661220  33.1064930  11.6190330
   9.5552360  31.7274260  11.2306750  14.4010500  33.3342530   9.3842660
  14.8418590  33.2787630   8.5364260  14.1318090  34.2500540   9.4552840
  16.2649070  32.9657770   7.3951480  16.2037470  32.0218990   7.2482500
  17.0441100  33.0737860   7.9404940   7.7343650  35.0506180   6.8509600
   6.9218160  34.6763070   6.5105480   8.2385290  34.2951260   7.1530790
  12.2368630  31.7148630   8.0892670  12.8398000  32.2868840   8.5641190
  11.4961620  32.2788070   7.8666570  15.3803230  32.1170190   3.3632950
  15.5753860  33.0153640   3.6300380  14.5933100  31.8857270   3.8565900
   2.1764520  47.7983360   3.8025570   1.6512140  48.1791390   3.0987530
   2.1009100  48.4234130   4.5235280   3.5654990  33.4630960   2.4009260
   4.0947750  32.6760760   2.2717210   4.1983310  34.1422150   2.6344790
   5.7592830  33.2006100   5.4554650   5.1295570  32.4993410   5.6224780
   5.2197970  33.9610230   5.2387810   8.6984780  49.8145330  18.1265260
   9.6252090  49.5789600  18.1701220   8.6835210  50.6417330  17.6451290
  16.9329840  49.3570900   5.1239510  17.1082030  48.6708640   4.4800430
  16.2351410  49.8817950   4.7316180   5.8848390  32.4790080  17.8907140
   5.6032660  32.9823680  17.1267960   6.2668090  31.6811830  17.5249270
   4.7757490  49.7465740   2.6774820   5.5076310  49.4625020   2.1298710
   5.0351160  49.5079020   3.5674200   3.9372280  45.8630470   2.6821150
   3.3081160  46.3315570   3.2306980   4.0520110  45.0179690   3.1167340
  12.4863850  31.8943660  18.4687610  12.3729300  32.2138270  19.3639130
  13.3033590  32.2956170  18.1724890  15.2662340  49.0415190  17.9506300
  16.0587660  48.5464420  17.7432260  15.5595490  49.7205330  18.5581910
  11.3922000  21.1392640  63.9296310  11.3116050  20.2247250  63.6588020
  10.9786420  21.6359710  63.2236020   9.5240040  22.9171660  65.8105580
   8.7482140  22.4372100  66.1004150  10.1752970  22.2377310  65.6361740
   3.5405870  23.2291470  66.6881340   2.7090750  22.9740180  67.0877850
   4.1486850  23.3002240  67.4239260  13.5447470  27.3231850  64.5904710
  13.0829000  26.5519090  64.9191880  14.3573020  27.3497920  65.0957160
   3.5207130  27.2631560  66.8839360   3.8235170  26.3729300  66.7049580
   4.2650720  27.8201780  66.6561610   9.7710780  29.6089860  64.2108700
   9.1522220  30.0647360  63.6403140  10.6262560  29.7641320  63.8098400
   8.9649030  25.5928850  65.8175740   8.8957310  24.6518790  65.6564870
   9.7268890  25.6830260  66.3898310   9.9954200  18.3999230  66.0444670
  10.3719020  17.5271110  65.9318340   9.8973710  18.7357930  65.1535110
   4.1259210  16.7724860  61.5062110   4.2325960  17.6728590  61.8130870
   3.2151570  16.7242830  61.2156760  13.7778320  15.8949670  62.9773010
  14.5987940  15.4046240  63.0198490  13.8112400  16.4847330  63.7304850
   5.9666940  19.7411230  65.8387290   6.4745160  20.2392200  66.4792310
   6.4980180  18.9646430  65.6626650  18.0677870  17.9116420  69.5416640
  17.3630040  18.2998130  69.0231750  18.3335790  18.6066710  70.1437570
   4.2503040  14.3809790  70.1050710   4.2521480  14.8982180  69.2996610
   3.4207350  13.9039970  70.0820640  10.6374130  24.4929100  61.6040610
  10.0191400  24.9578550  61.0403330  11.1497380  25.1856580  62.0210120
   5.5005890  24.0204970  68.2824210   5.1675270  24.6473890  68.9245280
   5.6772570  24.5466850  67.5025880  14.0139800  17.8350050  65.7500550
  13.3095370  18.1234940  66.3303660  14.3751960  18.6450160  65.3900110
   3.9318370  16.0919750  68.1121160   4.2735180  16.9361800  67.8175030
   2.9934180  16.2403490  68.2286500   4.7124990  25.9885770  70.0973390
   5.3298990  26.6636850  69.8157840   3.8518110  26.3973750  70.0060890
  15.6302580  27.4525180  68.0128030  14.9466100  28.1224290  68.0044700
  16.1696870  27.6505830  67.2472890  17.0826720  17.2804840  66.1409760
  16.1351630  17.3143820  66.2725190  17.4076710  18.0943790  66.5259120
   7.6146260  13.5802020  64.4365750   7.9221240  13.0248910  63.7201250
   6.6846960  13.7146480  64.2538740  13.1661320  29.2969310  66.7273210
  13.1788480  28.8931600  65.8595470  12.6136540  30.0716600  66.6234640
  14.4606740  26.0185530  61.8163380  14.3503070  25.0759860  61.9412800
  14.4574990  26.3801170  62.7026140  12.5646760  24.1999150  68.0555820
  12.9815550  23.9859260  67.2209280  13.2886580  24.4571940  68.6264440
  10.0027020  21.6450850  61.1725870   9.0756300  21.5788230  61.4014340
  10.1551840  22.5830980  61.0581110   9.9896100  17.9167850  58.1693030
   9.0499770  18.0781810  58.2545490  10.3079360  18.6353530  57.6229020
  16.5108860  22.5986370  68.1472060  15.6827490  22.6679460  67.6722190
  17.1059340  23.1840680  67.6787890  14.0324310  23.2071150  61.6761120
  13.4136730  22.8690700  61.0287420  14.0148760  22.5630910  62.3840310
  13.4750870  19.3855690  69.0926930  13.0622050  20.2109400  69.3466920
  12.7426820  18.8000730  68.9003290   5.6083660  22.1715590  63.9545600
   5.2040660  21.4592840  63.4591500   5.6946780  21.8268830  64.8433640
   6.0765360  25.8583150  66.1184810   5.7793650  25.2528620  65.4392590
   7.0265180  25.8960460  66.0074170   4.3212280  18.9458800  67.7344640
   4.8726870  19.0554140  66.9597890   4.8355790  19.3196400  68.4499870
  14.1650970  29.4315020  69.7807910  13.6881530  30.2387210  69.5880520
  13.4812760  28.7793350  69.9334120  12.2089010  22.4457960  58.6833870
  12.6482290  21.6080390  58.5371690  12.9217430  23.0787360  58.7698010
   3.9955010  22.4678160  71.3449980   3.8562780  23.3400960  71.7137380
   3.1136370  22.1250970  71.1997920  10.3184390  27.3854030  62.6515110
  10.7580300  28.1278360  62.2370500  10.2571280  27.6280600  63.5754070
  15.7906150  13.7000770  56.9974910  15.4778810  13.7927600  57.8973980
  16.5518620  14.2781800  56.9472340   2.3088290  21.0660570  61.4552250
   2.1885890  21.7922660  60.8433520   1.9989180  20.2963480  60.9780160
  17.1483430  26.3839810  72.0099310  17.2746490  26.1451690  71.0916490
  17.1904810  25.5524350  72.4821390  11.0100170  30.0867810  70.5794120
  11.5244840  29.9975820  71.3816550  10.1669250  30.4327510  70.8722030
  12.9854570  30.3723150  60.0078120  12.8255710  30.0826090  60.9059950
  12.8201280  29.5963280  59.4723350   5.4642950  30.1521680  61.7849740
   5.2885430  29.2357220  61.5717540   4.6098690  30.5108970  62.0247540
  12.6880700  27.8810710  58.5676120  11.9945860  27.8788000  57.9078400
  13.4303560  27.4570030  58.1370290  12.2530630  29.5073420  62.6424610
  12.7087580  28.7262800  62.9563230  12.5923150  30.2180240  63.1865790
  17.0007440  18.4372270  72.9749050  16.3851710  18.9451940  72.4464510
  16.6803860  17.5370600  72.9174990   4.7751950  14.4095640  64.8375920
   4.3320100  15.1905180  64.5060440   5.3336940  14.7325530  65.5446860
   9.0621760  17.2764160  70.4411240   8.6001130  17.4847180  71.2531180
   8.6599870  16.4623510  70.1381910  14.0626270  18.4973110  71.5707900
  13.2119860  18.1978860  71.8916970  13.9028060  18.7415120  70.6591720
   7.8910770  14.0306340  59.7181750   7.2664950  14.0266210  60.4435060
   7.8040890  13.1637300  59.3217720   6.8127850  14.9542970  66.6965520
   7.1100180  15.8605800  66.6157540   7.3613410  14.4661750  66.0825090
   4.5666170  19.5329210  62.5657170   4.3407090  19.3166380  63.4703790
   3.7858700  19.9657670  62.2203140  11.7963930  19.5392580  61.1647820
  11.1972820  20.2628380  60.9811440  12.3443540  19.4769360  60.3824270
  10.4028800  18.1756120  63.1951100  10.7958370  18.4928320  62.3819790
  10.7645650  17.2968000  63.3095620  10.9883940  20.7661870  67.2901880
  10.2565060  21.2748680  67.6391980  10.5908280  19.9491850  66.9890660
   7.4261330  17.4416070  65.6954370   7.4297390  17.0006020  64.8458910
   8.3212450  17.7633400  65.8026190   3.2763710  17.3242560  64.6548580
   2.9363760  17.8017790  65.4115630   2.5141030  16.8707680  64.2949680
   7.4881480  18.4428150  58.6861130   7.6094300  18.4014630  59.6346950
   7.1029990  19.3052300  58.5307860  11.4509850  16.2195550  66.7024820
  11.4682590  16.6704200  67.5466670  11.2025430  15.3201190  66.9158260
   6.5002980  20.7529290  58.0844430   5.9319880  20.3047540  57.4580340
   7.2091980  21.1122070  57.5509580   7.7269300  21.5017850  67.4419780
   8.0939430  21.0276420  68.1881120   7.5374360  22.3759420  67.7828120
   5.5168670  20.5426490  69.7603990   5.2125740  21.4218470  69.9854350
   6.4715130  20.6026280  69.7961430   4.0450460  24.7487480  60.3570840
   3.2712720  24.2085100  60.1969560   4.7745090  24.2294090  60.0188600
  14.8038440  23.7452840  66.1497230  15.5237560  24.2408130  65.7593340
  14.6020260  23.0670730  65.5051100  10.2648380  15.1390800  60.2926620
   9.4512990  14.6403970  60.2171930  10.0710330  15.9789050  59.8762970
  10.1857240  23.8161900  72.0366230  10.1194550  22.8957570  71.7823820
   9.5562380  23.9137340  72.7510870  12.9796770  19.5110450  58.5888780
  13.8676390  19.8227680  58.4140120  12.9501860  18.6382700  58.1969360
   4.0887860  24.4167860  63.9949650   4.6066530  23.6136120  63.9406540
   3.6371880  24.3547000  64.8366480   8.9757360  25.6834140  59.2676950
   9.3173060  26.4276370  58.7720270   8.1470070  25.9965260  59.6301780
  10.1173970  26.6382470  71.7870030  10.1318510  25.7063430  71.5688940
   9.4099070  26.7242230  72.4259800  15.2511040  20.8222290  58.0568640
  15.1674760  21.2536510  57.2065080  15.9705230  21.2820640  58.4895460
  16.3285180  23.2789810  71.1338610  15.6033370  23.8718590  70.9368000
  16.8560640  23.2713350  70.3351980  16.2798290  27.6764550  60.7850770
  15.6374450  27.0220170  61.0594490  15.8928950  28.0819640  60.0091440
  11.8584770  25.0049980  64.6322460  12.2108590  24.4078110  63.9723830
  10.9747100  24.6794210  64.8030710   7.9448050  25.7647670  62.0392870
   8.6319180  26.3116880  62.4200460   7.1580470  26.3088400  62.0742480
   7.2475260  22.7693700  61.6518230   7.7038040  23.5798950  61.8778420
   6.8963470  22.4516840  62.4836720   9.5507870  28.2800040  68.8810530
  10.1950090  28.4859420  69.5583950   9.9137310  27.5188440  68.4281380
   3.1487040  13.1131350  62.1240750   3.0201670  13.1049250  63.0725670
   2.3249060  13.4514440  61.7731760  10.8239950  26.2832390  67.5987980
  11.4662180  25.5825550  67.7120150  11.3489300  27.0630830  67.4184870
  14.6695670  26.5681010  57.3227120  14.4433250  25.8511450  57.9151760
  14.2791870  26.3193450  56.4848870  12.5977570  27.0827290  70.8024040
  12.9333810  27.6693980  71.4801960  11.6777910  26.9520000  71.0321830
  14.2511920  24.4852950  58.9841280  13.9633620  24.9465640  59.7719160
  15.0464090  24.0250720  59.2525500   6.4680320  27.9779070  58.9145250
   6.4590420  28.7108760  58.2989760   5.5478680  27.7310650  59.0072210
  11.6419750  17.3644780  69.3348900  12.0100570  16.5439990  69.6628470
  10.7817950  17.4246670  69.7504550  15.0081780  16.3201720  60.1436460
  14.3794940  16.4247390  59.4294690  14.5133700  16.5398500  60.9330340
   9.4539920  28.0407310  57.5770440   9.5551900  27.8371300  56.6472420
   8.5541660  27.7865590  57.7818220   6.9765810  18.5987670  61.5594340
   6.2681960  19.0674010  62.0007950   7.2610290  17.9409680  62.1939530
   8.6021740  20.0184370  69.5586870   9.1006990  20.4930190  70.2238720
   8.7444690  19.0947890  69.7656900  11.0081240  15.3238330  62.9990130
  10.8849020  15.3424460  62.0499640  11.9565800  15.3717270  63.1188530
   8.0958030  30.5593630  62.2718110   8.3499530  30.5215020  61.3497480
   7.1470510  30.4326960  62.2646360   5.1800830  16.9072750  58.9345050
   6.0291360  17.3442900  58.8685240   4.8132100  17.2193010  59.7617110
  15.8088600  16.2352330  70.4015260  15.3062200  16.9757730  70.7409070
  16.6245260  16.6236330  70.0852050  14.1010610  21.4785510  63.8476620
  13.1600750  21.4935740  64.0224310  14.4154680  20.6921470  64.2936920
   4.0792250  23.1605110  57.4080580   4.8455520  23.0486470  57.9706010
   4.1566940  22.4643080  56.7557350   2.7739010  20.5930180  58.0913470
   2.8542600  19.6457690  58.2030870   3.6658760  20.9237060  58.1974130
  16.1036190  28.6494360  65.5230880  16.2283610  29.4725530  65.9954690
  16.9701750  28.4385090  65.1755030   3.5753720  30.7425570  65.1948010
   4.3116200  30.1941030  65.4656580   3.9594640  31.6081580  65.0554000
   6.6856030  29.9155880  57.0173580   7.4784640  30.2044710  56.5655370
   6.1660380  29.4848050  56.3386060  15.7386200  29.1426010  58.4410320
  15.4527710  28.7291150  57.6264500  15.5405750  30.0713720  58.3210840
   7.2033430  25.1359290  56.8815930   7.0984070  24.5211640  57.6077310
   7.0357650  24.6125180  56.0978940   7.3547750  23.8216090  72.8605160
   6.5893420  24.3901090  72.7759830   7.5363710  23.5292300  71.9673390
  10.4436160  24.1979320  57.4857920   9.8946260  24.6448620  58.1300660
  11.0655420  23.6928570  58.0095590   6.1111280  23.1570240  59.3823220
   6.5327700  22.9910110  60.2254610   6.2362120  22.3470470  58.8878360
   4.2738700  19.1366790  72.1894200   3.7435160  18.6457740  71.5617540
   4.9426770  19.5650990  71.6552130   8.6238920  22.1807850  56.6300320
   9.1444580  21.4656870  56.2641470   9.2707320  22.8193720  56.9300830
  13.1716760  23.6036250  71.9535390  13.5857780  23.7581330  72.8025810
  12.2367760  23.7291470  72.1161170   4.7611000  16.1029160  72.2691490
   4.6667870  15.4849910  71.5442360   4.1808390  16.8295450  72.0421400
   7.5272440  14.6602400  69.3018880   7.0789740  14.6826660  68.4564430
   6.8937640  14.2621420  69.8989180   7.9331990  23.5556730  69.9231320
   8.3520100  24.3989460  69.7507560   7.0140620  23.6928770  69.6938100
  10.2695890  21.2872910  71.3069160  10.3892100  20.6914050  72.0464000
  11.1289890  21.3242600  70.8870460  12.6083790  21.8410100  69.8831670
  12.0819010  22.3652720  69.2796810  12.9515130  22.4737490  70.5141400
   5.0070180  19.2303470  56.3281380   4.8059240  18.3670830  56.6894720
   4.8362230  19.1436830  55.3902980   5.7839410  29.8609740  71.0389050
   5.2460500  30.5855800  70.7197750   6.0373370  29.3840080  70.2486390
  12.4858490  14.0411700  58.8568260  12.7660780  13.1979600  59.2127680
  11.7124220  14.2734810  59.3707010   3.8052980  16.3304090  56.3159260
   4.1078880  16.3371520  55.4078410   4.5447570  15.9801950  56.8126920
   8.6401620  31.0960950  71.2975700   8.5660320  31.9996090  71.6048070
   7.7380460  30.7772850  71.2697770   7.0237910  15.2738710  57.3015460
   6.6759910  14.5962700  56.7217910   7.2250680  14.8128220  58.1158850
   9.1886950  30.2619460  58.9202060  10.0837740  30.6004430  58.9420820
   9.2204580  29.5398870  58.2926340   2.8283110  25.6346510  57.1489060
   3.2657980  26.1776180  57.8046640   3.3130840  24.8093460  57.1585400
   4.6390830  26.7544550  62.2611290   4.3386370  26.6309520  63.1615200
   4.5328320  25.8953140  61.8527020  16.1681300  28.7923130  71.6268260
  15.5683290  28.8515690  70.8832180  16.2975200  27.8528110  71.7565110
  17.4082750  26.5340950  56.9637970  16.5775710  26.6017600  57.4345200
  17.5854580  27.4245070  56.6604830  16.8639210  23.2788430  59.4672170
  17.6258120  23.8485080  59.5731860  16.8793580  22.7115630  60.2380480
  17.8699180  24.1338530  64.3114100  18.2408010  23.3505850  63.9050070
  18.5101110  24.8227630  64.1331400  14.8532940  25.5175110  69.7244420
  14.0392780  25.9472270  69.9870210  15.2607140  26.1293520  69.1113470
  16.9158380  23.5722800  56.6244690  17.1907220  24.4801680  56.4963910
  16.7269120  23.5085330  57.5606680  13.3133990  16.5967650  57.9198320
  13.7318870  16.4098630  57.0794980  13.0070050  15.7446700  58.2301250
  16.8123720  21.5091790  61.6174120  16.4367320  20.7419720  61.1855410
  16.0826840  21.8914490  62.1049050  16.2023340  20.6563310  71.2513640
  15.9709430  20.4276060  70.3511590  16.4627890  21.5762860  71.2058530
  16.0874680  19.7349280  64.9181360  16.6112160  19.2411930  64.2871530
  16.6734100  19.8699640  65.6628930  16.2664400  19.8189150  68.4400910
  15.3167110  19.7852690  68.5545900  16.4477410  20.7289260  68.2050680
   1.7683000  14.1230160  56.5902190   2.4911130  14.6639100  56.9083410
   2.0407520  13.8493580  55.7143730  15.5774650  18.9922630  60.8573770
  16.0733770  18.7593500  61.6422650  15.3790720  18.1534470  60.4411410
  17.0061810  17.6283580  63.3911450  16.8961090  17.4739620  64.3293720
  17.7669400  17.1004520  63.1486860  15.3527530  13.5677710  69.8494450
  15.9899750  14.1811850  70.2153640  15.5002420  13.6038370  68.9043680
  17.8952080  15.4591500  56.6317590  18.8201390  15.3272680  56.4235880
  17.8727870  15.5384320  57.5854040  17.9690570  16.2302160  59.2574300
  17.1742070  16.1647280  59.7867210  18.1733850  17.1652800  59.2459650
  14.9108990  30.2693710  63.2512690  15.5068060  29.9478280  62.5747110
  15.1687140  29.7965530  64.0425960   6.5177590  28.2571210  69.0013040
   6.2768950  28.5245770  68.1143560   7.4580230  28.4276940  69.0563900
  17.7781750  30.2765590  69.8023680  17.2840030  30.6734460  69.0850810
  17.1695040  29.6514800  70.1960960   2.6559590  29.6473870  70.5201100
   2.0619910  29.5158570  71.2591140   2.6483430  28.8112010  70.0543200
  12.1014610  12.9406100  68.7231130  11.2274450  13.2741210  68.5204060
  11.9925360  12.4679280  69.5483000  13.0086590  15.1476970  70.1072850
  12.6799950  14.3328730  69.7274580  13.9568890  15.1046780  69.9838540
  15.4621200  30.9189010  67.0810420  15.0024170  31.6704820  66.7068440
  14.8333660  30.1995480  67.0225220   2.2871820  27.0132250  69.4709140
   1.5605880  26.3937540  69.4035090   2.3480970  27.4072860  68.6007220
   5.8916920  29.2277250  66.2558550   6.4081940  28.6164610  65.7306810
   6.5414300  29.7306030  66.7469560   8.6312420  30.1185740  67.0827530
   8.9190230  29.8640040  66.2060540   9.1435640  29.5663100  67.6733100
   9.8489430  13.8575940  67.6624040   9.0661220  14.3321440  67.9420800
   9.5552360  12.9530770  67.5537220  14.4010500  14.5599040  65.7073130
  14.8418590  14.5044140  64.8594730  14.1318090  15.4757050  65.7783310
  16.2649070  14.1914280  63.7181950  16.2037470  13.2475500  63.5712970
  17.0441100  14.2994370  64.2635410   7.7343650  16.2762690  63.1740070
   6.9218160  15.9019580  62.8335950   8.2385290  15.5207770  63.4761260
  12.2368630  12.9405140  64.4123140  12.8398000  13.5125350  64.8871660
  11.4961620  13.5044580  64.1897040  15.3803230  13.3426700  59.6863420
  15.5753860  14.2410150  59.9530850  14.5933100  13.1113780  60.1796370
   2.1764520  29.0239870  60.1256040   1.6512140  29.4047900  59.4218000
   2.1009100  29.6490640  60.8465750   3.5654990  14.6887470  58.7239730
   4.0947750  13.9017270  58.5947680   4.1983310  15.3678660  58.9575260
   5.7592830  14.4262610  61.7785120   5.1295570  13.7249920  61.9455250
   5.2197970  15.1866740  61.5618280  16.9329840  30.5827410  61.4469980
  17.1082030  29.8965150  60.8030900  16.2351410  31.1074460  61.0546650
   4.7757490  30.9722250  59.0005290   5.5076310  30.6881530  58.4529180
   5.0351160  30.7335530  59.8904670   3.9372280  27.0886980  59.0051620
   3.3081160  27.5572080  59.5537450   4.0520110  26.2436200  59.4397810
  11.3922000  21.1392640  45.1552820  11.3116050  20.2247250  44.8844530
  10.9786420  21.6359710  44.4492530   9.5240040  22.9171660  47.0362090
   8.7482140  22.4372100  47.3260660  10.1752970  22.2377310  46.8618250
   3.5405870  23.2291470  47.9137850   2.7090750  22.9740180  48.3134360
   4.1486850  23.3002240  48.6495770  13.5447470  27.3231850  45.8161220
  13.0829000  26.5519090  46.1448390  14.3573020  27.3497920  46.3213670
   3.5207130  27.2631560  48.1095870   3.8235170  26.3729300  47.9306090
   4.2650720  27.8201780  47.8818120   9.7710780  29.6089860  45.4365210
   9.1522220  30.0647360  44.8659650  10.6262560  29.7641320  45.0354910
   8.9649030  25.5928850  47.0432250   8.8957310  24.6518790  46.8821380
   9.7268890  25.6830260  47.6154820   9.9954200  18.3999230  47.2701180
  10.3719020  17.5271110  47.1574850   9.8973710  18.7357930  46.3791620
   4.1259210  16.7724860  42.7318620   4.2325960  17.6728590  43.0387380
   3.2151570  16.7242830  42.4413270  13.7778320  15.8949670  44.2029520
  14.5987940  15.4046240  44.2455000  13.8112400  16.4847330  44.9561360
   5.9666940  19.7411230  47.0643800   6.4745160  20.2392200  47.7048820
   6.4980180  18.9646430  46.8883160  18.0677870  17.9116420  50.7673150
  17.3630040  18.2998130  50.2488260  18.3335790  18.6066710  51.3694080
   4.2503040  14.3809790  51.3307220   4.2521480  14.8982180  50.5253120
   3.4207350  13.9039970  51.3077150  10.6374130  24.4929100  42.8297120
  10.0191400  24.9578550  42.2659840  11.1497380  25.1856580  43.2466630
   5.5005890  24.0204970  49.5080720   5.1675270  24.6473890  50.1501790
   5.6772570  24.5466850  48.7282390  14.0139800  17.8350050  46.9757060
  13.3095370  18.1234940  47.5560170  14.3751960  18.6450160  46.6156620
   3.9318370  16.0919750  49.3377670   4.2735180  16.9361800  49.0431540
   2.9934180  16.2403490  49.4543010   4.7124990  25.9885770  51.3229900
   5.3298990  26.6636850  51.0414350   3.8518110  26.3973750  51.2317400
  15.6302580  27.4525180  49.2384540  14.9466100  28.1224290  49.2301210
  16.1696870  27.6505830  48.4729400  17.0826720  17.2804840  47.3666270
  16.1351630  17.3143820  47.4981700  17.4076710  18.0943790  47.7515630
   7.6146260  13.5802020  45.6622260   7.9221240  13.0248910  44.9457760
   6.6846960  13.7146480  45.4795250  13.1661320  29.2969310  47.9529720
  13.1788480  28.8931600  47.0851980  12.6136540  30.0716600  47.8491150
  14.4606740  26.0185530  43.0419890  14.3503070  25.0759860  43.1669310
  14.4574990  26.3801170  43.9282650  12.5646760  24.1999150  49.2812330
  12.9815550  23.9859260  48.4465790  13.2886580  24.4571940  49.8520950
  10.0027020  21.6450850  42.3982380   9.0756300  21.5788230  42.6270850
  10.1551840  22.5830980  42.2837620   9.9896100  17.9167850  39.3949540
   9.0499770  18.0781810  39.4802000  10.3079360  18.6353530  38.8485530
  16.5108860  22.5986370  49.3728570  15.6827490  22.6679460  48.8978700
  17.1059340  23.1840680  48.9044400  14.0324310  23.2071150  42.9017630
  13.4136730  22.8690700  42.2543930  14.0148760  22.5630910  43.6096820
  13.4750870  19.3855690  50.3183440  13.0622050  20.2109400  50.5723430
  12.7426820  18.8000730  50.1259800   5.6083660  22.1715590  45.1802110
   5.2040660  21.4592840  44.6848010   5.6946780  21.8268830  46.0690150
   6.0765360  25.8583150  47.3441320   5.7793650  25.2528620  46.6649100
   7.0265180  25.8960460  47.2330680   4.3212280  18.9458800  48.9601150
   4.8726870  19.0554140  48.1854400   4.8355790  19.3196400  49.6756380
  14.1650970  29.4315020  51.0064420  13.6881530  30.2387210  50.8137030
  13.4812760  28.7793350  51.1590630   5.1683790  25.5964840  53.9949120
   4.2712320  25.8204810  54.2422520   5.1936660  25.7199780  53.0460520
  12.2089010  22.4457960  39.9090380  12.6482290  21.6080390  39.7628200
  12.9217430  23.0787360  39.9954520   3.9955010  22.4678160  52.5706490
   3.8562780  23.3400960  52.9393890   3.1136370  22.1250970  52.4254430
  10.3184390  27.3854030  43.8771620  10.7580300  28.1278360  43.4627010
  10.2571280  27.6280600  44.8010580   5.7935360  28.4099860  54.7791640
   5.7650790  28.8142810  53.9120070   5.6300330  27.4810220  54.6163240
  15.7906150  13.7000770  38.2231420  15.4778810  13.7927600  39.1230490
  16.5518620  14.2781800  38.1728850   2.3088290  21.0660570  42.6808760
   2.1885890  21.7922660  42.0690030   1.9989180  20.2963480  42.2036670
  17.7450180  29.1926960  56.0755810  18.2209900  29.6709850  56.7544890
  18.3657340  29.1244450  55.3501310  17.1483430  26.3839810  53.2355820
  17.2746490  26.1451690  52.3173000  17.1904810  25.5524350  53.7077900
  11.0100170  30.0867810  51.8050630  11.5244840  29.9975820  52.6073060
  10.1669250  30.4327510  52.0978540  12.9854570  30.3723150  41.2334630
  12.8255710  30.0826090  42.1316460  12.8201280  29.5963280  40.6979860
   5.4642950  30.1521680  43.0106250   5.2885430  29.2357220  42.7974050
   4.6098690  30.5108970  43.2504050  12.6880700  27.8810710  39.7932630
  11.9945860  27.8788000  39.1334910  13.4303560  27.4570030  39.3626800
  12.2530630  29.5073420  43.8681120  12.7087580  28.7262800  44.1819740
  12.5923150  30.2180240  44.4122300  17.0007440  18.4372270  54.2005560
  16.3851710  18.9451940  53.6721020  16.6803860  17.5370600  54.1431500
   4.7751950  14.4095640  46.0632430   4.3320100  15.1905180  45.7316950
   5.3336940  14.7325530  46.7703370   9.0621760  17.2764160  51.6667750
   8.6001130  17.4847180  52.4787690   8.6599870  16.4623510  51.3638420
  14.0626270  18.4973110  52.7964410  13.2119860  18.1978860  53.1173480
  13.9028060  18.7415120  51.8848230  11.1575980  19.9974860  54.8963200
  11.4829390  19.1638610  54.5565430  11.9456310  20.5203380  55.0441530
   7.8910770  14.0306340  40.9438260   7.2664950  14.0266210  41.6691570
   7.8040890  13.1637300  40.5474230   6.8127850  14.9542970  47.9222030
   7.1100180  15.8605800  47.8414050   7.3613410  14.4661750  47.3081600
   4.5666170  19.5329210  43.7913680   4.3407090  19.3166380  44.6960300
   3.7858700  19.9657670  43.4459650  11.7963930  19.5392580  42.3904330
  11.1972820  20.2628380  42.2067950  12.3443540  19.4769360  41.6080780
   7.0065380  20.4314790  54.4573950   6.9108980  19.4909520  54.3074350
   7.8497360  20.6529860  54.0622020  10.4028800  18.1756120  44.4207610
  10.7958370  18.4928320  43.6076300  10.7645650  17.2968000  44.5352130
   8.7120970  16.9263430  55.6804470   8.0219290  16.7335630  56.3150560
   9.4553270  17.2098070  56.2128770  10.9883940  20.7661870  48.5158390
  10.2565060  21.2748680  48.8648490  10.5908280  19.9491850  48.2147170
   7.4261330  17.4416070  46.9210880   7.4297390  17.0006020  46.0715420
   8.3212450  17.7633400  47.0282700   3.2763710  17.3242560  45.8805090
   2.9363760  17.8017790  46.6372140   2.5141030  16.8707680  45.5206190
   7.4881480  18.4428150  39.9117640   7.6094300  18.4014630  40.8603460
   7.1029990  19.3052300  39.7564370  11.4509850  16.2195550  47.9281330
  11.4682590  16.6704200  48.7723180  11.2025430  15.3201190  48.1414770
   6.5002980  20.7529290  39.3100940   5.9319880  20.3047540  38.6836850
   7.2091980  21.1122070  38.7766090  14.8780600  13.6327730  53.7667710
  15.2026370  12.9017390  54.2925690  14.9137110  13.3141370  52.8648700
   7.7269300  21.5017850  48.6676290   8.0939430  21.0276420  49.4137630
   7.5374360  22.3759420  49.0084630   5.5168670  20.5426490  50.9860500
   5.2125740  21.4218470  51.2110860   6.4715130  20.6026280  51.0217940
   4.0450460  24.7487480  41.5827350   3.2712720  24.2085100  41.4226070
   4.7745090  24.2294090  41.2445110  14.8038440  23.7452840  47.3753740
  15.5237560  24.2408130  46.9849850  14.6020260  23.0670730  46.7307610
  10.2648380  15.1390800  41.5183130   9.4512990  14.6403970  41.4428440
  10.0710330  15.9789050  41.1019480  10.1857240  23.8161900  53.2622740
  10.1194550  22.8957570  53.0080330   9.5562380  23.9137340  53.9767380
  12.9796770  19.5110450  39.8145290  13.8676390  19.8227680  39.6396630
  12.9501860  18.6382700  39.4225870   4.0887860  24.4167860  45.2206160
   4.6066530  23.6136120  45.1663050   3.6371880  24.3547000  46.0622990
   8.9757360  25.6834140  40.4933460   9.3173060  26.4276370  39.9976780
   8.1470070  25.9965260  40.8558290   4.7745520  21.8413470  55.0171410
   4.4745660  21.9870650  54.1199230   5.5456760  21.2818760  54.9244800
  10.1173970  26.6382470  53.0126540  10.1318510  25.7063430  52.7945450
   9.4099070  26.7242230  53.6516310  15.2511040  20.8222290  39.2825150
  15.1674760  21.2536510  38.4321590  15.9705230  21.2820640  39.7151970
  16.3285180  23.2789810  52.3595120  15.6033370  23.8718590  52.1624510
  16.8560640  23.2713350  51.5608490  16.2798290  27.6764550  42.0107280
  15.6374450  27.0220170  42.2851000  15.8928950  28.0819640  41.2347950
  11.8584770  25.0049980  45.8578970  12.2108590  24.4078110  45.1980340
  10.9747100  24.6794210  46.0287220   7.9448050  25.7647670  43.2649380
   8.6319180  26.3116880  43.6456970   7.1580470  26.3088400  43.2998990
   7.2475260  22.7693700  42.8774740   7.7038040  23.5798950  43.1034930
   6.8963470  22.4516840  43.7093230   9.5507870  28.2800040  50.1067040
  10.1950090  28.4859420  50.7840460   9.9137310  27.5188440  49.6537890
   3.1487040  13.1131350  43.3497260   3.0201670  13.1049250  44.2982180
   2.3249060  13.4514440  42.9988270  10.8239950  26.2832390  48.8244490
  11.4662180  25.5825550  48.9376660  11.3489300  27.0630830  48.6441380
  14.6695670  26.5681010  38.5483630  14.4433250  25.8511450  39.1408270
  14.2791870  26.3193450  37.7105380  12.5977570  27.0827290  52.0280550
  12.9333810  27.6693980  52.7058470  11.6777910  26.9520000  52.2578340
  14.2511920  24.4852950  40.2097790  13.9633620  24.9465640  40.9975670
  15.0464090  24.0250720  40.4782010   8.4266150  27.1318620  55.1968610
   8.1063020  26.4127860  55.7414300   7.7524510  27.8073690  55.2704670
   6.4680320  27.9779070  40.1401760   6.4590420  28.7108760  39.5246270
   5.5478680  27.7310650  40.2328720  11.6419750  17.3644780  50.5605410
  12.0100570  16.5439990  50.8884980  10.7817950  17.4246670  50.9761060
  15.0081780  16.3201720  41.3692970  14.3794940  16.4247390  40.6551200
  14.5133700  16.5398500  42.1586850   9.4539920  28.0407310  38.8026950
   9.5551900  27.8371300  37.8728930   8.5541660  27.7865590  39.0074730
   6.9765810  18.5987670  42.7850850   6.2681960  19.0674010  43.2264460
   7.2610290  17.9409680  43.4196040   8.6021740  20.0184370  50.7843380
   9.1006990  20.4930190  51.4495230   8.7444690  19.0947890  50.9913410
  11.0081240  15.3238330  44.2246640  10.8849020  15.3424460  43.2756150
  11.9565800  15.3717270  44.3445040   8.0958030  30.5593630  43.4974620
   8.3499530  30.5215020  42.5753990   7.1470510  30.4326960  43.4902870
   5.1800830  16.9072750  40.1601560   6.0291360  17.3442900  40.0941750
   4.8132100  17.2193010  40.9873620  15.8088600  16.2352330  51.6271770
  15.3062200  16.9757730  51.9665580  16.6245260  16.6236330  51.3108560
  14.1010610  21.4785510  45.0733130  13.1600750  21.4935740  45.2480820
  14.4154680  20.6921470  45.5193430   4.0792250  23.1605110  38.6337090
   4.8455520  23.0486470  39.1962520   4.1566940  22.4643080  37.9813860
   2.7739010  20.5930180  39.3169980   2.8542600  19.6457690  39.4287380
   3.6658760  20.9237060  39.4230640  16.1036190  28.6494360  46.7487390
  16.2283610  29.4725530  47.2211200  16.9701750  28.4385090  46.4011540
   3.5753720  30.7425570  46.4204520   4.3116200  30.1941030  46.6913090
   3.9594640  31.6081580  46.2810510   2.5812000  29.9271640  55.6090100
   3.3824730  30.2483690  56.0225500   2.0663820  29.5667220  56.3310010
   6.6856030  29.9155880  38.2430090   7.4784640  30.2044710  37.7911880
   6.1660380  29.4848050  37.5642570  11.4176630  26.0351510  55.5565510
  10.8114790  26.0583110  54.8161260  11.1130740  25.3034550  56.0932760
  12.8477000  29.7631800  54.1674920  13.7998750  29.6789820  54.1175160
  12.7005220  30.4273510  54.8408710  15.7386200  29.1426010  39.6666830
  15.4527710  28.7291150  38.8521010  15.5405750  30.0713720  39.5467350
   7.2033430  25.1359290  38.1072440   7.0984070  24.5211640  38.8333820
   7.0357650  24.6125180  37.3235450   7.3547750  23.8216090  54.0861670
   6.5893420  24.3901090  54.0016340   7.5363710  23.5292300  53.1929900
  10.4436160  24.1979320  38.7114430   9.8946260  24.6448620  39.3557170
  11.0655420  23.6928570  39.2352100  14.4971100  25.5521420  54.6436690
  15.2380570  25.8897180  54.1404150  13.7343780  25.7213480  54.0906460
   2.3332890  20.5574690  55.4476220   2.3738230  20.2588560  56.3561450
   3.1878390  20.9582300  55.2883740   6.1111280  23.1570240  40.6079730
   6.5327700  22.9910110  41.4511120   6.2362120  22.3470470  40.1134870
   4.2738700  19.1366790  53.4150710   3.7435160  18.6457740  52.7874050
   4.9426770  19.5650990  52.8808640   8.6238920  22.1807850  37.8556830
   9.1444580  21.4656870  37.4897980   9.2707320  22.8193720  38.1557340
  13.1716760  23.6036250  53.1791900  13.5857780  23.7581330  54.0282320
  12.2367760  23.7291470  53.3417680  13.6438930  20.9432410  55.1831050
  14.2259700  20.1884730  55.0951530  13.8200700  21.4739850  54.4062530
   4.7611000  16.1029160  53.4948000   4.6667870  15.4849910  52.7698870
   4.1808390  16.8295450  53.2677910   7.5272440  14.6602400  50.5275390
   7.0789740  14.6826660  49.6820940   6.8937640  14.2621420  51.1245690
   7.9331990  23.5556730  51.1487830   8.3520100  24.3989460  50.9764070
   7.0140620  23.6928770  50.9194610  10.2695890  21.2872910  52.5325670
  10.3892100  20.6914050  53.2720510  11.1289890  21.3242600  52.1126970
  12.6083790  21.8410100  51.1088180  12.0819010  22.3652720  50.5053320
  12.9515130  22.4737490  51.7397910   5.0070180  19.2303470  37.5537890
   4.8059240  18.3670830  37.9151230   4.8362230  19.1436830  36.6159490
   5.7839410  29.8609740  52.2645560   5.2460500  30.5855800  51.9454260
   6.0373370  29.3840080  51.4742900   7.0364660  17.8294260  53.7901490
   7.6264350  17.5210110  54.4779310   6.2184900  17.3574010  53.9461390
  11.8558090  17.4460070  54.0234510  11.1673610  16.7841610  53.9584500
  12.5764110  16.9998340  54.4682970  12.4858490  14.0411700  40.0824770
  12.7660780  13.1979600  40.4384190  11.7124220  14.2734810  40.5963520
   3.8052980  16.3304090  37.5415770   4.1078880  16.3371520  36.6334920
   4.5447570  15.9801950  38.0383430   8.6401620  31.0960950  52.5232210
   8.5660320  31.9996090  52.8304580   7.7380460  30.7772850  52.4954280
   7.0237910  15.2738710  38.5271970   6.6759910  14.5962700  37.9474420
   7.2250680  14.8128220  39.3415360   9.1886950  30.2619460  40.1458570
  10.0837740  30.6004430  40.1677330   9.2204580  29.5398870  39.5182850
   2.8283110  25.6346510  38.3745570   3.2657980  26.1776180  39.0303150
   3.3130840  24.8093460  38.3841910   4.6390830  26.7544550  43.4867800
   4.3386370  26.6309520  44.3871710   4.5328320  25.8953140  43.0783530
  16.1681300  28.7923130  52.8524770  15.5683290  28.8515690  52.1088690
  16.2975200  27.8528110  52.9821620  17.4082750  26.5340950  38.1894480
  16.5775710  26.6017600  38.6601710  17.5854580  27.4245070  37.8861340
  16.8639210  23.2788430  40.6928680  17.6258120  23.8485080  40.7988370
  16.8793580  22.7115630  41.4636990  17.8699180  24.1338530  45.5370610
  18.2408010  23.3505850  45.1306580  18.5101110  24.8227630  45.3587910
  14.8532940  25.5175110  50.9500930  14.0392780  25.9472270  51.2126720
  15.2607140  26.1293520  50.3369980  16.9158380  23.5722800  37.8501200
  17.1907220  24.4801680  37.7220420  16.7269120  23.5085330  38.7863190
  13.3133990  16.5967650  39.1454830  13.7318870  16.4098630  38.3051490
  13.0070050  15.7446700  39.4557760  16.8123720  21.5091790  42.8430630
  16.4367320  20.7419720  42.4111920  16.0826840  21.8914490  43.3305560
  16.2023340  20.6563310  52.4770150  15.9709430  20.4276060  51.5768100
  16.4627890  21.5762860  52.4315040  14.6411410  15.8819740  55.2549850
  15.5181590  15.8903140  55.6383850  14.6532250  15.1450580  54.6442200
  16.0874680  19.7349280  46.1437870  16.6112160  19.2411930  45.5128040
  16.6734100  19.8699640  46.8885440  16.2664400  19.8189150  49.6657420
  15.3167110  19.7852690  49.7802410  16.4477410  20.7289260  49.4307190
   1.7683000  14.1230160  37.8158700   2.4911130  14.6639100  38.1339920
   2.0407520  13.8493580  36.9400240  15.5774650  18.9922630  42.0830280
  16.0733770  18.7593500  42.8679160  15.3790720  18.1534470  41.6667920
  17.0061810  17.6283580  44.6167960  16.8961090  17.4739620  45.5550230
  17.7669400  17.1004520  44.3743370  15.3527530  13.5677710  51.0750960
  15.9899750  14.1811850  51.4410150  15.5002420  13.6038370  50.1300190
  17.8952080  15.4591500  37.8574100  18.8201390  15.3272680  37.6492390
  17.8727870  15.5384320  38.8110550  17.9690570  16.2302160  40.4830810
  17.1742070  16.1647280  41.0123720  18.1733850  17.1652800  40.4716160
  14.9108990  30.2693710  44.4769200  15.5068060  29.9478280  43.8003620
  15.1687140  29.7965530  45.2682470   2.8171560  26.7011620  54.6259830
   2.7741190  26.3304530  55.5074290   2.9482570  27.6389190  54.7661650
   6.5177590  28.2571210  50.2269550   6.2768950  28.5245770  49.3400070
   7.4580230  28.4276940  50.2820410   8.7232010  14.7203900  53.9826060
   8.6620900  15.3125730  54.7321470   9.6632390  14.6129860  53.8376320
  11.3606570  14.3773960  53.6218350  11.9746980  14.6953250  52.9599430
  11.9056130  13.8922550  54.2414210  17.7781750  30.2765590  51.0280190
  17.2840030  30.6734460  50.3107320  17.1695040  29.6514800  51.4217470
   1.8827830  13.0568220  53.7357410   2.4310820  12.8756270  52.9723520
   1.9483140  12.2662330  54.2713720   2.6559590  29.6473870  51.7457610
   2.0619910  29.5158570  52.4847650   2.6483430  28.8112010  51.2799710
  12.1014610  12.9406100  49.9487640  11.2274450  13.2741210  49.7460570
  11.9925360  12.4679280  50.7739510  13.0086590  15.1476970  51.3329360
  12.6799950  14.3328730  50.9531090  13.9568890  15.1046780  51.2095050
  15.4621200  30.9189010  48.3066930  15.0024170  31.6704820  47.9324950
  14.8333660  30.1995480  48.2481730   2.2871820  27.0132250  50.6965650
   1.5605880  26.3937540  50.6291600   2.3480970  27.4072860  49.8263730
   5.8916920  29.2277250  47.4815060   6.4081940  28.6164610  46.9563320
   6.5414300  29.7306030  47.9726070   8.6312420  30.1185740  48.3084040
   8.9190230  29.8640040  47.4317050   9.1435640  29.5663100  48.8989610
   9.8489430  13.8575940  48.8880550   9.0661220  14.3321440  49.1677310
   9.5552360  12.9530770  48.7793730  14.4010500  14.5599040  46.9329640
  14.8418590  14.5044140  46.0851240  14.1318090  15.4757050  47.0039820
  16.2649070  14.1914280  44.9438460  16.2037470  13.2475500  44.7969480
  17.0441100  14.2994370  45.4891920   7.7343650  16.2762690  44.3996580
   6.9218160  15.9019580  44.0592460   8.2385290  15.5207770  44.7017770
  12.2368630  12.9405140  45.6379650  12.8398000  13.5125350  46.1128170
  11.4961620  13.5044580  45.4153550  15.3803230  13.3426700  40.9119930
  15.5753860  14.2410150  41.1787360  14.5933100  13.1113780  41.4052880
   2.1764520  29.0239870  41.3512550   1.6512140  29.4047900  40.6474510
   2.1009100  29.6490640  42.0722260   3.5654990  14.6887470  39.9496240
   4.0947750  13.9017270  39.8204190   4.1983310  15.3678660  40.1831770
   5.7592830  14.4262610  43.0041630   5.1295570  13.7249920  43.1711760
   5.2197970  15.1866740  42.7874790   8.6984780  31.0401840  55.6752240
   9.6252090  30.8046110  55.7188200   8.6835210  31.8673840  55.1938270
  16.9329840  30.5827410  42.6726490  17.1082030  29.8965150  42.0287410
  16.2351410  31.1074460  42.2803160   5.8848390  13.7046590  55.4394120
   5.6032660  14.2080190  54.6754940   6.2668090  12.9068340  55.0736250
   4.7757490  30.9722250  40.2261800   5.5076310  30.6881530  39.6785690
   5.0351160  30.7335530  41.1161180   3.9372280  27.0886980  40.2308130
   3.3081160  27.5572080  40.7793960   4.0520110  26.2436200  40.6654320
  12.4863850  13.1200170  56.0174590  12.3729300  13.4394780  56.9126110
  13.3033590  13.5212680  55.7211870  15.2662340  30.2671700  55.4993280
  16.0587660  29.7720930  55.2919240  15.5595490  30.9461840  56.1068890
  11.3922000  21.1392640  26.3809330  11.3116050  20.2247250  26.1101040
  10.9786420  21.6359710  25.6749040   9.5240040  22.9171660  28.2618600
   8.7482140  22.4372100  28.5517170  10.1752970  22.2377310  28.0874760
   3.5405870  23.2291470  29.1394360   2.7090750  22.9740180  29.5390870
   4.1486850  23.3002240  29.8752280  13.5447470  27.3231850  27.0417730
  13.0829000  26.5519090  27.3704900  14.3573020  27.3497920  27.5470180
   3.5207130  27.2631560  29.3352380   3.8235170  26.3729300  29.1562600
   4.2650720  27.8201780  29.1074630   9.7710780  29.6089860  26.6621720
   9.1522220  30.0647360  26.0916160  10.6262560  29.7641320  26.2611420
   8.9649030  25.5928850  28.2688760   8.8957310  24.6518790  28.1077890
   9.7268890  25.6830260  28.8411330   9.9954200  18.3999230  28.4957690
  10.3719020  17.5271110  28.3831360   9.8973710  18.7357930  27.6048130
   4.1259210  16.7724860  23.9575130   4.2325960  17.6728590  24.2643890
   3.2151570  16.7242830  23.6669780  13.7778320  15.8949670  25.4286030
  14.5987940  15.4046240  25.4711510  13.8112400  16.4847330  26.1817870
   5.9666940  19.7411230  28.2900310   6.4745160  20.2392200  28.9305330
   6.4980180  18.9646430  28.1139670  18.0677870  17.9116420  31.9929660
  17.3630040  18.2998130  31.4744770  18.3335790  18.6066710  32.5950590
   4.2503040  14.3809790  32.5563730   4.2521480  14.8982180  31.7509630
   3.4207350  13.9039970  32.5333660  10.6374130  24.4929100  24.0553630
  10.0191400  24.9578550  23.4916350  11.1497380  25.1856580  24.4723140
   5.5005890  24.0204970  30.7337230   5.1675270  24.6473890  31.3758300
   5.6772570  24.5466850  29.9538900  14.0139800  17.8350050  28.2013570
  13.3095370  18.1234940  28.7816680  14.3751960  18.6450160  27.8413130
   3.9318370  16.0919750  30.5634180   4.2735180  16.9361800  30.2688050
   2.9934180  16.2403490  30.6799520   4.7124990  25.9885770  32.5486410
   5.3298990  26.6636850  32.2670860   3.8518110  26.3973750  32.4573910
  15.6302580  27.4525180  30.4641050  14.9466100  28.1224290  30.4557720
  16.1696870  27.6505830  29.6985910  17.0826720  17.2804840  28.5922780
  16.1351630  17.3143820  28.7238210  17.4076710  18.0943790  28.9772140
   7.6146260  13.5802020  26.8878770   7.9221240  13.0248910  26.1714270
   6.6846960  13.7146480  26.7051760  13.1661320  29.2969310  29.1786230
  13.1788480  28.8931600  28.3108490  12.6136540  30.0716600  29.0747660
  14.4606740  26.0185530  24.2676400  14.3503070  25.0759860  24.3925820
  14.4574990  26.3801170  25.1539160  12.5646760  24.1999150  30.5068840
  12.9815550  23.9859260  29.6722300  13.2886580  24.4571940  31.0777460
  10.0027020  21.6450850  23.6238890   9.0756300  21.5788230  23.8527360
  10.1551840  22.5830980  23.5094130   9.9896100  17.9167850  20.6206050
   9.0499770  18.0781810  20.7058510  10.3079360  18.6353530  20.0742040
  16.5108860  22.5986370  30.5985080  15.6827490  22.6679460  30.1235210
  17.1059340  23.1840680  30.1300910  14.0324310  23.2071150  24.1274140
  13.4136730  22.8690700  23.4800440  14.0148760  22.5630910  24.8353330
  13.4750870  19.3855690  31.5439950  13.0622050  20.2109400  31.7979940
  12.7426820  18.8000730  31.3516310   5.6083660  22.1715590  26.4058620
   5.2040660  21.4592840  25.9104520   5.6946780  21.8268830  27.2946660
   6.0765360  25.8583150  28.5697830   5.7793650  25.2528620  27.8905610
   7.0265180  25.8960460  28.4587190   4.3212280  18.9458800  30.1857660
   4.8726870  19.0554140  29.4110910   4.8355790  19.3196400  30.9012890
  14.1650970  29.4315020  32.2320930  13.6881530  30.2387210  32.0393540
  13.4812760  28.7793350  32.3847140   5.1683790  25.5964840  35.2205630
   4.2712320  25.8204810  35.4679030   5.1936660  25.7199780  34.2717030
  12.2089010  22.4457960  21.1346890  12.6482290  21.6080390  20.9884710
  12.9217430  23.0787360  21.2211030   3.9955010  22.4678160  33.7963000
   3.8562780  23.3400960  34.1650400   3.1136370  22.1250970  33.6510940
  10.3184390  27.3854030  25.1028130  10.7580300  28.1278360  24.6883520
  10.2571280  27.6280600  26.0267090   5.7935360  28.4099860  36.0048150
   5.7650790  28.8142810  35.1376580   5.6300330  27.4810220  35.8419750
  15.7906150  13.7000770  19.4487930  15.4778810  13.7927600  20.3487000
  16.5518620  14.2781800  19.3985360   2.3088290  21.0660570  23.9065270
   2.1885890  21.7922660  23.2946540   1.9989180  20.2963480  23.4293180
  17.7450180  29.1926960  37.3012320  18.2209900  29.6709850  37.9801400
  18.3657340  29.1244450  36.5757820  17.1483430  26.3839810  34.4612330
  17.2746490  26.1451690  33.5429510  17.1904810  25.5524350  34.9334410
  11.0100170  30.0867810  33.0307140  11.5244840  29.9975820  33.8329570
  10.1669250  30.4327510  33.3235050  12.9854570  30.3723150  22.4591140
  12.8255710  30.0826090  23.3572970  12.8201280  29.5963280  21.9236370
   5.4642950  30.1521680  24.2362760   5.2885430  29.2357220  24.0230560
   4.6098690  30.5108970  24.4760560  12.6880700  27.8810710  21.0189140
  11.9945860  27.8788000  20.3591420  13.4303560  27.4570030  20.5883310
  12.2530630  29.5073420  25.0937630  12.7087580  28.7262800  25.4076250
  12.5923150  30.2180240  25.6378810  17.0007440  18.4372270  35.4262070
  16.3851710  18.9451940  34.8977530  16.6803860  17.5370600  35.3688010
   4.7751950  14.4095640  27.2888940   4.3320100  15.1905180  26.9573460
   5.3336940  14.7325530  27.9959880   9.0621760  17.2764160  32.8924260
   8.6001130  17.4847180  33.7044200   8.6599870  16.4623510  32.5894930
  14.0626270  18.4973110  34.0220920  13.2119860  18.1978860  34.3429990
  13.9028060  18.7415120  33.1104740  11.1575980  19.9974860  36.1219710
  11.4829390  19.1638610  35.7821940  11.9456310  20.5203380  36.2698040
   7.8910770  14.0306340  22.1694770   7.2664950  14.0266210  22.8948080
   7.8040890  13.1637300  21.7730740   6.8127850  14.9542970  29.1478540
   7.1100180  15.8605800  29.0670560   7.3613410  14.4661750  28.5338110
   4.5666170  19.5329210  25.0170190   4.3407090  19.3166380  25.9216810
   3.7858700  19.9657670  24.6716160  11.7963930  19.5392580  23.6160840
  11.1972820  20.2628380  23.4324460  12.3443540  19.4769360  22.8337290
   7.0065380  20.4314790  35.6830460   6.9108980  19.4909520  35.5330860
   7.8497360  20.6529860  35.2878530  10.4028800  18.1756120  25.6464120
  10.7958370  18.4928320  24.8332810  10.7645650  17.2968000  25.7608640
   8.7120970  16.9263430  36.9060980   8.0219290  16.7335630  37.5407070
   9.4553270  17.2098070  37.4385280  10.9883940  20.7661870  29.7414900
  10.2565060  21.2748680  30.0905000  10.5908280  19.9491850  29.4403680
   7.4261330  17.4416070  28.1467390   7.4297390  17.0006020  27.2971930
   8.3212450  17.7633400  28.2539210   3.2763710  17.3242560  27.1061600
   2.9363760  17.8017790  27.8628650   2.5141030  16.8707680  26.7462700
   7.4881480  18.4428150  21.1374150   7.6094300  18.4014630  22.0859970
   7.1029990  19.3052300  20.9820880  11.4509850  16.2195550  29.1537840
  11.4682590  16.6704200  29.9979690  11.2025430  15.3201190  29.3671280
   6.5002980  20.7529290  20.5357450   5.9319880  20.3047540  19.9093360
   7.2091980  21.1122070  20.0022600  14.8780600  13.6327730  34.9924220
  15.2026370  12.9017390  35.5182200  14.9137110  13.3141370  34.0905210
   7.7269300  21.5017850  29.8932800   8.0939430  21.0276420  30.6394140
   7.5374360  22.3759420  30.2341140   5.5168670  20.5426490  32.2117010
   5.2125740  21.4218470  32.4367370   6.4715130  20.6026280  32.2474450
   4.0450460  24.7487480  22.8083860   3.2712720  24.2085100  22.6482580
   4.7745090  24.2294090  22.4701620  14.8038440  23.7452840  28.6010250
  15.5237560  24.2408130  28.2106360  14.6020260  23.0670730  27.9564120
  10.2648380  15.1390800  22.7439640   9.4512990  14.6403970  22.6684950
  10.0710330  15.9789050  22.3275990  10.1857240  23.8161900  34.4879250
  10.1194550  22.8957570  34.2336840   9.5562380  23.9137340  35.2023890
  12.9796770  19.5110450  21.0401800  13.8676390  19.8227680  20.8653140
  12.9501860  18.6382700  20.6482380   4.0887860  24.4167860  26.4462670
   4.6066530  23.6136120  26.3919560   3.6371880  24.3547000  27.2879500
   8.9757360  25.6834140  21.7189970   9.3173060  26.4276370  21.2233290
   8.1470070  25.9965260  22.0814800   4.7745520  21.8413470  36.2427920
   4.4745660  21.9870650  35.3455740   5.5456760  21.2818760  36.1501310
  10.1173970  26.6382470  34.2383050  10.1318510  25.7063430  34.0201960
   9.4099070  26.7242230  34.8772820  15.2511040  20.8222290  20.5081660
  15.1674760  21.2536510  19.6578100  15.9705230  21.2820640  20.9408480
  16.3285180  23.2789810  33.5851630  15.6033370  23.8718590  33.3881020
  16.8560640  23.2713350  32.7865000  16.2798290  27.6764550  23.2363790
  15.6374450  27.0220170  23.5107510  15.8928950  28.0819640  22.4604460
  11.8584770  25.0049980  27.0835480  12.2108590  24.4078110  26.4236850
  10.9747100  24.6794210  27.2543730   7.9448050  25.7647670  24.4905890
   8.6319180  26.3116880  24.8713480   7.1580470  26.3088400  24.5255500
   7.2475260  22.7693700  24.1031250   7.7038040  23.5798950  24.3291440
   6.8963470  22.4516840  24.9349740   9.5507870  28.2800040  31.3323550
  10.1950090  28.4859420  32.0096970   9.9137310  27.5188440  30.8794400
   3.1487040  13.1131350  24.5753770   3.0201670  13.1049250  25.5238690
   2.3249060  13.4514440  24.2244780  10.8239950  26.2832390  30.0501000
  11.4662180  25.5825550  30.1633170  11.3489300  27.0630830  29.8697890
  14.6695670  26.5681010  19.7740140  14.4433250  25.8511450  20.3664780
  14.2791870  26.3193450  18.9361890  12.5977570  27.0827290  33.2537060
  12.9333810  27.6693980  33.9314980  11.6777910  26.9520000  33.4834850
  14.2511920  24.4852950  21.4354300  13.9633620  24.9465640  22.2232180
  15.0464090  24.0250720  21.7038520   8.4266150  27.1318620  36.4225120
   8.1063020  26.4127860  36.9670810   7.7524510  27.8073690  36.4961180
   6.4680320  27.9779070  21.3658270   6.4590420  28.7108760  20.7502780
   5.5478680  27.7310650  21.4585230  11.6419750  17.3644780  31.7861920
  12.0100570  16.5439990  32.1141490  10.7817950  17.4246670  32.2017570
  15.0081780  16.3201720  22.5949480  14.3794940  16.4247390  21.8807710
  14.5133700  16.5398500  23.3843360   9.4539920  28.0407310  20.0283460
   9.5551900  27.8371300  19.0985440   8.5541660  27.7865590  20.2331240
   6.9765810  18.5987670  24.0107360   6.2681960  19.0674010  24.4520970
   7.2610290  17.9409680  24.6452550   8.6021740  20.0184370  32.0099890
   9.1006990  20.4930190  32.6751740   8.7444690  19.0947890  32.2169920
  11.0081240  15.3238330  25.4503150  10.8849020  15.3424460  24.5012660
  11.9565800  15.3717270  25.5701550   8.0958030  30.5593630  24.7231130
   8.3499530  30.5215020  23.8010500   7.1470510  30.4326960  24.7159380
   5.1800830  16.9072750  21.3858070   6.0291360  17.3442900  21.3198260
   4.8132100  17.2193010  22.2130130  15.8088600  16.2352330  32.8528280
  15.3062200  16.9757730  33.1922090  16.6245260  16.6236330  32.5365070
  14.1010610  21.4785510  26.2989640  13.1600750  21.4935740  26.4737330
  14.4154680  20.6921470  26.7449940   4.0792250  23.1605110  19.8593600
   4.8455520  23.0486470  20.4219030   4.1566940  22.4643080  19.2070370
   2.7739010  20.5930180  20.5426490   2.8542600  19.6457690  20.6543890
   3.6658760  20.9237060  20.6487150  16.1036190  28.6494360  27.9743900
  16.2283610  29.4725530  28.4467710  16.9701750  28.4385090  27.6268050
   3.5753720  30.7425570  27.6461030   4.3116200  30.1941030  27.9169600
   3.9594640  31.6081580  27.5067020   2.5812000  29.9271640  36.8346610
   3.3824730  30.2483690  37.2482010   2.0663820  29.5667220  37.5566520
   6.6856030  29.9155880  19.4686600   7.4784640  30.2044710  19.0168390
   6.1660380  29.4848050  18.7899080  11.4176630  26.0351510  36.7822020
  10.8114790  26.0583110  36.0417770  11.1130740  25.3034550  37.3189270
  12.8477000  29.7631800  35.3931430  13.7998750  29.6789820  35.3431670
  12.7005220  30.4273510  36.0665220  15.7386200  29.1426010  20.8923340
  15.4527710  28.7291150  20.0777520  15.5405750  30.0713720  20.7723860
   7.2033430  25.1359290  19.3328950   7.0984070  24.5211640  20.0590330
   7.0357650  24.6125180  18.5491960   7.3547750  23.8216090  35.3118180
   6.5893420  24.3901090  35.2272850   7.5363710  23.5292300  34.4186410
  10.4436160  24.1979320  19.9370940   9.8946260  24.6448620  20.5813680
  11.0655420  23.6928570  20.4608610  14.4971100  25.5521420  35.8693200
  15.2380570  25.8897180  35.3660660  13.7343780  25.7213480  35.3162970
   2.3332890  20.5574690  36.6732730   2.3738230  20.2588560  37.5817960
   3.1878390  20.9582300  36.5140250   6.1111280  23.1570240  21.8336240
   6.5327700  22.9910110  22.6767630   6.2362120  22.3470470  21.3391380
   4.2738700  19.1366790  34.6407220   3.7435160  18.6457740  34.0130560
   4.9426770  19.5650990  34.1065150   8.6238920  22.1807850  19.0813340
   9.1444580  21.4656870  18.7154490   9.2707320  22.8193720  19.3813850
  13.1716760  23.6036250  34.4048410  13.5857780  23.7581330  35.2538830
  12.2367760  23.7291470  34.5674190  13.6438930  20.9432410  36.4087560
  14.2259700  20.1884730  36.3208040  13.8200700  21.4739850  35.6319040
   4.7611000  16.1029160  34.7204510   4.6667870  15.4849910  33.9955380
   4.1808390  16.8295450  34.4934420   7.5272440  14.6602400  31.7531900
   7.0789740  14.6826660  30.9077450   6.8937640  14.2621420  32.3502200
   7.9331990  23.5556730  32.3744340   8.3520100  24.3989460  32.2020580
   7.0140620  23.6928770  32.1451120  10.2695890  21.2872910  33.7582180
  10.3892100  20.6914050  34.4977020  11.1289890  21.3242600  33.3383480
  12.6083790  21.8410100  32.3344690  12.0819010  22.3652720  31.7309830
  12.9515130  22.4737490  32.9654420   5.0070180  19.2303470  18.7794400
   4.8059240  18.3670830  19.1407740   4.8362230  19.1436830  17.8416000
   5.7839410  29.8609740  33.4902070   5.2460500  30.5855800  33.1710770
   6.0373370  29.3840080  32.6999410   7.0364660  17.8294260  35.0158000
   7.6264350  17.5210110  35.7035820   6.2184900  17.3574010  35.1717900
  11.8558090  17.4460070  35.2491020  11.1673610  16.7841610  35.1841010
  12.5764110  16.9998340  35.6939480  12.4858490  14.0411700  21.3081280
  12.7660780  13.1979600  21.6640700  11.7124220  14.2734810  21.8220030
   3.8052980  16.3304090  18.7672280   4.1078880  16.3371520  17.8591430
   4.5447570  15.9801950  19.2639940   8.6401620  31.0960950  33.7488720
   8.5660320  31.9996090  34.0561090   7.7380460  30.7772850  33.7210790
   7.0237910  15.2738710  19.7528480   6.6759910  14.5962700  19.1730930
   7.2250680  14.8128220  20.5671870   9.1886950  30.2619460  21.3715080
  10.0837740  30.6004430  21.3933840   9.2204580  29.5398870  20.7439360
   2.8283110  25.6346510  19.6002080   3.2657980  26.1776180  20.2559660
   3.3130840  24.8093460  19.6098420   4.6390830  26.7544550  24.7124310
   4.3386370  26.6309520  25.6128220   4.5328320  25.8953140  24.3040040
  16.1681300  28.7923130  34.0781280  15.5683290  28.8515690  33.3345200
  16.2975200  27.8528110  34.2078130  17.4082750  26.5340950  19.4150990
  16.5775710  26.6017600  19.8858220  17.5854580  27.4245070  19.1117850
  16.8639210  23.2788430  21.9185190  17.6258120  23.8485080  22.0244880
  16.8793580  22.7115630  22.6893500  17.8699180  24.1338530  26.7627120
  18.2408010  23.3505850  26.3563090  18.5101110  24.8227630  26.5844420
  14.8532940  25.5175110  32.1757440  14.0392780  25.9472270  32.4383230
  15.2607140  26.1293520  31.5626490  16.9158380  23.5722800  19.0757710
  17.1907220  24.4801680  18.9476930  16.7269120  23.5085330  20.0119700
  13.3133990  16.5967650  20.3711340  13.7318870  16.4098630  19.5308000
  13.0070050  15.7446700  20.6814270  16.8123720  21.5091790  24.0687140
  16.4367320  20.7419720  23.6368430  16.0826840  21.8914490  24.5562070
  16.2023340  20.6563310  33.7026660  15.9709430  20.4276060  32.8024610
  16.4627890  21.5762860  33.6571550  14.6411410  15.8819740  36.4806360
  15.5181590  15.8903140  36.8640360  14.6532250  15.1450580  35.8698710
  16.0874680  19.7349280  27.3694380  16.6112160  19.2411930  26.7384550
  16.6734100  19.8699640  28.1141950  16.2664400  19.8189150  30.8913930
  15.3167110  19.7852690  31.0058920  16.4477410  20.7289260  30.6563700
   1.7683000  14.1230160  19.0415210   2.4911130  14.6639100  19.3596430
   2.0407520  13.8493580  18.1656750  15.5774650  18.9922630  23.3086790
  16.0733770  18.7593500  24.0935670  15.3790720  18.1534470  22.8924430
  17.0061810  17.6283580  25.8424470  16.8961090  17.4739620  26.7806740
  17.7669400  17.1004520  25.5999880  15.3527530  13.5677710  32.3007470
  15.9899750  14.1811850  32.6666660  15.5002420  13.6038370  31.3556700
  17.8952080  15.4591500  19.0830610  18.8201390  15.3272680  18.8748900
  17.8727870  15.5384320  20.0367060  17.9690570  16.2302160  21.7087320
  17.1742070  16.1647280  22.2380230  18.1733850  17.1652800  21.6972670
  14.9108990  30.2693710  25.7025710  15.5068060  29.9478280  25.0260130
  15.1687140  29.7965530  26.4938980   2.8171560  26.7011620  35.8516340
   2.7741190  26.3304530  36.7330800   2.9482570  27.6389190  35.9918160
   6.5177590  28.2571210  31.4526060   6.2768950  28.5245770  30.5656580
   7.4580230  28.4276940  31.5076920   8.7232010  14.7203900  35.2082570
   8.6620900  15.3125730  35.9577980   9.6632390  14.6129860  35.0632830
  11.3606570  14.3773960  34.8474860  11.9746980  14.6953250  34.1855940
  11.9056130  13.8922550  35.4670720  17.7781750  30.2765590  32.2536700
  17.2840030  30.6734460  31.5363830  17.1695040  29.6514800  32.6473980
   1.8827830  13.0568220  34.9613920   2.4310820  12.8756270  34.1980030
   1.9483140  12.2662330  35.4970230   2.6559590  29.6473870  32.9714120
   2.0619910  29.5158570  33.7104160   2.6483430  28.8112010  32.5056220
  12.1014610  12.9406100  31.1744150  11.2274450  13.2741210  30.9717080
  11.9925360  12.4679280  31.9996020  13.0086590  15.1476970  32.5585870
  12.6799950  14.3328730  32.1787600  13.9568890  15.1046780  32.4351560
  15.4621200  30.9189010  29.5323440  15.0024170  31.6704820  29.1581460
  14.8333660  30.1995480  29.4738240   2.2871820  27.0132250  31.9222160
   1.5605880  26.3937540  31.8548110   2.3480970  27.4072860  31.0520240
   5.8916920  29.2277250  28.7071570   6.4081940  28.6164610  28.1819830
   6.5414300  29.7306030  29.1982580   8.6312420  30.1185740  29.5340550
   8.9190230  29.8640040  28.6573560   9.1435640  29.5663100  30.1246120
   9.8489430  13.8575940  30.1137060   9.0661220  14.3321440  30.3933820
   9.5552360  12.9530770  30.0050240  14.4010500  14.5599040  28.1586150
  14.8418590  14.5044140  27.3107750  14.1318090  15.4757050  28.2296330
  16.2649070  14.1914280  26.1694970  16.2037470  13.2475500  26.0225990
  17.0441100  14.2994370  26.7148430   7.7343650  16.2762690  25.6253090
   6.9218160  15.9019580  25.2848970   8.2385290  15.5207770  25.9274280
  12.2368630  12.9405140  26.8636160  12.8398000  13.5125350  27.3384680
  11.4961620  13.5044580  26.6410060  15.3803230  13.3426700  22.1376440
  15.5753860  14.2410150  22.4043870  14.5933100  13.1113780  22.6309390
   2.1764520  29.0239870  22.5769060   1.6512140  29.4047900  21.8731020
   2.1009100  29.6490640  23.2978770   3.5654990  14.6887470  21.1752750
   4.0947750  13.9017270  21.0460700   4.1983310  15.3678660  21.4088280
   5.7592830  14.4262610  24.2298140   5.1295570  13.7249920  24.3968270
   5.2197970  15.1866740  24.0131300   8.6984780  31.0401840  36.9008750
   9.6252090  30.8046110  36.9444710   8.6835210  31.8673840  36.4194780
  16.9329840  30.5827410  23.8983000  17.1082030  29.8965150  23.2543920
  16.2351410  31.1074460  23.5059670   5.8848390  13.7046590  36.6650630
   5.6032660  14.2080190  35.9011450   6.2668090  12.9068340  36.2992760
   4.7757490  30.9722250  21.4518310   5.5076310  30.6881530  20.9042200
   5.0351160  30.7335530  22.3417690   3.9372280  27.0886980  21.4564640
   3.3081160  27.5572080  22.0050470   4.0520110  26.2436200  21.8910830
  12.4863850  13.1200170  37.2431100  12.3729300  13.4394780  38.1382620
  13.3033590  13.5212680  36.9468380  15.2662340  30.2671700  36.7249790
  16.0587660  29.7720930  36.5175750  15.5595490  30.9461840  37.3325400
  11.3922000  21.1392640   7.6065840  11.3116050  20.2247250   7.3357550
  10.9786420  21.6359710   6.9005550   9.5240040  22.9171660   9.4875110
   8.7482140  22.4372100   9.7773680  10.1752970  22.2377310   9.3131270
   3.5405870  23.2291470  10.3650870   2.7090750  22.9740180  10.7647380
   4.1486850  23.3002240  11.1008790  13.5447470  27.3231850   8.2674240
  13.0829000  26.5519090   8.5961410  14.3573020  27.3497920   8.7726690
   3.5207130  27.2631560  10.5608890   3.8235170  26.3729300  10.3819110
   4.2650720  27.8201780  10.3331140   9.7710780  29.6089860   7.8878230
   9.1522220  30.0647360   7.3172670  10.6262560  29.7641320   7.4867930
   8.9649030  25.5928850   9.4945270   8.8957310  24.6518790   9.3334400
   9.7268890  25.6830260  10.0667840   9.9954200  18.3999230   9.7214200
  10.3719020  17.5271110   9.6087870   9.8973710  18.7357930   8.8304640
   4.1259210  16.7724860   5.1831640   4.2325960  17.6728590   5.4900400
   3.2151570  16.7242830   4.8926290  13.7778320  15.8949670   6.6542540
  14.5987940  15.4046240   6.6968020  13.8112400  16.4847330   7.4074380
   5.9666940  19.7411230   9.5156820   6.4745160  20.2392200  10.1561840
   6.4980180  18.9646430   9.3396180  18.0677870  17.9116420  13.2186170
  17.3630040  18.2998130  12.7001280  18.3335790  18.6066710  13.8207100
   4.2503040  14.3809790  13.7820240   4.2521480  14.8982180  12.9766140
   3.4207350  13.9039970  13.7590170  10.6374130  24.4929100   5.2810140
  10.0191400  24.9578550   4.7172860  11.1497380  25.1856580   5.6979650
   5.5005890  24.0204970  11.9593740   5.1675270  24.6473890  12.6014810
   5.6772570  24.5466850  11.1795410  14.0139800  17.8350050   9.4270080
  13.3095370  18.1234940  10.0073190  14.3751960  18.6450160   9.0669640
   3.9318370  16.0919750  11.7890690   4.2735180  16.9361800  11.4944560
   2.9934180  16.2403490  11.9056030   4.7124990  25.9885770  13.7742920
   5.3298990  26.6636850  13.4927370   3.8518110  26.3973750  13.6830420
  15.6302580  27.4525180  11.6897560  14.9466100  28.1224290  11.6814230
  16.1696870  27.6505830  10.9242420  17.0826720  17.2804840   9.8179290
  16.1351630  17.3143820   9.9494720  17.4076710  18.0943790  10.2028650
   7.6146260  13.5802020   8.1135280   7.9221240  13.0248910   7.3970780
   6.6846960  13.7146480   7.9308270  13.1661320  29.2969310  10.4042740
  13.1788480  28.8931600   9.5365000  12.6136540  30.0716600  10.3004170
  14.4606740  26.0185530   5.4932910  14.3503070  25.0759860   5.6182330
  14.4574990  26.3801170   6.3795670  12.5646760  24.1999150  11.7325350
  12.9815550  23.9859260  10.8978810  13.2886580  24.4571940  12.3033970
  10.0027020  21.6450850   4.8495400   9.0756300  21.5788230   5.0783870
  10.1551840  22.5830980   4.7350640  16.5108860  22.5986370  11.8241590
  15.6827490  22.6679460  11.3491720  17.1059340  23.1840680  11.3557420
  14.0324310  23.2071150   5.3530650  13.4136730  22.8690700   4.7056950
  14.0148760  22.5630910   6.0609840  13.4750870  19.3855690  12.7696460
  13.0622050  20.2109400  13.0236450  12.7426820  18.8000730  12.5772820
   5.6083660  22.1715590   7.6315130   5.2040660  21.4592840   7.1361030
   5.6946780  21.8268830   8.5203170   6.0765360  25.8583150   9.7954340
   5.7793650  25.2528620   9.1162120   7.0265180  25.8960460   9.6843700
   4.3212280  18.9458800  11.4114170   4.8726870  19.0554140  10.6367420
   4.8355790  19.3196400  12.1269400  14.1650970  29.4315020  13.4577440
  13.6881530  30.2387210  13.2650050  13.4812760  28.7793350  13.6103650
   5.1683790  25.5964840  16.4462140   4.2712320  25.8204810  16.6935540
   5.1936660  25.7199780  15.4973540  12.2089010  22.4457960   2.3603400
  12.6482290  21.6080390   2.2141220  12.9217430  23.0787360   2.4467540
   3.9955010  22.4678160  15.0219510   3.8562780  23.3400960  15.3906910
   3.1136370  22.1250970  14.8767450  10.3184390  27.3854030   6.3284640
  10.7580300  28.1278360   5.9140030  10.2571280  27.6280600   7.2523600
   5.7935360  28.4099860  17.2304660   5.7650790  28.8142810  16.3633090
   5.6300330  27.4810220  17.0676260   2.3088290  21.0660570   5.1321780
   2.1885890  21.7922660   4.5203050   1.9989180  20.2963480   4.6549690
  17.7450180  29.1926960  18.5268830  18.2209900  29.6709850  19.2057910
  18.3657340  29.1244450  17.8014330  17.1483430  26.3839810  15.6868840
  17.2746490  26.1451690  14.7686020  17.1904810  25.5524350  16.1590920
  11.0100170  30.0867810  14.2563650  11.5244840  29.9975820  15.0586080
  10.1669250  30.4327510  14.5491560  12.9854570  30.3723150   3.6847650
  12.8255710  30.0826090   4.5829480  12.8201280  29.5963280   3.1492880
   5.4642950  30.1521680   5.4619270   5.2885430  29.2357220   5.2487070
   4.6098690  30.5108970   5.7017070  12.2530630  29.5073420   6.3194140
  12.7087580  28.7262800   6.6332760  12.5923150  30.2180240   6.8635320
  17.0007440  18.4372270  16.6518580  16.3851710  18.9451940  16.1234040
  16.6803860  17.5370600  16.5944520   4.7751950  14.4095640   8.5145450
   4.3320100  15.1905180   8.1829970   5.3336940  14.7325530   9.2216390
   9.0621760  17.2764160  14.1180770   8.6001130  17.4847180  14.9300710
   8.6599870  16.4623510  13.8151440  14.0626270  18.4973110  15.2477430
  13.2119860  18.1978860  15.5686500  13.9028060  18.7415120  14.3361250
  11.1575980  19.9974860  17.3476220  11.4829390  19.1638610  17.0078450
  11.9456310  20.5203380  17.4954550   7.8910770  14.0306340   3.3951280
   7.2664950  14.0266210   4.1204590   7.8040890  13.1637300   2.9987250
   6.8127850  14.9542970  10.3735050   7.1100180  15.8605800  10.2927070
   7.3613410  14.4661750   9.7594620   4.5666170  19.5329210   6.2426700
   4.3407090  19.3166380   7.1473320   3.7858700  19.9657670   5.8972670
  11.7963930  19.5392580   4.8417350  11.1972820  20.2628380   4.6580970
  12.3443540  19.4769360   4.0593800   7.0065380  20.4314790  16.9086970
   6.9108980  19.4909520  16.7587370   7.8497360  20.6529860  16.5135040
  10.4028800  18.1756120   6.8720630  10.7958370  18.4928320   6.0589320
  10.7645650  17.2968000   6.9865150   8.7120970  16.9263430  18.1317490
   8.0219290  16.7335630  18.7663580   9.4553270  17.2098070  18.6641790
  10.9883940  20.7661870  10.9671410  10.2565060  21.2748680  11.3161510
  10.5908280  19.9491850  10.6660190   7.4261330  17.4416070   9.3723900
   7.4297390  17.0006020   8.5228440   8.3212450  17.7633400   9.4795720
   3.2763710  17.3242560   8.3318110   2.9363760  17.8017790   9.0885160
   2.5141030  16.8707680   7.9719210   7.4881480  18.4428150   2.3630660
   7.6094300  18.4014630   3.3116480   7.1029990  19.3052300   2.2077390
  11.4509850  16.2195550  10.3794350  11.4682590  16.6704200  11.2236200
  11.2025430  15.3201190  10.5927790  14.8780600  13.6327730  16.2180730
  15.2026370  12.9017390  16.7438710  14.9137110  13.3141370  15.3161720
   7.7269300  21.5017850  11.1189310   8.0939430  21.0276420  11.8650650
   7.5374360  22.3759420  11.4597650   5.5168670  20.5426490  13.4373520
   5.2125740  21.4218470  13.6623880   6.4715130  20.6026280  13.4730960
   4.0450460  24.7487480   4.0340370   3.2712720  24.2085100   3.8739090
   4.7745090  24.2294090   3.6958130  14.8038440  23.7452840   9.8266760
  15.5237560  24.2408130   9.4362870  14.6020260  23.0670730   9.1820630
  10.2648380  15.1390800   3.9696150   9.4512990  14.6403970   3.8941460
  10.0710330  15.9789050   3.5532500  10.1857240  23.8161900  15.7135760
  10.1194550  22.8957570  15.4593350   9.5562380  23.9137340  16.4280400
  12.9796770  19.5110450   2.2658310  13.8676390  19.8227680   2.0909650
  12.9501860  18.6382700   1.8738890   4.0887860  24.4167860   7.6719180
   4.6066530  23.6136120   7.6176070   3.6371880  24.3547000   8.5136010
   8.9757360  25.6834140   2.9446480   9.3173060  26.4276370   2.4489800
   8.1470070  25.9965260   3.3071310   4.7745520  21.8413470  17.4684430
   4.4745660  21.9870650  16.5712250   5.5456760  21.2818760  17.3757820
  10.1173970  26.6382470  15.4639560  10.1318510  25.7063430  15.2458470
   9.4099070  26.7242230  16.1029330  16.3285180  23.2789810  14.8108140
  15.6033370  23.8718590  14.6137530  16.8560640  23.2713350  14.0121510
  16.2798290  27.6764550   4.4620300  15.6374450  27.0220170   4.7364020
  15.8928950  28.0819640   3.6860970  11.8584770  25.0049980   8.3091990
  12.2108590  24.4078110   7.6493360  10.9747100  24.6794210   8.4800240
   7.9448050  25.7647670   5.7162400   8.6319180  26.3116880   6.0969990
   7.1580470  26.3088400   5.7512010   7.2475260  22.7693700   5.3287760
   7.7038040  23.5798950   5.5547950   6.8963470  22.4516840   6.1606250
   9.5507870  28.2800040  12.5580060  10.1950090  28.4859420  13.2353480
   9.9137310  27.5188440  12.1050910   3.1487040  13.1131350   5.8010280
   3.0201670  13.1049250   6.7495200   2.3249060  13.4514440   5.4501290
  10.8239950  26.2832390  11.2757510  11.4662180  25.5825550  11.3889680
  11.3489300  27.0630830  11.0954400  12.5977570  27.0827290  14.4793570
  12.9333810  27.6693980  15.1571490  11.6777910  26.9520000  14.7091360
  14.2511920  24.4852950   2.6610810  13.9633620  24.9465640   3.4488690
  15.0464090  24.0250720   2.9295030   8.4266150  27.1318620  17.6481630
   8.1063020  26.4127860  18.1927320   7.7524510  27.8073690  17.7217690
   6.4680320  27.9779070   2.5914780   6.4590420  28.7108760   1.9759290
   5.5478680  27.7310650   2.6841740  11.6419750  17.3644780  13.0118430
  12.0100570  16.5439990  13.3398000  10.7817950  17.4246670  13.4274080
  15.0081780  16.3201720   3.8205990  14.3794940  16.4247390   3.1064220
  14.5133700  16.5398500   4.6099870   6.9765810  18.5987670   5.2363870
   6.2681960  19.0674010   5.6777480   7.2610290  17.9409680   5.8709060
   8.6021740  20.0184370  13.2356400   9.1006990  20.4930190  13.9008250
   8.7444690  19.0947890  13.4426430  11.0081240  15.3238330   6.6759660
  10.8849020  15.3424460   5.7269170  11.9565800  15.3717270   6.7958060
   8.0958030  30.5593630   5.9487640   8.3499530  30.5215020   5.0267010
   7.1470510  30.4326960   5.9415890   5.1800830  16.9072750   2.6114580
   6.0291360  17.3442900   2.5454770   4.8132100  17.2193010   3.4386640
  15.8088600  16.2352330  14.0784790  15.3062200  16.9757730  14.4178600
  16.6245260  16.6236330  13.7621580  14.1010610  21.4785510   7.5246150
  13.1600750  21.4935740   7.6993840  14.4154680  20.6921470   7.9706450
   2.7739010  20.5930180   1.7683000   2.8542600  19.6457690   1.8800400
   3.6658760  20.9237060   1.8743660  16.1036190  28.6494360   9.2000410
  16.2283610  29.4725530   9.6724220  16.9701750  28.4385090   8.8524560
   3.5753720  30.7425570   8.8717540   4.3116200  30.1941030   9.1426110
   3.9594640  31.6081580   8.7323530   2.5812000  29.9271640  18.0603120
   3.3824730  30.2483690  18.4738520   2.0663820  29.5667220  18.7823030
  11.4176630  26.0351510  18.0078530  10.8114790  26.0583110  17.2674280
  11.1130740  25.3034550  18.5445780  12.8477000  29.7631800  16.6187940
  13.7998750  29.6789820  16.5688180  12.7005220  30.4273510  17.2921730
   7.3547750  23.8216090  16.5374690   6.5893420  24.3901090  16.4529360
   7.5363710  23.5292300  15.6442920  14.4971100  25.5521420  17.0949710
  15.2380570  25.8897180  16.5917170  13.7343780  25.7213480  16.5419480
   2.3332890  20.5574690  17.8989240   2.3738230  20.2588560  18.8074470
   3.1878390  20.9582300  17.7396760   6.1111280  23.1570240   3.0592750
   6.5327700  22.9910110   3.9024140   6.2362120  22.3470470   2.5647890
   4.2738700  19.1366790  15.8663730   3.7435160  18.6457740  15.2387070
   4.9426770  19.5650990  15.3321660  13.1716760  23.6036250  15.6304920
  13.5857780  23.7581330  16.4795340  12.2367760  23.7291470  15.7930700
  13.6438930  20.9432410  17.6344070  14.2259700  20.1884730  17.5464550
  13.8200700  21.4739850  16.8575550   4.7611000  16.1029160  15.9461020
   4.6667870  15.4849910  15.2211890   4.1808390  16.8295450  15.7190930
   7.5272440  14.6602400  12.9788410   7.0789740  14.6826660  12.1333960
   6.8937640  14.2621420  13.5758710   7.9331990  23.5556730  13.6000850
   8.3520100  24.3989460  13.4277090   7.0140620  23.6928770  13.3707630
  10.2695890  21.2872910  14.9838690  10.3892100  20.6914050  15.7233530
  11.1289890  21.3242600  14.5639990  12.6083790  21.8410100  13.5601200
  12.0819010  22.3652720  12.9566340  12.9515130  22.4737490  14.1910930
   5.7839410  29.8609740  14.7158580   5.2460500  30.5855800  14.3967280
   6.0373370  29.3840080  13.9255920   7.0364660  17.8294260  16.2414510
   7.6264350  17.5210110  16.9292330   6.2184900  17.3574010  16.3974410
  11.8558090  17.4460070  16.4747530  11.1673610  16.7841610  16.4097520
  12.5764110  16.9998340  16.9195990  12.4858490  14.0411700   2.5337790
  12.7660780  13.1979600   2.8897210  11.7124220  14.2734810   3.0476540
   8.6401620  31.0960950  14.9745230   8.5660320  31.9996090  15.2817600
   7.7380460  30.7772850  14.9467300   9.1886950  30.2619460   2.5971590
  10.0837740  30.6004430   2.6190350   9.2204580  29.5398870   1.9695870
   4.6390830  26.7544550   5.9380820   4.3386370  26.6309520   6.8384730
   4.5328320  25.8953140   5.5296550  16.1681300  28.7923130  15.3037790
  15.5683290  28.8515690  14.5601710  16.2975200  27.8528110  15.4334640
  16.8639210  23.2788430   3.1441700  17.6258120  23.8485080   3.2501390
  16.8793580  22.7115630   3.9150010  17.8699180  24.1338530   7.9883630
  18.2408010  23.3505850   7.5819600  18.5101110  24.8227630   7.8100930
  14.8532940  25.5175110  13.4013950  14.0392780  25.9472270  13.6639740
  15.2607140  26.1293520  12.7883000  16.8123720  21.5091790   5.2943650
  16.4367320  20.7419720   4.8624940  16.0826840  21.8914490   5.7818580
  16.2023340  20.6563310  14.9283170  15.9709430  20.4276060  14.0281120
  16.4627890  21.5762860  14.8828060  14.6411410  15.8819740  17.7062870
  15.5181590  15.8903140  18.0896870  14.6532250  15.1450580  17.0955220
  16.0874680  19.7349280   8.5950890  16.6112160  19.2411930   7.9641060
  16.6734100  19.8699640   9.3398460  16.2664400  19.8189150  12.1170440
  15.3167110  19.7852690  12.2315430  16.4477410  20.7289260  11.8820210
  15.5774650  18.9922630   4.5343300  16.0733770  18.7593500   5.3192180
  15.3790720  18.1534470   4.1180940  17.0061810  17.6283580   7.0680980
  16.8961090  17.4739620   8.0063250  17.7669400  17.1004520   6.8256390
  15.3527530  13.5677710  13.5263980  15.9899750  14.1811850  13.8923170
  15.5002420  13.6038370  12.5813210  17.9690570  16.2302160   2.9343830
  17.1742070  16.1647280   3.4636740  18.1733850  17.1652800   2.9229180
  14.9108990  30.2693710   6.9282220  15.5068060  29.9478280   6.2516640
  15.1687140  29.7965530   7.7195490   2.8171560  26.7011620  17.0772850
   2.7741190  26.3304530  17.9587310   2.9482570  27.6389190  17.2174670
   6.5177590  28.2571210  12.6782570   6.2768950  28.5245770  11.7913090
   7.4580230  28.4276940  12.7333430   8.7232010  14.7203900  16.4339080
   8.6620900  15.3125730  17.1834490   9.6632390  14.6129860  16.2889340
  11.3606570  14.3773960  16.0731370  11.9746980  14.6953250  15.4112450
  11.9056130  13.8922550  16.6927230  17.7781750  30.2765590  13.4793210
  17.2840030  30.6734460  12.7620340  17.1695040  29.6514800  13.8730490
   1.8827830  13.0568220  16.1870430   2.4310820  12.8756270  15.4236540
   1.9483140  12.2662330  16.7226740   2.6559590  29.6473870  14.1970630
   2.0619910  29.5158570  14.9360670   2.6483430  28.8112010  13.7312730
  12.1014610  12.9406100  12.4000660  11.2274450  13.2741210  12.1973590
  11.9925360  12.4679280  13.2252530  13.0086590  15.1476970  13.7842380
  12.6799950  14.3328730  13.4044110  13.9568890  15.1046780  13.6608070
  15.4621200  30.9189010  10.7579950  15.0024170  31.6704820  10.3837970
  14.8333660  30.1995480  10.6994750   2.2871820  27.0132250  13.1478670
   1.5605880  26.3937540  13.0804620   2.3480970  27.4072860  12.2776750
   5.8916920  29.2277250   9.9328080   6.4081940  28.6164610   9.4076340
   6.5414300  29.7306030  10.4239090   8.6312420  30.1185740  10.7597060
   8.9190230  29.8640040   9.8830070   9.1435640  29.5663100  11.3502630
   9.8489430  13.8575940  11.3393570   9.0661220  14.3321440  11.6190330
   9.5552360  12.9530770  11.2306750  14.4010500  14.5599040   9.3842660
  14.8418590  14.5044140   8.5364260  14.1318090  15.4757050   9.4552840
  16.2649070  14.1914280   7.3951480  16.2037470  13.2475500   7.2482500
  17.0441100  14.2994370   7.9404940   7.7343650  16.2762690   6.8509600
   6.9218160  15.9019580   6.5105480   8.2385290  15.5207770   7.1530790
  12.2368630  12.9405140   8.0892670  12.8398000  13.5125350   8.5641190
  11.4961620  13.5044580   7.8666570  15.3803230  13.3426700   3.3632950
  15.5753860  14.2410150   3.6300380  14.5933100  13.1113780   3.8565900
   2.1764520  29.0239870   3.8025570   1.6512140  29.4047900   3.0987530
   2.1009100  29.6490640   4.5235280   3.5654990  14.6887470   2.4009260
   4.0947750  13.9017270   2.2717210   4.1983310  15.3678660   2.6344790
   5.7592830  14.4262610   5.4554650   5.1295570  13.7249920   5.6224780
   5.2197970  15.1866740   5.2387810   8.6984780  31.0401840  18.1265260
   9.6252090  30.8046110  18.1701220   8.6835210  31.8673840  17.6451290
  16.9329840  30.5827410   5.1239510  17.1082030  29.8965150   4.4800430
  16.2351410  31.1074460   4.7316180   5.8848390  13.7046590  17.8907140
   5.6032660  14.2080190  17.1267960   6.2668090  12.9068340  17.5249270
   4.7757490  30.9722250   2.6774820   5.5076310  30.6881530   2.1298710
   5.0351160  30.7335530   3.5674200   3.9372280  27.0886980   2.6821150
   3.3081160  27.5572080   3.2306980   4.0520110  26.2436200   3.1167340
  12.4863850  13.1200170  18.4687610  12.3729300  13.4394780  19.3639130
  13.3033590  13.5212680  18.1724890  15.2662340  30.2671700  17.9506300
  16.0587660  29.7720930  17.7432260  15.5595490  30.9461840  18.5581910
   9.5240040   4.1428170  65.8105580   8.7482140   3.6628610  66.1004150
  10.1752970   3.4633820  65.6361740   3.5405870   4.4547980  66.6881340
   2.7090750   4.1996690  67.0877850   4.1486850   4.5258750  67.4239260
  13.5447470   8.5488360  64.5904710  13.0829000   7.7775600  64.9191880
  14.3573020   8.5754430  65.0957160   3.5207130   8.4888070  66.8839360
   3.8235170   7.5985810  66.7049580   4.2650720   9.0458290  66.6561610
   9.7710780  10.8346370  64.2108700   9.1522220  11.2903870  63.6403140
  10.6262560  10.9897830  63.8098400   8.9649030   6.8185360  65.8175740
   8.8957310   5.8775300  65.6564870   9.7268890   6.9086770  66.3898310
  10.6374130   5.7185610  61.6040610  10.0191400   6.1835060  61.0403330
  11.1497380   6.4113090  62.0210120   5.5005890   5.2461480  68.2824210
   5.1675270   5.8730400  68.9245280   5.6772570   5.7723360  67.5025880
   4.7124990   7.2142280  70.0973390   5.3298990   7.8893360  69.8157840
   3.8518110   7.6230260  70.0060890  15.6302580   8.6781690  68.0128030
  14.9466100   9.3480800  68.0044700  16.1696870   8.8762340  67.2472890
  13.1661320  10.5225820  66.7273210  13.1788480  10.1188110  65.8595470
  12.6136540  11.2973110  66.6234640  14.4606740   7.2442040  61.8163380
  14.3503070   6.3016370  61.9412800  14.4574990   7.6057680  62.7026140
  12.5646760   5.4255660  68.0555820  12.9815550   5.2115770  67.2209280
  13.2886580   5.6828450  68.6264440  10.0027020   2.8707360  61.1725870
   9.0756300   2.8044740  61.4014340  10.1551840   3.8087490  61.0581110
  16.5108860   3.8242880  68.1472060  15.6827490   3.8935970  67.6722190
  17.1059340   4.4097190  67.6787890  14.0324310   4.4327660  61.6761120
  13.4136730   4.0947210  61.0287420  14.0148760   3.7887420  62.3840310
   5.6083660   3.3972100  63.9545600   5.2040660   2.6849350  63.4591500
   5.6946780   3.0525340  64.8433640   6.0765360   7.0839660  66.1184810
   5.7793650   6.4785130  65.4392590   7.0265180   7.1216970  66.0074170
  14.1650970  10.6571530  69.7807910  13.6881530  11.4643720  69.5880520
  13.4812760  10.0049860  69.9334120  12.2089010   3.6714470  58.6833870
  12.6482290   2.8336900  58.5371690  12.9217430   4.3043870  58.7698010
   3.9955010   3.6934670  71.3449980   3.8562780   4.5657470  71.7137380
   3.1136370   3.3507480  71.1997920  10.3184390   8.6110540  62.6515110
  10.7580300   9.3534870  62.2370500  10.2571280   8.8537110  63.5754070
   2.3088290   2.2917080  61.4552250   2.1885890   3.0179170  60.8433520
   1.9989180   1.5219990  60.9780160  17.1483430   7.6096320  72.0099310
  17.2746490   7.3708200  71.0916490  17.1904810   6.7780860  72.4821390
  11.0100170  11.3124320  70.5794120  11.5244840  11.2232330  71.3816550
  10.1669250  11.6584020  70.8722030  12.9854570  11.5979660  60.0078120
  12.8255710  11.3082600  60.9059950  12.8201280  10.8219790  59.4723350
   5.4642950  11.3778190  61.7849740   5.2885430  10.4613730  61.5717540
   4.6098690  11.7365480  62.0247540  12.6880700   9.1067220  58.5676120
  11.9945860   9.1044510  57.9078400  13.4303560   8.6826540  58.1370290
  12.2530630  10.7329930  62.6424610  12.7087580   9.9519310  62.9563230
  12.5923150  11.4436750  63.1865790   6.5002980   1.9785800  58.0844430
   5.9319880   1.5304050  57.4580340   7.2091980   2.3378580  57.5509580
   7.7269300   2.7274360  67.4419780   8.0939430   2.2532930  68.1881120
   7.5374360   3.6015930  67.7828120   5.5168670   1.7683000  69.7603990
   5.2125740   2.6474980  69.9854350   6.4715130   1.8282790  69.7961430
   4.0450460   5.9743990  60.3570840   3.2712720   5.4341610  60.1969560
   4.7745090   5.4550600  60.0188600  14.8038440   4.9709350  66.1497230
  15.5237560   5.4664640  65.7593340  14.6020260   4.2927240  65.5051100
  10.1857240   5.0418410  72.0366230  10.1194550   4.1214080  71.7823820
   9.5562380   5.1393850  72.7510870   4.0887860   5.6424370  63.9949650
   4.6066530   4.8392630  63.9406540   3.6371880   5.5803510  64.8366480
   8.9757360   6.9090650  59.2676950   9.3173060   7.6532880  58.7720270
   8.1470070   7.2221770  59.6301780  10.1173970   7.8638980  71.7870030
  10.1318510   6.9319940  71.5688940   9.4099070   7.9498740  72.4259800
  15.2511040   2.0478800  58.0568640  15.1674760   2.4793020  57.2065080
  15.9705230   2.5077150  58.4895460  16.3285180   4.5046320  71.1338610
  15.6033370   5.0975100  70.9368000  16.8560640   4.4969860  70.3351980
  16.2798290   8.9021060  60.7850770  15.6374450   8.2476680  61.0594490
  15.8928950   9.3076150  60.0091440  11.8584770   6.2306490  64.6322460
  12.2108590   5.6334620  63.9723830  10.9747100   5.9050720  64.8030710
   7.9448050   6.9904180  62.0392870   8.6319180   7.5373390  62.4200460
   7.1580470   7.5344910  62.0742480   7.2475260   3.9950210  61.6518230
   7.7038040   4.8055460  61.8778420   6.8963470   3.6773350  62.4836720
   9.5507870   9.5056550  68.8810530  10.1950090   9.7115930  69.5583950
   9.9137310   8.7444950  68.4281380  10.8239950   7.5088900  67.5987980
  11.4662180   6.8082060  67.7120150  11.3489300   8.2887340  67.4184870
  14.6695670   7.7937520  57.3227120  14.4433250   7.0767960  57.9151760
  14.2791870   7.5449960  56.4848870  12.5977570   8.3083800  70.8024040
  12.9333810   8.8950490  71.4801960  11.6777910   8.1776510  71.0321830
  14.2511920   5.7109460  58.9841280  13.9633620   6.1722150  59.7719160
  15.0464090   5.2507230  59.2525500   6.4680320   9.2035580  58.9145250
   6.4590420   9.9365270  58.2989760   5.5478680   8.9567160  59.0072210
   9.4539920   9.2663820  57.5770440   9.5551900   9.0627810  56.6472420
   8.5541660   9.0122100  57.7818220   8.0958030  11.7850140  62.2718110
   8.3499530  11.7471530  61.3497480   7.1470510  11.6583470  62.2646360
  14.1010610   2.7042020  63.8476620  13.1600750   2.7192250  64.0224310
  14.4154680   1.9177980  64.2936920   4.0792250   4.3861620  57.4080580
   4.8455520   4.2742980  57.9706010   4.1566940   3.6899590  56.7557350
  16.1036190   9.8750870  65.5230880  16.2283610  10.6982040  65.9954690
  16.9701750   9.6641600  65.1755030   3.5753720  11.9682080  65.1948010
   4.3116200  11.4197540  65.4656580   3.9594640  12.8338090  65.0554000
   6.6856030  11.1412390  57.0173580   7.4784640  11.4301220  56.5655370
   6.1660380  10.7104560  56.3386060  15.7386200  10.3682520  58.4410320
  15.4527710   9.9547660  57.6264500  15.5405750  11.2970230  58.3210840
   7.2033430   6.3615800  56.8815930   7.0984070   5.7468150  57.6077310
   7.0357650   5.8381690  56.0978940   7.3547750   5.0472600  72.8605160
   6.5893420   5.6157600  72.7759830   7.5363710   4.7548810  71.9673390
  10.4436160   5.4235830  57.4857920   9.8946260   5.8705130  58.1300660
  11.0655420   4.9185080  58.0095590   6.1111280   4.3826750  59.3823220
   6.5327700   4.2166620  60.2254610   6.2362120   3.5726980  58.8878360
   8.6238920   3.4064360  56.6300320   9.1444580   2.6913380  56.2641470
   9.2707320   4.0450230  56.9300830  13.1716760   4.8292760  71.9535390
  13.5857780   4.9837840  72.8025810  12.2367760   4.9547980  72.1161170
   7.9331990   4.7813240  69.9231320   8.3520100   5.6245970  69.7507560
   7.0140620   4.9185280  69.6938100  10.2695890   2.5129420  71.3069160
  10.3892100   1.9170560  72.0464000  11.1289890   2.5499110  70.8870460
  12.6083790   3.0666610  69.8831670  12.0819010   3.5909230  69.2796810
  12.9515130   3.6994000  70.5141400   5.7839410  11.0866250  71.0389050
   5.2460500  11.8112310  70.7197750   6.0373370  10.6096590  70.2486390
   8.6401620  12.3217460  71.2975700   8.5660320  13.2252600  71.6048070
   7.7380460  12.0029360  71.2697770   9.1886950  11.4875970  58.9202060
  10.0837740  11.8260940  58.9420820   9.2204580  10.7655380  58.2926340
   2.8283110   6.8603020  57.1489060   3.2657980   7.4032690  57.8046640
   3.3130840   6.0349970  57.1585400   4.6390830   7.9801060  62.2611290
   4.3386370   7.8566030  63.1615200   4.5328320   7.1209650  61.8527020
  16.1681300  10.0179640  71.6268260  15.5683290  10.0772200  70.8832180
  16.2975200   9.0784620  71.7565110  17.4082750   7.7597460  56.9637970
  16.5775710   7.8274110  57.4345200  17.5854580   8.6501580  56.6604830
  16.8639210   4.5044940  59.4672170  17.6258120   5.0741590  59.5731860
  16.8793580   3.9372140  60.2380480  17.8699180   5.3595040  64.3114100
  18.2408010   4.5762360  63.9050070  18.5101110   6.0484140  64.1331400
  14.8532940   6.7431620  69.7244420  14.0392780   7.1728780  69.9870210
  15.2607140   7.3550030  69.1113470  16.9158380   4.7979310  56.6244690
  17.1907220   5.7058190  56.4963910  16.7269120   4.7341840  57.5606680
  16.8123720   2.7348300  61.6174120  16.4367320   1.9676230  61.1855410
  16.0826840   3.1171000  62.1049050  16.2023340   1.8819820  71.2513640
  15.9709430   1.6532570  70.3511590  16.4627890   2.8019370  71.2058530
  14.9108990  11.4950220  63.2512690  15.5068060  11.1734790  62.5747110
  15.1687140  11.0222040  64.0425960   6.5177590   9.4827720  69.0013040
   6.2768950   9.7502280  68.1143560   7.4580230   9.6533450  69.0563900
  17.7781750  11.5022100  69.8023680  17.2840030  11.8990970  69.0850810
  17.1695040  10.8771310  70.1960960   2.6559590  10.8730380  70.5201100
   2.0619910  10.7415080  71.2591140   2.6483430  10.0368520  70.0543200
  15.4621200  12.1445520  67.0810420  15.0024170  12.8961330  66.7068440
  14.8333660  11.4251990  67.0225220   2.2871820   8.2388760  69.4709140
   1.5605880   7.6194050  69.4035090   2.3480970   8.6329370  68.6007220
   5.8916920  10.4533760  66.2558550   6.4081940   9.8421120  65.7306810
   6.5414300  10.9562540  66.7469560   8.6312420  11.3442250  67.0827530
   8.9190230  11.0896550  66.2060540   9.1435640  10.7919610  67.6733100
   2.1764520  10.2496380  60.1256040   1.6512140  10.6304410  59.4218000
   2.1009100  10.8747150  60.8465750  16.9329840  11.8083920  61.4469980
  17.1082030  11.1221660  60.8030900  16.2351410  12.3330970  61.0546650
   4.7757490  12.1978760  59.0005290   5.5076310  11.9138040  58.4529180
   5.0351160  11.9592040  59.8904670   3.9372280   8.3143490  59.0051620
   3.3081160   8.7828590  59.5537450   4.0520110   7.4692710  59.4397810
   9.5240040   4.1428170  47.0362090   8.7482140   3.6628610  47.3260660
  10.1752970   3.4633820  46.8618250   3.5405870   4.4547980  47.9137850
   2.7090750   4.1996690  48.3134360   4.1486850   4.5258750  48.6495770
  13.5447470   8.5488360  45.8161220  13.0829000   7.7775600  46.1448390
  14.3573020   8.5754430  46.3213670   3.5207130   8.4888070  48.1095870
   3.8235170   7.5985810  47.9306090   4.2650720   9.0458290  47.8818120
   9.7710780  10.8346370  45.4365210   9.1522220  11.2903870  44.8659650
  10.6262560  10.9897830  45.0354910   8.9649030   6.8185360  47.0432250
   8.8957310   5.8775300  46.8821380   9.7268890   6.9086770  47.6154820
  10.6374130   5.7185610  42.8297120  10.0191400   6.1835060  42.2659840
  11.1497380   6.4113090  43.2466630   5.5005890   5.2461480  49.5080720
   5.1675270   5.8730400  50.1501790   5.6772570   5.7723360  48.7282390
   4.7124990   7.2142280  51.3229900   5.3298990   7.8893360  51.0414350
   3.8518110   7.6230260  51.2317400  15.6302580   8.6781690  49.2384540
  14.9466100   9.3480800  49.2301210  16.1696870   8.8762340  48.4729400
  13.1661320  10.5225820  47.9529720  13.1788480  10.1188110  47.0851980
  12.6136540  11.2973110  47.8491150  14.4606740   7.2442040  43.0419890
  14.3503070   6.3016370  43.1669310  14.4574990   7.6057680  43.9282650
  12.5646760   5.4255660  49.2812330  12.9815550   5.2115770  48.4465790
  13.2886580   5.6828450  49.8520950  10.0027020   2.8707360  42.3982380
   9.0756300   2.8044740  42.6270850  10.1551840   3.8087490  42.2837620
  16.5108860   3.8242880  49.3728570  15.6827490   3.8935970  48.8978700
  17.1059340   4.4097190  48.9044400  14.0324310   4.4327660  42.9017630
  13.4136730   4.0947210  42.2543930  14.0148760   3.7887420  43.6096820
   5.6083660   3.3972100  45.1802110   5.2040660   2.6849350  44.6848010
   5.6946780   3.0525340  46.0690150   6.0765360   7.0839660  47.3441320
   5.7793650   6.4785130  46.6649100   7.0265180   7.1216970  47.2330680
  14.1650970  10.6571530  51.0064420  13.6881530  11.4643720  50.8137030
  13.4812760  10.0049860  51.1590630   5.1683790   6.8221350  53.9949120
   4.2712320   7.0461320  54.2422520   5.1936660   6.9456290  53.0460520
  12.2089010   3.6714470  39.9090380  12.6482290   2.8336900  39.7628200
  12.9217430   4.3043870  39.9954520   3.9955010   3.6934670  52.5706490
   3.8562780   4.5657470  52.9393890   3.1136370   3.3507480  52.4254430
  10.3184390   8.6110540  43.8771620  10.7580300   9.3534870  43.4627010
  10.2571280   8.8537110  44.8010580   5.7935360   9.6356370  54.7791640
   5.7650790  10.0399320  53.9120070   5.6300330   8.7066730  54.6163240
   2.3088290   2.2917080  42.6808760   2.1885890   3.0179170  42.0690030
   1.9989180   1.5219990  42.2036670  17.7450180  10.4183470  56.0755810
  18.2209900  10.8966360  56.7544890  18.3657340  10.3500960  55.3501310
  17.1483430   7.6096320  53.2355820  17.2746490   7.3708200  52.3173000
  17.1904810   6.7780860  53.7077900  11.0100170  11.3124320  51.8050630
  11.5244840  11.2232330  52.6073060  10.1669250  11.6584020  52.0978540
  12.9854570  11.5979660  41.2334630  12.8255710  11.3082600  42.1316460
  12.8201280  10.8219790  40.6979860   5.4642950  11.3778190  43.0106250
   5.2885430  10.4613730  42.7974050   4.6098690  11.7365480  43.2504050
  12.6880700   9.1067220  39.7932630  11.9945860   9.1044510  39.1334910
  13.4303560   8.6826540  39.3626800  12.2530630  10.7329930  43.8681120
  12.7087580   9.9519310  44.1819740  12.5923150  11.4436750  44.4122300
   6.5002980   1.9785800  39.3100940   5.9319880   1.5304050  38.6836850
   7.2091980   2.3378580  38.7766090   7.7269300   2.7274360  48.6676290
   8.0939430   2.2532930  49.4137630   7.5374360   3.6015930  49.0084630
   5.5168670   1.7683000  50.9860500   5.2125740   2.6474980  51.2110860
   6.4715130   1.8282790  51.0217940   4.0450460   5.9743990  41.5827350
   3.2712720   5.4341610  41.4226070   4.7745090   5.4550600  41.2445110
  14.8038440   4.9709350  47.3753740  15.5237560   5.4664640  46.9849850
  14.6020260   4.2927240  46.7307610  10.1857240   5.0418410  53.2622740
  10.1194550   4.1214080  53.0080330   9.5562380   5.1393850  53.9767380
   4.0887860   5.6424370  45.2206160   4.6066530   4.8392630  45.1663050
   3.6371880   5.5803510  46.0622990   8.9757360   6.9090650  40.4933460
   9.3173060   7.6532880  39.9976780   8.1470070   7.2221770  40.8558290
   4.7745520   3.0669980  55.0171410   4.4745660   3.2127160  54.1199230
   5.5456760   2.5075270  54.9244800  10.1173970   7.8638980  53.0126540
  10.1318510   6.9319940  52.7945450   9.4099070   7.9498740  53.6516310
  15.2511040   2.0478800  39.2825150  15.1674760   2.4793020  38.4321590
  15.9705230   2.5077150  39.7151970  16.3285180   4.5046320  52.3595120
  15.6033370   5.0975100  52.1624510  16.8560640   4.4969860  51.5608490
  16.2798290   8.9021060  42.0107280  15.6374450   8.2476680  42.2851000
  15.8928950   9.3076150  41.2347950  11.8584770   6.2306490  45.8578970
  12.2108590   5.6334620  45.1980340  10.9747100   5.9050720  46.0287220
   7.9448050   6.9904180  43.2649380   8.6319180   7.5373390  43.6456970
   7.1580470   7.5344910  43.2998990   7.2475260   3.9950210  42.8774740
   7.7038040   4.8055460  43.1034930   6.8963470   3.6773350  43.7093230
   9.5507870   9.5056550  50.1067040  10.1950090   9.7115930  50.7840460
   9.9137310   8.7444950  49.6537890  10.8239950   7.5088900  48.8244490
  11.4662180   6.8082060  48.9376660  11.3489300   8.2887340  48.6441380
  14.6695670   7.7937520  38.5483630  14.4433250   7.0767960  39.1408270
  14.2791870   7.5449960  37.7105380  12.5977570   8.3083800  52.0280550
  12.9333810   8.8950490  52.7058470  11.6777910   8.1776510  52.2578340
  14.2511920   5.7109460  40.2097790  13.9633620   6.1722150  40.9975670
  15.0464090   5.2507230  40.4782010   8.4266150   8.3575130  55.1968610
   8.1063020   7.6384370  55.7414300   7.7524510   9.0330200  55.2704670
   6.4680320   9.2035580  40.1401760   6.4590420   9.9365270  39.5246270
   5.5478680   8.9567160  40.2328720   9.4539920   9.2663820  38.8026950
   9.5551900   9.0627810  37.8728930   8.5541660   9.0122100  39.0074730
   8.0958030  11.7850140  43.4974620   8.3499530  11.7471530  42.5753990
   7.1470510  11.6583470  43.4902870  14.1010610   2.7042020  45.0733130
  13.1600750   2.7192250  45.2480820  14.4154680   1.9177980  45.5193430
   4.0792250   4.3861620  38.6337090   4.8455520   4.2742980  39.1962520
   4.1566940   3.6899590  37.9813860  16.1036190   9.8750870  46.7487390
  16.2283610  10.6982040  47.2211200  16.9701750   9.6641600  46.4011540
   3.5753720  11.9682080  46.4204520   4.3116200  11.4197540  46.6913090
   3.9594640  12.8338090  46.2810510   2.5812000  11.1528150  55.6090100
   3.3824730  11.4740200  56.0225500   2.0663820  10.7923730  56.3310010
   6.6856030  11.1412390  38.2430090   7.4784640  11.4301220  37.7911880
   6.1660380  10.7104560  37.5642570  11.4176630   7.2608020  55.5565510
  10.8114790   7.2839620  54.8161260  11.1130740   6.5291060  56.0932760
  12.8477000  10.9888310  54.1674920  13.7998750  10.9046330  54.1175160
  12.7005220  11.6530020  54.8408710  15.7386200  10.3682520  39.6666830
  15.4527710   9.9547660  38.8521010  15.5405750  11.2970230  39.5467350
   7.2033430   6.3615800  38.1072440   7.0984070   5.7468150  38.8333820
   7.0357650   5.8381690  37.3235450   7.3547750   5.0472600  54.0861670
   6.5893420   5.6157600  54.0016340   7.5363710   4.7548810  53.1929900
  10.4436160   5.4235830  38.7114430   9.8946260   5.8705130  39.3557170
  11.0655420   4.9185080  39.2352100  14.4971100   6.7777930  54.6436690
  15.2380570   7.1153690  54.1404150  13.7343780   6.9469990  54.0906460
   2.3332890   1.7831200  55.4476220   2.3738230   1.4845070  56.3561450
   3.1878390   2.1838810  55.2883740   6.1111280   4.3826750  40.6079730
   6.5327700   4.2166620  41.4511120   6.2362120   3.5726980  40.1134870
   8.6238920   3.4064360  37.8556830   9.1444580   2.6913380  37.4897980
   9.2707320   4.0450230  38.1557340  13.1716760   4.8292760  53.1791900
  13.5857780   4.9837840  54.0282320  12.2367760   4.9547980  53.3417680
   7.9331990   4.7813240  51.1487830   8.3520100   5.6245970  50.9764070
   7.0140620   4.9185280  50.9194610  10.2695890   2.5129420  52.5325670
  10.3892100   1.9170560  53.2720510  11.1289890   2.5499110  52.1126970
  12.6083790   3.0666610  51.1088180  12.0819010   3.5909230  50.5053320
  12.9515130   3.6994000  51.7397910   5.7839410  11.0866250  52.2645560
   5.2460500  11.8112310  51.9454260   6.0373370  10.6096590  51.4742900
   8.6401620  12.3217460  52.5232210   8.5660320  13.2252600  52.8304580
   7.7380460  12.0029360  52.4954280   9.1886950  11.4875970  40.1458570
  10.0837740  11.8260940  40.1677330   9.2204580  10.7655380  39.5182850
   2.8283110   6.8603020  38.3745570   3.2657980   7.4032690  39.0303150
   3.3130840   6.0349970  38.3841910   4.6390830   7.9801060  43.4867800
   4.3386370   7.8566030  44.3871710   4.5328320   7.1209650  43.0783530
  16.1681300  10.0179640  52.8524770  15.5683290  10.0772200  52.1088690
  16.2975200   9.0784620  52.9821620  17.4082750   7.7597460  38.1894480
  16.5775710   7.8274110  38.6601710  17.5854580   8.6501580  37.8861340
  16.8639210   4.5044940  40.6928680  17.6258120   5.0741590  40.7988370
  16.8793580   3.9372140  41.4636990  17.8699180   5.3595040  45.5370610
  18.2408010   4.5762360  45.1306580  18.5101110   6.0484140  45.3587910
  14.8532940   6.7431620  50.9500930  14.0392780   7.1728780  51.2126720
  15.2607140   7.3550030  50.3369980  16.9158380   4.7979310  37.8501200
  17.1907220   5.7058190  37.7220420  16.7269120   4.7341840  38.7863190
  16.8123720   2.7348300  42.8430630  16.4367320   1.9676230  42.4111920
  16.0826840   3.1171000  43.3305560  16.2023340   1.8819820  52.4770150
  15.9709430   1.6532570  51.5768100  16.4627890   2.8019370  52.4315040
  14.9108990  11.4950220  44.4769200  15.5068060  11.1734790  43.8003620
  15.1687140  11.0222040  45.2682470   2.8171560   7.9268130  54.6259830
   2.7741190   7.5561040  55.5074290   2.9482570   8.8645700  54.7661650
   6.5177590   9.4827720  50.2269550   6.2768950   9.7502280  49.3400070
   7.4580230   9.6533450  50.2820410  17.7781750  11.5022100  51.0280190
  17.2840030  11.8990970  50.3107320  17.1695040  10.8771310  51.4217470
   2.6559590  10.8730380  51.7457610   2.0619910  10.7415080  52.4847650
   2.6483430  10.0368520  51.2799710  15.4621200  12.1445520  48.3066930
  15.0024170  12.8961330  47.9324950  14.8333660  11.4251990  48.2481730
   2.2871820   8.2388760  50.6965650   1.5605880   7.6194050  50.6291600
   2.3480970   8.6329370  49.8263730   5.8916920  10.4533760  47.4815060
   6.4081940   9.8421120  46.9563320   6.5414300  10.9562540  47.9726070
   8.6312420  11.3442250  48.3084040   8.9190230  11.0896550  47.4317050
   9.1435640  10.7919610  48.8989610   2.1764520  10.2496380  41.3512550
   1.6512140  10.6304410  40.6474510   2.1009100  10.8747150  42.0722260
   8.6984780  12.2658350  55.6752240   9.6252090  12.0302620  55.7188200
   8.6835210  13.0930350  55.1938270  16.9329840  11.8083920  42.6726490
  17.1082030  11.1221660  42.0287410  16.2351410  12.3330970  42.2803160
   4.7757490  12.1978760  40.2261800   5.5076310  11.9138040  39.6785690
   5.0351160  11.9592040  41.1161180   3.9372280   8.3143490  40.2308130
   3.3081160   8.7828590  40.7793960   4.0520110   7.4692710  40.6654320
  15.2662340  11.4928210  55.4993280  16.0587660  10.9977440  55.2919240
  15.5595490  12.1718350  56.1068890   9.5240040   4.1428170  28.2618600
   8.7482140   3.6628610  28.5517170  10.1752970   3.4633820  28.0874760
   3.5405870   4.4547980  29.1394360   2.7090750   4.1996690  29.5390870
   4.1486850   4.5258750  29.8752280  13.5447470   8.5488360  27.0417730
  13.0829000   7.7775600  27.3704900  14.3573020   8.5754430  27.5470180
   3.5207130   8.4888070  29.3352380   3.8235170   7.5985810  29.1562600
   4.2650720   9.0458290  29.1074630   9.7710780  10.8346370  26.6621720
   9.1522220  11.2903870  26.0916160  10.6262560  10.9897830  26.2611420
   8.9649030   6.8185360  28.2688760   8.8957310   5.8775300  28.1077890
   9.7268890   6.9086770  28.8411330  10.6374130   5.7185610  24.0553630
  10.0191400   6.1835060  23.4916350  11.1497380   6.4113090  24.4723140
   5.5005890   5.2461480  30.7337230   5.1675270   5.8730400  31.3758300
   5.6772570   5.7723360  29.9538900   4.7124990   7.2142280  32.5486410
   5.3298990   7.8893360  32.2670860   3.8518110   7.6230260  32.4573910
  15.6302580   8.6781690  30.4641050  14.9466100   9.3480800  30.4557720
  16.1696870   8.8762340  29.6985910  13.1661320  10.5225820  29.1786230
  13.1788480  10.1188110  28.3108490  12.6136540  11.2973110  29.0747660
  14.4606740   7.2442040  24.2676400  14.3503070   6.3016370  24.3925820
  14.4574990   7.6057680  25.1539160  12.5646760   5.4255660  30.5068840
  12.9815550   5.2115770  29.6722300  13.2886580   5.6828450  31.0777460
  10.0027020   2.8707360  23.6238890   9.0756300   2.8044740  23.8527360
  10.1551840   3.8087490  23.5094130  16.5108860   3.8242880  30.5985080
  15.6827490   3.8935970  30.1235210  17.1059340   4.4097190  30.1300910
  14.0324310   4.4327660  24.1274140  13.4136730   4.0947210  23.4800440
  14.0148760   3.7887420  24.8353330   5.6083660   3.3972100  26.4058620
   5.2040660   2.6849350  25.9104520   5.6946780   3.0525340  27.2946660
   6.0765360   7.0839660  28.5697830   5.7793650   6.4785130  27.8905610
   7.0265180   7.1216970  28.4587190  14.1650970  10.6571530  32.2320930
  13.6881530  11.4643720  32.0393540  13.4812760  10.0049860  32.3847140
   5.1683790   6.8221350  35.2205630   4.2712320   7.0461320  35.4679030
   5.1936660   6.9456290  34.2717030  12.2089010   3.6714470  21.1346890
  12.6482290   2.8336900  20.9884710  12.9217430   4.3043870  21.2211030
   3.9955010   3.6934670  33.7963000   3.8562780   4.5657470  34.1650400
   3.1136370   3.3507480  33.6510940  10.3184390   8.6110540  25.1028130
  10.7580300   9.3534870  24.6883520  10.2571280   8.8537110  26.0267090
   5.7935360   9.6356370  36.0048150   5.7650790  10.0399320  35.1376580
   5.6300330   8.7066730  35.8419750   2.3088290   2.2917080  23.9065270
   2.1885890   3.0179170  23.2946540   1.9989180   1.5219990  23.4293180
  17.7450180  10.4183470  37.3012320  18.2209900  10.8966360  37.9801400
  18.3657340  10.3500960  36.5757820  17.1483430   7.6096320  34.4612330
  17.2746490   7.3708200  33.5429510  17.1904810   6.7780860  34.9334410
  11.0100170  11.3124320  33.0307140  11.5244840  11.2232330  33.8329570
  10.1669250  11.6584020  33.3235050  12.9854570  11.5979660  22.4591140
  12.8255710  11.3082600  23.3572970  12.8201280  10.8219790  21.9236370
   5.4642950  11.3778190  24.2362760   5.2885430  10.4613730  24.0230560
   4.6098690  11.7365480  24.4760560  12.6880700   9.1067220  21.0189140
  11.9945860   9.1044510  20.3591420  13.4303560   8.6826540  20.5883310
  12.2530630  10.7329930  25.0937630  12.7087580   9.9519310  25.4076250
  12.5923150  11.4436750  25.6378810   6.5002980   1.9785800  20.5357450
   5.9319880   1.5304050  19.9093360   7.2091980   2.3378580  20.0022600
   7.7269300   2.7274360  29.8932800   8.0939430   2.2532930  30.6394140
   7.5374360   3.6015930  30.2341140   5.5168670   1.7683000  32.2117010
   5.2125740   2.6474980  32.4367370   6.4715130   1.8282790  32.2474450
   4.0450460   5.9743990  22.8083860   3.2712720   5.4341610  22.6482580
   4.7745090   5.4550600  22.4701620  14.8038440   4.9709350  28.6010250
  15.5237560   5.4664640  28.2106360  14.6020260   4.2927240  27.9564120
  10.1857240   5.0418410  34.4879250  10.1194550   4.1214080  34.2336840
   9.5562380   5.1393850  35.2023890   4.0887860   5.6424370  26.4462670
   4.6066530   4.8392630  26.3919560   3.6371880   5.5803510  27.2879500
   8.9757360   6.9090650  21.7189970   9.3173060   7.6532880  21.2233290
   8.1470070   7.2221770  22.0814800   4.7745520   3.0669980  36.2427920
   4.4745660   3.2127160  35.3455740   5.5456760   2.5075270  36.1501310
  10.1173970   7.8638980  34.2383050  10.1318510   6.9319940  34.0201960
   9.4099070   7.9498740  34.8772820  15.2511040   2.0478800  20.5081660
  15.1674760   2.4793020  19.6578100  15.9705230   2.5077150  20.9408480
  16.3285180   4.5046320  33.5851630  15.6033370   5.0975100  33.3881020
  16.8560640   4.4969860  32.7865000  16.2798290   8.9021060  23.2363790
  15.6374450   8.2476680  23.5107510  15.8928950   9.3076150  22.4604460
  11.8584770   6.2306490  27.0835480  12.2108590   5.6334620  26.4236850
  10.9747100   5.9050720  27.2543730   7.9448050   6.9904180  24.4905890
   8.6319180   7.5373390  24.8713480   7.1580470   7.5344910  24.5255500
   7.2475260   3.9950210  24.1031250   7.7038040   4.8055460  24.3291440
   6.8963470   3.6773350  24.9349740   9.5507870   9.5056550  31.3323550
  10.1950090   9.7115930  32.0096970   9.9137310   8.7444950  30.8794400
  10.8239950   7.5088900  30.0501000  11.4662180   6.8082060  30.1633170
  11.3489300   8.2887340  29.8697890  14.6695670   7.7937520  19.7740140
  14.4433250   7.0767960  20.3664780  14.2791870   7.5449960  18.9361890
  12.5977570   8.3083800  33.2537060  12.9333810   8.8950490  33.9314980
  11.6777910   8.1776510  33.4834850  14.2511920   5.7109460  21.4354300
  13.9633620   6.1722150  22.2232180  15.0464090   5.2507230  21.7038520
   8.4266150   8.3575130  36.4225120   8.1063020   7.6384370  36.9670810
   7.7524510   9.0330200  36.4961180   6.4680320   9.2035580  21.3658270
   6.4590420   9.9365270  20.7502780   5.5478680   8.9567160  21.4585230
   9.4539920   9.2663820  20.0283460   9.5551900   9.0627810  19.0985440
   8.5541660   9.0122100  20.2331240   8.0958030  11.7850140  24.7231130
   8.3499530  11.7471530  23.8010500   7.1470510  11.6583470  24.7159380
  14.1010610   2.7042020  26.2989640  13.1600750   2.7192250  26.4737330
  14.4154680   1.9177980  26.7449940   4.0792250   4.3861620  19.8593600
   4.8455520   4.2742980  20.4219030   4.1566940   3.6899590  19.2070370
  16.1036190   9.8750870  27.9743900  16.2283610  10.6982040  28.4467710
  16.9701750   9.6641600  27.6268050   3.5753720  11.9682080  27.6461030
   4.3116200  11.4197540  27.9169600   3.9594640  12.8338090  27.5067020
   2.5812000  11.1528150  36.8346610   3.3824730  11.4740200  37.2482010
   2.0663820  10.7923730  37.5566520   6.6856030  11.1412390  19.4686600
   7.4784640  11.4301220  19.0168390   6.1660380  10.7104560  18.7899080
  11.4176630   7.2608020  36.7822020  10.8114790   7.2839620  36.0417770
  11.1130740   6.5291060  37.3189270  12.8477000  10.9888310  35.3931430
  13.7998750  10.9046330  35.3431670  12.7005220  11.6530020  36.0665220
  15.7386200  10.3682520  20.8923340  15.4527710   9.9547660  20.0777520
  15.5405750  11.2970230  20.7723860   7.2033430   6.3615800  19.3328950
   7.0984070   5.7468150  20.0590330   7.0357650   5.8381690  18.5491960
   7.3547750   5.0472600  35.3118180   6.5893420   5.6157600  35.2272850
   7.5363710   4.7548810  34.4186410  10.4436160   5.4235830  19.9370940
   9.8946260   5.8705130  20.5813680  11.0655420   4.9185080  20.4608610
  14.4971100   6.7777930  35.8693200  15.2380570   7.1153690  35.3660660
  13.7343780   6.9469990  35.3162970   2.3332890   1.7831200  36.6732730
   2.3738230   1.4845070  37.5817960   3.1878390   2.1838810  36.5140250
   6.1111280   4.3826750  21.8336240   6.5327700   4.2166620  22.6767630
   6.2362120   3.5726980  21.3391380   8.6238920   3.4064360  19.0813340
   9.1444580   2.6913380  18.7154490   9.2707320   4.0450230  19.3813850
  13.1716760   4.8292760  34.4048410  13.5857780   4.9837840  35.2538830
  12.2367760   4.9547980  34.5674190   7.9331990   4.7813240  32.3744340
   8.3520100   5.6245970  32.2020580   7.0140620   4.9185280  32.1451120
  10.2695890   2.5129420  33.7582180  10.3892100   1.9170560  34.4977020
  11.1289890   2.5499110  33.3383480  12.6083790   3.0666610  32.3344690
  12.0819010   3.5909230  31.7309830  12.9515130   3.6994000  32.9654420
   5.7839410  11.0866250  33.4902070   5.2460500  11.8112310  33.1710770
   6.0373370  10.6096590  32.6999410   8.6401620  12.3217460  33.7488720
   8.5660320  13.2252600  34.0561090   7.7380460  12.0029360  33.7210790
   9.1886950  11.4875970  21.3715080  10.0837740  11.8260940  21.3933840
   9.2204580  10.7655380  20.7439360   2.8283110   6.8603020  19.6002080
   3.2657980   7.4032690  20.2559660   3.3130840   6.0349970  19.6098420
   4.6390830   7.9801060  24.7124310   4.3386370   7.8566030  25.6128220
   4.5328320   7.1209650  24.3040040  16.1681300  10.0179640  34.0781280
  15.5683290  10.0772200  33.3345200  16.2975200   9.0784620  34.2078130
  17.4082750   7.7597460  19.4150990  16.5775710   7.8274110  19.8858220
  17.5854580   8.6501580  19.1117850  16.8639210   4.5044940  21.9185190
  17.6258120   5.0741590  22.0244880  16.8793580   3.9372140  22.6893500
  17.8699180   5.3595040  26.7627120  18.2408010   4.5762360  26.3563090
  18.5101110   6.0484140  26.5844420  14.8532940   6.7431620  32.1757440
  14.0392780   7.1728780  32.4383230  15.2607140   7.3550030  31.5626490
  16.9158380   4.7979310  19.0757710  17.1907220   5.7058190  18.9476930
  16.7269120   4.7341840  20.0119700  16.8123720   2.7348300  24.0687140
  16.4367320   1.9676230  23.6368430  16.0826840   3.1171000  24.5562070
  16.2023340   1.8819820  33.7026660  15.9709430   1.6532570  32.8024610
  16.4627890   2.8019370  33.6571550  14.9108990  11.4950220  25.7025710
  15.5068060  11.1734790  25.0260130  15.1687140  11.0222040  26.4938980
   2.8171560   7.9268130  35.8516340   2.7741190   7.5561040  36.7330800
   2.9482570   8.8645700  35.9918160   6.5177590   9.4827720  31.4526060
   6.2768950   9.7502280  30.5656580   7.4580230   9.6533450  31.5076920
  17.7781750  11.5022100  32.2536700  17.2840030  11.8990970  31.5363830
  17.1695040  10.8771310  32.6473980   2.6559590  10.8730380  32.9714120
   2.0619910  10.7415080  33.7104160   2.6483430  10.0368520  32.5056220
  15.4621200  12.1445520  29.5323440  15.0024170  12.8961330  29.1581460
  14.8333660  11.4251990  29.4738240   2.2871820   8.2388760  31.9222160
   1.5605880   7.6194050  31.8548110   2.3480970   8.6329370  31.0520240
   5.8916920  10.4533760  28.7071570   6.4081940   9.8421120  28.1819830
   6.5414300  10.9562540  29.1982580   8.6312420  11.3442250  29.5340550
   8.9190230  11.0896550  28.6573560   9.1435640  10.7919610  30.1246120
   2.1764520  10.2496380  22.5769060   1.6512140  10.6304410  21.8731020
   2.1009100  10.8747150  23.2978770   8.6984780  12.2658350  36.9008750
   9.6252090  12.0302620  36.9444710   8.6835210  13.0930350  36.4194780
  16.9329840  11.8083920  23.8983000  17.1082030  11.1221660  23.2543920
  16.2351410  12.3330970  23.5059670   4.7757490  12.1978760  21.4518310
   5.5076310  11.9138040  20.9042200   5.0351160  11.9592040  22.3417690
   3.9372280   8.3143490  21.4564640   3.3081160   8.7828590  22.0050470
   4.0520110   7.4692710  21.8910830  15.2662340  11.4928210  36.7249790
  16.0587660  10.9977440  36.5175750  15.5595490  12.1718350  37.3325400
   9.5240040   4.1428170   9.4875110   8.7482140   3.6628610   9.7773680
  10.1752970   3.4633820   9.3131270   3.5405870   4.4547980  10.3650870
   2.7090750   4.1996690  10.7647380   4.1486850   4.5258750  11.1008790
  13.5447470   8.5488360   8.2674240  13.0829000   7.7775600   8.5961410
  14.3573020   8.5754430   8.7726690   3.5207130   8.4888070  10.5608890
   3.8235170   7.5985810  10.3819110   4.2650720   9.0458290  10.3331140
   9.7710780  10.8346370   7.8878230   9.1522220  11.2903870   7.3172670
  10.6262560  10.9897830   7.4867930   8.9649030   6.8185360   9.4945270
   8.8957310   5.8775300   9.3334400   9.7268890   6.9086770  10.0667840
  10.6374130   5.7185610   5.2810140  10.0191400   6.1835060   4.7172860
  11.1497380   6.4113090   5.6979650   5.5005890   5.2461480  11.9593740
   5.1675270   5.8730400  12.6014810   5.6772570   5.7723360  11.1795410
   4.7124990   7.2142280  13.7742920   5.3298990   7.8893360  13.4927370
   3.8518110   7.6230260  13.6830420  15.6302580   8.6781690  11.6897560
  14.9466100   9.3480800  11.6814230  16.1696870   8.8762340  10.9242420
  13.1661320  10.5225820  10.4042740  13.1788480  10.1188110   9.5365000
  12.6136540  11.2973110  10.3004170  14.4606740   7.2442040   5.4932910
  14.3503070   6.3016370   5.6182330  14.4574990   7.6057680   6.3795670
  12.5646760   5.4255660  11.7325350  12.9815550   5.2115770  10.8978810
  13.2886580   5.6828450  12.3033970  10.0027020   2.8707360   4.8495400
   9.0756300   2.8044740   5.0783870  10.1551840   3.8087490   4.7350640
  16.5108860   3.8242880  11.8241590  15.6827490   3.8935970  11.3491720
  17.1059340   4.4097190  11.3557420  14.0324310   4.4327660   5.3530650
  13.4136730   4.0947210   4.7056950  14.0148760   3.7887420   6.0609840
   5.6083660   3.3972100   7.6315130   5.2040660   2.6849350   7.1361030
   5.6946780   3.0525340   8.5203170   6.0765360   7.0839660   9.7954340
   5.7793650   6.4785130   9.1162120   7.0265180   7.1216970   9.6843700
  14.1650970  10.6571530  13.4577440  13.6881530  11.4643720  13.2650050
  13.4812760  10.0049860  13.6103650   5.1683790   6.8221350  16.4462140
   4.2712320   7.0461320  16.6935540   5.1936660   6.9456290  15.4973540
  12.2089010   3.6714470   2.3603400  12.6482290   2.8336900   2.2141220
  12.9217430   4.3043870   2.4467540   3.9955010   3.6934670  15.0219510
   3.8562780   4.5657470  15.3906910   3.1136370   3.3507480  14.8767450
  10.3184390   8.6110540   6.3284640  10.7580300   9.3534870   5.9140030
  10.2571280   8.8537110   7.2523600   5.7935360   9.6356370  17.2304660
   5.7650790  10.0399320  16.3633090   5.6300330   8.7066730  17.0676260
   2.3088290   2.2917080   5.1321780   2.1885890   3.0179170   4.5203050
   1.9989180   1.5219990   4.6549690  17.7450180  10.4183470  18.5268830
  18.2209900  10.8966360  19.2057910  18.3657340  10.3500960  17.8014330
  17.1483430   7.6096320  15.6868840  17.2746490   7.3708200  14.7686020
  17.1904810   6.7780860  16.1590920  11.0100170  11.3124320  14.2563650
  11.5244840  11.2232330  15.0586080  10.1669250  11.6584020  14.5491560
  12.9854570  11.5979660   3.6847650  12.8255710  11.3082600   4.5829480
  12.8201280  10.8219790   3.1492880   5.4642950  11.3778190   5.4619270
   5.2885430  10.4613730   5.2487070   4.6098690  11.7365480   5.7017070
  12.2530630  10.7329930   6.3194140  12.7087580   9.9519310   6.6332760
  12.5923150  11.4436750   6.8635320   7.7269300   2.7274360  11.1189310
   8.0939430   2.2532930  11.8650650   7.5374360   3.6015930  11.4597650
   5.5168670   1.7683000  13.4373520   5.2125740   2.6474980  13.6623880
   6.4715130   1.8282790  13.4730960   4.0450460   5.9743990   4.0340370
   3.2712720   5.4341610   3.8739090   4.7745090   5.4550600   3.6958130
  14.8038440   4.9709350   9.8266760  15.5237560   5.4664640   9.4362870
  14.6020260   4.2927240   9.1820630  10.1857240   5.0418410  15.7135760
  10.1194550   4.1214080  15.4593350   9.5562380   5.1393850  16.4280400
   4.0887860   5.6424370   7.6719180   4.6066530   4.8392630   7.6176070
   3.6371880   5.5803510   8.5136010   8.9757360   6.9090650   2.9446480
   9.3173060   7.6532880   2.4489800   8.1470070   7.2221770   3.3071310
   4.7745520   3.0669980  17.4684430   4.4745660   3.2127160  16.5712250
   5.5456760   2.5075270  17.3757820  10.1173970   7.8638980  15.4639560
  10.1318510   6.9319940  15.2458470   9.4099070   7.9498740  16.1029330
  16.3285180   4.5046320  14.8108140  15.6033370   5.0975100  14.6137530
  16.8560640   4.4969860  14.0121510  16.2798290   8.9021060   4.4620300
  15.6374450   8.2476680   4.7364020  15.8928950   9.3076150   3.6860970
  11.8584770   6.2306490   8.3091990  12.2108590   5.6334620   7.6493360
  10.9747100   5.9050720   8.4800240   7.9448050   6.9904180   5.7162400
   8.6319180   7.5373390   6.0969990   7.1580470   7.5344910   5.7512010
   7.2475260   3.9950210   5.3287760   7.7038040   4.8055460   5.5547950
   6.8963470   3.6773350   6.1606250   9.5507870   9.5056550  12.5580060
  10.1950090   9.7115930  13.2353480   9.9137310   8.7444950  12.1050910
  10.8239950   7.5088900  11.2757510  11.4662180   6.8082060  11.3889680
  11.3489300   8.2887340  11.0954400  12.5977570   8.3083800  14.4793570
  12.9333810   8.8950490  15.1571490  11.6777910   8.1776510  14.7091360
  14.2511920   5.7109460   2.6610810  13.9633620   6.1722150   3.4488690
  15.0464090   5.2507230   2.9295030   8.4266150   8.3575130  17.6481630
   8.1063020   7.6384370  18.1927320   7.7524510   9.0330200  17.7217690
   6.4680320   9.2035580   2.5914780   6.4590420   9.9365270   1.9759290
   5.5478680   8.9567160   2.6841740   8.0958030  11.7850140   5.9487640
   8.3499530  11.7471530   5.0267010   7.1470510  11.6583470   5.9415890
  14.1010610   2.7042020   7.5246150  13.1600750   2.7192250   7.6993840
  14.4154680   1.9177980   7.9706450  16.1036190   9.8750870   9.2000410
  16.2283610  10.6982040   9.6724220  16.9701750   9.6641600   8.8524560
   3.5753720  11.9682080   8.8717540   4.3116200  11.4197540   9.1426110
   3.9594640  12.8338090   8.7323530   2.5812000  11.1528150  18.0603120
   3.3824730  11.4740200  18.4738520   2.0663820  10.7923730  18.7823030
  11.4176630   7.2608020  18.0078530  10.8114790   7.2839620  17.2674280
  11.1130740   6.5291060  18.5445780  12.8477000  10.9888310  16.6187940
  13.7998750  10.9046330  16.5688180  12.7005220  11.6530020  17.2921730
   7.3547750   5.0472600  16.5374690   6.5893420   5.6157600  16.4529360
   7.5363710   4.7548810  15.6442920  14.4971100   6.7777930  17.0949710
  15.2380570   7.1153690  16.5917170  13.7343780   6.9469990  16.5419480
   2.3332890   1.7831200  17.8989240   2.3738230   1.4845070  18.8074470
   3.1878390   2.1838810  17.7396760   6.1111280   4.3826750   3.0592750
   6.5327700   4.2166620   3.9024140   6.2362120   3.5726980   2.5647890
  13.1716760   4.8292760  15.6304920  13.5857780   4.9837840  16.4795340
  12.2367760   4.9547980  15.7930700   7.9331990   4.7813240  13.6000850
   8.3520100   5.6245970  13.4277090   7.0140620   4.9185280  13.3707630
  10.2695890   2.5129420  14.9838690  10.3892100   1.9170560  15.7233530
  11.1289890   2.5499110  14.5639990  12.6083790   3.0666610  13.5601200
  12.0819010   3.5909230  12.9566340  12.9515130   3.6994000  14.1910930
   5.7839410  11.0866250  14.7158580   5.2460500  11.8112310  14.3967280
   6.0373370  10.6096590  13.9255920   8.6401620  12.3217460  14.9745230
   8.5660320  13.2252600  15.2817600   7.7380460  12.0029360  14.9467300
   9.1886950  11.4875970   2.5971590  10.0837740  11.8260940   2.6190350
   9.2204580  10.7655380   1.9695870   4.6390830   7.9801060   5.9380820
   4.3386370   7.8566030   6.8384730   4.5328320   7.1209650   5.5296550
  16.1681300  10.0179640  15.3037790  15.5683290  10.0772200  14.5601710
  16.2975200   9.0784620  15.4334640  16.8639210   4.5044940   3.1441700
  17.6258120   5.0741590   3.2501390  16.8793580   3.9372140   3.9150010
  17.8699180   5.3595040   7.9883630  18.2408010   4.5762360   7.5819600
  18.5101110   6.0484140   7.8100930  14.8532940   6.7431620  13.4013950
  14.0392780   7.1728780  13.6639740  15.2607140   7.3550030  12.7883000
  16.8123720   2.7348300   5.2943650  16.4367320   1.9676230   4.8624940
  16.0826840   3.1171000   5.7818580  16.2023340   1.8819820  14.9283170
  15.9709430   1.6532570  14.0281120  16.4627890   2.8019370  14.8828060
  14.9108990  11.4950220   6.9282220  15.5068060  11.1734790   6.2516640
  15.1687140  11.0222040   7.7195490   2.8171560   7.9268130  17.0772850
   2.7741190   7.5561040  17.9587310   2.9482570   8.8645700  17.2174670
   6.5177590   9.4827720  12.6782570   6.2768950   9.7502280  11.7913090
   7.4580230   9.6533450  12.7333430  17.7781750  11.5022100  13.4793210
  17.2840030  11.8990970  12.7620340  17.1695040  10.8771310  13.8730490
   2.6559590  10.8730380  14.1970630   2.0619910  10.7415080  14.9360670
   2.6483430  10.0368520  13.7312730  15.4621200  12.1445520  10.7579950
  15.0024170  12.8961330  10.3837970  14.8333660  11.4251990  10.6994750
   2.2871820   8.2388760  13.1478670   1.5605880   7.6194050  13.0804620
   2.3480970   8.6329370  12.2776750   5.8916920  10.4533760   9.9328080
   6.4081940   9.8421120   9.4076340   6.5414300  10.9562540  10.4239090
   8.6312420  11.3442250  10.7597060   8.9190230  11.0896550   9.8830070
   9.1435640  10.7919610  11.3502630   2.1764520  10.2496380   3.8025570
   1.6512140  10.6304410   3.0987530   2.1009100  10.8747150   4.5235280
   8.6984780  12.2658350  18.1265260   9.6252090  12.0302620  18.1701220
   8.6835210  13.0930350  17.6451290  16.9329840  11.8083920   5.1239510
  17.1082030  11.1221660   4.4800430  16.2351410  12.3330970   4.7316180
   4.7757490  12.1978760   2.6774820   5.5076310  11.9138040   2.1298710
   5.0351160  11.9592040   3.5674200   3.9372280   8.3143490   2.6821150
   3.3081160   8.7828590   3.2306980   4.0520110   7.4692710   3.1167340
  15.2662340  11.4928210  17.9506300  16.0587660  10.9977440  17.7432260
  15.5595490  12.1718350  18.5581910
  92.6043160 100.0948430  74.7432050  90.0000000  90.0000000  90.0000000
