default_name
 70659
  27.5150166  41.3728956  57.9857410  27.7169198  40.9873767  56.9863860
  28.3766872  41.6751841  56.4574945  26.7800075  40.8894569  56.4380193
  28.3839198  39.6303767  57.0503860  28.6349198  39.0933767  58.1373860
  28.6959198  39.0233767  55.9553860  28.4763729  39.4153922  55.0508296
  29.3389198  37.7163767  56.0043860  29.8077827  37.5718219  56.9777157
  28.3109198  36.6053767  55.7873860  27.5229407  36.7491401  56.5266561
  27.8991879  36.7407390  54.7872591  28.8759198  35.2003767  55.9163860
  29.6768298  35.0748412  55.1877676  29.2777075  35.0768791  56.9220783
  27.8319198  34.1293767  55.6773860  26.6489198  34.4253767  55.5123860
  28.2659198  32.8753767  55.6553860  27.6127959  32.1208352  55.4998299
  29.2473296  32.6813681  55.7942989  30.4419198  37.6183767  54.9573860
  30.2739198  36.9613767  53.9313860  31.5719198  38.2683767  55.2233860
  31.6692340  38.7817343  56.0877316  32.6709198  38.3083767  54.2693860
  32.4381921  37.6602284  53.4244951  32.9089198  39.7273767  53.7463860
  33.8097736  39.7427314  53.1329320  32.0554572  40.0416431  53.1456045
  33.1439198  40.9813767  55.0253860  33.9249198  37.7643767  54.9353860
  33.9999198  37.6403767  56.1583860  34.9119198  37.4363767  54.1063860
  34.7581902  37.5105335  53.1109126  36.1979198  36.9403767  54.5703860
  36.2085679  36.9358444  55.6603242  36.4679198  35.5203767  54.0733860
  35.7857046  34.8269083  54.5651007  36.3145483  35.4769615  52.9951039
  38.1539198  34.9623767  54.4093860  37.3119198  37.8613767  54.0963860
  37.2939198  38.3393767  52.9583860  38.2579198  38.1253767  54.9983860
  38.0740563  37.8671653  55.9573545  39.4919198  38.8573767  54.7003860
  39.8900057  39.2972281  55.6148025  40.5589198  37.9333767  54.0953860
  40.5608768  37.0013834  54.6606159  40.2939198  37.6353767  52.6283860
  40.2922747  38.5669122  52.0624015  41.0741692  36.9785576  52.2438102
  39.3250398  37.1466935  52.5256201  41.8449198  38.5533767  54.2103860
  42.5130568  37.9768165  53.8325348  39.2459198  40.0663767  53.8013860
  40.0939198  40.4333767  52.9843860  38.0909198  40.7093767  53.9553860
  37.3237037  40.2883786  54.4596076  37.8849198  42.0163767  53.3523860
  38.7433662  42.6526592  53.5675916  37.7229198  41.9123767  51.8423860
  37.5975204  42.9155320  51.4348891  38.6230876  41.4611423  51.4250308
  36.5979198  41.1213767  51.5033860  36.5180061  41.0714991  50.5480192
  36.6649198  42.6853767  53.9663860  35.9449198  42.0963767  54.7753860
  36.4519198  43.9373767  53.5583860  37.0638445  44.3604346  52.8752539
  35.3789198  44.7453767  54.1173860  35.2554275  44.5627526  55.1848584
  35.6679198  46.2353767  53.8833860  35.7001636  46.4260352  52.8106745
  34.5849198  47.0943767  54.5183860  34.5523825  46.9045980  55.5912448
  34.8059012  48.1471848  54.3427070  33.6193494  46.8477377  54.0768634
  37.0469198  46.6063767  54.4373860  36.9768737  46.5781223  55.5247664
  37.7474566  45.8429411  54.0989873  37.5349198  47.9653767  54.0003860
  36.8350852  48.7294285  54.3388475  38.5170902  48.1557353  54.4330569
  37.6056659  47.9942480  52.9130676  34.0539198  44.3383767  53.4933860
  34.0009198  43.8923767  52.3403860  32.9729198  44.4863767  54.2553860
  33.0755708  44.6896452  55.2393799  31.6309198  44.3093767  53.7243860
  31.5808055  44.7525328  52.7298005  31.2439198  42.8293767  53.6213860
  30.2166525  42.7457445  53.2666652  31.9114613  42.3265887  52.9216057
  31.3309198  41.8833767  55.1463860  30.6329198  45.0503767  54.5993860
  30.9119198  45.3743767  55.7563860  29.4659198  45.3243767  54.0233860
  29.3573801  45.0543873  53.0562127  28.3739198  46.0483767  54.6663860
  27.5832443  46.2328363  53.9391267  27.7879198  45.2463767  55.8343860
  27.4554672  44.2776713  55.4613118  28.5665508  45.0991563  56.5828244
  26.6929198  45.9273767  56.4203860  26.3441601  45.4064757  57.1474545
  28.7889198  47.4313767  55.1513860  28.0739198  48.0413767  55.9543860
  29.9249198  47.9433767  54.6863860  30.5291214  47.3991458  54.0873430
  30.3559198  49.2763767  55.0713860  30.1627039  49.4382991  56.1318331
  31.8549198  49.4393767  54.8173860  32.3007093  48.6369218  55.4051250
  32.0124190  49.2429409  53.7568640  32.5109198  50.7713767  55.1923860
  32.0860646  51.5528965  54.5624450  32.2829198  51.1173767  56.6473860
  32.7079404  50.3364905  57.2779992  32.7634649  52.0689523  56.8747207
  31.2128469  51.1963317  56.8392469  33.9979198  50.7083767  54.9063860
  34.1565113  50.5143848  53.8455772  34.4605984  51.6581409  55.1746725
  34.4476274  49.9072296  55.4929228  29.5589198  50.3293767  54.3063860
  28.8579198  50.0323767  53.3353860  29.6439198  51.5713767  54.7783860
  30.1252260  51.7326443  55.6515621  29.0109198  52.7063767  54.1183860
  28.5039990  52.3763245  53.2116357  27.9749198  53.3473767  55.0543860
  27.1413257  52.6487859  55.1264347  28.4432897  53.4554821  56.0326717
  27.4659198  54.6923767  54.5883860  28.0869198  55.8663767  54.9903860
  28.9523365  55.8031343  55.6500478  27.6279198  57.0983767  54.5703860
  28.1272118  58.0123703  54.8919837  26.5309198  57.1683767  53.7413860
  26.0719198  58.3963767  53.3223860  26.5892260  59.1278285  53.6673094
  25.8939198  56.0183767  53.3293860  25.0259597  56.0735198  52.6723434
  26.3619198  54.7893767  53.7543860  25.8618040  53.8753367  53.4342061
  30.0129198  53.7543767  53.6583860  30.0049198  54.1403767  52.4853860
  30.8879198  54.2253767  54.5443860  30.8949779  53.8635261  55.4873143
  31.8149198  55.3043767  54.2093860  31.8865095  55.3988719  53.1258526
  31.3399198  56.6373767  54.7853860  30.3829530  56.8691359  54.3178376
  31.1952592  56.4938671  55.8561700  32.3049198  57.7833767  54.5553860
  33.1650997  57.6510580  55.2116505  32.6348134  57.7649491  53.5166692
  31.6809198  59.1343767  54.8413860  30.5069198  59.2253767  55.2003860
  32.4639198  60.1923767  54.6793860  32.1000712  61.1178620  54.8560002
  33.4204926  60.0677882  54.3801413  33.2039198  54.9583767  54.7263860
  33.3469198  54.4193767  55.8273860  34.2159198  55.2693767  53.9253860
  34.0076966  55.6087280  52.9971710  35.6099198  55.1163767  54.3063860
  35.7140714  55.2524253  55.3828350  36.1199198  53.7223767  53.9383860
  35.2816399  53.0803346  54.2088819  36.2570060  53.7038339  52.8571998
  37.3919198  53.2153767  54.6223860  37.2819199  53.3120452  55.7025046
  37.6269198  51.7583767  54.2663860  37.7374858  51.6609703  53.1863925
  38.5339601  51.4056153  54.7572403  36.7782762  51.1609673  54.5995623
  38.6019198  54.0513767  54.2523860  38.4377422  55.0845372  54.5585306
  39.4839157  53.6588075  54.7584233  38.7550145  54.0125080  53.1738916
  36.4409198  56.1823767  53.6053860  36.3449198  56.3643767  52.3913860
  37.2569198  56.8993767  54.3723860  37.3475384  56.7566667  55.3681377
  38.0209198  57.9733767  53.7573860  38.4945325  57.6093486  52.8456439
  37.1129198  59.1553767  53.3993860  37.7609368  59.9603538  53.0527089
  36.4721539  58.8274173  52.5808741  36.2549198  59.6553767  54.5423860
  35.5019035  58.9050935  54.7835135  36.9044871  59.8075578  55.4043619
  35.5859198  60.9783767  54.2293860  36.0969198  61.7153767  53.3593860
  34.5459198  61.2803767  54.8503860  34.1912425  62.1357797  54.5980592
  39.1369198  58.4503767  54.6703860  38.9039198  58.7533767  55.8403860
  34.2756558  60.6071692  55.4790576  35.6133344  62.5353904  53.2325169
  36.8835490  61.3361191  52.9615228  40.3419198  58.5333767  54.1163860
  40.5476559  58.0325309  53.2637868  41.4039198  59.3123767  54.7313860
  41.4199649  59.1280362  55.8055649  42.7609198  58.9273767  54.1503860
  42.7643197  57.8554237  53.9528907  42.9094947  59.4688920  53.2161555
  43.9059198  59.2503767  55.0833860  43.7999198  60.1403767  55.9243860
  45.0099198  58.5293767  54.9393860  45.8050554  58.7040785  55.5371640
  45.0503351  57.8089920  54.2326235  41.1099198  60.7873767  54.4893860
  40.1009198  61.1283767  53.8643860  41.9799198  61.6653767  54.9833860
  42.7937641  61.3633956  55.4996845  41.7539198  63.0953767  54.8253860
  41.5655327  63.3232880  53.7762598  40.5449198  63.5483767  55.6493860
  39.8358177  62.7209990  55.6225612  40.8825584  63.7037601  56.6740597
  39.8729198  64.8033767  55.1453860  40.5079198  66.0343767  55.2183860
  41.5104955  66.0844720  55.6431587  39.8919198  67.1843767  54.7643860
  40.4049344  68.1444476  54.8207925  38.6199198  67.1123767  54.2373860
  38.0009198  68.2533767  53.7863860  38.5435142  69.0390017  53.8863073
  37.9659198  65.9023767  54.1603860  36.9605816  65.8449496  53.7431358
  38.5909198  64.7583767  54.6153860  38.0771093  63.7985720  54.5617790
  42.9989198  63.8553767  55.2523860  43.6349198  63.4993767  56.2483860
  43.3349198  64.8983767  54.5003860  42.8250230  65.0742613  53.6464719
  44.4519198  65.7763767  54.8323860  44.2477395  66.2837042  55.7752691
  45.7539198  64.9833767  54.9753860  46.6027095  65.6653902  54.9252578
  45.7609353  64.4652771  55.9343561  46.0349198  63.7093767  53.7343860
  44.6139198  66.8583767  53.7723860  44.5619198  66.5763767  52.5743860
  44.8069198  68.0813767  54.1333860  44.8547536  68.3464079  55.1068179
  44.9619198  69.1193767  53.1283860  44.8864493  68.6778729  52.1346661
  44.1786794  69.8669977  53.2536775  45.9370648  69.5929940  53.2418710
  31.6527749  24.5628637  60.5543972  31.4649198  24.7823767  59.5033860
  30.6999000  25.5547468  59.4240923  31.1222307  23.8791112  58.9986340
  32.7209198  25.2733767  58.8163860  33.7869198  25.3843767  59.4373860
  32.6809198  25.5813767  57.5643860  31.8386569  25.4708142  57.0180632
  33.8839198  26.0553767  56.8913860  34.5919876  26.4384246  57.6262421
  34.5489198  24.9153767  56.1203860  34.4632516  23.9882502  56.6871282
  34.0763636  24.7900689  55.1461742  36.0079198  25.1273767  55.8643860
  36.5699198  26.3803767  55.7403860  36.0570590  27.2478435  55.8080246
  37.8669198  26.2603767  55.5223860  38.4929653  27.1434143  55.3942825
  38.1679198  24.9743767  55.5023860  39.0864893  24.5810898  55.3552291
  37.0239198  24.2453767  55.7153860  37.0675984  23.1564580  55.7365848
  33.5359198  27.2033767  55.9533860  32.7219198  27.0453767  55.0443860
  34.1499198  28.3633767  56.1863860  34.7827799  28.4516869  56.9685553
  33.8889198  29.5443767  55.3713860  33.1471698  29.3114392  54.6074186
  33.3529198  30.6823767  56.2423860  32.4420765  30.2693919  56.6758687
  34.0799968  30.8665493  57.0332966  33.0279198  31.9993767  55.5313860
  32.7474009  31.7868933  54.4997559  31.8819198  32.7093767  56.2313860
  32.1618886  32.9226204  57.2630078  31.6626669  33.6436056  55.7144283
  30.9976996  32.0721018  56.2197355  34.2439198  32.9083767  55.4653860
  35.0428713  32.4081279  54.9180954  33.9788394  33.8341824  54.9547811
  34.5834986  33.1357516  56.4758739  35.1489198  29.9813767  54.6353860
  35.1159198  30.2103767  53.4223860  36.2609198  30.1003767  55.3573860
  36.2388196  29.8948869  56.3460138  37.5099198  30.5693767  54.7783860
  37.4644427  30.4688668  53.6939835  37.7719198  32.0393767  55.1233860
  36.8727237  32.4772535  55.5567561  38.5894573  32.1044824  55.8413649
  38.2229198  33.0603767  53.7043860  38.6539198  29.6963767  55.2733860
  38.5579198  29.0383767  56.3123860  39.7459198  29.7093767  54.5173860
  39.7952789  30.3484801  53.7368671  40.8759198  28.8413767  54.7653860
  40.5004638  27.9072673  55.1832037  41.3654498  28.6416281  53.8122018
  41.8859198  29.4383767  55.7223860  41.5689198  30.2833767  56.5623860
  43.1269198  28.9843767  55.5833860  43.3338792  28.3357650  54.8373498
  44.1969198  29.3473767  56.4973860  43.7878971  29.8803312  57.3557328
  44.9129198  28.0923767  56.9973860  45.4001283  27.6085516  56.1508399
  45.6653210  28.3883596  57.7284035  44.0019198  27.1883767  57.5973860
  44.4760817  26.4111624  57.9018661  45.1949198  30.2893767  55.8283860
  45.1899198  30.4903767  54.6113860  46.0619198  30.8723767  56.6533860
  45.9344523  30.7402328  57.6465574  47.1369198  31.7533767  56.2043860
  47.6694187  32.1498908  57.0688631  48.1329198  30.9953767  55.3213860
  48.2170222  29.9601154  55.6519311  47.8023935  31.0189730  54.2829759
  49.5159198  31.5653767  55.3433860  50.6429198  30.7893767  55.1833860
  50.6351498  29.7897215  55.0394109  51.7169198  31.5563767  55.2483860
  52.7132971  31.1270177  55.1435905  51.3269198  32.8023767  55.4453860
  51.9305945  33.6070656  55.5356767  49.9549198  32.8353767  55.5093860
  49.4394153  33.7823259  55.6695226  46.6089198  32.9783767  55.4683860
  47.2929198  33.5283767  54.5993860  45.3979198  33.4153767  55.7963860
  44.8240072  32.9029884  56.4507421  44.8489198  34.6183767  55.1933860
  44.9953618  34.5911295  54.1136122  43.3529198  34.7223767  55.4803860
  43.3052820  35.0166379  56.5288326  42.9286455  35.5133233  54.8619243
  42.5559198  33.4333767  55.2763860  42.8606420  32.7046737  56.0275432
  41.0709198  33.7033767  55.4083860  40.7653429  34.4316931  54.6572024
  40.5178958  32.7758050  55.2604808  40.8596604  34.0971532  56.4025741
  42.8739198  32.8143767  53.9333860  43.9376497  32.5820084  53.8825633
  42.2961324  31.8985351  53.8088982  42.6174601  33.5158902  53.1395308
  45.5679198  35.8533767  55.7213860  45.9569198  35.9233767  56.8893860
  45.7429198  36.8363767  54.8423860  45.4066485  36.7182967  53.8973579
  46.4509198  38.0663767  55.1753860  46.4867466  38.2258997  56.2530539
  47.8929198  38.0583767  54.6303860  47.8636925  37.9093712  53.5510147
  48.5859198  39.3763767  54.9413860  48.6159441  39.5258693  56.0206689
  49.6028954  39.3540121  54.5497729  48.0361818  40.1949852  54.4768755
  48.6739198  36.8913767  55.2113860  48.1867772  35.9554165  54.9379400
  49.6897274  36.9006525  54.8162297  48.7062285  36.9798270  56.2973112
  45.6749198  39.2493767  54.6163860  45.1689198  39.2003767  53.4913860
  45.5799198  40.3093767  55.4113860  45.8937032  40.2239511  56.3675982
  45.0169198  41.5793767  54.9813860  45.0749590  41.6496279  53.8952022
  43.5529198  41.7153767  55.4023860  43.0208787  40.8510896  55.0048444
  43.5262323  41.6883135  56.4917232  42.8869198  42.9893767  54.9113860
  43.4616667  43.8473841  55.2600837  42.8890849  42.9699212  53.8215622
  41.4489198  43.1103767  55.3673860  41.0729198  42.4123767  56.3303860
  40.6949198  43.9013767  54.7633860  39.8007105  43.9100778  55.1119448
  45.8369198  42.7093767  55.5833860  46.4189198  42.5593767  56.6613860
  41.1351362  44.3673920  54.0488805  40.1468082  42.5432960  56.5484465
  41.7732460  41.8659652  56.6935594  45.8829198  43.8393767  54.8843860
  45.4113668  43.8879116  53.9925444  46.6289198  45.0043767  55.3343860
  46.5227768  45.1173149  56.4133104  48.1149198  44.8663767  55.0013860
  48.2380323  44.7615804  53.9234430  48.6482427  45.7535171  55.3429248
  48.5192717  43.9855206  55.5000756  46.0549198  46.2543767  54.6873860
  46.2669198  46.4933767  53.4953860  45.3429198  47.0503767  55.4763860
  45.1959353  46.7766326  56.4374058  44.7249198  48.2823767  55.0073860
  44.8057101  48.3444210  53.9221567  43.2449198  48.3233767  55.3903860
  42.7810603  47.6172845  54.7016426  43.1526428  47.9494443  56.4100720
  42.5449198  49.6773767  55.2793860  42.9154958  50.3321394  56.0680938
  42.8139198  50.3063767  53.9373860  42.4431802  49.6523621  53.1481358
  42.3067265  51.2693985  53.8786931  43.8867851  50.4531754  53.8128448
  41.0529198  49.5153767  55.5073860  40.8793312  49.1044195  56.5019114
  40.5648221  50.4865695  55.4258598  40.6417441  48.8386502  54.7583367
  45.4659198  49.4713767  55.5993860  45.5769198  49.5933767  56.8233860
  45.9689198  50.3433767  54.7293860  45.8251696  50.1801527  53.7430833
  46.7429198  51.5093767  55.1303860  46.8975114  51.4904523  56.2092013
  48.1079198  51.5263767  54.4413860  47.9352644  51.5033946  53.3653929
  48.5671878  52.4762933  54.7149393  49.0279198  50.3933767  54.8273860
  48.7479198  49.0903767  54.4513860  47.8447586  48.8910409  53.8746151
  49.5889198  48.0543767  54.7943860  49.3519363  47.0328934  54.4968755
  50.7319198  48.3133767  55.5133860  51.5739198  47.2813767  55.8553860
  51.2671276  46.4274009  55.5420116  51.0369198  49.6013767  55.8943860
  51.9413621  49.8086651  56.4663267  50.1889198  50.6323767  55.5473860
  50.4266480  51.6552888  55.8393384  45.9809198  52.7793767  54.7823860
  45.5919198  52.9803767  53.6273860  45.7749198  53.6293767  55.7823860
  45.9856977  53.3195975  56.7203140  45.2419198  54.9723767  55.6023860
  45.0232853  55.1371227  54.5473235  43.9559198  55.1703767  56.4043860
  44.1991299  54.6830587  57.3485625  43.8497705  56.2430143  56.5665003
  42.6419198  54.6043767  55.8623860  41.9627650  54.4217842  56.6951583
  42.0059198  55.5813767  54.8983860  42.6843401  55.7641214  54.0650499
  41.0719916  55.1646630  54.5212541  41.8025025  56.5203320  55.4132498
  42.8489198  53.2643767  55.1963860  43.2562188  52.5577284  55.9194732
  41.8947722  52.8922533  54.8232536  43.5453427  53.3748921  54.3651938
  46.3119198  55.9523767  56.0603860  46.3649198  56.3063767  57.2423860
  47.1589198  56.3903767  55.1303860  46.9965621  56.1905984  54.1537449
  48.3739198  57.1093767  55.4963860  48.4148667  57.3221386  56.5646345
  49.6279198  56.3053767  55.1063860  49.6541836  56.1918578  54.0226319
  50.8859198  57.0243767  55.5713860  50.8605932  57.1378620  56.6551667
  51.7631919  56.4428995  55.2878754  50.9363320  58.0081074  55.1046588
  49.5709198  54.9003767  55.6833860  48.6905576  54.3848580  55.2995826
  50.4673653  54.3517370  55.3944578  49.5138980  54.9555253  56.7704960
  48.4109198  58.4873767  54.8523860  48.8509198  58.6403767  53.7073860
  47.9549198  59.4983767  55.5853860  47.3692910  59.3311680  56.3911028
  48.2559198  60.8753767  55.2253860  48.2788618  60.9760614  54.1402890
  47.1929198  61.8193767  55.7803860  46.8480904  61.4512230  56.7466442
  47.6187402  62.8152977  55.9025270  45.7179198  61.9843767  54.7543860
  49.6289198  61.2473767  55.7653860  49.7619198  61.7473767  56.8853860
  50.6549198  61.0013767  54.9573860  50.4818007  60.7673708  53.9902406
  52.0249198  61.0563767  55.4143860  52.1177283  60.4081620  56.2857662
  52.6641996  60.6827310  54.6145051  52.4719198  62.4553767  55.7903860
  51.6799198  63.3473767  56.0953860  53.7919198  62.6363767  55.7593860
  54.3812461  61.8846411  55.4312284  54.4299198  63.8583767  56.2323860
  54.2715656  63.9727148  57.3047432  55.9339198  63.7973767  55.9643860
  56.0655295  63.6982813  54.8869083  56.3590966  64.7445832  56.2962362
  56.6399198  62.6523767  56.6673860  56.4021890  62.6876690  57.7305602
  56.2683776  61.7195258  56.2433049  58.1429198  62.6823767  56.4713860
  58.6649198  63.7233767  56.0233860  58.8019198  61.6633767  56.7653860
  59.7427974  61.7636170  56.6045123  53.8379198  65.1023767  55.5853860
  53.6369198  65.1453767  54.3673860  58.2567642  60.9481656  57.1011798
  59.6173403  63.6512059  55.9230896  58.0275791  64.4217114  55.8589391
  53.5519198  66.1173767  56.3973860  53.6613302  65.9829214  57.3923988
  53.0549198  67.4033767  55.9243860  53.2445827  67.4925272  54.8547228
  51.5529198  67.5443767  56.1673860  51.3898218  67.4214075  57.2380759
  51.2753309  68.5561880  55.8719501  50.6999198  66.5433767  55.4073860
  50.9811229  66.5780167  54.3548530  50.8993529  65.5477262  55.8036290
  49.2189198  66.8563767  55.5463860  48.6488475  66.1485239  54.9446710
  48.9320162  66.7562912  56.5931757  48.9019198  68.2083767  55.1023860
  49.6576747  68.7481532  54.7054287  47.7019198  68.7653767  55.1843860
  46.6689198  68.1143767  55.6933860  46.7875162  67.1696447  56.0303078
  45.7664060  68.5650803  55.7427297  47.5329198  70.0093767  54.7453860
  48.3157814  70.5149490  54.3559961  46.6224947  70.4428027  54.8034108
  53.8139198  68.5063767  56.6453860  54.3259198  68.2913767  57.7493860
  53.8919198  69.6683767  56.0273860  53.5101421  69.7731577  55.0982111
  54.5169198  70.8183767  56.6463860  53.9011383  71.7005862  56.4714035
  54.6068544  70.6455988  57.7188407  55.9009198  71.0583767  56.0663860
  56.1569198  70.7603767  54.9013860  56.7749198  71.5963767  56.9133860
  56.4900317  71.7311117  57.8729613  58.1089198  72.0313767  56.5213860
  58.2118770  71.9602685  55.4385921  58.3599198  73.4813767  56.9423860
  58.3064424  73.5865146  58.0259844  59.3485345  73.7836556  56.5968889
  57.3819198  74.4683767  56.3653860  56.0389198  74.4133767  56.6943860
  55.6916929  73.6379811  57.3772440  55.1429198  75.3233767  56.1703860
  54.0863278  75.2620174  56.4310565  55.5849198  76.3083767  55.3183860
  54.8807077  77.0305269  54.9052464  56.9199198  76.3813767  54.9873860
  57.2726167  77.1598040  54.3108094  57.8119198  75.4673767  55.5133860
  58.8696857  75.5288649  55.2575532  59.1309198  71.1083767  57.1663860
  59.0989198  70.8953767  58.3823860  60.0319198  70.5613767  56.3533860
  59.9869291  70.7709540  55.3663944  61.0599198  69.6403767  56.8173860
  61.1022554  69.6609136  57.9063695  60.7609198  68.2083767  56.3663860
  60.7654992  68.1444716  55.2782710  61.5082298  67.5269819  56.7729924
  59.4249198  67.7003767  56.8203860  58.2609198  68.1793767  56.2493860
  58.3274151  68.9304542  55.4622641  57.0329198  67.7223767  56.6603860
  56.1237959  68.1125652  56.2028410  56.9509198  66.7713767  57.6503860
  55.9772311  66.4084084  57.9794518  58.1009198  66.2773767  58.2263860
  58.0395658  65.5206510  59.0084999  59.3319198  66.7423767  57.8113860
  60.2429901  66.3536658  58.2663086  62.4079198  70.0923767  56.2823860
  62.5599198  70.3003767  55.0743860  63.3859198  70.2273767  57.1783860
  63.1982342  70.0095521  58.1465936  64.7049198  70.7383767  56.8283860
  64.7766329  70.8580686  55.7473540  64.9539198  72.0943767  57.4873860
  65.0687395  71.9245040  58.5579274  65.8910274  72.4707702  57.0771944
  63.8589198  73.1083767  57.2533860  62.6729198  73.0523767  57.9653860
  62.5395154  72.2575157  58.6992107  61.6729198  73.9753767  57.7613860
  60.7435466  73.9144785  58.3276534  61.8509198  74.9783767  56.8383860
  60.8549198  75.9033767  56.6323860  60.0838573  75.7535471  57.1843040
  63.0189198  75.0603767  56.1203860  63.1605896  75.8545643  55.3873812
  64.0169198  74.1293767  56.3313860  64.9478019  74.1910399  55.7676873
  65.7969198  69.7513767  57.2223860  66.8599198  70.1533767  57.7033860
  65.5489198  68.4613767  57.0263860  64.6503229  68.1719274  56.6674401
  66.5279198  67.4313767  57.3503860  66.7225590  67.4258674  58.4228525
  66.0319198  66.0353767  56.9333860  65.9087742  66.0131228  55.8505933
  67.0289198  64.9643767  57.3523860  67.1522451  64.9857119  58.4351765
  66.6598377  63.9848228  57.0484918  67.9896886  65.1545165  56.8739816
  64.7639198  65.7713767  57.5453860  64.4573611  64.9001795  57.2833982
  67.8619198  67.7113767  56.6663860  67.9049198  68.0483767  55.4833860
  68.9589198  67.5933767  57.3353860  68.9607603  67.3183780  58.3072253
  70.2339198  67.8583767  56.6923860  70.0655312  68.1415557  55.6533694
  70.7416386  68.6708742  57.2121649  70.8528535  66.9618685  56.7283596
  27.5643097  39.2187429  57.9149440  27.6809198  38.6943767  58.8633860
  27.6778482  37.6187127  58.6872161  26.8568754  38.9556444  59.5273055
  28.9829198  39.0703767  59.5373860  29.7619198  39.8773767  59.0143860
  29.2849198  38.5423767  60.6753860  29.0970142  39.0169978  61.5468937
  29.9569198  37.2493767  60.7233860  30.4300174  37.1148017  61.6960974
  28.9529198  36.1163767  60.5073860  28.1629317  36.2431905  61.2476133
  28.5372319  36.2431965  59.5077759  29.5479198  34.7233767  60.6353860
  30.3506256  34.6142674  59.9060992  29.9532053  34.6093657  61.6407950
  28.5269198  33.6303767  60.3983860  27.3369198  33.9013767  60.2353860
  28.9879198  32.3863767  60.3743860  28.3509462  31.6179166  60.2199994
  29.9736742  32.2136577  60.5106128  31.0589198  37.1763767  59.6743860
  30.9039198  36.5153767  58.6483860  32.1749198  37.8493767  59.9383860
  32.2626665  38.3639375  60.8030403  33.2719198  37.9133767  58.9823860
  33.0521185  37.2610036  58.1372849  33.4779198  39.3373767  58.4603860
  34.3770271  39.3728861  57.8452077  32.6166500  39.6335392  57.8615520
  33.6889198  40.5963767  59.7393860  34.5379198  37.3963767  59.6463860
  34.6189198  37.2743767  60.8693860  35.5309198  37.0903767  58.8163860
  35.3736999  37.1619387  57.8212679  36.8279198  36.6223767  59.2773860
  36.8407927  36.6171592  60.3672971  37.1279198  35.2083767  58.7783860
  36.4614363  34.4998965  59.2702750  36.9741140  35.1627261  57.7002581
  38.8259198  34.6873767  59.1113860  37.9209198  37.5673767  58.8023860
  37.8909198  38.0453767  57.6643860  38.8629198  37.8503767  59.7023860
  38.6870561  37.5866905  60.6613651  40.0809198  38.6093767  59.4023860
  40.4718363  39.0577627  60.3157498  41.1659198  37.7093767  58.7943860
  41.1892176  36.7774273  59.3592115  40.9049198  37.4063767  57.3283860
  40.8819423  38.3378755  56.7628052  41.6985964  36.7668685  56.9421144
  39.9467344  36.8967335  57.2271671  42.4389198  38.3563767  58.9083860
  43.1184963  37.7946830  58.5285489  39.8069198  39.8133767  58.5043860
  40.6449198  40.1993767  57.6853860  38.6379198  40.4313767  58.6603860
  37.8809067  39.9929357  59.1651632  38.4019198  41.7343767  58.0583860
  39.2463171  42.3896713  58.2721178  38.2399198  41.6263767  56.5483860
  38.0923417  42.6264587  56.1407637  39.1489707  41.1944846  56.1298223
  37.1319198  40.8113767  56.2113860  37.0516724  40.7594602  55.2561558
  37.1699198  42.3763767  58.6743860  36.4639198  41.7713767  59.4843860
  36.9289198  43.6233767  58.2673860  37.5293942  44.0592546  57.5821559
  35.8399198  44.4083767  58.8293860  35.7244739  44.2232901  59.8973347
  36.0969198  45.9033767  58.5943860  36.1222957  46.0949548  57.5216539
  34.9969198  46.7383767  59.2323860  34.9712315  46.5476717  60.3052664
  35.1943782  47.7958093  59.0564676  34.0358713  46.4707824  58.7932069
  37.4679198  46.3043767  59.1463860  37.4001534  46.2741882  60.2338588
  38.1846389  45.5567248  58.8066364  37.9249198  47.6733767  58.7093860
  37.2088892  48.4216602  59.0491977  38.9032964  47.8852283  59.1406600
  37.9933725  47.7041973  57.6219743  34.5229198  43.9723767  58.2063860
  34.4779198  43.5253767  57.0533860  33.4399198  44.0973767  58.9713860
  33.5394172  44.3032134  59.9551700  32.1019198  43.8913767  58.4423860
  32.0411925  44.3336848  57.4480144  31.7459198  42.4033767  58.3393860
  30.7197380  42.2982983  57.9872372  32.4221223  41.9152110  57.6375710
  31.8569198  41.4593767  59.8633860  31.0889198  44.6103767  59.3193860
  31.3629198  44.9403767  60.4753860  29.9149198  44.8593767  58.7443860
  29.8103801  44.5884120  57.7770449  28.8089198  45.5583767  59.3903860
  28.0129663  45.7255543  58.6647078  28.2429198  44.7443767  60.5593860
  27.9312638  43.7684501  60.1871804  29.0259879  44.6146207  61.3064253
  27.1339198  45.4013767  61.1473860  26.7980904  44.8731188  61.8752336
  29.1949198  46.9503767  59.8753860  28.4679198  47.5453767  60.6793860
  30.3189198  47.4873767  59.4083860  30.9332021  46.9568775  58.8072811
  30.7219198  48.8293767  59.7933860  30.5275700  48.9865894  60.8543344
  32.2159198  49.0243767  59.5363860  32.6801711  48.2313567  60.1226361
  32.3750533  48.8318666  58.4753882  32.8439198  50.3693767  59.9103860
  32.4012811  51.1414751  59.2810721  32.6119198  50.7113767  61.3663860
  33.0547120  49.9399156  61.9963714  33.0728627  51.6729614  61.5921895
  31.5408646  50.7679037  61.5606689  34.3319198  50.3393767  59.6223860
  34.4933925  50.1492695  58.5613086  34.7738166  51.2990631  59.8903979
  34.8000024  49.5481952  60.2080732  29.9009198  49.8643767  59.0293860
  29.2049198  49.5533767  58.0603860  29.9599198  51.1083767  59.5023860
  30.4387597  51.2799052  60.3749625  29.3019198  52.2293767  58.8433860
  28.8007810  51.8889663  57.9372515  28.2529198  52.8473767  59.7823860
  27.4346784  52.1307923  59.8537099  28.7186645  52.9648280  60.7608476
  27.7149198  54.1813767  59.3173860  28.3109198  55.3683767  59.7193860
  29.1781767  55.3235976  60.3781422  27.8249198  56.5903767  59.3003860
  28.3057178  57.5146226  59.6208618  26.7249198  56.6373767  58.4723860
  26.2389198  57.8543767  58.0553860  26.7405053  58.5967160  58.4002686
  26.1119198  55.4733767  58.0613860  25.2417886  55.5096928  57.4059065
  26.6069198  54.2553767  58.4853860  26.1258997  53.3307262  58.1664169
  30.2789198  53.2993767  58.3823860  30.2609198  53.6853767  57.2103860
  31.1459198  53.7883767  59.2673860  31.1624937  53.4261814  60.2100626
  32.0489198  54.8873767  58.9313860  32.1169487  54.9837257  57.8477864
  31.5459198  56.2093767  59.5083860  30.5835516  56.4205336  59.0421677
  31.4058105  56.0624866  60.5793168  32.4859198  57.3763767  59.2773860
  33.3498407  57.2629640  59.9322746  32.8144779  57.3651514  58.2381432
  31.8329198  58.7133767  59.5643860  30.6579198  58.7783767  59.9253860
  32.5929198  59.7883767  59.4013860  32.2094056  60.7057837  59.5785375
  33.5515681  59.6844816  59.1008854  33.4449198  54.5713767  59.4453860
  33.6029198  54.0343767  60.5463860  34.4499198  54.9043767  58.6423860
  34.2332156  55.2392939  57.7145018  35.8469198  54.7813767  59.0213860
  35.9495966  54.9192859  60.0977399  36.3859198  53.3993767  58.6523860
  35.5618513  52.7400488  58.9249612  36.5204810  53.3838701  57.5708349
  37.6709198  52.9183767  59.3333860  37.5610310  53.0120288  60.4137816
  37.9369198  51.4683767  58.9763860  38.0473910  51.3739994  57.8961139
  38.8524961  51.1353755  59.4651916  37.1022944  50.8522815  59.3109418
  38.8619198  53.7813767  58.9613860  38.6760261  54.8103068  59.2693565
  39.7535358  53.4074670  59.4646888  39.0131114  53.7472780  57.8824619
  36.6539198  55.8653767  58.3193860  36.5509198  56.0463767  57.1053860
  37.4559198  56.5993767  59.0853860  37.5522295  56.4579569  60.0807876
  38.1949198  57.6893767  58.4693860  38.6743468  57.3357211  57.5566009
  37.2609198  58.8523767  58.1133860  37.8912259  59.6711421  57.7663462
  36.6263554  58.5111875  57.2954508  36.3939198  59.3333767  59.2573860
  35.6573697  58.5672666  59.4996052  37.0417579  59.4988998  60.1182037
  35.6969198  60.6413767  58.9463860  36.1899198  61.3893767  58.0763860
  34.6509198  60.9203767  59.5693860  34.2775296  61.7681812  59.3184152
  39.3019198  58.1903767  59.3813860  39.0649198  58.4883767  60.5513860
  34.3960826  60.2408553  60.1977072  35.6885755  62.1989028  57.9511089
  36.9836989  61.0273823  57.6766462  40.5039198  58.2993767  58.8243860
  40.7190098  57.8042262  57.9707693  41.5499198  59.1013767  59.4383860
  41.5720498  58.9170953  60.5124669  42.9139198  58.7453767  58.8543860
  42.9405222  57.6737571  58.6568436  43.0490411  59.2900253  57.9199342
  44.0529198  59.0933767  59.7853860  43.9289198  59.9803767  60.6263860
  45.1719198  58.3963767  59.6393860  45.9641900  58.5882242  60.2357099
  45.2265789  57.6769944  58.9325606  41.2239198  60.5693767  59.1963860
  40.2069198  60.8883767  58.5733860  42.0749198  61.4653767  59.6893860
  42.8954469  61.1800738  60.2045916  41.8189198  62.8913767  59.5323860
  41.6235802  63.1163263  58.4838922  40.6019198  63.3173767  60.3593860
  39.9110239  62.4746862  60.3341898  40.9383604  63.4802166  61.3832957
  39.9009198  64.5583767  59.8563860  40.5099198  65.8023767  59.9283860
  41.5122931  65.8743048  60.3504920  39.8679198  66.9383767  59.4763860
  40.3602616  67.9092216  59.5326143  38.5969198  66.8393767  58.9513860
  37.9519198  67.9673767  58.5013860  38.4773568  68.7646701  58.6005770
  37.9689198  65.6153767  58.8753860  36.9643229  65.5357289  58.4600046
  38.6199198  64.4853767  59.3293860  38.1272015  63.5145045  59.2770795
  43.0479198  63.6773767  59.9573860  43.6919198  63.3353767  60.9523860
  43.3589198  64.7283767  59.2053860  42.8434581  64.8948253  58.3529229
  44.4579198  65.6293767  59.5363860  44.2442164  66.1312114  60.4800979
  45.7769198  64.8653767  59.6763860  46.6104492  65.5657705  59.6236931
  45.7977476  64.3481190  60.6356101  46.0829198  63.5973767  58.4343860
  44.5939198  66.7153767  58.4763860  44.5459198  66.4333767  57.2783860
  44.7619198  67.9423767  58.8373860  44.8068724  68.2082137  59.8107355
  44.8919198  68.9833767  57.8323860  44.8230331  68.5405223  56.8387889
  44.0933130  69.7141479  57.9600623  45.8570883  69.4776125  57.9432047
  32.5615529  24.1475360  65.2637184  32.3669198  24.3643767  64.2133860
  31.5857563  25.1206831  64.1366880  32.0421151  23.4547711  63.7081944
  33.6109198  24.8823767  63.5243860  34.6749198  25.0143767  64.1443860
  33.5629198  25.1893767  62.2723860  32.7224437  25.0612218  61.7271562
  34.7539198  25.6883767  61.5983860  35.4547241  26.0857113  62.3326188
  35.4419198  24.5633767  60.8253860  35.3777413  23.6347735  61.3925514
  34.9703338  24.4274076  59.8521342  36.8959198  24.8073767  60.5663860
  37.4299198  26.0723767  60.4423860  36.8987341  26.9285926  60.5119262
  38.7289198  25.9803767  60.2213860  39.3351860  26.8768286  60.0913318
  39.0579198  24.7013767  60.2013860  39.9847551  24.3282167  60.0536438
  37.9299198  23.9473767  60.4153860  37.9971913  22.8596420  60.4356071
  34.3789198  26.8293767  60.6613860  33.5679198  26.6543767  59.7533860
  34.9679198  28.0023767  60.8933860  35.5998687  28.1038675  61.6746923
  34.6809198  29.1773767  60.0793860  33.9430563  28.9291062  59.3164847
  34.1219198  30.3043767  60.9523860  33.2213813  29.8721253  61.3886066
  34.8471945  30.5042565  61.7411348  33.7669198  31.6133767  60.2423860
  33.4888234  31.3946216  59.2114110  32.6079198  32.2983767  60.9443860
  32.8854498  32.5178800  61.9753536  32.3674614  33.2275245  60.4276996
  31.7376219  31.6421833  60.9347859  34.9629198  32.5493767  60.1743860
  35.7717884  32.0669219  59.6256892  34.6765988  33.4691374  59.6643253
  35.2991135  32.7841286  61.1843188  35.9289198  29.6423767  59.3413860
  35.8899198  29.8703767  58.1283860  37.0399198  29.7843767  60.0613860
  37.0241051  29.5772949  61.0498021  38.2779198  30.2803767  59.4803860
  38.2331760  30.1791771  58.3960172  38.5079198  31.7553767  59.8253860
  37.5999975  32.1731553  60.2604002  39.3250162  31.8382972  60.5420293
  38.9339198  32.7863767  58.4053860  39.4409198  29.4333767  59.9733860
  39.3609198  28.7723767  61.0113860  40.5309198  29.4693767  59.2153860
  40.5647765  30.1091631  58.4346003  41.6809198  28.6253767  59.4613860
  41.3269919  27.6831133  59.8796848  42.1735134  28.4366108  58.5075421
  42.6779198  29.2443767  60.4163860  42.3449198  30.0823767  61.2573860
  43.9289198  28.8173767  60.2743860  44.1491387  28.1750387  59.5267197
  44.9919198  29.2023767  61.1873860  44.5723042  29.7255044  62.0466644
  45.7359198  27.9633767  61.6853860  46.2321843  27.4907550  60.8377720
  46.4828827  28.2753706  62.4153218  44.8459198  27.0393767  62.2863860
  45.3374711  26.2725629  62.5896575  45.9689198  30.1663767  60.5163860
  45.9579198  30.3673767  59.3003860  46.8249198  30.7683767  61.3403860
  46.7019813  30.6327560  62.3336597  47.8799198  31.6723767  60.8903860
  48.4056066  32.0796685  61.7540214  48.8899198  30.9353767  60.0053860
  48.9972797  29.9026502  60.3371225  48.5579934  30.9503357  58.9672622
  50.2609198  31.5363767  60.0253860  51.4039198  30.7843767  59.8623860
  51.4176538  29.7849526  59.7172564  52.4609198  31.5743767  59.9263860
  53.4663898  31.1669318  59.8209459  52.0439198  32.8113767  60.1233860
  52.6306242  33.6287260  60.2118048  50.6719198  32.8153767  60.1903860
  50.1368674  33.7512383  60.3515794  47.3239198  32.8853767  60.1553860
  47.9949198  33.4513767  59.2853860  46.1049198  33.2963767  60.4863860
  45.5446707  32.7732577  61.1440841  45.5279198  34.4873767  59.8833860
  45.6721000  34.4622274  58.8032570  44.0299198  34.5593767  60.1743860
  43.9761161  34.8530598  61.2226964  43.5876683  35.3402282  59.5556902
  43.2619198  33.2523767  59.9713860  43.5832753  32.5305245  60.7222262
  41.7719198  33.4903767  60.1053860  41.4497181  34.2118240  59.3545207
  41.2387554  32.5511070  59.9583866  41.5536247  33.8796979  61.0998088
  43.5899198  32.6413767  58.6263860  44.6585018  32.4333196  58.5721263
  43.0327494  31.7126984  58.5030209  43.3151042  33.3373812  57.8338249
  46.2209198  35.7373767  60.4113860  46.6109198  35.8153767  61.5793860
  46.3739198  36.7243767  59.5323860  46.0397974  36.5985671  58.5875932
  47.0549198  37.9693767  59.8643860  47.0883435  38.1313013  60.9417729
  48.4969198  37.9933767  59.3173860  48.4694438  37.8440006  58.2380200
  49.1609198  39.3243767  59.6273860  49.1891819  39.4742570  60.7066627
  50.1776056  39.3240645  59.2343843  48.5929958  40.1310179  59.1638194
  49.3029198  36.8423767  59.8953860  48.8354580  35.8967914  59.6207043
  50.3179035  36.8739051  59.4992627  49.3344402  36.9295326  60.9814390
  46.2529198  39.1353767  59.3073860  45.7459198  39.0763767  58.1833860
  46.1369198  40.1933767  60.1023860  46.4553228  40.1147809  61.0576564
  45.5449198  41.4503767  59.6743860  45.5992627  41.5221725  58.5881119
  44.0789198  41.5543767  60.0983860  43.5643585  40.6792590  59.7015296
  44.0543285  41.5267202  61.1877576  43.3859198  42.8143767  59.6083860
  43.9419343  43.6853241  59.9553719  43.3863398  42.7942247  58.5185728
  41.9459198  42.9033767  60.0673860  41.5869198  42.1983767  61.0313860
  41.1739198  43.6783767  59.4643860  40.2801942  43.6676758  59.8141277
  46.3419198  42.5973767  60.2753860  46.9289198  42.4593767  61.3533860
  41.6030246  44.1539809  58.7494394  40.6584689  42.3090513  61.2507099
  42.2996657  41.6679068  61.3940319  46.3629198  43.7283767  59.5773860
  45.8889696  43.7664943  58.6863094  47.0829198  44.9093767  60.0263860
  46.9763807  45.0200365  61.1055074  48.5719198  44.8033767  59.6903860
  48.6952507  44.7012229  58.6122144  49.0866217  45.7018253  60.0309333
  48.9961066  43.9314638  60.1883144  46.4819198  46.1463767  59.3803860
  46.6869198  46.3913767  58.1883860  45.7539198  46.9273767  60.1703860
  45.6138208  46.6487718  61.1310373  45.1089198  48.1453767  59.7043860
  45.1869083  48.2104416  58.6191287  43.6289198  48.1543767  60.0893860
  43.1793517  47.4388116  59.4009426  43.5463922  47.7779373  61.1089853
  42.8999198  49.4923767  59.9803860  43.2576474  50.1545193  60.7688649
  43.1529198  50.1283767  58.6373860  42.7950114  49.4669788  57.8483656
  42.6248410  51.0802023  58.5802756  44.2221164  50.2985040  58.5109909
  41.4119198  49.2993767  60.2103860  41.2482855  48.8844231  61.2049396
  40.9036844  50.2602843  60.1300455  41.0138040  48.6146404  59.4615609
  45.8249198  49.3503767  60.2943860  45.9349198  49.4743767  61.5183860
  46.3079198  50.2323767  59.4243860  46.1667912  50.0657559  58.4382726
  47.0569198  51.4153767  59.8243860  47.2141978  51.3996282  60.9028640
  48.4199198  51.4623767  59.1323860  48.2463156  51.4354500  58.0566371
  48.8589259  52.4220535  59.4051388  49.3649198  50.3493767  59.5173860
  49.1129198  49.0403767  59.1413860  48.2128842  48.8226406  58.5663847
  49.9759198  48.0223767  59.4813860  49.7608573  46.9960081  59.1840353
  51.1149198  48.3063767  60.1993860  51.9789198  47.2923767  60.5393860
  51.6897622  46.4322949  60.2259425  51.3929198  49.5993767  60.5793860
  52.2945989  49.8261951  61.1482697  50.5209198  50.6123767  60.2353860
  50.7362068  51.6398537  60.5287161  46.2669198  52.6683767  59.4783860
  45.8719198  52.8613767  58.3243860  46.0449198  53.5133767  60.4793860
  46.2641484  53.2082153  61.4168905  45.4819198  54.8453767  60.3003860
  45.2577698  55.0056018  59.2457847  44.1939198  55.0143767  61.1043860
  44.4497374  54.5306583  62.0470806  44.0652758  56.0842073  61.2687431
  42.8909198  54.4213767  60.5643860  42.2177768  54.2239368  61.3986503
  42.2319198  55.3843767  59.6023860  42.9043239  55.5819531  58.7675596
  41.3063601  54.9476605  59.2272607  42.0094262  56.3185871  60.1179904
  43.1259198  53.0853767  59.8973860  43.5492529  52.3875015  60.6197838
  42.1794906  52.6929211  59.5254295  43.8187108  53.2109765  59.0653017
  46.5319198  55.8473767  60.7563860  46.5789198  56.2023767  61.9393860
  47.3669198  56.3033767  59.8253860  47.2072586  56.1001193  58.8490182
  48.5669198  57.0483767  60.1893860  48.6053801  57.2630717  61.2573402
  49.8379198  56.2723767  59.7973860  49.8642750  56.1591180  58.7136069
  51.0809198  57.0183767  60.2593860  51.0555024  57.1316220  61.3431897
  51.9699173  56.4558768  59.9741183  51.1090806  58.0028227  59.7922942
  49.8119198  54.8663767  60.3733860  48.9425685  54.3321566  59.9900592
  50.7197657  54.3374725  60.0832556  49.7547459  54.9195729  61.4605852
  48.5729198  58.4283767  59.5453860  49.0079198  58.5913767  58.4003860
  48.0969198  59.4283767  60.2803860  47.5173812  59.2481272  61.0876930
  48.3669198  60.8113767  59.9203860  48.3857089  60.9125376  58.8352535
  47.2849198  61.7323767  60.4773860  46.9492902  61.3564799  61.4439023
  47.6897303  62.7370221  60.5995171  45.8059198  61.8663767  59.4533860
  49.7329198  61.2133767  60.4583860  49.8569198  61.7153767  61.5783860
  50.7619198  60.9893767  59.6483860  50.5923579  60.7513118  58.6816010
  52.1319198  61.0743767  60.1033860  52.2398930  60.4284034  60.9746836
  52.7775443  60.7141663  59.3024386  52.5499198  62.4823767  60.4783860
  51.7389198  63.3573767  60.7853860  53.8649198  62.6913767  60.4453860
  54.4698458  61.9533295  60.1145533  54.4769198  63.9263767  60.9183860
  54.3188539  64.0359651  61.9912815  55.9819198  63.8983767  60.6463860
  56.1132440  63.8014881  59.5686728  56.3873243  64.8547242  60.9767596
  56.7139198  62.7693767  61.3483860  56.4777146  62.7986904  62.4120818
  56.3613492  61.8292313  60.9242164  58.2149198  62.8313767  61.1493860
  58.7139198  63.8843767  60.7013860  58.8959198  61.8263767  61.4423860
  59.8341648  61.9463634  61.2796638  53.8569198  65.1583767  60.2723860
  53.6539198  65.1973767  59.0543860  58.3665961  61.0999341  61.7793971
  59.6674428  63.8326395  60.5989653  58.0614936  64.5691789  60.5392033
  53.5509198  66.1663767  61.0843860  53.6656562  66.0338566  62.0790585
  53.0259198  67.4413767  60.6133860  53.2116583  67.5352214  59.5434358
  51.5209198  67.5503767  60.8593860  51.3624249  67.4236126  61.9303246
  51.2212463  68.5561208  60.5648106  50.6879198  66.5313767  60.1003860
  50.9662720  66.5729113  59.0473448  50.9100970  65.5401284  60.4955646
  49.2009198  66.8113767  60.2423860  48.6448988  66.0920893  59.6410830
  48.9176790  66.7047518  61.2895275  48.8549198  68.1573767  59.7993860
  49.5983446  68.7137369  59.4020420  47.6429198  68.6883767  59.8833860
  46.6249198  68.0143767  60.3933860  46.7646374  67.0721973  60.7293577
  45.7128288  68.4451801  60.4443580  47.4469198  69.9283767  59.4453860
  48.2183276  70.4507365  59.0552959  46.5275282  70.3422495  59.5047763
  53.7619198  68.5603767  61.3343860  54.2799198  68.3563767  62.4363860
  53.8129198  69.7233767  60.7153860  53.4267645  69.8199156  59.7871276
  54.4149198  70.8873767  61.3333860  53.7798015  71.7559860  61.1594844
  54.5103297  70.7165320  62.4056772  55.7919198  71.1573767  60.7513860
  56.0529198  70.8653767  59.5863860  56.6549198  71.7143767  61.5973860
  56.3686652  71.8431639  62.5573712  57.9789198  72.1773767  61.2033860
  58.0815865  72.1093958  60.1203637  58.1999198  73.6323767  61.6253860
  58.1456359  73.7355700  62.7091312  59.1812784  73.9562715  61.2787921
  57.1999198  74.5983767  61.0503860  55.8589198  74.5143767  61.3813860
  55.5294905  73.7319547  62.0650468  54.9429198  75.4043767  60.8583860
  53.8883860  75.3187163  61.1205340  55.3609198  76.3993767  60.0063860
  54.6406805  77.1063833  59.5946857  56.6939198  76.5013767  59.6733860
  57.0279531  77.2876326  58.9963900  57.6069198  75.6073767  60.1973860
  58.6625767  75.6924406  59.9396021  59.0219198  71.2763767  61.8463860
  58.9969198  71.0623767  63.0623860  59.9329198  70.7493767  61.0313860
  59.8817980  70.9584919  60.0445949  60.9819198  69.8503767  61.4933860
  61.0258758  69.8714455  62.5822952  60.7129198  68.4123767  61.0423860
  60.7165057  68.3503655  59.9541577  61.4753926  67.7463265  61.4462576
  59.3889198  67.8753767  61.4983860  58.2139198  68.3303767  60.9303860
  58.2624603  69.0839099  60.1442999  56.9969198  67.8463767  61.3433860
  56.0789153  68.2173324  60.8875786  56.9369198  66.8933767  62.3323860
  55.9717892  66.5093755  62.6627887  58.0989198  66.4233767  62.9063860
  58.0554949  65.6648470  63.6879531  59.3189198  66.9153767  62.4893860
  60.2390416  66.5466408  62.9427177  62.3189198  70.3313767  60.9553860
  62.4649198  70.5433767  59.7483860  63.2949198  70.4873767  61.8503860
  63.1132900  70.2656047  62.8188524  64.6029198  71.0273767  61.4983860
  64.6701729  71.1491372  60.4172983  64.8239198  72.3873767  62.1573860
  64.9438046  72.2181845  63.2274799  65.7520582  72.7848488  61.7466854
  63.7059198  73.3783767  61.9263860  62.5229198  73.2963767  62.6393860
  62.4078482  72.4981900  63.3727045  61.5019198  74.1983767  62.4373860
  60.5751084  74.1177225  63.0053802  61.6569198  75.2043767  61.5153860
  60.6409198  76.1073767  61.3103860  59.8737352  75.9406383  61.8628585
  62.8219198  75.3123767  60.7953860  62.9457663  76.1099610  60.0628413
  63.8399198  74.4023767  61.0043860  64.7681318  74.4835536  60.4387599
  65.7159198  70.0643767  61.8893860  66.7709198  70.4883767  62.3693860
  65.4949198  68.7683767  61.6943860  64.6022593  68.4591623  61.3371143
  66.4969198  67.7603767  62.0163860  66.6928075  67.7586419  63.0886379
  66.0309198  66.3543767  61.5993860  65.9069381  66.3303042  60.5167276
  67.0509198  65.3043767  62.0163860  67.1751005  65.3275346  63.0990413
  66.7022790  64.3174500  61.7122076  68.0068585  65.5151559  61.5369552
  64.7699198  66.0623767  62.2133860  64.4820073  65.1848520  61.9513608
  67.8229198  68.0693767  61.3293860  67.8549198  68.4073767  60.1453860
  68.9239198  67.9753767  61.9953860  68.9342435  67.7002602  62.9671389
  70.1909198  68.2683767  61.3493860  70.0137398  68.5480329  60.3108773
  70.6819993  69.0916981  61.8681185  70.8294625  67.3856557  61.3835460
  26.5289525  42.3880091  48.5854618  26.7139198  41.9933767  47.5863860
  27.4019832  42.6521539  47.0565940  25.7734638  41.9347076  47.0384814
  27.3229198  40.6093767  47.6513860  27.5509198  40.0643767  48.7393860
  27.6089198  39.9893767  46.5573860  27.4072848  40.3901485  45.6524967
  28.1959198  38.6563767  46.6073860  28.6570677  38.4921422  47.5812796
  27.1219198  37.5903767  46.3893860  26.3402835  37.7673291  47.1281904
  26.7169908  37.7434560  45.3890364  27.6269198  36.1613767  46.5183860
  28.4220826  36.0009756  45.7903144  28.0224312  36.0212453  47.5243860
  26.5379198  35.1363767  46.2793860  25.3689198  35.4823767  46.1133860
  26.9179198  33.8653767  46.2573860  26.2332013  33.1393834  46.1018359
  27.8901617  33.6296792  46.3962881  29.2939198  38.5113767  45.5603860
  29.0989198  37.8613767  44.5343860  30.4509198  39.1123767  45.8273860
  30.5704279  39.6200824  46.6922861  31.5509198  39.1053767  44.8733860
  31.2905765  38.4684779  44.0279982  31.8499198  40.5133767  44.3513860
  32.7516371  40.4906825  43.7394301  31.0115892  40.8638711  43.7493432
  32.1379198  41.7563767  45.6313860  32.7799198  38.5083767  45.5403860
  32.8499198  38.3823767  46.7633860  33.7529198  38.1393767  44.7123860
  33.6026477  38.2204738  43.7169259  35.0169198  37.5893767  45.1763860
  35.0272782  37.5843627  46.2663249  35.2269198  36.1593767  44.6793860
  34.5150422  35.4954801  45.1698662  35.0734642  36.1227968  43.6008623
  36.8869198  35.5303767  45.0163860  36.1689198  38.4613767  44.7033860
  36.1719198  38.9403767  43.5653860  37.1249198  38.6843767  45.6063860
  36.9299559  38.4330058  46.5649793  38.3899198  39.3633767  45.3093860
  38.8062663  39.7852024  46.2241635  39.4159198  38.3953767  44.7043860
  39.3779138  37.4640016  45.2693605  39.1389198  38.1093767  43.2373860
  39.1772180  39.0402813  42.6716568  39.8905355  37.4199474  42.8528603
  38.1500923  37.6625285  43.1341997  40.7279198  38.9603767  44.8203860
  41.3710783  38.3561575  44.4424091  38.1959198  40.5823767  44.4093860
  39.0579198  40.9133767  43.5933860  37.0689198  41.2743767  44.5633860
  36.2846662  40.8858310  45.0674474  36.9179198  42.5893767  43.9603860
  37.8018990  43.1895533  44.1759501  36.7529198  42.4913767  42.4503860
  36.6710886  43.4988031  42.0423480  37.6334645  42.0018384  42.0343413
  35.5959198  41.7493767  42.1103860  35.5151351  41.7025498  41.1549380
  35.7279198  43.3083767  44.5733860  34.9829198  42.7503767  45.3823860
  35.5689198  44.5693767  44.1653860  36.1991096  44.9666642  43.4833870
  34.5299198  45.4223767  44.7243860  34.3983176  45.2453787  45.7918371
  34.8839198  46.8983767  44.4903860  34.9248727  47.0881315  43.4178114
  33.8379198  47.8023767  45.1253860  33.7967109  47.6135133  46.1981083
  34.1035666  48.8449419  44.9504852  32.8629966  47.5972771  44.6831665
  36.2759198  47.2093767  45.0453860  36.2042629  47.1833670  46.1327174
  36.9439294  46.4174202  44.7067602  36.8209198  48.5473767  44.6093860
  36.1536376  49.3399194  44.9480754  37.8100243  48.6960337  45.0425978
  36.8933019  48.5739732  43.5221173  33.1899198  45.0713767  44.0993860
  33.1189198  44.6283767  42.9463860  32.1149198  45.2653767  44.8613860
  32.2251327  45.4634049  45.8456305  30.7679198  45.1453767  44.3293860
  30.7378369  45.5906518  43.3349393  30.3179198  43.6833767  44.2253860
  29.2884533  43.6439946  43.8693706  30.9641504  43.1526266  43.5262506
  30.3639198  42.7343767  45.7513860  29.8009198  45.9293767  45.2033860
  30.0939198  46.2403767  46.3603860  28.6479198  46.2523767  44.6263860
  28.5288601  45.9895522  43.6584773  27.5869198  47.0213767  45.2703860
  26.8051924  47.2396225  44.5428077  26.9669198  46.2453767  46.4373860
  26.5941386  45.2915099  46.0641949  27.7379493  46.0655352  47.1865659
  25.9009198  46.9723767  47.0223860  25.5297848  46.4668587  47.7492355
  28.0609198  48.3853767  45.7543860  27.3709198  49.0253767  46.5583860
  29.2179198  48.8493767  45.2903860  29.7983993  48.2806368  44.6906547
  29.7049198  50.1623767  45.6763860  29.5189130  50.3316099  46.7369806
  31.2089198  50.2613767  45.4223860  31.6208006  49.4402129  46.0090234
  31.3573482  50.0595712  44.3615639  31.9209198  51.5643767  45.7983860
  31.5295493  52.3634858  45.1688190  31.7079198  51.9193767  47.2543860
  32.0994825  51.1208933  47.8846254  32.2284846  52.8495920  47.4820095
  30.6421952  52.0436372  47.4464561  33.4039198  51.4383767  45.5133860
  33.5548503  51.2382098  44.4526068  33.9063486  52.3675280  45.7823552
  33.8187837  50.6186325  46.0999066  28.9529198  51.2483767  44.9103860
  28.2409198  50.9823767  43.9403860  29.0909198  52.4863767  45.3823860
  29.5788192  52.6268714  46.2554924  28.5069198  53.6463767  44.7233860
  27.9869957  53.3381026  43.8163330  27.4989198  54.3303767  45.6583860
  26.6363431  53.6677491  45.7289929  27.9702063  54.4180071  46.6373191
  27.0479198  55.6963767  45.1923860  27.7179198  56.8433767  45.5953860
  28.5785936  56.7433880  46.2567046  27.3129198  58.0933767  45.1743860
  27.8521087  58.9849637  45.4944638  26.2199198  58.2103767  44.3443860
  25.8139198  59.4563767  43.9263860  26.3615498  60.1649461  44.2722624
  25.5349198  57.0883767  43.9333860  24.6699192  57.1806563  43.2766068
  25.9499198  55.8403767  44.3583860  25.4113870  54.9485560  44.0378576
  29.5529198  54.6513767  44.2633860  29.5619198  55.0373767  43.0913860
  30.4479198  55.0843767  45.1503860  30.4400546  54.7214786  46.0929052
  31.4189198  56.1223767  44.8163860  31.4948190  56.2138345  43.7328852
  31.0009198  57.4743767  45.3923860  30.0545655  57.7462945  44.9248675
  30.8503402  57.3369615  46.4631535  32.0139198  58.5793767  45.1623860
  32.8670759  58.4103396  45.8193883  32.3437493  58.5475664  44.1239725
  31.4479198  59.9543767  45.4483860  30.2789198  60.0953767  45.8063860
  32.2749198  60.9793767  45.2863860  31.9500880  61.9192222  45.4632368
  33.2254098  60.8149842  44.9869779  32.7919198  55.7183767  45.3343860
  32.9119198  55.1733767  46.4353860  33.8169198  55.9863767  44.5333860
  33.6241811  56.3346798  43.6051425  35.2029198  55.7733767  44.9153860
  35.3119169  55.9044725  45.9919698  35.6529198  54.3593767  44.5473860
  34.7880913  53.7526914  44.8159077  35.7905165  54.3366092  43.4663454
  36.9019198  53.7983767  45.2323860  36.7947995  53.8986414  46.3124662
  37.0759198  52.3333767  44.8753860  37.1835745  52.2323509  43.7954309
  37.9667665  51.9424121  45.3669544  36.2025457  51.7718415  45.2070429
  38.1469198  54.5823767  44.8623860  38.0267044  55.6216731  45.1681813
  39.0112851  54.1528334  45.3688112  38.2985467  54.5367120  43.7839506
  36.0789198  56.8033767  44.2153860  35.9909198  56.9893767  43.0003860
  36.9239198  57.4853767  44.9823860  37.0079549  57.3390698  45.9781931
  37.7339198  58.5253767  44.3673860  38.1915159  58.1415079  43.4556022
  36.8769198  59.7453767  44.0093860  37.5588694  60.5223777  43.6639682
  36.2237375  59.4454065  43.1899528  36.0399198  60.2803767  45.1513860
  35.2549579  59.5632052  45.3913874  36.6945968  60.4039415  46.0140730
  35.4289198  61.6313767  44.8383860  35.9709198  62.3453767  43.9693860
  34.4019198  61.9773767  45.4593860  34.0843487  62.8473692  45.2075114
  38.8689198  58.9543767  45.2823860  38.6479198  59.2673767  46.4523860
  34.1027151  61.3159072  46.0874096  35.5231737  63.1855302  43.8427428
  36.7405086  61.9326740  43.5714832  40.0759198  58.9853767  44.7283860
  40.2611423  58.4756343  43.8763563  41.1699198  59.7193767  45.3443860
  41.1773750  59.5351172  46.4186728  42.5099198  59.2763767  44.7643860
  42.4677584  58.2052248  44.5670151  42.6817032  59.8109581  43.8301413
  43.6669198  59.5503767  45.6973860  43.5979198  60.4443767  46.5383860
  44.7389198  58.7823767  45.5533860  45.5408691  58.9226884  46.1511232
  44.7482216  58.0608685  44.8466752  40.9389198  61.2053767  45.1023860
  39.9459198  61.5883767  44.4763860  41.8449198  62.0453767  45.5963860
  42.6449702  61.7085551  46.1126900  41.6809198  63.4833767  45.4383860
  41.5027236  63.7194953  44.3892944  40.4919198  63.9873767  46.2623860
  39.7479117  63.1912190  46.2362314  40.8366182  64.1283239  47.2867965
  39.8739198  65.2703767  45.7583860  40.5609198  66.4733767  45.8313860
  41.5648079  66.4811197  46.2559423  39.9939198  67.6483767  45.3773860
  40.5473562  68.5857310  45.4337494  38.7209198  67.6303767  44.8493860
  38.1509198  68.7973767  44.3983860  38.7261787  69.5592728  44.4993373
  38.0159198  66.4493767  44.7723860  37.0090132  66.4344103  44.3552341
  38.5919198  65.2803767  45.2273860  38.0383649  64.3429694  45.1731226
  42.9569198  64.1903767  45.8663860  43.5759198  63.8073767  46.8623860
  43.3369198  65.2183767  45.1143860  42.8359291  65.4160437  44.2599649
  44.4909198  66.0473767  45.4473860  44.3075621  66.5628875  46.3901096
  45.7579198  65.2003767  45.5913860  46.6347510  65.8459986  45.5420034
  45.7422874  64.6824178  46.5503304  45.9839198  63.9153767  44.3503860
  44.6989198  67.1223767  44.3883860  44.6349198  66.8453767  43.1903860
  44.9439198  68.3363767  44.7503860  45.0022711  68.5989040  45.7239228
  45.1439198  69.3663767  43.7463860  45.0504165  68.9287267  42.7524946
  44.3933124  70.1468257  43.8712400  46.1383600  69.7977755  43.8607704
  29.9461506  25.4177446  51.1573463  29.7679198  25.6453767  50.1063860
  29.0371964  26.4502892  50.0272818  29.3862369  24.7579409  49.6015348
  31.0439198  26.0813767  49.4193860  32.1129198  26.1453767  50.0413860
  31.0179198  26.3903767  48.1673860  30.1720270  26.3159777  47.6205501
  32.2399198  26.8113767  47.4953860  32.9628916  27.1638806  48.2310163
  32.8569198  25.6443767  46.7243860  32.7327852  24.7224794  47.2925367
  32.3797809  25.5372446  45.7502396  34.3239198  25.7953767  46.4683860
  34.9379198  27.0223767  46.3453860  34.4625457  27.9108942  46.4136197
  36.2279198  26.8473767  46.1273860  36.8902280  27.7034253  45.9984381
  36.4749198  25.5503767  46.1083860  37.3762670  25.1186197  45.9625818
  35.3009198  24.8703767  46.3203860  35.2985068  23.7805848  46.3415752
  31.9419198  27.9743767  46.5563860  31.1229198  27.8513767  45.6473860
  32.6039198  29.1073767  46.7903860  33.2384559  29.1689128  47.5737611
  32.3949198  30.2973767  45.9753860  31.6447479  30.0965365  45.2105301
  31.9069198  31.4573767  46.8463860  30.9794401  31.0833697  47.2799750
  32.6412791  31.6104535  47.6371982  31.6379198  32.7873767  46.1353860
  31.3488351  32.5867663  45.1037435  30.5239198  33.5453767  46.8343860
  30.8124873  33.7467702  47.8660198  30.3449210  34.4879670  46.3171010
  29.6132764  32.9464675  46.8226867  32.8919198  33.6443767  46.0703860
  33.6692773  33.1108726  45.5234052  32.6666401  34.5807453  45.5599311
  33.2402175  33.8568400  47.0811516  33.6719198  30.6813767  45.2403860
  33.6499198  30.9103767  44.0273860  34.7879198  30.7523767  45.9623860
  34.7566312  30.5469496  46.9507787  36.0559198  31.1673767  45.3843860
  36.0070688  31.0693387  44.2999040  36.3799198  32.6253767  45.7303860
  35.4996486  33.1009545  46.1628761  37.1986402  32.6554203  46.4493396
  36.8749198  33.6263767  44.3113860  37.1609198  30.2473767  45.8803860
  37.0369198  29.5933767  46.9183860  38.2529198  30.2133767  45.1243860
  38.3291199  30.8490641  44.3432366  39.3459198  29.2983767  45.3733860
  38.9310263  28.3808720  45.7906962  39.8271023  29.0783690  44.4204121
  40.3789198  29.8513767  46.3303860  40.0979198  30.7093767  47.1713860
  41.5999198  29.3453767  46.1923860  41.7797518  28.6890320  45.4460809
  42.6839198  29.6623767  47.1073860  42.2975865  30.2120866  47.9656778
  43.3449198  28.3773767  47.6073860  43.8113372  27.8733922  46.7608911
  44.1089607  28.6404984  48.3388971  42.3959198  27.5133767  48.2063860
  42.8361081  26.7164012  48.5107938  43.7209198  30.5603767  46.4383860
  43.7259198  30.7613767  45.2223860  44.6119198  31.1063767  47.2643860
  44.4787192  30.9787468  48.2573954  45.7239198  31.9413767  46.8163860
  46.2728031  32.3145429  47.6810092  46.6869198  31.1403767  45.9333860
  46.7274127  30.1028320  46.2649889  46.3587687  31.1767244  44.8945907
  48.0929198  31.6523767  45.9563860  49.1859198  30.8283767  45.7963860
  49.1351827  29.8300710  45.6517787  50.2919198  31.5483767  45.8623860
  51.2692338  31.0770595  45.7583844  49.9549198  32.8103767  46.0593860
  50.5926096  33.5883213  46.1502363  48.5859198  32.9023767  46.1223860
  48.1115277  33.8706757  46.2819179  45.2489198  33.1873767  46.0793860
  45.9569198  33.7083767  45.2113860  44.0579198  33.6753767  46.4073860
  43.4630950  33.1883676  47.0624470  43.5599198  34.9013767  45.8033860
  43.7050074  34.8676375  44.7236127  42.0699198  35.0683767  46.0903860
  42.0337646  35.3651492  47.1385836  41.6803951  35.8762467  45.4709373
  41.2189198  33.8143767  45.8863860  41.4914714  33.0739467  46.6384364
  39.7469198  34.1473767  46.0163860  39.4734978  34.8874568  45.2643084
  39.1550841  33.2440721  45.8684937  39.5514574  34.5505615  47.0100343
  41.5109198  33.1823767  44.5423860  42.5638765  32.9052238  44.4917130
  40.8949274  32.2918309  44.4175549  41.2845334  33.8943054  43.7486570
  44.3309198  36.1043767  46.3323860  44.7219198  36.1563767  47.5013860
  44.5489198  37.0783767  45.4543860  44.2098958  36.9734383  44.5087909
  45.3069198  38.2773767  45.7873860  45.3483882  38.4369443  46.8648449
  46.7489198  38.2083767  45.2433860  46.7145227  38.0602803  44.1640420
  47.4959198  39.4953767  45.5543860  47.5311336  39.6439263  46.6336422
  48.5114434  39.4301181  45.1638049  46.9815394  40.3361763  45.0890147
  47.4789198  37.0093767  45.8243860  46.9527794  36.0950520  45.5499982
  48.4945966  36.9757313  45.4302183  47.5138779  37.0958763  46.9103863
  44.5829198  39.4923767  45.2283860  44.0759198  39.4653767  44.1023860
  44.5329198  40.5553767  46.0233860  44.8424544  40.4565909  46.9796961
  44.0239198  41.8483767  45.5933860  44.0856158  41.9162306  44.5072513
  42.5669198  42.0463767  46.0133860  41.9984875  41.2060621  45.6148194
  42.5379818  42.0199111  47.1026804  41.9569198  43.3483767  45.5223860
  42.5667641  44.1816605  45.8714258  41.9590181  43.3287479  44.4325652
  40.5249198  43.5293767  45.9773860  40.1189198  42.8483767  46.9403860
  39.8059198  44.3523767  45.3723860  38.9123780  44.3990522  45.7196375
  44.8909198  42.9423767  46.1953860  45.4659198  42.7673767  47.2743860
  40.2666604  44.7994807  44.6587369  39.1988984  43.0182203  47.1573807
  40.7952926  42.2732501  47.3046199  44.9859198  44.0693767  45.4973860
  44.5166616  44.1387591  44.6057122  45.7809198  45.2013767  45.9483860
  45.6797048  45.3193174  47.0272487  47.2599198  45.0003767  45.6153860
  47.3784338  44.8898528  44.5374997  47.8303379  45.8643367  45.9564090
  47.6266422  44.1034743  46.1145654  45.2609198  46.4743767  45.3003860
  45.4839198  46.7053767  44.1083860  44.5829198  47.3003767  46.0893860
  44.4234380  47.0329097  47.0501807  44.0189198  48.5573767  45.6203860
  44.1031900  48.6162857  44.5352467  42.5409198  48.6613767  46.0023860
  42.0477986  47.9759898  45.3130562  42.4319547  48.2914196  47.0218753
  41.8999198  50.0433767  45.8913860  42.2978576  50.6812699  46.6805873
  42.1959198  50.6613767  44.5493860  41.7978506  50.0242383  43.7596428
  41.7302367  51.6451714  44.4911786  43.2740975  50.7624034  44.4251818
  40.4019198  49.9463767  46.1183860  40.2099453  49.5432321  47.1127298
  39.9565780  50.9378889  46.0366821  39.9622115  49.2882680  45.3689538
  44.8089198  49.7143767  46.2123860  44.9239198  49.8313767  47.4363860
  45.3489198  50.5633767  45.3433860  45.1991526  50.4058401  44.3570538
  46.1719198  51.6953767  45.7443860  46.3247832  51.6700945  46.8233173
  47.5369198  51.6543767  45.0563860  47.3660905  51.6394333  43.9799599
  48.0349919  52.5839771  45.3318261  48.4069198  50.4843767  45.4433860
  48.0729198  49.1943767  45.0663860  47.1628319  49.0344798  44.4882229
  48.8679198  48.1233767  45.4093860  48.5872844  47.1128616  45.1123930
  50.0209198  48.3333767  46.1303860  50.8179198  47.2653767  46.4723860
  50.4751353  46.4256412  46.1578343  50.3799198  49.6063767  46.5103860
  51.2925118  49.7749153  47.0821123  49.5769198  50.6723767  46.1633860
  49.8580330  51.6842056  46.4554095  45.4649198  52.9973767  45.3963860
  45.0849198  53.2143767  44.2413860  45.2949198  53.8543767  46.3963860
  45.4909588  53.5352861  47.3343888  44.8199198  55.2203767  46.2163860
  44.6093589  55.3954022  45.1613366  43.5429198  55.4713767  47.0173860
  43.7648885  54.9724666  47.9607406  43.4832970  56.5473395  47.1812432
  42.2049198  54.9633767  46.4743860  41.5184655  54.8104781  47.3071546
  41.6119198  55.9663767  45.5103860  42.2976468  56.1194589  44.6770535
  40.6608982  55.5902685  45.1332901  41.4491893  56.9133663  46.0250023
  42.3559198  53.6153767  45.8083860  42.7320952  52.8921522  46.5319451
  41.3873408  53.2839287  45.4340889  43.0573984  53.6963228  44.9780401
  45.9299198  56.1533767  46.6753860  45.9969198  56.5043767  47.8573860
  46.7949198  56.5543767  45.7453860  46.6252200  56.3613022  44.7686447
  48.0389198  57.2213767  46.1123860  48.0887133  57.4337456  47.1803370
  49.2589198  56.3643767  45.7233860  49.2807546  56.2491778  44.6397109
  50.5459198  57.0293767  46.1883860  50.5250199  57.1445022  47.2720881
  51.3977790  56.4109422  45.9055875  50.6383056  58.0097864  45.7210924
  49.1409198  54.9633767  46.2993860  48.2398703  54.4862218  45.9139836
  50.0134780  54.3769525  46.0115520  49.0846339  55.0204479  47.3864351
  48.1349198  58.5963767  45.4683860  48.5819198  58.7313767  44.3243860
  47.7229198  59.6253767  46.2013860  47.1306104  59.4825868  47.0069169
  48.0819198  60.9883767  45.8423860  48.1101796  61.0878732  44.7573049
  47.0599198  61.9773767  46.3963860  46.6995286  61.6250818  47.3628775
  47.5277697  62.9543518  46.5177784  45.5939198  62.2053767  45.3693860
  49.4699198  61.3023767  46.3833860  49.6229198  61.7953767  47.5033860
  50.4839198  61.0123767  45.5753860  50.3016655  60.7853466  44.6082562
  51.8549198  61.0093767  46.0333860  51.9194720  60.3580406  46.9049900
  52.4782287  60.6086232  45.2340226  52.3609198  62.3883767  46.4093860
  51.6079198  63.3133767  46.7143860  53.6869198  62.5123767  46.3793860
  54.2433409  61.7363172  46.0504081  54.3769198  63.7053767  46.8533860
  54.2234384  63.8250797  47.9258663  55.8769198  63.5813767  46.5853860
  56.0047406  63.4769487  45.5079558  56.3419643  64.5095131  46.9176457
  56.5329198  62.4073767  47.2883860  56.2961781  62.4513315  48.3514581
  56.1221384  61.4918455  46.8627567  58.0359198  62.3733767  47.0933860
  58.6019198  63.3913767  46.6463860  58.6509198  61.3273767  47.3883860
  59.5953082  61.3874814  47.2280833  53.8379198  64.9743767  46.2053860
  53.6409198  65.0263767  44.9873860  58.0756683  60.6361479  47.7241945
  59.5504738  63.2788360  46.5466223  57.9949494  64.1162721  46.4819758
  53.5959198  66.0003767  47.0173860  53.6985912  65.8604436  48.0123617
  53.1549198  67.3063767  46.5453860  53.3499282  67.3884780  45.4761198
  51.6589198  67.5113767  46.7863860  51.4899571  67.3960174  47.8570134
  51.4257693  68.5341887  46.4904189  50.7639198  66.5483767  46.0263860
  51.0470342  66.5712181  44.9740432  50.9209357  65.5451704  46.4226501
  49.2979198  66.9233767  46.1643860  48.6985302  66.2407630  45.5619994
  49.0059111  66.8356341  47.2108714  49.0399198  68.2873767  45.7203860
  49.8182210  68.7943003  45.3236807  47.8639198  68.8953767  45.8013860
  46.8039198  68.2883767  46.3103860  46.8825746  67.3396374  46.6477393
  45.9211242  68.7766305  46.3591703  47.7489198  70.1453767  45.3623860
  48.5531646  70.6169268  44.9738878  46.8578628  70.6174529  45.4194843
  53.9589198  68.3763767  47.2663860  54.4599198  68.1393767  48.3703860
  54.0869198  69.5333767  46.6483860  53.7106740  69.6537453  45.7188432
  54.7599198  70.6563767  47.2673860  54.1821076  71.5637625  47.0916496
  54.8417405  70.4803782  48.3399667  56.1529198  70.8373767  46.6883860
  56.3969198  70.5283767  45.5243860  57.0479198  71.3373767  47.5363860
  56.7680795  71.4845209  48.4956239  58.3999198  71.7153767  47.1453860
  58.5006941  71.6397771  46.0626910  58.7119198  73.1533767  47.5663860
  58.6627977  73.2610100  48.6499456  59.7126334  73.4129512  47.2209972
  57.7779198  74.1803767  46.9893860  56.4329198  74.1833767  47.3173860
  56.0519628  73.4240280  48.0002925  55.5779198  75.1303767  46.7923860
  54.5194952  75.1127628  47.0522471  56.0609198  76.0963767  45.9413860
  55.3885503  76.8482439  45.5282093  57.3979198  76.1123767  45.6113860
  57.7830712  76.8755170  44.9350906  58.2509198  75.1613767  46.1373860
  59.3104273  75.1786823  45.8819566  59.3819198  70.7493767  47.7903860
  59.3399198  70.5383767  49.0063860  60.2589198  70.1643767  46.9773860
  60.2241454  70.3758430  45.9903845  61.2459198  69.2003767  47.4423860
  61.2878861  69.2193713  48.5314118  60.8869198  67.7823767  46.9913860
  60.8897692  67.7192140  45.9032217  61.6038053  67.0690988  47.3980920
  59.5309198  67.3323767  47.4433860  58.3879198  67.8603767  46.8733860
  58.4863851  68.6089891  46.0872665  57.1419198  67.4553767  47.2833860
  56.2505526  67.8836665  46.8249832  57.0189198  66.5093767  48.2723860
  56.0301970  66.1885605  48.6004168  58.1459198  65.9663767  48.8493860
  58.0517003  65.2128635  49.6313328  59.3959198  66.3783767  48.4353860
  60.2892048  65.9512138  48.8910981  62.6129198  69.5943767  46.9073860
  62.7749198  69.7963767  45.7003860  63.5949198  69.6873767  47.8043860
  63.3976487  69.4769182  48.7723172  64.9349198  70.1423767  47.4553860
  65.0119157  70.2595009  46.3744361  65.2419198  71.4863767  48.1153860
  65.3479370  71.3112409  49.1859873  66.1947234  71.8228811  47.7066929
  64.1909198  72.5463767  47.8803860  63.0019198  72.5403767  48.5913860
  62.8331431  71.7509606  49.3238040  62.0429198  73.5063767  48.3873860
  61.1126247  73.4866092  48.9550675  62.2639198  74.5003767  47.4653860
  61.3079198  75.4663767  47.2573860  60.5302106  75.3491274  47.8078592
  63.4349198  74.5323767  46.7473860  63.6109928  75.3193820  46.0140911
  64.3919198  73.5593767  46.9593860  65.3250848  73.5809487  46.3965025
  65.9839198  69.1103767  47.8493860  67.0629198  69.4663767  48.3313860
  65.6809198  67.8313767  47.6543860  64.7704914  67.5801937  47.2964382
  66.6149198  66.7613767  47.9783860  66.8100745  66.7474037  49.0506820
  66.0609198  65.3873767  47.5613860  65.9367076  65.3711645  46.4786078
  67.0109198  64.2743767  47.9793860  67.1352720  64.2896633  49.0621614
  66.6000087  63.3117981  47.6749299  67.9788750  64.4233624  47.5008816
  64.7819198  65.1773767  48.1723860  64.4391010  64.3197872  47.9104396
  67.9599198  66.9843767  47.2953860  68.9159198  67.4423767  47.9203860
  68.0969198  66.6893767  46.0473860  67.3882419  66.9207658  45.3659653
  69.2949198  66.0063767  45.5903860  69.9575521  65.8280661  46.4372770
  69.0202790  65.0536164  45.1377043  69.8070544  66.6242702  44.8528050
  27.0450116  41.8557256  53.3100329  27.2379198  41.4663767  52.3103860
  27.9110516  42.1406619  51.7809228  26.2986154  41.3877600  51.7630052
  27.8769198  40.0963767  52.3733860  28.1179198  39.5543767  53.4603860
  28.1749198  39.4833767  51.2783860  27.9624562  39.8800611  50.3741736
  28.7909198  38.1623767  51.3263860  29.2578320  38.0075866  52.2990793
  27.7389198  37.0733767  51.1103860  26.9551053  37.2333435  51.8507540
  27.3287415  37.2175070  50.1108460  28.2749198  35.6563767  51.2383860
  29.0719663  35.5147136  50.5084893  28.6753302  35.5228985  52.2433522
  27.2079198  34.6083767  50.9993860  26.0309198  34.9293767  50.8363860
  27.6159198  33.3453767  50.9763860  26.9472011  32.6046220  50.8208250
  28.5931868  33.1309921  51.1145514  29.8899198  38.0423767  50.2783860
  29.7069198  37.3883767  49.2523860  31.0329198  38.6683767  50.5423860
  31.1414975  39.1798712  51.4064946  32.1319198  38.6853767  49.5873860
  31.8849933  38.0429174  48.7421804  32.3989198  40.0993767  49.0653860
  33.2992295  40.0964361  48.4509489  31.5515576  40.4319306  48.4658151
  32.6619198  41.3473767  50.3453860  33.3749198  38.1143767  50.2523860
  33.4489198  37.9893767  51.4753860  34.3539198  37.7673767  49.4223860
  34.2011074  37.8471368  48.4272046  35.6299198  37.2433767  49.8843860
  35.6414367  37.2373317  50.9743080  35.8699198  35.8183767  49.3853860
  35.1743278  35.1385677  49.8774336  35.7140378  35.7792885  48.3072984
  37.5439198  35.2253767  49.7193860  36.7619198  38.1413767  49.4093860
  36.7529198  38.6203767  48.2713860  37.7149198  38.3843767  50.3103860
  37.5272446  38.1285131  51.2692453  38.9639198  39.0903767  50.0113860
  39.3725426  39.5212512  50.9254286  40.0099198  38.1453767  49.4043860
  39.9933915  37.2133390  49.9693044  39.7369198  37.8533767  47.9373860
  39.7537495  38.7849505  47.3717124  40.5029775  37.1807563  47.5515927
  38.7580450  37.3847993  47.8357007  41.3089198  38.7383767  49.5183860
  41.9644026  38.1483958  49.1390905  38.7419198  40.3053767  49.1123860
  39.5959198  40.6553767  48.2953860  37.6009198  40.9723767  49.2693860
  36.8260920  40.5674628  49.7751389  37.4209198  42.2843767  48.6663860
  38.2925301  42.9027868  48.8807771  37.2549198  42.1843767  47.1563860
  37.1492117  43.1900647  46.7495486  38.1453312  41.7153646  46.7377033
  36.1139198  41.4163767  46.8183860  36.0318620  41.3686202  45.8630925
  36.2169198  42.9773767  49.2823860  35.4849198  42.4033767  50.0913860
  36.0299198  44.2343767  48.8743860  36.6488684  44.6452203  48.1901277
  34.9739198  45.0643767  49.4363860  34.8483661  44.8840122  50.5040021
  35.2949198  46.5483767  49.2023860  35.3298104  46.7391338  48.1297748
  34.2309198  47.4293767  49.8393860  34.1957543  47.2395052  50.9121455
  34.4736679  48.4774627  49.6642009  33.2598497  47.2033348  49.3989010
  36.6809198  46.8893767  49.7543860  36.6117340  46.8612362  50.8418244
  37.3647460  46.1117603  49.4141010  37.1969198  48.2383767  49.3183860
  36.5138087  49.0165943  49.6587337  38.1834599  48.4074290  49.7499635
  37.2668185  48.2671191  48.2310094  33.6399198  44.6853767  48.8133860
  33.5769198  44.2413767  47.6593860  32.5629198  44.8563767  49.5773860
  32.6705927  45.0567336  50.5614404  31.2169198  44.7073767  49.0473860
  31.1751919  45.1523792  48.0532378  30.7989198  43.2353767  48.9433860
  29.7697215  43.1735085  48.5898009  31.4550295  42.7194849  48.2423328
  30.8689198  42.2873767  50.4683860  30.2359198  45.4693767  49.9233860
  30.5229198  45.7863767  51.0803860  29.0739198  45.7673767  49.3483860
  28.9581913  45.5018372  48.3808143  27.9989198  46.5133767  49.9943860
  27.2111671  46.7154908  49.2686486  27.3979198  45.7233767  51.1623860
  27.0452674  44.7617227  50.7896166  28.1738136  45.5601476  51.9103466
  26.3169198  46.4273767  51.7493860  25.9579224  45.9138616  52.4767257
  28.4429198  47.8873767  50.4783860  27.7419198  48.5123767  51.2833860
  29.5889198  48.3763767  50.0133860  30.1805798  47.8194989  49.4134486
  30.0489198  49.6993767  50.3983860  29.8607685  49.8647711  51.4592079
  31.5499198  49.8303767  50.1423860  31.9791197  49.0182981  50.7292548
  31.7019903  49.6311255  49.0815969  32.2349198  51.1483767  50.5173860
  31.8261064  51.9391691  49.8884029  32.0159198  51.4983767  51.9733860
  32.4249128  50.7082138  52.6030415  32.5168990  52.4393500  52.2007402
  30.9479918  51.6000047  52.1665231  33.7189198  51.0543767  50.2293860
  33.8718850  50.8578491  49.1682178  34.2018558  51.9940071  50.4976559
  34.1525105  50.2435293  50.8147274  29.2729198  50.7683767  49.6343860
  28.5649198  50.4873767  48.6643860  29.3839198  52.0093767  50.1063860
  29.8685590  52.1594826  50.9797086  28.7749198  53.1573767  49.4483860
  28.2605817  52.8393030  48.5415318  27.7529198  53.8183767  50.3863860
  26.9048782  53.1372823  50.4573446  28.2230925  53.9155431  51.3649545
  27.2719198  55.1753767  49.9213860  27.9179198  56.3353767  50.3233860
  28.7823173  56.2536210  50.9823492  27.4849198  57.5763767  49.9043860
  28.0050610  58.4791540  50.2246174  26.3889198  57.6703767  49.0763860
  25.9549198  58.9073767  48.6593860  26.4873253  59.6277245  49.0047020
  25.7269198  56.5343767  48.6653860  24.8593346  56.6084478  48.0097109
  26.1689198  55.2953767  49.0893860  25.6485800  54.3924568  48.7698828
  29.7969198  54.1843767  48.9873860  29.7959198  54.5713767  47.8153860
  30.6839198  54.6353767  49.8733860  30.6862230  54.2716131  50.8156015
  31.6329198  55.6953767  49.5373860  31.7047607  55.7894051  48.4538286
  31.1859198  57.0373767  50.1153860  30.2331845  57.2892080  49.6495795
  31.0400751  56.8961026  51.1863067  32.1749198  58.1643767  49.8843860
  33.0331658  58.0146844  50.5394484  32.5029805  58.1396875  48.8452187
  31.5789198  59.5263767  50.1713860  30.4079198  59.6423767  50.5313860
  32.3839198  60.5693767  50.0093860  32.0390361  61.5019493  50.1867700
  33.3375897  60.4255793  49.7094906  33.0139198  55.3203767  50.0533860
  33.1479198  54.7773767  51.1533860  34.0319198  55.6113767  49.2503860
  33.8303575  55.9562680  48.3227428  35.4229198  55.4283767  49.6303860
  35.5306254  55.5615984  50.7068388  35.9029198  54.0243767  49.2613860
  35.0514014  53.4001988  49.5323428  36.0381885  54.0039917  48.1800041
  37.1649198  53.4893767  49.9433860  37.0580723  53.5869775  51.0237371
  37.3689198  52.0283767  49.5853860  37.4763179  51.9300262  48.5051584
  38.2688604  51.6560526  50.0748575  36.5082711  51.4484822  49.9187128
  38.3919198  54.3003767  49.5723860  38.2499284  55.3364130  49.8799031
  39.2662311  53.8888092  50.0766609  38.5425580  54.2595102  48.4936196
  36.2749198  56.4773767  48.9283860  36.1809198  56.6613767  47.7143860
  37.1069198  57.1763767  49.6953860  37.1967566  57.0309615  50.6908171
  37.8929198  58.2333767  49.0793860  38.3568255  57.8596990  48.1665576
  37.0089198  59.4353767  48.7233860  37.6734339  60.2267771  48.3766793
  36.3605903  59.1216361  47.9052566  36.1629198  59.9523767  49.8673860
  35.3943037  59.2180264  50.1083419  36.8158453  60.0902993  50.7292240
  35.5219198  61.2893767  49.5553860  36.0469198  62.0153767  48.6863860
  34.4889198  61.6123767  50.1783860  34.1515753  62.4751040  49.9272298
  39.0199198  58.6873767  49.9923860  38.7939198  58.9943767  51.1623860
  34.2057683  60.9443927  50.8069570  35.5804563  62.8453958  48.5604770
  36.8251318  61.6200551  48.2876080  40.2259198  58.7453767  49.4363860
  40.4202175  58.2412123  48.5830596  41.3039198  59.5013767  50.0503860
  41.3174594  59.3160787  51.1244347  42.6519198  59.0883767  49.4673860
  42.6331779  58.0166676  49.2694277  42.8107612  59.6271505  48.5332596
  43.8039198  59.3873767  50.3993860  43.7179198  60.2783767  51.2403860
  44.8929198  58.6423767  50.2533860  45.6924533  58.7997427  50.8501120
  44.9169134  57.9216227  49.5462518  41.0409198  60.9823767  49.8093860
  40.0389198  61.3443767  49.1853860  41.9289198  61.8413767  50.3023860
  42.7368388  61.5214254  50.8171649  41.7339198  63.2763767  50.1453860
  41.5484631  63.5092381  49.0968248  40.5359198  63.7543767  50.9723860
  39.8093552  62.9422026  50.9483777  40.8799679  63.9032634  51.9958916
  39.8889198  65.0233767  50.4693860  40.5499198  66.2403767  50.5413860
  41.5544111  66.2692591  50.9635973  39.9569198  67.4033767  50.0893860
  40.4896015  68.3527158  50.1451292  38.6839198  67.3573767  49.5633860
  38.0879198  68.5123767  49.1133860  38.6467214  69.2865035  49.2137260
  38.0039198  66.1623767  49.4873860  36.9964987  66.1262323  49.0727816
  38.6059198  65.0053767  49.9403860  38.0726898  64.0562686  49.8859836
  42.9949198  64.0103767  50.5713860  43.6239198  63.6393767  51.5663860
  43.3519198  65.0463767  49.8193860  42.8454600  65.2339571  48.9659158
  44.4869198  65.8993767  50.1513860  44.2936295  66.4095101  51.0950502
  45.7729198  65.0803767  50.2923860  46.6351855  65.7451276  50.2403924
  45.7712495  64.5626561  51.2515850  46.0249198  63.8013767  49.0503860
  44.6699198  66.9793767  49.0913860  44.4109198  68.1563767  49.3423860
  45.1009198  66.6563767  47.9193860  44.4810669  66.5960327  47.1242506
  46.5099198  66.3683767  47.7173860  47.0423513  66.4756551  48.6624303
  46.6238426  65.3483088  47.3505296  46.9226081  67.0646973  46.9873682
  30.8331314  24.9618174  55.8671892  30.6489198  25.1853767  54.8163860
  29.9004574  25.9738861  54.7379292  30.2865359  24.2896655  54.3119275
  31.9139198  25.6493767  54.1283860  32.9819198  25.7373767  54.7483860
  31.8789198  25.9593767  52.8763860  31.0338355  25.8673262  52.3309883
  33.0909198  26.4083767  52.2023860  33.8078530  26.7757242  52.9366624
  33.7309198  25.2543767  51.4293860  33.6270657  24.3297964  51.9972459
  33.2547425  25.1376743  50.4558688  35.1939198  25.4363767  51.1713860
  35.7809198  26.6773767  51.0483860  35.2865265  27.5553566  51.1178580
  37.0749198  26.5303767  50.8283860  37.7184628  27.4006596  50.6997045
  37.3499198  25.2383767  50.8073860  38.2598670  24.8259421  50.6590837
  36.1909198  24.5333767  51.0213860  36.2117912  23.4437791  51.0424270
  32.7659198  27.5643767  51.2653860  31.9479198  27.4233767  50.3563860
  33.4039198  28.7113767  51.4983860  34.0397368  28.7863799  52.2795458
  33.1669198  29.8963767  50.6843860  32.4193606  29.6789516  49.9215094
  32.6559198  31.0463767  51.5563860  31.7373148  30.6529774  51.9917034
  33.3883610  31.2149154  52.3458318  32.3579198  32.3693767  50.8463860
  32.0715661  32.1628121  49.8151569  31.2289198  33.1033767  51.5473860
  31.5147397  33.3107131  52.5786073  31.0290043  34.0420156  51.0305769
  30.3312664  32.4851447  51.5369919  33.5929198  33.2533767  50.7793860
  34.3808139  32.7368243  50.2312110  33.3465762  34.1845974  50.2692448
  33.9381065  33.4734248  51.7895958  34.4349198  30.3083767  49.9473860
  34.4059198  30.5383767  48.7333860  35.5499198  30.4033767  50.6673860
  35.5253631  30.1969466  51.6557599  36.8079198  30.8463767  50.0863860
  36.7586651  30.7478969  49.0019623  37.1009198  32.3103767  50.4323860
  36.2110896  32.7669270  50.8658181  37.9194745  32.3577127  51.1505973
  37.5719198  33.3223767  49.0133860  37.9339198  29.9493767  50.5803860
  37.8259198  29.2923767  51.6183860  39.0249198  29.9393767  49.8223860
  39.0859359  30.5766267  49.0411762  40.1379198  29.0483767  50.0693860
  39.7437500  28.1217992  50.4867389  40.6225275  28.8394436  49.1156557
  41.1599198  29.6233767  51.0253860  40.8619198  30.4743767  51.8663860
  42.3919198  29.1433767  50.8843860  42.5846871  28.4912904  50.1375771
  43.4699198  29.4833767  51.7973860  43.0729258  30.0245073  52.6562648
  44.1599198  28.2133767  52.2963860  44.6364412  27.7199719  51.4492861
  44.9187663  28.4932930  53.0270699  43.2309198  27.3283767  52.8963860
  43.6890283  26.5413255  53.2001733  44.4869198  30.4043767  51.1273860
  44.4849198  30.6063767  49.9113860  45.3669198  30.9693767  51.9513860
  45.2374958  30.8390352  52.9445425  46.4599198  31.8273767  51.5023860
  47.0021087  32.2112405  52.3665497  47.4379198  31.0483767  50.6173860
  47.5011889  30.0115923  50.9478015  47.1071580  31.0787756  49.5792278
  48.8329198  31.5903767  50.6383860  49.9439198  30.7903767  50.4763860
  49.9153147  29.7912718  50.3312279  51.0329198  31.5343767  50.5413860
  52.0198016  31.0836390  50.4365115  50.6699198  32.7883767  50.7383860
  51.2911628  33.5797217  50.8274370  49.2989198  32.8513767  50.8043860
  48.8044937  33.8093187  50.9656042  45.9569198  33.0633767  50.7673860
  46.6509198  33.6003767  49.8983860  44.7559198  33.5263767  51.0973860
  44.1728770  33.0262403  51.7531482  44.2309198  34.7403767  50.4953860
  44.3754183  34.7098978  49.4154368  42.7369198  34.8763767  50.7843860
  42.6943634  35.1729857  51.8323895  42.3293586  35.6749380  50.1644717
  41.9139198  33.6033767  50.5813860  42.2039441  32.8688120  51.3326526
  40.4349198  33.9043767  50.7143860  40.1440329  34.6385727  49.9630939
  39.8625480  32.9884804  50.5673305  40.2326830  34.3029234  51.7085496
  42.2169198  32.9793767  49.2363860  43.2757688  32.7262249  49.1829788
  41.6209916  32.0751878  49.1122353  41.9725484  33.6866366  48.4438173
  44.9759198  35.9593767  51.0223860  45.3679198  36.0203767  52.1913860
  45.1709198  36.9393767  50.1453860  44.8311454  36.8282405  49.2007689
  45.9049198  38.1543767  50.4773860  45.9454919  38.3131970  51.5549895
  47.3459198  38.1163767  49.9303860  47.3124645  37.9687193  48.8509523
  48.0659198  39.4193767  50.2413860  48.1001817  39.5675049  51.3207308
  49.0817944  39.3764557  49.8486304  47.5325491  40.2493780  49.7780123
  48.1029198  36.9333767  50.5093860  47.5959440  36.0079660  50.2360862
  49.1181408  36.9216720  50.1127894  48.1386017  37.0204652  51.5953157
  45.1529198  39.3533767  49.9203860  44.6449198  39.3163767  48.7953860
  45.0819198  40.4153767  50.7153860  45.3956509  40.3229870  51.6709677
  44.5439198  41.6963767  50.2873860  44.6026250  41.7661516  49.2012072
  43.0839198  41.8623767  50.7093860  42.5333264  41.0100133  50.3113624
  43.0570345  41.8350332  51.7987113  42.4449198  43.1513767  50.2193860
  43.0372830  43.9976773  50.5672107  42.4452435  43.1317715  49.1295628
  41.0099198  43.3013767  50.6773860  40.6209198  42.6113767  51.6413860
  40.2719198  44.1083767  50.0743860  39.3783660  44.1354446  50.4236826
  45.3889198  42.8083767  50.8883860  45.9679198  42.6453767  51.9663860
  40.7211500  44.5655845  49.3598007  39.6978979  42.7610812  51.8604569
  41.3104847  42.0510867  52.0040049  45.4579198  43.9373767  50.1903860
  44.9862239  43.9963485  49.2992493  46.2279198  45.0863767  50.6403860
  46.1253845  45.2007388  51.7195093  47.7109198  44.9183767  50.3053860
  47.8305877  44.8118094  49.2272288  48.2625649  45.7942743  50.6468407
  48.0978886  44.0291600  50.8030285  45.6799198  46.3483767  49.9943860
  45.8959198  46.5843767  48.8013860  44.9859198  47.1593767  50.7843860
  44.8342445  46.8880280  51.7453563  44.3939198  48.4033767  50.3173860
  44.4754268  48.4642871  49.2321461  42.9149198  48.4763767  50.7013860
  42.4348808  47.7806401  50.0131910  42.8166382  48.1039728  51.7210703
  42.2439198  49.8443767  50.5923860  42.6297993  50.4907948  51.3806382
  42.5239198  50.4683767  49.2493860  42.1378917  49.8227102  48.4605920
  42.0372270  51.4419962  49.1919743  43.5994345  50.5923615  49.1229097
  40.7489198  49.7133767  50.8213860  40.5675183  49.3050481  51.8155996
  40.2811938  50.6946609  50.7412925  40.3231062  49.0462285  50.0719229
  45.1599198  49.5773767  50.9083860  45.2749198  49.6963767  52.1323860
  45.6799198  50.4383767  50.0383860  45.5316950  50.2781798  49.0522493
  46.4789198  51.5873767  50.4383860  46.6340506  51.5648410  51.5170545
  47.8429198  51.5763767  49.7483860  47.6689247  51.5580604  48.6725192
  48.3222531  52.5161802  50.0224462  48.7389198  50.4243767  50.1323860
  48.4319198  49.1283767  49.7563860  47.5239967  48.9489452  49.1805566
  49.2509198  48.0743767  50.0973860  48.9920395  47.0580251  49.8005488
  50.3999198  48.3093767  50.8163860  51.2199198  47.2583767  51.1563860
  50.8944755  46.4117379  50.8419208  50.7329198  49.5893767  51.1963860
  51.6429447  49.7774206  51.7661180  49.9059198  50.6383767  50.8513860
  50.1652240  51.6558297  51.1440475  45.7439198  52.8733767  50.0923860
  45.3569198  53.0833767  48.9383860  45.5559198  53.7273767  51.0933860
  45.7607878  53.4127904  52.0310234  45.0509198  55.0813767  50.9143860
  44.8339906  55.2510806  49.8597574  43.7709198  55.3053767  51.7183860
  44.0051355  54.8113433  52.6613458  43.6879725  56.3797561  51.8824856
  42.4439198  54.7683767  51.1773860  41.7623695  54.5998028  52.0111563
  41.8269198  55.7593767  50.2143860  42.5077380  55.9281185  49.3800530
  40.8838177  55.3626183  49.8385643  41.6441652  56.7021978  50.7299339
  42.6229198  53.4243767  50.5103860  43.0159766  52.7090980  51.2328694
  41.6610906  53.0722009  50.1376153  43.3209987  53.5209527  49.6788465
  46.1419198  56.0383767  51.3713860  46.2039198  56.3913767  52.5543860
  46.9969198  56.4583767  50.4403860  46.8298410  56.2616295  49.4639258
  48.2269198  57.1523767  50.8053860  48.2733913  57.3634776  51.8737380
  49.4639198  56.3223767  50.4133860  49.4866220  56.2090988  49.3295263
  50.7369198  57.0143767  50.8773860  50.7151539  57.1276013  51.9612713
  51.6015087  56.4148492  50.5925119  50.8074233  57.9971651  50.4112768
  49.3779198  54.9183767  50.9903860  48.4864506  54.4216133  50.6074880
  50.2622695  54.3510056  50.7003600  49.3232922  54.9745114  52.0775684
  48.2919198  58.5293767  50.1623860  48.7339198  58.6743767  49.0173860
  47.8589198  59.5493767  50.8963860  47.2714807  59.3932964  51.7030170
  48.1869198  60.9193767  50.5373860  48.2106566  61.0192976  49.4522355
  47.1459198  61.8863767  51.0933860  46.7956649  61.5270466  52.0610134
  47.5931795  62.8731617  51.2130279  45.6729198  62.0823767  50.0693860
  49.5689198  61.2633767  51.0753860  49.7139198  61.7593767  52.1963860
  50.5879198  60.9953767  50.2663860  50.4089919  60.7648136  49.2994709
  51.9599198  61.0213767  50.7223860  52.0397589  60.3718077  51.5940425
  52.5904615  60.6338726  49.9221629  52.4369198  62.4113767  51.0973860
  51.6639198  63.3193767  51.4043860  53.7599198  62.5643767  51.0653860
  54.3329809  61.8006000  50.7362274  54.4239198  63.7723767  51.5383860
  54.2693583  63.8891449  52.6110347  55.9259198  63.6803767  51.2683860
  56.0540261  63.5795703  50.1906448  56.3710870  64.6182544  51.6005181
  56.6089198  62.5203767  51.9693860  56.3727203  62.5597202  53.0327593
  56.2171997  61.5961072  51.5446738  58.1119198  62.5183767  51.7723860
  58.6549198  63.5493767  51.3243860  58.7489198  61.4853767  52.0653860
  59.6916396  61.5654150  51.9039788  53.8569198  65.0293767  50.8923860
  53.6569198  65.0773767  49.6753860  58.1886896  60.7818885  52.4011321
  59.6055634  63.4578301  51.2230506  58.0318198  64.2607188  51.1611193
  53.5939198  66.0493767  51.7053860  53.7015044  65.9116685  52.7001530
  53.1239198  67.3453767  51.2343860  53.3149184  67.4315085  50.1647132
  51.6249198  67.5183767  51.4783860  51.4601974  67.3989579  52.5492291
  51.3690657  68.5359754  51.1832054  50.7499198  66.5363767  50.7193860
  51.0311144  66.5656010  49.6666865  50.9292815  65.5367514  51.1152151
  49.2759198  66.8793767  50.8593860  48.6908488  66.1847437  50.2566623
  48.9869369  66.7839327  51.9060372  48.9879198  68.2383767  50.4173860
  49.7545079  68.7627428  50.0205457  47.7989198  68.8203767  50.5003860
  46.7539198  68.1903767  51.0103860  46.8539307  67.2434608  51.3472066
  45.8606706  68.6590713  51.0606943  47.6559198  70.0673767  50.0623860
  48.4490627  70.5566797  49.6730186  46.7547925  70.5197400  50.1210014
  53.9059198  68.4323767  51.9543860  54.4149198  68.2063767  53.0573860
  54.0079198  69.5923767  51.3363860  53.6277406  69.7053582  50.4075166
  54.6579198  70.7293767  51.9553860  54.0611501  71.6246327  51.7807954
  54.7449866  70.5548157  53.0277885  56.0459198  70.9393767  51.3743860
  56.2949198  70.6373767  50.2093860  56.9309198  71.4593767  52.2203860
  56.6491248  71.6012016  53.1798529  58.2739198  71.8663767  51.8273860
  58.3744942  71.7933218  50.7444978  58.5559198  73.3103767  52.2483860
  58.5064968  73.4160776  53.3321221  59.5501424  73.5918003  51.9013670
  57.5979198  74.3183767  51.6733860  56.2549198  74.2913767  52.0043860
  55.8923888  73.5237407  52.6880572  55.3779198  75.2193767  51.4813860
  54.3205118  75.1788104  51.7428119  55.8389198  76.1963767  50.6293860
  55.1498294  76.9336040  50.2173782  57.1749198  76.2413767  50.2973860
  57.5426505  77.0131490  49.6211894  58.0489198  75.3083767  50.8213860
  59.1073044  75.3481017  50.5638133  59.2779198  70.9213767  52.4703860
  59.2419198  70.7093767  53.6863860  60.1659198  70.3563767  51.6553860
  60.1246835  70.5673396  50.6685256  61.1749198  69.4133767  52.1183860
  61.2187925  69.4327099  53.2073307  60.8449198  67.9883767  51.6673860
  60.8472519  67.9246793  50.5792516  61.5781148  67.2913524  52.0731964
  59.4989198  67.5083767  52.1223860  58.3449198  68.0123767  51.5533860
  58.4260729  68.7629834  50.7671903  57.1079198  67.5803767  51.9653860
  56.2067860  67.9895692  51.5086365  57.0069198  66.6313767  52.9543860
  56.0261380  66.2889044  53.2843554  58.1479198  66.1123767  53.5293860
  58.0718672  65.3570593  54.3115700  59.3879198  66.5513767  53.1123860
  60.2913416  66.1425940  53.5649627  62.5309198  69.8373767  51.5813860
  62.6869198  70.0433767  50.3743860  63.5129198  69.9513767  52.4763860
  63.3219222  69.7362304  53.4445448  64.8419198  70.4353767  52.1253860
  64.9144932  70.5545519  51.0443543  65.1209198  71.7853767  52.7853860
  65.2323489  71.6112160  53.8555967  66.0655520  72.1430659  52.3757173
  64.0469198  72.8223767  52.5533860  62.8599198  72.7903767  53.2663860
  62.7098745  71.9978684  53.9995412  61.8789198  73.7353767  53.0633860
  60.9491808  73.6938726  53.6308053  62.0769198  74.7343767  52.1413860
  61.1009198  75.6793767  51.9363860  60.3271559  75.5453713  52.4885922
  63.2459198  74.7923767  51.4223860  63.4037249  75.5843469  50.6902786
  64.2249198  73.8393767  51.6313860  65.1557014  73.8810698  51.0656941
  65.9139198  69.4253767  52.5173860  66.9849198  69.8043767  52.9973860
  65.6379198  68.1403767  52.3213860  64.7333291  67.8695009  51.9629989
  66.5959198  67.0903767  52.6443860  66.7920473  67.0801958  53.7165472
  66.0709198  65.7053767  52.2273860  65.9456054  65.6869881  51.1447695
  67.0449198  64.6133767  52.6433860  67.1703941  64.6308429  53.7259989
  66.6544695  63.6422921  52.3390139  68.0087774  64.7834471  52.1636413
  64.7979198  65.4673767  52.8403860  64.4732165  64.6028000  52.5783264
  67.9339198  67.3433767  51.9583860  67.9809198  67.6793767  50.7753860
  69.0289198  67.2033767  52.6253860  69.0267153  66.9285688  53.5972786
  70.3079198  67.4423767  51.9803860  70.1436709  67.7287234  50.9415749
  70.8327986  68.2445199  52.4992011  70.9086314  66.5335274  52.0155787
  25.5505387  43.5807779  39.2610332  25.7169198  43.1793767  38.2613860
  26.4348642  43.8061825  37.7324545  24.7747361  43.1652864  37.7134897
  26.2609198  41.7683767  38.3243860  26.4639198  41.2103767  39.4113860
  26.5169198  41.1363767  37.2293860  26.3324114  41.5467630  36.3251521
  27.0409198  39.7773767  37.2773860  27.4955307  39.5911315  38.2503921
  25.9179198  38.7623767  37.0603860  25.1462342  38.9752219  37.8001816
  25.5193223  38.9343532  36.0605640  26.3559198  37.3123767  37.1883860
  27.1422551  37.1155394  36.4596662  26.7451042  37.1532081  38.1940216
  25.2199198  36.3393767  36.9493860  24.0679198  36.7393767  36.7843860
  25.5399198  35.0513767  36.9263860  24.8217659  34.3584498  36.7707943
  26.5000922  34.7701782  37.0645806  28.1299198  39.5823767  36.2303860
  27.9039198  38.9423767  35.2043860  29.3139198  40.1283767  36.4963860
  29.4582121  40.6291040  37.3615746  30.4119198  40.0693767  35.5413860
  30.1214276  39.4461205  34.6956525  30.7759198  41.4623767  35.0203860
  31.6757075  41.3983424  34.4085194  29.9548192  41.8517503  34.4184872
  31.1219198  42.6893767  36.2993860  31.6129198  39.4163767  36.2073860
  31.6769198  39.2853767  37.4303860  32.5659198  39.0023767  35.3783860
  32.4193254  39.0916632  34.3830784  33.8029198  38.3923767  35.8413860
  33.8133077  38.3854706  36.9313143  33.9449198  36.9543767  35.3423860
  33.2041375  36.3238094  35.8340422  33.7872373  36.9261321  34.2642216
  35.5749198  36.2483767  35.6773860  34.9939198  39.2103767  35.3673860
  35.0189198  39.6893767  34.2293860  35.9599198  39.3883767  36.2693860
  35.7541792  39.1463898  37.2281417  37.2549198  40.0073767  35.9713860
  37.6916407  40.4093904  36.8855846  38.2349198  38.9923767  35.3643860
  38.1541834  38.0635120  35.9290030  37.9439198  38.7203767  33.8983860
  38.0249257  39.6487581  33.3330139  38.6624085  37.9969773  33.5129429
  36.9353320  38.3199570  33.7958413  39.5719198  39.4953767  35.4803860
  40.1860086  38.8622066  35.1014521  37.1179198  41.2343767  35.0723860
  37.9939198  41.5253767  34.2553860  36.0249198  41.9783767  35.2283860
  35.2237637  41.6276849  35.7336222  35.9359198  43.2993767  34.6253860
  36.8476608  43.8566796  34.8404232  35.7649198  43.2103767  33.1153860
  35.7297335  44.2207977  32.7080647  36.6211032  42.6805083  32.6979063
  34.5739198  42.5233767  32.7763860  34.4898281  42.4810115  31.8210151
  34.7809198  44.0733767  35.2403860  34.0109198  43.5503767  36.0493860
  34.6799198  45.3393767  34.8323860  35.3258368  45.7063003  34.1480925
  33.6829198  46.2403767  35.3933860  33.5456005  46.0690219  36.4610377
  34.1049198  47.6983767  35.1593860  34.1531092  47.8863583  34.0867999
  33.1029198  48.6503767  35.7963860  33.0545166  48.4632974  36.8691204
  33.4167385  49.6794455  35.6213547  32.1188240  48.4912043  35.3555699
  35.5109198  47.9443767  35.7133860  35.4386451  47.9217502  36.8007522
  36.1406208  47.1217679  35.3744305  36.1179198  49.2543767  35.2773860
  35.4889731  50.0775366  35.6164047  37.1131521  49.3561481  35.7101151
  36.1909467  49.2775551  34.1900822  32.3279198  45.9533767  34.7693860
  32.2349198  45.5143767  33.6153860  31.2639198  46.1973767  35.5323860
  31.3841177  46.3904400  36.5164482  29.9119198  46.1403767  35.0013860
  29.9017738  46.5868499  34.0070732  29.3939198  44.7003767  34.8973860
  28.3633068  44.7091656  34.5426200  30.0138633  44.1403650  34.1972739
  29.3969198  43.7503767  36.4223860  28.9839198  46.9673767  35.8763860
  29.2909198  47.2643767  37.0333860  27.8459198  47.3443767  35.3013860
  27.7132192  47.0854932  34.3341894  26.8229198  48.1623767  35.9453860
  26.0512558  48.4165682  35.2187358  26.1689198  47.4153767  37.1133860
  25.7519999  46.4797377  36.7407511  26.9314698  47.2001424  37.8619124
  25.1379198  48.1913767  37.6993860  24.7444214  47.7037363  38.4266863
  27.3599198  49.5023767  36.4303860  26.7019198  50.1743767  37.2343860
  28.5369198  49.9123767  35.9663860  29.0892990  49.3169151  35.3660512
  29.0859198  51.2003767  36.3523860  28.9086917  51.3774318  37.4132069
  30.5929198  51.2293767  36.0973860  30.9659508  50.3898898  36.6840791
  30.7312277  51.0205353  35.0365580  31.3649198  52.4963767  36.4723860
  31.0111181  53.3128463  35.8428604  31.1699198  52.8613767  37.9283860
  31.5239434  52.0455232  38.5585838  31.7338338  53.7661330  38.1553612
  30.1113605  53.0356857  38.1211791  32.8399198  52.3023767  36.1863860
  32.9807312  52.0957201  35.1254597  33.3847700  53.2073567  36.4551807
  33.2170275  51.4642716  36.7724479  28.3849198  52.3213767  35.5873860
  27.6599198  52.0883767  34.6173860  28.5809198  53.5503767  36.0603860
  29.0745721  53.6674565  36.9337124  28.0519198  54.7373767  35.4013860
  27.5175711  54.4546561  34.4943912  27.0769198  55.4673767  36.3383860
  26.1841229  54.8459358  36.4078419  27.5511445  55.5319044  37.3176955
  26.6909198  56.8533767  35.8733860  27.4129198  57.9663767  36.2763860
  28.2684503  57.8258602  36.9370086  27.0659198  59.2353767  35.8563860
  27.6458763  60.1008086  36.1769792  25.9799198  59.4033767  35.0273860
  25.6319198  60.6673767  34.6103860  26.2119178  61.3495389  34.9565893
  25.2429198  58.3153767  34.6153860  24.3832038  58.4485165  33.9586801
  25.5989198  57.0493767  35.0393860  25.0187139  56.1840618  34.7189310
  29.1429198  55.6923767  34.9413860  29.1689198  56.0783767  33.7693860
  30.0569198  56.0823767  35.8273860  30.0319630  55.7202316  36.7698973
  31.0759198  57.0743767  35.4933860  31.1556214  57.1627904  34.4099056
  30.7219198  58.4443767  36.0703860  29.7892827  58.7609015  35.6033748
  30.5654486  58.3137916  37.1411635  31.7859198  59.5003767  35.8403860
  32.6306000  59.2913122  36.4968220  32.1133311  59.4536902  34.8017695
  31.2849198  60.9003767  36.1273860  30.1239198  61.0963767  36.4863860
  32.1589198  61.8853767  35.9653860  31.8786538  62.8393530  36.1428169
  33.1004865  61.6766878  35.6653820  32.4289198  56.6063767  36.0093860
  32.5239198  56.0553767  37.1103860  33.4649198  56.8263767  35.2083860
  33.2878793  57.1836661  34.2804311  34.8399198  56.5493767  35.5893860
  34.9559444  56.6748439  36.6659061  35.2229198  55.1153767  35.2203860
  34.3308285  54.5504279  35.4907657  35.3573736  55.0855871  34.1391207
  36.4449198  54.4963767  35.9033860  36.3443072  54.6010823  36.9836706
  36.5489198  53.0243767  35.5453860  36.6500305  52.9188855  34.4652254
  37.4210219  52.5914746  36.0354211  35.6504658  52.5046270  35.8781639
  37.7249198  55.2213767  35.5333860  37.6538125  56.2648404  35.8403496
  38.5685020  54.7511963  36.0387578  37.8735355  55.1698057  34.4547977
  35.7619198  57.5373767  34.8883860  35.6819198  57.7283767  33.6743860
  36.6389198  58.1783767  35.6553860  36.7174769  58.0271417  36.6509040
  37.4959198  59.1793767  35.0403860  37.9339191  58.7751662  34.1277691
  36.6969198  60.4383767  34.6843860  37.4145285  61.1823119  34.3384130
  36.0295947  60.1696684  33.8655007  35.8869198  61.0123767  35.8273860
  35.0699628  60.3322074  36.0683254  36.5476687  61.1054795  36.6892688
  35.3389198  62.3893767  35.5153860  35.9129198  63.0783767  34.6463860
  34.3299198  62.7823767  36.1363860  34.0529736  63.6661859  35.8846695
  38.6499198  59.5543767  35.9543860  38.4449198  59.8763767  37.1243860
  34.0005631  62.1354608  36.7644807  35.5041517  63.9382605  34.5203646
  36.6626192  62.6310161  34.2479686  39.8579198  59.5293767  35.3993860
  40.0186577  59.0114016  34.5473506  40.9849198  60.2113767  36.0143860
  40.9846867  60.0269580  37.0886713  42.3019198  59.7063767  35.4333860
  42.2095334  58.6384795  35.2354985  42.4978063  60.2328492  34.4992794
  43.4709198  59.9253767  36.3653860  43.4449198  60.8203767  37.2073860
  44.5069198  59.1083767  36.2203860  45.3147325  59.2112101  36.8178504
  44.4826547  58.3876281  35.5132556  40.8239198  61.7063767  35.7733860
  39.8489198  62.1363767  35.1483860  41.7679198  62.5023767  36.2673860
  42.5514490  62.1283218  36.7833940  41.6709198  63.9473767  36.1103860
  41.5031356  64.1919700  35.0615191  40.5079198  64.5063767  36.9353860
  39.7278470  63.7455196  36.9092672  40.8592520  64.6307752  37.9596861
  39.9499198  65.8163767  36.4323860  40.6929198  66.9863767  36.5053860
  41.6967134  66.9469108  36.9283994  40.1809198  68.1863767  36.0533860
  40.7775029  69.0968409  36.1103538  38.9079198  68.2283767  35.5263860
  38.3929198  69.4213767  35.0763860  39.0034221  70.1553437  35.1772769
  38.1479198  67.0813767  35.4493860  37.1410675  67.1138157  35.0330968
  38.6689198  65.8863767  35.9033860  38.0717358  64.9761000  35.8498339
  42.9799198  64.5933767  36.5373860  43.5809198  64.1813767  37.5333860
  43.4069198  65.6023767  35.7863860  42.9147074  65.8235789  34.9326320
  44.5979198  66.3763767  36.1183860  44.4398475  66.8992610  37.0616274
  45.8239198  65.4713767  36.2603860  46.7298376  66.0754442  36.2102398
  45.7853100  64.9541917  37.2190982  45.9889198  64.1773767  35.0183860
  44.8549198  67.4413767  35.0593860  44.7779198  67.1683767  33.8613860
  45.1569198  68.6423767  35.4213860  45.2291693  68.9005159  36.3951640
  45.4029198  69.6633767  34.4183860  45.2873599  69.2319721  33.4240840
  44.6897188  70.4777754  34.5456639  46.4165839  70.0478065  34.5315176
  28.1692277  26.4693878  41.8176814  28.0029198  26.7043767  40.7663860
  27.3104191  27.5422764  40.6859792  27.5810334  25.8352856  40.2616172
  29.2989198  27.0803767  40.0803860  30.3689198  27.0953767  40.7023860
  29.2869198  27.3913767  38.8283860  28.4382173  27.3586373  38.2818226
  30.5279198  27.7553767  38.1563860  31.2672806  28.0717326  38.8921602
  31.0879198  26.5613767  37.3833860  30.9202863  25.6445272  37.9485277
  30.6060002  26.4802641  36.4090789  32.5599198  26.6433767  37.1273860
  33.2309198  27.8413767  37.0043860  32.7982060  28.7513928  37.0731556
  34.5119198  27.6053767  36.7853860  35.2135144  28.4296773  36.6573526
  34.6979198  26.2983767  36.7643860  35.5778700  25.8251112  36.6167132
  33.4929198  25.6733767  36.9773860  33.4396281  24.5848691  36.9976945
  30.2829198  28.9313767  37.2183860  29.4579198  28.8473767  36.3093860
  30.9979198  30.0323767  37.4523860  31.6353852  30.0636808  38.2351742
  30.8439198  31.2313767  36.6383860  30.0846812  31.0659033  35.8740075
  30.4109198  32.4133767  37.5103860  29.4666884  32.0828448  37.9431388
  31.1511024  32.5314768  38.3017659  30.2049198  33.7543767  36.8003860
  29.9065254  33.5685980  35.7686167  29.1279198  34.5623767  37.5003860
  29.4258341  34.7489617  38.5321476  28.9928416  35.5128574  36.9842066
  28.1903855  34.0065131  37.4883220  31.4969198  34.5513767  36.7343860
  32.2479381  33.9822305  36.1865325  31.3152060  35.4973944  36.2243548
  31.8557490  34.7470452  37.7448584  32.1369198  31.5553767  35.9023860
  32.1239198  31.7863767  34.6883860  33.2549198  31.5733767  36.6233860
  33.2148305  31.3692000  37.6117200  34.5409198  31.9293767  36.0443860
  34.4866593  31.8340011  34.9599237  34.9329198  33.3703767  36.3903860
  34.0764670  33.8861579  36.8246184  35.7533954  33.3619551  37.1079157
  35.4729198  34.3483767  34.9713860  35.6029198  30.9583767  36.5383860
  35.4489198  30.3103767  37.5763860  36.6909198  30.8733767  35.7823860
  36.7959555  31.5055257  35.0017104  37.7399198  29.9083767  36.0293860
  37.2832182  29.0108251  36.4464280  38.2095389  29.6669611  35.0758265
  38.7989198  30.4123767  36.9863860  38.5589198  31.2813767  37.8273860
  39.9949198  29.8493767  36.8463860  40.1430594  29.1856268  36.0996665
  41.0929198  30.1143767  37.7603860  40.7331424  30.6811422  38.6191272
  41.6939198  28.8003767  38.2593860  42.1354923  28.2752427  37.4124226
  42.4701046  29.0274547  38.9901888  40.7059198  27.9813767  38.8593860
  41.1086923  27.1646821  39.1633334  42.1709198  30.9643767  37.0913860
  42.1839198  31.1653767  35.8753860  43.0869198  31.4673767  37.9163860
  42.9485218  31.3454687  38.9094035  44.2359198  32.2493767  37.4683860
  44.8020409  32.5958926  38.3329858  45.1599198  31.4053767  36.5843860
  45.1514941  30.3671100  36.9160945  44.8331566  31.4571119  35.5458056
  46.5889198  31.8503767  36.6063860  47.6419198  30.9763767  36.4443860
  47.5450248  29.9816675  36.2985620  48.7799198  31.6443767  36.5103860
  49.7343030  31.1282124  36.4063379  48.5019198  32.9203767  36.7073860
  49.1754674  33.6676397  36.7970047  47.1389198  33.0763767  36.7723860
  46.7106452  34.0657549  36.9330500  43.8189198  33.5173767  36.7323860
  44.5499198  34.0043767  35.8643860  42.6519198  34.0603767  37.0613860
  42.0350467  33.6007605  37.7158476  42.2119198  35.3073767  36.4593860
  42.3547400  35.2675786  35.3795167  40.7309198  35.5443767  36.7473860
  40.7080374  35.8428769  37.7954668  40.3796230  36.3692341  36.1274660
  39.8229198  34.3313767  36.5433860  40.0612075  33.5787736  37.2949899
  38.3679198  34.7323767  36.6743860  38.1287465  35.4846707  35.9227553
  37.7346791  33.8576005  36.5264886  38.1919586  35.1437938  37.6683045
  40.0839198  33.6883767  35.1983860  41.1229613  33.3631791  35.1460551
  39.4274916  32.8272459  35.0732580  39.8895462  34.4109589  34.4057999
  43.0389198  36.4733767  36.9873860  43.4329198  36.5073767  38.1563860
  43.3009198  37.4373767  36.1103860  42.9552551  37.3498096  35.1654271
  44.1149198  38.5993767  36.4433860  44.1650645  38.7551576  37.5210302
  45.5519198  38.4633767  35.8973860  45.5094102  38.3186926  34.8178682
  46.3589198  39.7133767  36.2093860  46.4022665  39.8584753  37.2888157
  47.3698229  39.6010571  35.8175192  45.8841089  40.5781230  35.7458452
  46.2249198  37.2303767  36.4773860  45.6558161  36.3421773  36.2029322
  47.2375615  37.1488365  36.0824081  46.2647594  37.3145157  37.5634036
  43.4479198  39.8463767  35.8853860  42.9389198  39.8443767  34.7603860
  43.4489198  40.9103767  36.6803860  43.7545221  40.7960360  37.6362274
  43.0009198  42.2263767  36.2523860  43.0652542  42.2929253  35.1663236
  41.5549198  42.4913767  36.6733860  40.9478505  41.6785846  36.2747193
  41.5253259  42.4657451  37.7626827  41.0059198  43.8203767  36.1833860
  41.6540808  44.6249948  36.5306292  41.0061357  43.7990184  35.0935957
  39.5839198  44.0683767  36.6393860  39.1479198  43.4073767  37.6033860
  38.9039198  44.9243767  36.0363860  38.0138738  45.0123376  36.3846105
  43.9179198  43.2783767  36.8543860  44.4849198  43.0753767  37.9323860
  39.3843564  45.3503234  35.3227832  38.2369971  43.6197364  37.8213223
  39.7973806  42.8017789  37.9672117  44.0649198  44.3993767  36.1563860
  43.5992816  44.4905260  35.2647739  44.9119198  45.4933767  36.6073860
  44.8169477  45.6154270  37.6863593  46.3799198  45.2233767  36.2733860
  46.4925201  45.1079236  35.1953824  46.9904028  46.0594864  36.6144598
  46.7044718  44.3100351  36.7719562  44.4519198  46.7893767  35.9603860
  44.6839198  47.0103767  34.7683860  43.8139198  47.6463767  36.7493860
  43.6437267  47.3861126  37.7103211  43.3089198  48.9273767  36.2823860
  43.3944759  48.9825258  35.1971497  41.8379198  49.1013767  36.6663860
  41.3121486  48.4396591  35.9780592  41.7137135  48.7369569  37.6861267
  41.2619198  50.5113767  36.5563860  41.6898829  51.1298050  37.3453694
  41.5849198  51.1153767  35.2143860  41.1568600  50.4977086  34.4248610
  41.1654041  52.1197722  35.1569655  42.6665001  51.1662286  35.0890921
  39.7609198  50.4843767  36.7843860  39.5509645  50.0902663  37.7787176
  39.3623336  51.4956426  36.7033213  39.2904605  49.8478116  36.0350184
  44.1529198  50.0463767  36.8743860  44.2739198  50.1573767  38.0983860
  44.7309198  50.8693767  36.0053860  44.5727193  50.7199181  35.0191132
  45.6069198  51.9613767  36.4063860  45.7598116  51.9277681  37.4850860
  46.9679198  51.8573767  35.7163860  46.7954705  51.8507014  34.6401352
  47.5097642  52.7622915  35.9914022  47.7819198  50.6473767  36.1023860
  47.3879198  49.3743767  35.7253860  46.4709369  49.2575412  35.1478123
  48.1319198  48.2673767  36.0673860  47.8049355  47.2712237  35.7692881
  49.2949198  48.4233767  36.7863860  50.0399198  47.3193767  37.1273860
  49.6567559  46.4968689  36.8139119  49.7129198  49.6773767  37.1673860
  50.6329026  49.8024934  37.7384183  48.9599198  50.7803767  36.8223860
  49.2878027  51.7775862  37.1159265  44.9609198  53.2953767  36.0603860
  44.5909198  53.5303767  34.9053860  44.8319198  54.1593767  37.0603860
  45.0138692  53.8311844  37.9980872  44.4209198  55.5453767  36.8813860
  44.2179386  55.7299912  35.8264854  43.1579198  55.8563767  37.6833860
  43.3571337  55.3482417  38.6268964  43.1480168  56.9340259  37.8467084
  41.7979198  55.4103767  37.1413860  41.1056356  55.2883016  37.9744173
  41.2509198  56.4413767  36.1783860  41.9424857  56.5636694  35.3447915
  40.2833471  56.1099640  35.8014650  41.1323272  57.3942504  36.6942037
  41.8849198  54.0573767  36.4743860  42.2278692  53.3168719  37.1969770
  40.9014259  53.7717793  36.1011902  42.5883145  54.1060564  35.6431429
  45.5739198  56.4253767  37.3393860  45.6579198  56.7723767  38.5223860
  46.4559198  56.7863767  36.4093860  46.2760427  56.6023609  35.4327173
  47.7309198  57.3933767  36.7753860  47.7910515  57.6008865  37.8437600
  48.9079198  56.4813767  36.3843860  48.9236726  56.3667042  35.3005496
  50.2249198  57.0853767  36.8493860  50.2100975  57.1999323  37.9332487
  51.0469548  56.4284199  36.5651912  50.3624305  58.0610482  36.3832770
  48.7259198  55.0863767  36.9603860  47.8029964  54.6517537  36.5764365
  49.5697877  54.4601946  36.6707613  48.6742878  55.1455104  38.0475558
  47.8899198  58.7643767  36.1323860  48.3419198  58.8773767  34.9873860
  47.5269198  59.8103767  36.8663860  46.9294450  59.6951440  37.6725155
  47.9489198  61.1553767  36.5073860  47.9808683  61.2538321  35.4223123
  46.9749198  62.1903767  37.0623860  46.5990015  61.8547199  38.0288844
  47.4879995  63.1443375  37.1840746  45.5199198  62.4873767  36.0373860
  49.3499198  61.4033767  37.0473860  49.5269198  61.8883767  38.1673860
  50.3489198  61.0673767  36.2383860  50.1555102  60.8506007  35.2710700
  51.7189198  60.9993767  36.6953860  51.7532163  60.3453612  37.5666992
  52.3218777  60.5698384  35.8953623  52.2899198  62.3523767  37.0713860
  51.5799198  63.3123767  37.3783860  53.6199198  62.4153767  37.0403860
  54.1393354  61.6146182  36.7100945  54.3649198  63.5743767  37.5143860
  54.2179222  63.7006740  38.5870182  55.8569198  63.3803767  37.2453860
  55.9786003  63.2707295  36.1677634  56.3647734  64.2858209  37.5775841
  56.4589198  62.1763767  37.9473860  56.2258952  62.2304655  39.0108120
  56.0052422  61.2813941  37.5216139  57.9579198  62.0723767  37.7503860
  58.5709198  63.0633767  37.3033860  58.5229198  60.9983767  38.0443860
  59.4689208  61.0136979  37.8830591  53.8859198  64.8673767  36.8673860
  53.6899198  64.9293767  35.6503860  57.9159118  60.3350820  38.3806305
  59.5130034  62.9063914  37.2023565  57.9985574  63.8161946  37.1403412
  53.6929198  65.9033767  37.6803860  53.7911251  65.7587198  38.6751370
  53.3119198  67.2283767  37.2093860  53.5090938  67.3012658  36.1398493
  51.8279198  67.5033767  37.4523860  51.6544299  67.3952650  38.5230458
  51.6421800  68.5360748  37.1571990  50.8889198  66.5833767  36.6923860
  51.1722263  66.5934692  35.6398954  50.9991566  65.5737514  37.0881216
  49.4419198  67.0263767  36.8313860  48.8112297  66.3727860  36.2287683
  49.1467641  66.9512946  37.8779735  49.2469198  68.4023767  36.3883860
  50.0472637  68.8733712  35.9912549  48.1009198  69.0633767  36.4713860
  47.0149198  68.5063767  36.9803860  47.0494882  67.5546527  37.3167287
  46.1559202  69.0352561  37.0304462  48.0439198  70.3183767  36.0333860
  48.8689245  70.7522555  35.6445204  47.1759074  70.8314512  36.0917628
  54.1659198  68.2593767  37.9303860  54.6569198  67.9983767  39.0333860
  54.3479198  69.4093767  37.3123860  53.9779986  69.5478570  36.3828265
  55.0729198  70.4993767  37.9323860  54.5386664  71.4333078  37.7579005
  55.1476443  70.3190302  39.0047622  56.4729198  70.6143767  37.3513860
  56.7009198  70.2963767  36.1873860  57.3909198  71.0723767  38.1993860
  57.1188209  71.2324487  39.1587809  58.7589198  71.3873767  37.8073860
  58.8550508  71.3082901  36.7245179  59.1379198  72.8083767  38.2293860
  59.0935505  72.9164298  39.3131088  60.1496778  73.0218570  37.8846079
  58.2519198  73.8793767  37.6533860  56.9099198  73.9443767  37.9823860
  56.4948887  73.2031846  38.6653819  56.0989198  74.9303767  37.4583860
  55.0409610  74.9618740  37.7188317  56.6259198  75.8733767  36.6073860
  55.9889268  76.6559069  36.1950920  57.9619198  75.8273767  36.2763860
  58.3822085  76.5721937  35.6005864  58.7699198  74.8363767  36.8013860
  59.8287254  74.8034568  36.5445847  59.6949198  70.3753767  38.4503860
  59.6439198  70.1663767  39.6673860  60.5429198  69.7513767  37.6373860
  60.5170913  69.9655497  36.6506935  61.4849198  68.7413767  38.1003860
  61.5292889  68.7571214  39.1893684  61.0589198  67.3423767  37.6483860
  61.0573165  67.2799405  36.5601772  61.7423660  66.5961863  38.0536035
  59.6829198  66.9553767  38.1023860  58.5659198  67.5373767  37.5323860
  58.6977074  68.2806849  36.7461132  57.3029198  67.1903767  37.9443860
  56.4325467  67.6610593  37.4872106  57.1359198  66.2503767  38.9323860
  56.1337639  65.9749241  39.2608817  58.2379198  65.6553767  39.5083860
  58.1093143  64.9071382  40.2904985  59.5049198  66.0083767  39.0933860
  60.3776658  65.5393416  39.5477211  62.8679198  69.0713767  37.5643860
  63.0379198  69.2663767  36.3573860  63.8539198  69.1183767  38.4603860
  63.6471633  68.9174538  39.4283639  65.2129198  69.5103767  38.1113860
  65.2947667  69.6242268  37.0304427  65.5829198  70.8373767  38.7713860
  65.6814591  70.6561590  39.8416894  66.5501140  71.1293999  38.3622921
  64.5819198  71.9463767  38.5383860  63.3959198  71.9953767  39.2503860
  63.1919443  71.2153403  39.9838959  62.4819198  73.0043767  39.0463860
  61.5511997  73.0265347  39.6132821  62.7489198  73.9883767  38.1253860
  61.8389198  74.9983767  37.9193860  61.0569116  74.9168019  38.4702112
  63.9199198  73.9663767  37.4063860  64.1324230  74.7452306  36.6740408
  64.8299198  72.9493767  37.6163860  65.7620481  72.9269226  37.0518219
  66.2129198  68.4303767  38.5033860  67.3079198  68.7343767  38.9853860
  65.8499198  67.1663767  38.3073860  64.9287588  66.9579418  37.9494520
  66.7339198  66.0533767  38.6303860  66.9267591  66.0299943  39.7029369
  66.1159198  64.7073767  38.2123860  65.9914831  64.6972374  37.1295596
  67.0129198  63.5513767  38.6303860  67.1374533  63.5605849  39.7132093
  66.5578023  62.6090262  38.3255208  67.9869305  63.6553124  38.1522637
  64.8289198  64.5563767  38.8253860  64.4460507  63.7160895  38.5628428
  68.0869198  66.2143767  37.9463860  68.1599198  66.5473767  36.7633860
  69.1689198  65.9993767  38.6153860  69.1471295  65.7252539  39.5872302
  70.4619198  66.1503767  37.9713860  70.3184907  66.4474099  36.9324924
  71.0400427  66.9146611  38.4907547  70.9989984  65.2025450  38.0069051
  26.0466062  43.0240621  43.9833404  26.2199198  42.6263767  42.9833860
  26.9229958  43.2687466  42.4531566  25.2772745  42.5916354  42.4372066
  26.7949198  41.2273767  43.0453860  27.0119198  40.6743767  44.1313860
  27.0619198  40.6013767  41.9493860  26.8673574  41.0078571  41.0454952
  27.6159198  39.2533767  41.9963860  28.0755355  39.0764161  42.9687735
  26.5149198  38.2153767  41.7803860  25.7397874  38.4120058  42.5210655
  26.1118195  38.3794780  40.7810457  26.9829198  36.7743767  41.9073860
  27.7724972  36.5952162  41.1776122  27.3767318  36.6232870  42.9124661
  25.8689198  35.7773767  41.6693860  24.7079198  36.1523767  41.5063860
  26.2169198  34.4963767  41.6453860  25.5138329  33.7880579  41.4902902
  27.1831445  34.2360754  41.7823324  28.7069198  39.0823767  40.9463860
  28.4929198  38.4383767  39.9203860  29.8789198  39.6533767  41.2113860
  30.0118607  40.1581760  42.0760268  30.9769198  39.6203767  40.2553860
  30.6998163  38.9901931  39.4102934  31.3089198  41.0203767  39.7333860
  32.2067340  40.9754099  39.1169391  30.4768064  41.3926963  39.1358364
  31.6309198  42.2543767  41.0133860  32.1919198  38.9913767  40.9173860
  32.2609198  38.8623767  42.1403860  33.1529198  38.5993767  40.0863860
  33.0030748  38.6861420  39.0913395  34.4039198  38.0163767  40.5473860
  34.4162910  38.0090697  41.6372910  34.5759198  36.5823767  40.0473860
  33.8491532  35.9358937  40.5392897  34.4178682  36.5515069  38.9693476
  36.2209198  35.9113767  40.3803860  35.5759198  38.8603767  40.0723860
  35.5889198  39.3403767  38.9343860  36.5399198  39.0583767  40.9723860
  36.3410676  38.8120952  41.9315016  37.8199198  39.7053767  40.6723860
  38.2487989  40.1168582  41.5860845  38.8209198  38.7123767  40.0643860
  38.7614602  37.7817674  40.6287717  38.5329198  38.4343767  38.5973860
  38.5926579  39.3645090  38.0322446  39.2662678  37.7269270  38.2103271
  37.5330973  38.0121395  38.4965332  40.1459198  39.2433767  40.1773860
  40.7726283  38.6232662  39.7975180  37.6549198  40.9293767  39.7753860
  38.5239198  41.2393767  38.9573860  36.5459198  41.6493767  39.9323860
  35.7528475  41.2797289  40.4368622  36.4269198  42.9683767  39.3313860
  37.3263718  43.5454944  39.5459099  36.2559198  42.8773767  37.8213860
  36.1977646  43.8870306  37.4147949  37.1225589  42.3665968  37.4016949
  35.0789198  42.1643767  37.4843860  34.9936742  42.1207548  36.5291739
  35.2579198  43.7173767  39.9483860  34.4999198  43.1773767  40.7583860
  35.1289198  44.9813767  39.5413860  35.7654280  45.3628476  38.8562316
  34.1139198  45.8593767  40.1043860  33.9824728  45.6844888  41.1722039
  34.5029198  47.3263767  39.8703860  34.5449760  47.5154605  38.7977356
  33.4819198  48.2563767  40.5093860  33.4396306  48.0681904  41.5821852
  33.7731119  49.2919979  40.3338961  32.5006434  48.0760393  40.0704392
  35.9049198  47.6023767  40.4223860  35.8355053  47.5777713  41.5098956
  36.5520658  46.7941220  40.0817604  36.4819198  48.9263767  39.9853860
  35.8355158  49.7351992  40.3260734  37.4755650  49.0501533  40.4160223
  36.5520741  48.9515506  38.8979374  32.7629198  45.5433767  39.4823860
  32.6779198  45.1033767  38.3283860  31.6959198  45.7643767  40.2473860
  31.8135887  45.9595814  41.2313314  30.3439198  45.6783767  39.7183860
  30.3222164  46.1251450  38.7243909  29.8579198  44.2283767  39.6143860
  28.8266710  44.2146937  39.2616284  30.4886856  43.6826617  38.9126527
  29.8839198  43.2773767  41.1383860  29.3999198  46.4853767  40.5963860
  29.7029198  46.7883767  41.7523860  28.2529198  46.8383767  40.0223860
  28.1243956  46.5787960  39.0548124  27.2139198  47.6333767  40.6693860
  26.4358243  47.8720811  39.9443434  26.5779198  46.8713767  41.8373860
  26.1802426  45.9276500  41.4641140  27.3462693  46.6712725  42.5841773
  25.5319198  47.6243767  42.4263860  25.1502220  47.1274318  43.1536772
  27.7229198  48.9843767  41.1543860  27.0519198  49.6403767  41.9593860
  28.8899198  49.4193767  40.6873860  29.4538575  48.8364264  40.0855202
  29.4119198  50.7193767  41.0733860  29.2324833  50.8922837  42.1345198
  30.9169198  50.7803767  40.8163860  31.3087708  49.9489996  41.4023588
  31.0577855  50.5745725  39.7553010  31.6629198  52.0643767  41.1903860
  31.2908795  52.8734405  40.5618141  31.4619198  52.4243767  42.6473860
  31.8341696  51.6159333  43.2766301  32.0065825  53.3408888  42.8742093
  30.4001115  52.5758200  42.8416245  33.1409198  51.9013767  40.9023860
  33.2845327  51.6974951  39.8412983  33.6670228  52.8176590  41.1702361
  33.5363808  51.0715034  41.4880650  28.6859198  51.8243767  40.3103860
  27.9639198  51.5773767  39.3413860  28.8549198  53.0573767  40.7833860
  29.3463699  53.1839563  41.6566293  28.2999198  54.2333767  40.1263860
  27.7704974  53.9402690  39.2197995  27.3109198  54.9413767  41.0653860
  26.4318260  54.3009364  41.1370081  27.7865200  55.0154112  42.0433550
  26.8939198  56.3193767  40.6023860  27.5929198  57.4473767  41.0043860
  28.4526035  57.3252331  41.6632671  27.2179198  58.7083767  40.5853860
  27.7801505  59.5854822  40.9058302  26.1269198  58.8543767  39.7583860
  25.7509198  60.1093767  39.3423860  26.3165849  60.8040582  39.6874080
  25.4129198  57.7493767  39.3473860  24.5494390  57.8640401  38.6921351
  25.7969198  56.4913767  39.7703860  25.2351298  55.6137739  39.4505339
  29.3689198  55.2113767  39.6653860  29.3849198  55.5993767  38.4933860
  30.2759198  55.6213767  40.5503860  30.2605653  55.2587967  41.4929354
  31.2729198  56.6353767  40.2143860  31.3486687  56.7259728  39.1308023
  30.8899198  57.9963767  40.7923860  29.9503605  58.2930569  40.3262224
  30.7370307  57.8617099  41.8631754  31.9309198  59.0753767  40.5623860
  32.7806923  58.8845166  41.2177942  32.2580652  59.0360477  39.5233811
  31.3999198  60.4643767  40.8503860  30.2359198  60.6343767  41.2113860
  32.2529198  61.4683767  40.6873860  31.9525492  62.4161230  40.8653074
  33.1983630  61.2798952  40.3861996  32.6359198  56.1963767  40.7283860
  32.7449198  55.6463767  41.8283860  33.6659198  56.4383767  39.9253860
  33.4792082  56.7913691  38.9976822  35.0469198  56.1913767  40.3033860
  35.1621582  56.3192039  41.3797129  35.4609198  54.7663767  39.9333860
  34.5811884  54.1833185  40.2058105  35.5933749  54.7394360  38.8517993
  36.6969198  54.1723767  40.6133860  36.5960462  54.2748175  41.6938634
  36.8319198  52.7043767  40.2553860  36.9333085  52.6011613  39.1750316
  37.7140683  52.2903904  40.7437814  35.9455173  52.1653137  40.5897543
  37.9599198  54.9253767  40.2423860  37.8667992  55.9665373  40.5512754
  38.8144292  54.4727326  40.7454052  38.1076069  54.8788516  39.1634407
  35.9469198  57.1993767  39.6013860  35.8609198  57.3883767  38.3883860
  36.8109198  57.8583767  40.3683860  36.8938119  57.7089999  41.3638331
  37.6449198  58.8783767  39.7523860  38.0903989  58.4836533  38.8392371
  36.8189198  60.1203767  39.3973860  37.5198459  60.8801031  39.0515283
  36.1565495  59.8383590  38.5789535  35.9979198  60.6753767  40.5423860
  35.1960170  59.9777276  40.7839195  36.6578672  60.7817410  41.4033478
  35.4199198  62.0413767  40.2323860  35.9779198  62.7423767  39.3623860
  34.4039198  62.4123767  40.8553860  34.1078642  63.2903139  40.6048734
  38.7929198  59.2773767  40.6643860  38.5829198  59.5953767  41.8343860
  34.0894276  61.7581208  41.4834965  35.5512172  63.5936558  39.2373986
  36.7359336  62.3107086  38.9623925  39.9989198  59.2793767  40.1073860
  40.1687797  58.7679384  39.2531743  41.1119198  59.9843767  40.7213860
  41.1177054  59.7981552  41.7953447  42.4399198  59.5083767  40.1363860
  42.3719267  58.4388319  39.9375142  42.6224810  60.0401555  39.2025859
  43.6049198  59.7533767  41.0673860  43.5609198  60.6463767  41.9093860
  44.6579198  58.9583767  40.9203860  45.4644148  59.0781868  41.5164658
  44.6476869  58.2373984  40.2131475  40.9189198  61.4763767  40.4803860
  39.9339198  61.8853767  39.8573860  41.8469198  62.2923767  40.9733860
  42.6396880  61.9352907  41.4873000  41.7179198  63.7353767  40.8173860
  41.5422714  63.9770849  39.7691380  40.5449198  64.2673767  41.6453860
  39.7814302  63.4898779  41.6193354  40.8943100  64.3986093  42.6694976
  39.9579198  65.5663767  41.1433860  40.6749198  66.7513767  41.2163860
  41.6796119  66.7332689  41.6387191  40.1369198  67.9403767  40.7653860
  40.7137567  68.8634788  40.8223376  38.8619198  67.9553767  40.2403860
  38.3209198  69.1373767  39.7913860  38.9159031  69.8841063  39.8913335
  38.1269198  66.7923767  40.1633860  37.1191491  66.8024085  39.7481774
  38.6749198  65.6093767  40.6163860  38.0979236  64.6861140  40.5638359
  43.0129198  64.4083767  41.2423860  43.6249198  64.0093767  42.2373860
  43.4169198  65.4273767  40.4913860  42.9184618  65.6392323  39.6388861
  44.5919198  66.2263767  40.8223860  44.4239231  66.7446254  41.7664700
  45.8379198  65.3483767  40.9613860  46.7302504  65.9721868  40.9093635
  45.8128335  64.8302529  41.9200405  46.0289198  64.0593767  39.7183860
  44.8239198  67.2973767  39.7633860  44.7499198  67.0243767  38.5653860
  45.1009198  68.5043767  40.1263860  45.1696940  68.7633162  41.1002031
  45.3229198  69.5313767  39.1233860  45.2145123  69.0982984  38.1290060
  44.5927127  70.3302229  39.2527808  46.3283563  69.9373493  39.2346675
  27.8973485  28.6221709  45.3079792  28.1629198  27.9863767  44.4633860
  27.9215297  28.4988363  43.5321426  27.6022872  27.0533203  44.5199181
  29.6409198  27.6633767  44.4683860  30.3869198  28.1033767  45.3533860
  30.1319198  26.9183767  43.5363860  29.7022368  26.0418978  43.2770472
  31.3629198  27.3103767  42.8623860  32.0968765  27.6428120  43.5964797
  31.9469198  26.1283767  42.0883860  31.8004838  25.2087152  42.6548474
  31.4650657  26.0356163  41.1150864  33.4169198  26.2423767  41.8293860
  34.0609198  27.4543767  41.7063860  33.6086889  28.3547089  41.7770187
  35.3469198  27.2463767  41.4843860  36.0303897  28.0855919  41.3552128
  35.5609198  25.9433767  41.4623860  36.4504244  25.4889763  41.3127143
  34.3709198  25.2933767  41.6773860  34.3408738  24.2039793  41.6976775
  31.0909198  28.4803767  41.9253860  30.2669198  28.3793767  41.0183860
  31.7819198  29.5963767  42.1593860  32.4191229  29.6411252  42.9417345
  31.6009198  30.7923767  41.3463860  30.8439011  30.6113192  40.5833394
  31.1449198  31.9633767  42.2193860  30.2092071  31.6121882  42.6543661
  31.8843820  32.0971628  43.0089409  30.9079198  33.3003767  41.5103860
  30.6117340  33.1081555  40.4791606  29.8149198  34.0853767  42.2123860
  30.1106083  34.2783937  43.2436045  29.6586257  35.0326994  41.6963892
  28.8894693  33.5095864  42.2020241  32.1829198  34.1253767  41.4423860
  32.9449177  33.5728686  40.8926649  31.9799062  35.0676050  40.9333746
  32.5394515  34.3280485  42.4522911  32.8849198  31.1443767  40.6073860
  32.8659198  31.3763767  39.3943860  34.0049198  31.1863767  41.3273860
  33.9717733  30.9799878  42.3155177  35.2819198  31.5703767  40.7453860
  35.2273425  31.4751568  39.6609259  35.6429198  33.0193767  41.0923860
  34.7755176  33.5164276  41.5267282  36.4632272  33.0280950  41.8101044
  36.1589198  34.0093767  39.6723860  36.3649198  30.6223767  41.2383860
  36.2259198  29.9703767  42.2753860  37.4529198  30.5613767  40.4793860
  37.5431173  31.1956722  39.6985961  38.5229198  29.6183767  40.7243860
  38.0864688  28.7112233  41.1423364  38.9962039  29.3869729  39.7701566
  39.5719198  30.1453767  41.6793860  39.3149198  31.0083767  42.5213860
  40.7799198  29.6083767  41.5373860  40.9411128  28.9484390  40.7899916
  41.8739198  29.8963767  42.4503860  41.5033053  30.4545754  43.3101292
  42.5039198  28.5953767  42.9473860  42.9554616  28.0807096  42.0992546
  43.2761647  28.8387699  43.6771103  41.5349198  27.7543767  43.5483860
  41.9559477  26.9464331  43.8509790  42.9319198  30.7703767  41.7793860
  42.9379198  30.9723767  40.5633860  43.8379198  31.2923767  42.6033860
  43.7034151  31.1680789  43.5966422  44.9699198  32.0983767  42.1533860
  45.5299763  32.4561860  43.0173353  45.9099198  31.2753767  41.2673860
  45.9247090  30.2367931  41.5978775  45.5802443  31.3211719  40.2294472
  47.3289198  31.7513767  41.2873860  48.3999198  30.9003767  41.1233860
  48.3241671  29.9038287  40.9776007  49.5229198  31.5923767  41.1873860
  50.4875533  31.0962399  41.0804779  49.2189198  32.8623767  41.3863860
  49.8760441  33.6241172  41.4760464  47.8529198  32.9883767  41.4533860
  47.4032586  33.9680044  41.6153601  44.5239198  33.3573767  41.4193860
  45.2419198  33.8613767  40.5503860  43.3459198  33.8753767  41.7503860
  42.7404133  33.4025848  42.4060758  42.8779198  35.1133767  41.1493860
  43.0194015  35.0769828  40.0692205  41.3929198  35.3183767  41.4403860
  41.3655788  35.6157465  42.4886813  41.0224248  36.1356750  40.8216317
  40.5109198  34.0853767  41.2373860  40.7665866  33.3377033  41.9881987
  39.0479198  34.4553767  41.3713860  38.7913740  35.2027223  40.6205481
  38.4330984  33.5674177  41.2243342  38.8652021  34.8625746  42.3658228
  40.7829198  33.4483767  39.8923860  41.8286421  33.1457221  39.8379391
  40.1450137  32.5732479  39.7685856  40.5713547  34.1665589  39.1002033
  43.6809198  36.2963767  41.6773860  44.0759198  36.3373767  42.8453860
  43.9199198  37.2663767  40.8003860  43.5742443  37.1719661  39.8560903
  44.7099198  38.4453767  41.1323860  44.7584067  38.6022019  42.2099546
  46.1479198  38.3403767  40.5843860  46.1069767  38.1949669  39.5049052
  46.9279198  39.6073767  40.8953860  46.9696907  39.7532190  41.9747776
  47.9404472  39.5171015  40.5020172  46.4337566  40.4616755  40.4327003
  46.8479198  37.1223767  41.1623860  46.2975853  36.2222830  40.8884054
  47.8614255  37.0628133  40.7657024  46.8877379  37.2068259  42.2483804
  44.0149198  39.6783767  40.5763860  43.5039198  39.6653767  39.4513860
  43.9939198  40.7413767  41.3723860  44.3031002  40.6334194  42.3278189
  43.5169198  42.0473767  40.9453860  43.5776725  42.1152954  39.8592022
  42.0659198  42.2813767  41.3693860  41.4755086  41.4558535  40.9718620
  42.0388979  42.2551858  42.4587362  41.4879198  43.5983767  40.8803860
  42.1194800  44.4160735  41.2276676  41.4865270  43.5786708  39.7905654
  40.0619198  43.8153767  41.3393860  39.6419198  43.1443767  42.3033860
  39.3619198  44.6563767  40.7373860  38.4709082  44.7250279  41.0874782
  44.4129198  43.1183767  41.5463860  44.9849198  42.9273767  42.6233860
  39.8314347  45.0924446  40.0226277  38.7270816  43.3370687  42.5231900
  40.3048002  42.5523968  42.6654171  44.5339198  44.2433767  40.8483860
  44.0641990  44.3254792  39.9580372  45.3579198  45.3543767  41.2983860
  45.2624102  45.4729108  42.3777038  46.8299198  45.1173767  40.9613860
  46.9429098  45.0058255  39.8830124  47.4225017  45.9662964  41.3023879
  47.1755026  44.2107665  41.4581050  44.8689198  46.6413767  40.6533860
  45.0939198  46.8673767  39.4613860  44.2139198  47.4833767  41.4443860
  44.0505137  47.2188011  42.4053218  43.6799198  48.7543767  40.9783860
  43.7626459  48.8121045  39.8930644  42.2069198  48.8953767  41.3643860
  41.6950277  48.2230977  40.6758320  42.0916473  48.5272571  42.3838468
  41.5999198  50.2933767  41.2563860  42.0155975  50.9206677  42.0449410
  41.9079198  50.9043767  39.9143860  41.4921283  50.2778438  39.1252898
  41.4668351  51.8995380  39.8578255  42.9879809  50.9784925  39.7875977
  40.1009198  50.2333767  41.4873860  39.9017220  49.8341488  42.4818893
  39.6801043  51.2357160  41.4078145  39.6429604  49.5871171  40.7385731
  44.5009198  49.8903767  41.5693860  44.6219198  50.0033767  42.7933860
  45.0599198  50.7263767  40.7003860  44.9039799  50.5734341  39.7142873
  45.9119198  51.8373767  41.1003860  46.0670684  51.8074510  42.1788723
  47.2739198  51.7623767  40.4083860  47.0984736  51.7526143  39.3326432
  47.7971819  52.6784760  40.6823549  48.1149198  50.5693767  40.7913860
  47.7479198  49.2893767  40.4153860  46.8319508  49.1535806  39.8403558
  48.5159198  48.1983767  40.7543860  48.2096328  47.1957257  40.4560892
  49.6759198  48.3783767  41.4723860  50.4459198  47.2903767  41.8113860
  50.0808325  46.4599450  41.4972299  50.0679198  49.6413767  41.8533860
  50.9857101  49.7860305  42.4233304  49.2909198  50.7283767  41.5093860
  49.5980834  51.7323738  41.8022006  45.2369198  53.1563767  40.7553860
  44.8599198  53.3843767  39.6013860  45.0909198  54.0173767  41.7563860
  45.2811721  53.6922272  42.6934992  44.6499198  55.3943767  41.5793860
  44.4413926  55.5759028  40.5250313  43.3819198  55.6763767  42.3833860
  43.5941319  55.1705749  43.3253148  43.3490956  56.7531956  42.5491681
  42.0309198  55.2023767  41.8433860  41.3428139  55.0653341  42.6775505
  41.4609198  56.2213767  40.8823860  42.1483020  56.3586220  40.0476596
  40.4999205  55.8697390  40.5069768  41.3230977  57.1713091  41.3988489
  42.1459198  53.8513767  41.1763860  42.5053540  53.1184205  41.8986613
  41.1682991  53.5448864  40.8043340  42.8471795  53.9148986  40.3443411
  45.7849198  56.2983767  42.0363860  45.8629198  56.6473767  43.2183860
  46.6569198  56.6783767  41.1043860  46.4796118  56.4903560  40.1280104
  47.9189198  57.3133767  41.4683860  47.9764208  57.5223430  42.5366210
  49.1149198  56.4263767  41.0753860  49.1313380  56.3120569  39.9915223
  50.4199198  57.0583767  41.5383860  50.4044344  57.1725995  42.6222745
  51.2552514  56.4190160  41.2528348  50.5359287  58.0367441  41.0720805
  48.9639198  55.0283767  41.6513860  48.0499098  54.5740424  41.2689358
  49.8205589  54.4204564  41.3603503  48.9128168  55.0863832  42.7386415
  48.0479198  58.6873767  40.8253860  48.4949198  58.8113767  39.6803860
  47.6629198  59.7253767  41.5613860  47.0687612  59.5968442  42.3679555
  48.0549198  61.0793767  41.2023860  48.0828665  61.1790129  40.1173096
  47.0599198  62.0923767  41.7593860  46.6928772  61.7480698  42.7262530
  47.5524069  63.0571533  41.8808871  45.5979198  62.3583767  40.7373860
  49.4519198  61.3563767  41.7393860  49.6209198  61.8453767  42.8603860
  50.4569198  61.0423767  40.9293860  50.2670602  60.8214158  39.9623137
  51.8279198  61.0043767  41.3843860  51.8775108  60.3514235  42.2557597
  52.4389968  60.5878472  40.5836442  52.3699198  62.3693767  41.7593860
  51.6409198  63.3133767  42.0673860  53.6989198  62.4603767  41.7263860
  54.2353345  61.6709889  41.3958932  54.4189198  63.6353767  42.1993860
  54.2712970  63.7583946  43.2723135  55.9149198  63.4733767  41.9273860
  56.0369168  63.3663021  40.8495405  56.4039152  64.3894881  42.2586314
  56.5439198  62.2823767  42.6283860  56.3112060  62.3327092  43.6920644
  56.1096286  61.3769794  42.2044212  58.0449198  62.2113767  42.4293860
  58.6349198  63.2153767  41.9813860  58.6329198  61.1493767  42.7213860
  59.5782103  61.1850497  42.5591135  53.9109198  64.9183767  41.5543860
  53.7119198  64.9763767  40.3373860  58.0405291  60.4728745  43.0573875
  59.5801233  63.0793758  41.8790779  58.0457107  63.9552162  41.8189444
  53.6969198  65.9493767  42.3683860  53.7991664  65.8063628  43.3629673
  53.2879198  67.2663767  41.8983860  53.4814847  67.3443758  40.8285505
  51.7979198  67.5083767  42.1443860  51.6287184  67.3946553  43.2151510
  51.5891308  68.5372737  41.8513362  50.8779198  66.5693767  41.3843860
  51.1586393  66.5877610  40.3313146  51.0110444  65.5616107  41.7778166
  49.4219198  66.9803767  41.5273860  48.8037847  66.3138861  40.9258893
  49.1307806  66.8986569  42.5746010  49.1969198  68.3523767  41.0853860
  49.9870481  68.8408447  40.6889071  48.0369198  68.9893767  41.1703860
  46.9629198  68.4083767  41.6803860  47.0181688  67.4572157  42.0155580
  46.0929108  68.9187773  41.7321094  47.9519198  70.2413767  40.7323860
  48.7664845  70.6927857  40.3414714  47.0731558  70.7356047  40.7924804
  54.1199198  68.3143767  42.6183860  54.6189198  68.0643767  43.7213860
  54.2759198  69.4693767  42.0013860  53.9010629  69.6002511  41.0727022
  54.9779198  70.5743767  42.6203860  54.4229936  71.4964181  42.4471929
  55.0582533  70.3952137  43.6925551  56.3739198  70.7203767  42.0373860
  56.6079198  70.4073767  40.8723860  57.2839198  71.1973767  42.8833860
  57.0101742  71.3509412  43.8433759  58.6439198  71.5413767  42.4893860
  58.7396976  71.4648762  41.4063009  58.9939198  72.9693767  42.9113860
  58.9507809  73.0771492  43.9951865  59.9997604  73.2041929  42.5631821
  58.0829198  74.0213767  42.3373860  56.7399198  74.0573767  42.6693860
  56.3415006  73.3073299  43.3526077  55.9079198  75.0263767  42.1473860
  54.8501786  75.0356308  42.4104426  56.4129198  75.9803767  41.2953860
  55.7584165  76.7487499  40.8838912  57.7489198  75.9633767  40.9623860
  58.1517240  76.7174695  40.2862255  58.5789198  74.9903767  41.4853860
  59.6378758  74.9810229  41.2272688  59.6029198  70.5493767  43.1303860
  59.5589198  70.3383767  44.3473860  60.4629198  69.9443767  42.3153860
  60.4310143  70.1583416  41.3288261  61.4269198  68.9553767  42.7763860
  61.4724808  68.9716981  43.8653107  61.0309198  67.5473767  42.3243860
  61.0288319  67.4860136  41.2361170  61.7308926  66.8156122  42.7276958
  59.6639198  67.1303767  42.7803860  58.5339198  67.6883767  42.2133860
  58.6491455  68.4352058  41.4278484  57.2789198  67.3143767  42.6263860
  56.3973376  67.7656820  42.1711530  57.1349198  66.3703767  43.6143860
  56.1392528  66.0738327  43.9442479  58.2499198  65.7983767  44.1883860
  58.1389070  65.0467456  44.9699403  59.5089198  66.1793767  43.7713860
  60.3924154  65.7294513  44.2242685  62.8019198  69.3153767  42.2383860
  62.9649198  69.5143767  41.0313860  63.7879198  69.3823767  43.1333860
  63.5879071  69.1760321  44.1016402  65.1379198  69.8043767  42.7813860
  65.2150107  69.9204209  41.7003264  65.4799198  71.1393767  43.4413860
  65.5851373  70.9611093  44.5115492  66.4394418  71.4522110  43.0296189
  64.4549198  72.2253767  43.2103860  63.2689198  72.2483767  43.9243860
  63.0822727  71.4630501  44.6568643  62.3339198  73.2383767  43.7233860
  61.4038636  73.2397696  44.2918009  62.5769198  74.2273767  42.8013860
  61.6459198  75.2173767  42.5983860  60.8676824  75.1196436  43.1519151
  63.7469198  74.2313767  42.0813860  63.9410324  75.0153401  41.3493873
  64.6799198  73.2343767  42.2893860  65.6117620  73.2333971  41.7239047
  66.1619198  68.7453767  43.1713860  67.2499198  69.0733767  43.6513860
  65.8259198  67.4743767  42.9753860  64.9090821  67.2465373  42.6181784
  66.7339198  66.3803767  43.2963860  66.9288050  66.3605065  44.3686379
  66.1439198  65.0213767  42.8783860  66.0181192  65.0089726  41.7957408
  67.0659198  63.8853767  43.2943860  67.1918373  63.8968520  44.3770276
  66.6308293  62.9335256  42.9897962  68.0367427  64.0105342  42.8148664
  64.8619198  64.8433767  43.4933860  64.4962163  63.9953694  43.2311936
  68.0819198  66.5703767  42.6093860  68.1439198  66.9053767  41.4253860
  69.1699198  66.3783767  43.2753860  69.1563134  66.1033717  44.2471301
  70.4579198  66.5573767  42.6283860  70.3056952  66.8517791  41.5899952
  71.0207623  67.3336191  43.1468034  71.0152687  65.6212549  42.6621229
  24.0402221  42.9478863  24.9522145  24.0849198  42.3863767  25.8853860
  24.1338939  41.3197598  25.6662324  23.1942283  42.5944366  26.4782425
  25.3049198  42.7703767  26.6943860  26.1029198  43.6223767  26.2803860
  25.5179198  42.2013767  27.8323860  25.4011871  42.6985738  28.7037458
  25.9839198  40.8213767  27.8813860  26.4290762  40.6161264  28.8549399
  24.8189198  39.8553767  27.6633860  24.0565558  40.1011689  28.4026333
  24.4289108  40.0446274  26.6632974  25.1939198  38.3873767  27.7913860
  25.9715850  38.1578144  27.0629364  25.5755404  38.2114317  28.7971251
  24.0179198  37.4633767  27.5513860  22.8839198  37.9133767  27.3863860
  24.2839198  36.1633767  27.5283860  23.5376113  35.5010124  27.3721852
  25.2314397  35.8423758  27.6671868  27.0639198  40.5803767  26.8343860
  26.8119198  39.9503767  25.8083860  28.2699198  41.0753767  27.1003860
  28.4336272  41.5708109  27.9651659  29.3649198  40.9703767  26.1473860
  29.0494736  40.3595510  25.3015227  29.7879198  42.3463767  25.6263860
  30.6830726  42.2437561  25.0129778  28.9834314  42.7711879  25.0260245
  30.1859198  43.5573767  26.9053860  30.5369198  40.2653767  26.8133860
  30.5949198  40.1323767  28.0363860  31.4719198  39.8113767  25.9843860
  31.3296088  39.9059220  24.9889423  32.6819198  39.1503767  26.4483860
  32.6915727  39.1430760  27.5383185  32.7629198  37.7073767  25.9493860
  31.9954029  37.1090080  26.4402750  32.6052562  37.6858854  24.8710631
  34.3609198  36.9323767  26.2853860  33.9069198  39.9173767  25.9753860
  33.9529198  40.3943767  24.8373860  34.8789198  40.0533767  26.8773860
  34.6625635  39.8196006  27.8358421  36.1999198  40.6173767  26.5803860
  36.6527746  40.9997185  27.4951737  37.1349198  39.5613767  25.9743860
  37.0135241  38.6371258  26.5392963  36.8339198  39.3013767  24.5073860
  36.9555646  40.2251329  23.9417212  37.5209333  38.5474517  24.1230573
  35.8090986  38.9448301  24.4038645  38.4919198  40.0063767  26.0903860
  39.0782939  39.3472040  25.7118929  36.1149198  41.8483767  25.6823860
  37.0029198  42.1013767  24.8653860  35.0539198  42.6383767  25.8363860
  34.2377918  42.3216379  26.3400833  35.0219198  43.9613767  25.2343860
  35.9566201  44.4790014  25.4500226  34.8479198  43.8803767  23.7243860
  34.8556612  44.8915915  23.3175888  35.6811618  43.3150218  23.3070354
  33.6289198  43.2443767  23.3843860  33.5435950  43.2060939  22.4289521
  33.9009198  44.7843767  25.8483860  33.1089198  44.2943767  26.6573860
  33.8539198  46.0533767  25.4413860  34.5156143  46.3927212  24.7579353
  32.8959198  46.9953767  26.0013860  32.7505358  46.8302824  27.0689564
  33.3799198  48.4343767  25.7673860  33.4369130  48.6198647  24.6947974
  32.4189198  49.4283767  26.4033860  32.3617513  49.2437993  27.4761225
  32.7764543  50.4430896  26.2283787  31.4292770  49.3111862  25.9618289
  34.7949198  48.6203767  26.3223860  34.7213533  48.6008244  27.4097252
  35.3896343  47.7720354  25.9836661  35.4569198  49.9043767  25.8863860
  34.8629821  50.7532370  26.2251694  36.4553875  49.9642569  26.3194861
  35.5312610  49.9244488  24.7991094  31.5299198  46.7663767  25.3763860
  31.4189198  46.3323767  24.2223860  30.4769198  47.0553767  26.1383860
  30.6046248  47.2433921  27.1224800  29.1239198  47.0563767  25.6063860
  29.1332926  47.5026632  24.6119818  28.5459198  45.6403767  25.5023860
  27.5165006  45.6927096  25.1479050  29.1414868  45.0548064  24.8020238
  28.5069198  44.6903767  27.0273860  28.2319198  47.9223767  26.4823860
  28.5509198  48.2063767  27.6393860  27.1109198  48.3473767  25.9053860
  26.9675110  48.0948380  24.9380404  26.1239198  49.2083767  26.5493860
  25.3645660  49.4959489  25.8222111  25.4369198  48.4903767  27.7173860
  24.9804599  47.5737448  27.3438495  26.1894584  48.2420781  28.4658067
  24.4409198  49.3083767  28.3033860  24.0268293  48.8373379  29.0301951
  26.7169198  50.5243767  27.0353860  26.0879198  51.2233767  27.8393860
  27.9109198  50.8833767  26.5713860  28.4383701  50.2651811  25.9716113
  28.5129198  52.1473767  26.9573860  28.3425472  52.3323285  28.0179827
  30.0209198  52.1123767  26.7033860  30.3571941  51.2576993  27.2903659
  30.1513148  51.8979120  25.6426777  30.8459198  53.3453767  27.0793860
  30.5280262  54.1762170  26.4495059  30.6649198  53.7183767  28.5353860
  30.9830606  52.8881426  29.1659386  31.2666568  54.5982403  28.7630995
  29.6145345  53.9376906  28.7269393  32.3119198  53.0883767  26.7943860
  32.4445730  52.8760713  25.7335237  32.8948095  53.9691507  27.0637890
  32.6523456  52.2347890  27.3805577  27.8619198  53.2963767  26.1923860
  27.1279198  53.0953767  25.2223860  28.1089198  54.5163767  26.6653860
  28.6064520  54.6120716  27.5391157  27.6309198  55.7253767  26.0063860
  27.0851771  55.4660487  25.0991853  26.6879198  56.4953767  26.9433860
  25.7693600  55.9128719  27.0143471  27.1659758  56.5396427  27.9219579
  26.3609198  57.8973767  26.4783860  27.1309198  58.9783767  26.8813860
  27.9801996  58.8018462  27.5414316  26.8379198  60.2603767  26.4613860
  27.4539610  61.1000382  26.7831991  25.7599198  60.4753767  25.6323860
  25.4669198  61.7523767  25.2153860  26.0758994  62.4089384  25.5613198
  24.9769198  59.4193767  25.2193860  24.1237533  59.5877894  24.5622372
  25.2799198  58.1393767  25.6443860  24.6645086  57.2987299  25.3239456
  28.7619198  56.6323767  25.5473860  28.8049198  57.0173767  24.3753860
  29.6919198  56.9833767  26.4343860  29.6513294  56.6226852  27.3769110
  30.7529198  57.9313767  26.1003860  30.8366701  58.0166195  25.0169569
  30.4569198  59.3143767  26.6773860  29.5386211  59.6699538  26.2100619
  30.2945896  59.1900936  27.7480413  31.5639198  60.3243767  26.4483860
  32.3989347  60.0795185  27.1048122  31.8889850  60.2636091  25.4097610
  31.1229198  61.7453767  26.7353860  29.9719198  61.9893767  27.0933860
  32.0389198  62.6913767  26.5743860  31.8001728  63.6566141  26.7516378
  32.9708351  62.4420097  26.2753021  32.0839198  57.4053767  26.6173860
  32.1549198  56.8513767  27.7183860  33.1289198  57.5813767  25.8163860
  32.9680152  57.9457968  24.8882658  34.4899198  57.2463767  26.1983860
  34.6102336  57.3666002  27.2750336  34.8119198  55.7973767  25.8293860
  33.8963496  55.2704517  26.0980505  34.9463965  55.7629973  24.7482597
  36.0059198  55.1263767  26.5133860  35.9086464  55.2350315  27.5935864
  36.0479198  53.6523767  26.1553860  36.1456574  53.5429160  25.0753099
  36.9003926  53.1828731  26.6462600  35.1279204  53.1710336  26.4870640
  37.3159198  55.7963767  26.1433860  37.2891557  56.8420003  26.4500689
  38.1386629  55.2909087  26.6490511  37.4624198  55.7382531  25.0648415
  35.4539198  58.1943767  25.4983860  35.3829198  58.3883767  24.2843860
  36.3569198  58.7973767  26.2653860  36.4277150  58.6432386  27.2610410
  37.2559198  59.7613767  25.6513860  37.6773669  59.3387553  24.7393155
  36.5119198  61.0533767  25.2943860  37.2607570  61.7664684  24.9496509
  35.8344930  60.8139216  24.4747188  35.7259198  61.6603767  26.4373860
  34.8802573  61.0162254  26.6782696  36.3900805  61.7246890  27.2992756
  35.2379198  63.0603767  26.1253860  35.8409198  63.7233767  25.2563860
  34.2459198  63.4953767  26.7463860  34.0069019  64.3903932  26.4953979
  38.4249198  60.0863767  26.5653860  38.2339198  60.4173767  27.7353860
  33.8890248  62.8624237  27.3736622  35.4699433  64.6002241  25.1303378
  36.5703099  63.2437340  24.8578262  39.6309198  60.0103767  26.0113860
  39.7701493  59.4867502  25.1590189  40.7849198  60.6433767  26.6273860
  40.7761159  60.4586491  27.7015822  42.0809198  60.0823767  26.0463860
  41.9444341  59.0192853  25.8481249  42.2993999  60.6004701  25.1126057
  43.2569198  60.2523767  26.9793860  43.2689198  61.1473767  27.8213860
  44.2569198  59.3913767  26.8353860  45.0680813  59.4596389  27.4332631
  44.2020253  58.6719668  26.1286068  40.6879198  62.1443767  26.3863860
  39.7329198  62.6153767  25.7613860  41.6649198  62.8993767  26.8813860
  42.4308312  62.4922165  27.3987829  41.6299198  64.3473767  26.7243860
  41.4736438  64.5993459  25.6754873  40.4909198  64.9543767  27.5483860
  39.6789426  64.2276922  27.5215188  40.8465828  65.0632962  28.5729544
  39.9899198  66.2873767  27.0453860  40.7819198  67.4243767  27.1183860
  41.7830355  67.3418325  27.5415328  40.3219198  68.6453767  26.6663860
  40.9568207  69.5295611  26.7231361  39.0519198  68.7413767  26.1383860
  38.5879198  69.9553767  25.6883860  39.2287578  70.6629149  25.7899533
  38.2439198  67.6283767  26.0613860  37.2392738  67.7034140  25.6452655
  38.7139198  66.4123767  26.5153860  38.0790693  65.5280048  26.4610608
  42.9649198  64.9363767  27.1513860  43.5469198  64.4993767  28.1473860
  43.4349198  65.9263767  26.4003860  42.9533004  66.1690060  25.5464111
  44.6579198  66.6493767  26.7343860  44.5216171  67.1775434  27.6780813
  45.8439198  65.6923767  26.8763860  46.7750035  66.2568560  26.8259332
  45.7832555  65.1775519  27.8352266  45.9549198  64.3933767  25.6343860
  44.9609198  67.7023767  25.6753860  44.8319198  68.9003767  25.9253860
  45.3569198  67.3343767  24.5043860  45.4733543  66.3599230  24.2656762
  45.6479198  68.3313767  23.4893860  45.4754420  69.3272405  23.8975618
  46.6889997  68.2417068  23.1792046  44.9980475  68.1745746  22.6284684
  26.5456373  27.4756589  32.4211673  26.3889198  27.7193767  31.3703860
  25.7330185  28.5863993  31.2918762  25.9297546  26.8700845  30.8644522
  27.6989198  28.0403767  30.6843860  28.7689198  28.0083767  31.3053860
  27.6999198  28.3513767  29.4323860  26.8507450  28.3530803  28.8855784
  28.9549198  28.6623767  28.7603860  29.7066534  28.9482430  29.4961007
  29.4649198  27.4453767  27.9883860  29.2586524  26.5379234  28.5559082
  28.9800168  27.3821605  27.0142337  30.9389198  27.4643767  27.7323860
  31.6599198  28.6323767  27.6103860  31.2654241  29.5595964  27.6792086
  32.9299198  28.3433767  27.3923860  33.6662737  29.1368857  27.2650070
  33.0599198  27.0283767  27.3713860  33.9187418  26.5176041  27.2242943
  31.8299198  26.4563767  27.5833860  31.7297839  25.3711810  27.6039846
  28.7609198  29.8473767  27.8233860  27.9339198  29.7983767  26.9133860
  29.5219198  30.9163767  28.0573860  30.1601662  30.9199181  28.8401556
  29.4199198  32.1213767  27.2433860  28.6545466  31.9889233  26.4786905
  29.0379198  33.3203767  28.1153860  28.0812544  33.0307170  28.5501135
  29.7839538  33.4072574  28.9053132  28.8879198  34.6693767  27.4043860
  28.5816159  34.4957312  26.3728212  27.8459198  35.5223767  28.1043860
  28.1517779  35.6968479  29.1359428  27.7506869  36.4774105  27.5877218
  26.8858667  35.0063655  28.0929482  30.2139198  35.4103767  27.3403860
  30.9405311  34.8094272  26.7935816  30.0739126  36.3633810  26.8302075
  30.5793331  35.5903309  28.3514194  30.7259198  32.3903767  26.5083860
  30.7239198  32.6213767  25.2943860  31.8439198  32.3603767  27.2293860
  31.7946535  32.1573685  28.2175458  33.1439198  32.6613767  26.6513860
  33.0862321  32.5682161  25.5669081  33.5969198  34.0843767  26.9973860
  32.7631289  34.6362434  27.4313621  34.4161077  34.0410350  27.7151274
  34.1779198  35.0383767  25.5793860  34.1629198  31.6463767  27.1463860
  33.9809198  31.0053767  28.1843860  35.2469198  31.5153767  26.3903860
  35.3792849  32.1422229  25.6095899  36.2539198  30.5063767  26.6383860
  35.7589952  29.6291742  27.0551168  36.7134968  30.2450686  25.6851775
  37.3319198  30.9643767  27.5953860  37.1289198  31.8433767  28.4363860
  38.5039198  30.3513767  27.4563860  38.6251089  29.6831670  26.7087844
  39.6109198  30.5693767  28.3713860  39.2743046  31.1503780  29.2300052
  40.1559198  29.2313767  28.8703860  40.5758325  28.6882062  28.0237820
  40.9401913  29.4252498  29.6021178  39.1329198  28.4543767  29.4693860
  39.5004267  27.6213048  29.7735729  40.7249198  31.3723767  27.7023860
  40.7469198  31.5733767  26.4863860  41.6609198  31.8363767  28.5283860
  41.5167451  31.7214407  29.5214131  42.8429198  32.5683767  28.0803860
  43.4229144  32.8904989  28.9452228  43.7299198  31.6863767  27.1973860
  43.6769657  30.6486799  27.5267498  43.4050579  31.7545230  26.1591563
  45.1769198  32.0693767  27.2193860  46.1919198  31.1513767  27.0593860
  46.0529738  30.1614844  26.9147933  47.3569198  31.7703767  27.1253860
  48.2882607  31.2137159  27.0213102  47.1339198  33.0573767  27.3223860
  47.8386791  33.7752030  27.4126050  45.7789198  33.2713767  27.3863860
  45.3931471  34.2780788  27.5471079  42.4809198  33.8523767  27.3443860
  43.2319198  34.3083767  26.4763860  41.3379198  34.4453767  27.6733860
  40.7026656  34.0132465  28.3289887  40.9509198  35.7103767  27.0703860
  41.0917054  35.6638558  25.9905183  39.4819198  36.0103767  27.3583860
  39.4722234  36.3083156  28.4068314  39.1653998  36.8500663  26.7396481
  38.5229198  34.8363767  27.1533860  38.7285145  34.0738337  27.9046249
  37.0869198  35.2993767  27.2843860  36.8804269  36.0616490  26.5331201
  36.4166637  34.4527206  27.1359578  36.9286768  35.7174674  28.2784986
  38.7569198  34.1823767  25.8093860  39.7811450  33.8130431  25.7578613
  38.0643638  33.3500231  25.6842665  38.5940832  34.9122002  25.0163280
  41.8269198  36.8393767  27.5993860  42.2209198  36.8563767  28.7683860
  42.1299198  37.7913767  26.7223860  41.7813094  37.7191438  25.7772127
  42.9929198  38.9173767  27.0563860  43.0489847  39.0710789  28.1340370
  44.4229198  38.7203767  26.5113860  44.3749922  38.5771304  25.4319034
  45.2819198  39.9353767  26.8233860  45.3307014  40.0790016  27.9027809
  46.2874102  39.7802424  26.4322048  44.8443761  40.8192134  26.3591772
  45.0419198  37.4603767  27.0913860  44.4356063  36.5973148  26.8164130
  46.0504362  37.3357148  26.6971100  45.0845458  37.5426256  28.1774426
  42.3799198  40.1923767  26.4983860  41.8719198  40.2123767  25.3723860
  42.4249198  41.2553767  27.2933860  42.7248458  41.1287996  28.2494833
  42.0339198  42.5883767  26.8643860  42.1009780  42.6512170  25.7782675
  40.5999198  42.9153767  27.2853860  39.9584214  42.1292607  26.8871389
  40.5690294  42.8918055  28.3746932  40.1089198  44.2663767  26.7943860
  40.7914338  45.0413366  27.1432594  40.1086246  44.2469502  25.7045596
  38.6989198  44.5753767  27.2503860  38.2339198  43.9323767  28.2133860
  38.0549198  45.4593767  26.6473860  37.1696724  45.5849504  26.9963093
  42.9949198  43.6003767  27.4673860  43.5519198  43.3743767  28.5463860
  38.5523001  45.8643973  25.9332081  37.3330421  44.1839740  28.4313108
  38.8561461  43.2984172  28.5764932  43.1899198  44.7153767  26.7693860
  42.7291900  44.8261778  25.8774496  44.0819198  45.7713767  27.2203860
  43.9913453  45.8963749  28.2993999  45.5369198  45.4393767  26.8873860
  45.6453872  45.3202165  25.8093620  46.1822443  46.2483568  27.2297421
  45.8217838  44.5125575  27.3853398  43.6779198  47.0863767  26.5743860
  43.9199198  47.2973767  25.3823860  43.0769198  47.9693767  27.3633860
  42.8952501  47.7169303  28.3243055  42.6269198  49.2713767  26.8953860
  42.7153161  49.3229722  25.8102025  41.1649198  49.5063767  27.2783860
  40.6124516  48.8678250  26.5890894  41.0241809  49.1470510  28.2977867
  40.6489198  50.9403767  27.1683860  41.1018672  51.5400251  27.9579183
  40.9989198  51.5303767  25.8263860  40.5459087  50.9314919  25.0363121
  40.6225093  52.5516877  25.7685951  42.0818256  51.5352502  25.7023229
  39.1489198  50.9773767  27.3953860  38.9217654  50.5923933  28.3895128
  38.7938899  52.0047433  27.3143120  38.6521629  50.3616069  26.6456133
  43.5179198  50.3523767  27.4883860  43.6429198  50.4583767  28.7123860
  44.1309198  51.1513767  26.6193860  43.9662235  51.0101277  25.6329666
  45.0519198  52.2043767  27.0213860  45.2026527  52.1638746  28.1001531
  46.4069198  52.0423767  26.3323860  46.2347385  52.0433804  25.2560720
  46.9865940  52.9233808  26.6079031  47.1689198  50.7983767  26.7183860
  46.7209198  49.5443767  26.3413860  45.7996460  49.4663761  25.7640905
  47.4179198  48.4063767  26.6833860  47.0485236  47.4250835  26.3855404
  48.5849198  48.5123767  27.4033860  49.2829198  47.3773767  27.7443860
  48.8660071  46.5719047  27.4297460  49.0569198  49.7473767  27.7843860
  49.9811638  49.8333818  28.3557672  48.3519198  50.8813767  27.4383860
  48.7223349  51.8638662  27.7309729  44.4639198  53.5643767  26.6743860
  44.1039198  53.8153767  25.5193860  44.3709198  54.4333767  27.6743860
  44.5374743  54.0968152  28.6119815  44.0189198  55.8353767  27.4963860
  43.8248565  56.0290504  26.4414314  42.7699198  56.1993767  28.2973860
  42.9466422  55.6825104  29.2406345  42.8059339  57.2763464  28.4615179
  41.3929198  55.8123767  27.7543860  40.6956173  55.7198522  28.5870380
  40.8909198  56.8653767  26.7913860  41.5875142  56.9581491  25.9581704
  39.9103382  56.5753942  26.4139331  40.8126627  57.8224363  27.3071507
  41.4219198  54.4573767  27.0873860  41.7320709  53.7026479  27.8100825
  40.4272859  54.2145485  26.7134352  42.1273589  54.4757849  26.2566540
  45.2089198  56.6653767  27.9543860  45.3069198  57.0093767  29.1373860
  46.1059198  56.9883767  27.0253860  45.9188981  56.8111845  26.0487975
  47.4049198  57.5413767  27.3913860  47.4733916  57.7470057  28.4596217
  48.5429198  56.5793767  27.0013860  48.5546850  56.4639924  25.9175746
  49.8839198  57.1263767  27.4673860  49.8730792  57.2416044  28.5512246
  50.6773110  56.4347804  27.1839685  50.0634923  58.0952027  27.0013049
  48.3009198  55.1943767  27.5773860  47.3605754  54.7995491  27.1927230
  49.1174509  54.5325095  27.2887543  48.2508741  55.2560725  28.6644876
  47.6229198  58.9033767  26.7483860  48.0799198  58.9983767  25.6043860
  47.3039198  59.9643767  27.4833860  46.7017564  59.8747302  28.2892781
  47.7829198  61.2903767  27.1243860  47.8190711  61.3872799  26.0393044
  46.8539198  62.3663767  27.6793860  46.4637105  62.0470600  28.6457570
  47.4074382  63.2974261  27.8013060  45.4139198  62.7243767  26.6523860
  49.1939198  61.4783767  27.6643860  49.3899198  61.9553767  28.7853860
  50.1779198  61.0993767  26.8563860  49.9762535  60.8895324  25.8892276
  51.5429198  60.9743767  27.3143860  51.5485485  60.3197110  28.1858677
  52.1274827  60.5191972  26.5148880  52.1709198  62.3013767  27.6903860
  51.5029198  63.2903767  27.9963860  53.5019198  62.3073767  27.6603860
  53.9868039  61.4843038  27.3324567  54.2959198  63.4343767  28.1343860
  54.1538042  63.5675914  29.2068394  55.7789198  63.1763767  27.8663860
  55.8965313  63.0615925  26.7888465  56.3249148  64.0592089  28.1989472
  56.3279198  61.9483767  28.5683860  56.0961825  62.0145863  29.6314076
  55.8371577  61.0725410  28.1439292  57.8219198  61.7803767  28.3733860
  58.4759198  62.7443767  27.9263860  58.3399198  60.6833767  28.6663860
  59.2859475  60.6585777  28.5063996  53.8719198  64.7463767  27.4883860
  53.6799198  64.8163767  26.2703860  57.7046900  60.0460794  29.0007724
  59.4107422  62.5482064  27.8264003  57.9355699  63.5202573  27.7622262
  53.7229198  65.7893767  28.3003860  53.8132563  65.6401018  29.2952004
  53.3999198  67.1303767  27.8293860  53.6009735  67.1957655  26.7600868
  51.9279198  67.4673767  28.0713860  51.7495299  67.3661431  29.1419130
  51.7863178  68.5071902  27.7767051  50.9509198  66.5883767  27.3103860
  51.2345849  66.5870528  26.2579445  51.0178835  65.5747074  27.7054713
  49.5249198  67.0923767  27.4493860  48.8668607  66.4663330  26.8467863
  49.2268358  67.0299984  28.4959778  49.3889198  68.4753767  27.0063860
  50.2093582  68.9117116  26.6106689  48.2719198  69.1853767  27.0883860
  47.1619198  68.6743767  27.5963860  47.1556777  67.7218527  27.9321821
  46.3261271  69.2392603  27.6459518  48.2689198  70.4403767  26.6503860
  49.1119597  70.8384432  26.2618931  47.4236155  70.9901312  26.7080872
  54.2969198  68.1233767  28.5513860  54.7749198  67.8413767  29.6543860
  54.5269198  69.2643767  27.9333860  54.1627146  69.4188016  27.0040815
  55.2979198  70.3223767  28.5533860  54.8036496  71.2780047  28.3785394
  55.3638472  70.1388608  29.6258014  56.7009198  70.3783767  27.9743860
  56.9169198  70.0503767  26.8093860  57.6379198  70.7963767  28.8223860
  57.3733385  70.9665781  29.7821399  59.0179198  71.0523767  28.4303860
  59.1107636  70.9698792  27.3474856  59.4569198  72.4563767  28.8533860
  59.4176370  72.5677051  29.9369736  60.4768049  72.6256355  28.5080082
  58.6179198  73.5633767  28.2763860  57.2789198  73.6863767  28.6053860
  56.8328171  72.9638093  29.2887517  56.5109198  74.7053767  28.0813860
  55.4551989  74.7825017  28.3413973  57.0789198  75.6253767  27.2293860
  56.4763007  76.4338460  26.8154686  58.4119198  75.5223767  26.9003860
  58.8642918  76.2490435  26.2255415  59.1759198  74.4983767  27.4253860
  60.2326452  74.4205567  27.1696999  59.9099198  70.0023767  29.0743860
  59.8489198  69.7943767  30.2913860  60.7309198  69.3423767  28.2613860
  60.7144691  69.5567280  27.2745313  61.6289198  68.2933767  28.7253860
  61.6732166  68.3075367  29.8143931  61.1439198  66.9133767  28.2733860
  61.1404782  66.8504390  27.1852104  61.7948502  66.1391437  28.6795299
  59.7529198  66.5853767  28.7263860  58.6619198  67.2143767  28.1553860
  58.8262986  67.9508682  27.3688367  57.3849198  66.9223767  28.5663860
  56.5353993  67.4300522  28.1095694  57.1779198  65.9893767  29.5543860
  56.1646366  65.7563387  29.8815718  58.2529198  65.3483767  30.1313860
  58.0927087  64.6066926  30.9139058  59.5339198  65.6473767  29.7163860
  60.3859626  65.1415832  30.1705840  63.0249198  68.5643767  28.1903860
  63.2029198  68.7523767  26.9833860  64.0119198  68.5693767  29.0863860
  63.7956752  68.3789831  30.0544190  65.3869198  68.9023767  28.7383860
  65.4749962  69.0120044  27.6574959  65.8119198  70.2133767  29.3983860
  65.9019391  70.0286003  30.4688315  66.7909717  70.4636153  28.9898056
  64.8599198  71.3633767  29.1643860  63.6759198  71.4623767  29.8763860
  63.4380412  70.6913222  30.6091809  62.8059198  72.5103767  29.6723860
  61.8764954  72.5723468  30.2384531  63.1149198  73.4813767  28.7503860
  62.2489198  74.5293767  28.5443860  61.4644830  74.4816961  29.0957345
  64.2839198  73.4093767  28.0333860  64.5292984  74.1790897  27.3016540
  65.1509198  72.3543767  28.2433860  66.0815445  72.2931472  27.6792152
  66.3389198  67.7803767  29.1303860  67.4459198  68.0383767  29.6123860
  65.9229198  66.5343767  28.9343860  64.9935249  66.3654119  28.5769292
  66.7589198  65.3843767  29.2573860  66.9512788  65.3526187  30.3298079
  66.0839198  64.0653767  28.8393860  65.9593666  64.0605826  27.7565362
  66.9299198  62.8723767  29.2573860  67.0545297  62.8762364  30.3402328
  66.4347432  61.9504720  28.9524419  67.9075903  62.9343087  28.7794473
  64.7919198  63.9703767  29.4513860  64.3733673  63.1471953  29.1891143
  68.1179198  65.4873767  28.5743860  69.1109198  65.8573767  29.1993860
  68.2279198  65.1823767  27.3253860  67.4342393  64.8749166  26.7816591
  69.5189198  65.2773767  26.6663860  70.2676192  65.6202294  27.3805302
  69.8047884  64.2978139  26.2831936  69.4544817  65.9854747  25.8402232
  25.1260329  44.1068606  34.5873257  25.2829198  43.7023767  33.5873860
  26.0134584  44.3140334  33.0579640  24.3401219  43.7084188  33.0403991
  25.7969198  42.2803767  33.6493860  25.9889198  41.7183767  34.7353860
  26.0379198  41.6433767  32.5533860  25.8615228  42.0580202  31.6494755
  26.5329198  40.2733767  32.6003860  26.9839422  40.0771330  33.5730969
  25.3889198  39.2823767  32.3833860  24.6222429  39.5112112  33.1236161
  24.9936848  39.4633854  31.3838235  25.7959198  37.8233767  32.5103860
  26.5772705  37.6112998  31.7805811  26.1827840  37.6549274  33.5154049
  24.6399198  36.8743767  32.2713860  23.4959198  37.2993767  32.1083860
  24.9329198  35.5803767  32.2473860  24.2004042  34.9026648  32.0917298
  25.8870973  35.2791442  32.3848836  27.6169198  40.0563767  31.5513860
  27.3759198  39.4223767  30.5253860  28.8119198  40.5773767  31.8163860
  28.9667600  41.0754852  32.6812628  29.9079198  40.4963767  30.8603860
  29.6040878  39.8793111  30.0148002  30.2999198  41.8813767  30.3393860
  31.1965153  41.7986758  29.7250765  29.4856678  42.2884868  29.7399237
  30.6739198  43.1003767  31.6193860  31.0949198  39.8173767  31.5243860
  31.1579198  39.6843767  32.7473860  32.0389198  39.3843767  30.6933860
  31.8942743  39.4782924  29.6982193  33.2629198  38.7483767  31.1553860
  33.2734698  38.7404540  32.2453058  33.3749198  37.3083767  30.6553860
  32.6217448  36.6928179  31.1472336  33.2158049  37.2841259  29.5773348
  34.9889198  36.5673767  30.9883860  34.4709198  39.5413767  30.6803860
  34.5039198  40.0203767  29.5423860  35.4409198  39.6983767  31.5813860
  35.2308049  39.4607474  32.5402830  36.7489198  40.2903767  31.2823860
  37.1944570  40.6817053  32.1969666  37.7059198  39.2553767  30.6743860
  37.6055787  38.3281362  31.2385287  37.4079198  38.9903767  29.2073860
  37.5085194  39.9171288  28.6424878  38.1103982  38.2518954  28.8210331
  36.3908718  38.6118338  29.1053108  39.0529198  39.7303767  30.7883860
  39.6531788  39.0845219  30.4087006  36.6359198  41.5213767  30.3843860
  37.5169198  41.7933767  29.5663860  35.5589198  42.2873767  30.5413860
  34.7510069  41.9517755  31.0461117  35.4959198  43.6103767  29.9403860
  36.4187999  44.1491142  30.1552192  35.3219198  43.5263767  28.4303860
  35.3066179  44.5375801  28.0237748  36.1666162  42.9795740  28.0113457
  34.1159198  42.8633767  28.0923860  34.0296450  42.8233731  27.1371079
  34.3589198  44.4083767  30.5563860  33.5789198  43.9003767  31.3663860
  34.2849198  45.6763767  30.1503860  34.9388620  46.0306740  29.4670616
  33.3069198  46.5973767  30.7123860  33.1672847  46.4285345  31.7801377
  33.7589198  48.0463767  30.4783860  33.8093517  48.2339713  29.4058352
  32.7779198  49.0183767  31.1173860  32.7272930  48.8316885  32.1900859
  33.1126827  50.0408427  30.9424636  31.7900728  48.8798528  30.6779903
  35.1709198  48.2623767  31.0313860  35.0993945  48.2404952  32.1188170
  35.7829601  47.4270598  30.6911630  35.8049198  49.5603767  30.5953860
  35.1936452  50.3962289  30.9356718  36.8025363  49.6410756  31.0270666
  35.8772087  49.5827943  29.5080169  31.9449198  46.3383767  30.0893860
  31.8419198  45.9033767  28.9353860  30.8879198  46.6043767  30.8533860
  31.0137300  46.7943068  31.8373564  29.5339198  46.5763767  30.3243860
  29.5315767  47.0236056  29.3303639  28.9859198  45.1483767  30.2203860
  27.9552256  45.1790187  29.8670734  29.5929846  44.5758651  29.5190995
  28.9709198  44.1973767  31.7443860  28.6249198  47.4223767  31.2013860
  28.9389198  47.7123767  32.3583860  27.4939198  47.8233767  30.6273860
  27.3546243  47.5680741  29.6601649  26.4889198  48.6623767  31.2733860
  25.7218734  48.9333321  30.5479054  25.8209198  47.9283767  32.4413860
  25.3835734  47.0022340  32.0684422  26.5797385  47.6961483  33.1886237
  24.8079198  48.7253767  33.0293860  24.4051022  48.2455380  33.7567736
  27.0549198  49.9903767  31.7583860  26.4119198  50.6753767  32.5643860
  28.2399198  50.3753767  31.2933860  28.7796022  49.7686302  30.6928022
  28.8159198  51.6523767  31.6793860  28.6438963  51.8329621  32.7404685
  30.3229198  51.6493767  31.4223860  30.6789541  50.8016172  32.0077429
  30.4558926  51.4389738  30.3611844  31.1219198  52.9003767  31.7983860
  30.7848004  53.7244896  31.1696657  30.9359198  53.2683767  33.2543860
  31.2732746  52.4448747  33.8837786  31.5188988  54.1609516  33.4814240
  29.8814186  53.4647503  33.4482033  32.5929198  52.6743767  31.5103860
  32.7280264  52.4656974  30.4491139  33.1576781  53.5670015  31.7794034
  32.9522952  51.8276923  32.0952567  28.1379198  52.7873767  30.9163860
  27.4069198  52.5713767  29.9463860  28.3599198  54.0123767  31.3893860
  28.8577628  54.1189476  32.2616786  27.8549198  55.2103767  30.7313860
  27.3132187  54.9392200  29.8252220  26.8969198  55.9603767  31.6703860
  25.9912618  55.3582546  31.7434056  27.3764907  56.0143618  32.6477280
  26.5389198  57.3543767  31.2073860  27.2859198  58.4523767  31.6093860
  28.1400703  58.2934968  32.2676288  26.9649198  59.7273767  31.1913860
  27.5630340  60.5800674  31.5127576  25.8809198  59.9193767  30.3633860
  25.5589198  61.1903767  29.9473860  26.1535525  61.8601127  30.2930233
  25.1209198  58.8463767  29.9513860  24.2635892  58.9976017  29.2954777
  25.4509198  57.5733767  30.3743860  24.8527797  56.7203887  30.0538551
  28.9649198  56.1423767  30.2713860  28.9979198  56.5293767  29.0993860
  29.8889198  56.5123767  31.1563860  29.8586839  56.1492466  32.0983635
  30.9279198  57.4833767  30.8213860  31.0077190  57.5711258  29.7378587
  30.6029198  58.8603767  31.4003860  29.6768760  59.1972083  30.9344603
  30.4446060  58.7322460  32.4711891  31.6889198  59.8933767  31.1703860
  32.5299656  59.6668628  31.8256983  32.0139463  59.8400841  30.1313385
  31.2169198  61.3043767  31.4583860  30.0619198  61.5233767  31.8183860
  32.1119198  62.2703767  31.2963860  31.8523331  63.2301229  31.4741597
  33.0486811  62.0415251  30.9960420  32.2709198  56.9863767  31.3363860
  32.3559198  56.4333767  32.4363860  33.3109198  57.1853767  30.5333860
  33.1409637  57.5475292  29.6059919  34.6799198  56.8793767  30.9133860
  34.7992701  57.0009417  31.9899902  35.0319198  55.4383767  30.5423860
  34.1282251  54.8928290  30.8140715  35.1638575  55.4061286  29.4608813
  36.2419198  54.7923767  31.2233860  36.1449119  54.8990681  32.3038060
  36.3149198  53.3193767  30.8653860  36.4124096  53.2118896  29.7850893
  37.1785161  52.8684825  31.3542586  35.4063372  52.8183120  31.1993205
  37.5359198  55.4913767  30.8523860  37.4867752  56.5356451  31.1609111
  38.3704341  55.0032224  31.3557670  37.6817651  55.4382922  29.7734930
  35.6219198  57.8483767  30.2113860  35.5439198  58.0413767  28.9983860
  36.5129198  58.4703767  30.9783860  36.5897527  58.3171890  31.9737400
  37.3899198  59.4533767  30.3623860  37.8176970  59.0405217  29.4487906
  36.6169198  60.7293767  30.0083860  37.3495900  61.4582574  29.6619377
  35.9430389  60.4752963  29.1902004  35.8209198  61.3193767  31.1523860
  34.9904419  60.6562454  31.3945931  36.4852968  61.3980106  32.0129202
  35.3009198  62.7083767  30.8423860  35.8889198  63.3853767  29.9723860
  34.3009198  63.1223767  31.4643860  34.0426556  64.0120342  31.2134114
  38.5529198  59.8033767  31.2753860  38.3559198  60.1293767  32.4463860
  33.9583282  62.4822204  32.0923270  35.4986640  64.2539168  29.8470408
  36.6283024  62.9220254  29.5729665  39.7589198  59.7543767  30.7193860
  39.9073929  59.2361218  29.8652977  40.9009198  60.4113767  31.3343860
  40.8981438  60.2249692  32.4083244  42.2069198  59.8793767  30.7503860
  42.0921653  58.8137633  30.5518952  42.4128941  60.4022777  29.8164432
  43.3809198  60.0733767  31.6813860  43.3749198  60.9683767  32.5233860
  44.3989198  59.2353767  31.5353860  45.2091669  59.3210635  32.1322589
  44.3590278  58.5155452  30.8280304  40.7709198  61.9093767  31.0933860
  39.8049198  62.3603767  30.4703860  41.7319198  62.6853767  31.5873860
  42.5073956  62.2942264  32.1028839  41.6659198  64.1323767  31.4313860
  41.5024040  64.3818024  30.3829831  40.5149198  64.7143767  32.2583860
  39.7187852  63.9703257  32.2327516  40.8700234  64.8306442  33.2823408
  39.9839198  66.0373767  31.7563860  40.7519198  67.1903767  31.8293860
  41.7551072  67.1294347  32.2512870  40.2649198  68.4013767  31.3783860
  40.8805555  69.2990810  31.4351435  38.9919198  68.4703767  30.8523860
  38.5009198  69.6743767  30.4033860  39.1264873  70.3955825  30.5040198
  38.2079198  67.3393767  30.7753860  37.2015218  67.3922900  30.3600983
  38.7049198  66.1343767  31.2283860  38.0895077  65.2363192  31.1749009
  42.9879198  64.7503767  31.8573860  43.5809198  64.3253767  32.8513860
  43.4349198  65.7513767  31.1053860  42.9467929  65.9842537  30.2523914
  44.6429198  66.4993767  31.4373860  44.4966587  67.0243946  32.3813474
  45.8499198  65.5683767  31.5773860  46.7683653  66.1530911  31.5257506
  45.8019268  65.0520867  32.5361568  45.9859198  64.2723767  30.3343860
  44.9209198  67.5593767  30.3783860  44.8359198  67.2883767  29.1803860
  45.2489198  68.7533767  30.7403860  45.3282306  69.0094916  31.7141490
  45.5149198  69.7693767  29.7373860  45.3885935  69.3409648  28.7430996
  44.8193925  70.5986881  29.8661690  46.5367068  70.1321330  29.8490068
  27.3907622  26.9404679  37.1319570  27.2269198  27.1803767  36.0813860
  26.5516407  28.0324763  36.0037795  26.7860672  26.3209005  35.5763627
  28.5279198  27.5303767  35.3933860  29.5999198  27.5223767  36.0133860
  28.5209198  27.8423767  34.1413860  27.6708625  27.8266699  33.5961748
  29.7679198  28.1813767  33.4673860  30.5150009  28.4825498  34.2017318
  30.3019198  26.9753767  32.6933860  30.1162934  26.0620030  33.2585325
  29.8172227  26.9043727  31.7196678  31.7759198  27.0273767  32.4353860
  32.4709198  28.2103767  32.3123860  32.0569609  29.1289799  32.3824285
  33.7469198  27.9483767  32.0913860  34.4657959  28.7574538  31.9621176
  33.9049198  26.6373767  32.0703860  34.7746652  26.1456515  31.9225714
  32.6879198  26.0383767  32.2833860  32.6114419  24.9512275  32.3023339
  29.5469198  29.3623767  32.5303860  28.7199198  29.2963767  31.6223860
  30.2849198  30.4473767  32.7643860  30.9241194  30.4645760  33.5461963
  30.1549198  31.6503767  31.9513860  29.3909738  31.5015292  31.1882804
  29.7489198  32.8403767  32.8243860  28.7993308  32.5296576  33.2600851
  30.4939331  32.9427046  33.6134260  29.5689198  34.1853767  32.1153860
  29.2648352  34.0056401  31.0842080  28.5099198  35.0163767  32.8173860
  28.8135413  35.1969295  33.8485569  28.3939123  35.9693514  32.3011668
  27.5608945  34.4803291  32.8071661  30.8779198  34.9553767  32.0483860
  31.6161639  34.3709076  31.4993041  30.7155900  35.9053517  31.5391730
  31.2419361  35.1427705  33.0585715  31.4539198  31.9473767  31.2133860
  31.4449198  32.1793767  30.0003860  32.5729198  31.9423767  31.9333860
  32.5291339  31.7397596  32.9218841  33.8659198  32.2713767  31.3533860
  33.8089907  32.1774361  30.2689353  34.2879198  33.7033767  31.6993860
  33.4426356  34.2367911  32.1341997  35.1084295  33.6776929  32.4164663
  34.8469198  34.6703767  30.2803860  34.9069198  31.2773767  31.8463860
  34.7409198  30.6323767  32.8833860  35.9929198  31.1703767  31.0883860
  36.1107412  31.8009601  30.3082693  37.0209198  30.1833767  31.3333860
  36.5457302  29.2955926  31.7506790  37.4840262  29.9324042  30.3791090
  38.0919198  30.6643767  32.2893860  37.8709198  31.5383767  33.1313860
  39.2749198  30.0763767  32.1473860  39.4088362  29.4104425  31.3999254
  40.3799198  30.3183767  33.0613860  40.0328167  30.8915193  33.9211105
  40.9539198  28.9913767  33.5583860  41.3837489  28.4580336  32.7105114
  41.7352191  29.2012128  34.2888929  39.9489198  28.1923767  34.1583860
  40.3346086  27.3670297  34.4611174  41.4739198  31.1453767  32.3913860
  41.4899198  31.3473767  31.1753860  42.4019198  31.6293767  33.2153860
  42.2620645  31.5101117  34.2085203  43.5669198  32.3863767  32.7663860
  44.1415584  32.7195139  33.6306251  44.4709198  31.5243767  31.8803860
  44.4411830  30.4859746  32.2104406  44.1440998  31.5846186  30.8422822
  45.9089198  31.9393767  31.9013860  46.9439198  31.0433767  31.7383860
  46.8263694  30.0508871  31.5926257  48.0949198  31.6873767  31.8033860
  49.0377936  31.1507830  31.6977682  47.8449198  32.9683767  32.0013860
  48.5343398  33.7010112  32.0910885  46.4859198  33.1533767  32.0673860
  46.0789792  34.1516182  32.2286763  43.1759198  33.6633767  32.0313860
  43.9149198  34.1363767  31.1633860  42.0209198  34.2303767  32.3623860
  41.3956061  33.7834168  33.0176028  41.6059198  35.4873767  31.7613860
  41.7464654  35.4451409  30.6813109  40.1309198  35.7553767  32.0513860
  40.1165454  36.0525965  33.0999818  39.7955804  36.5883882  31.4335354
  39.1969198  34.5613767  31.8473860  39.4203014  33.8029555  32.5977185
  37.7509198  34.9933767  31.9813860  37.5266460  35.7515079  31.2310279
  37.0988134  34.1325539  31.8335954  37.5855251  35.4073052  32.9760760
  39.4429198  33.9133767  30.5023860  40.4747557  33.5661416  30.4490784
  38.7681966  33.0664393  30.3776984  39.2632730  34.6400795  29.7100925
  42.4579198  36.6353767  32.2893860  42.8539198  36.6593767  33.4583860
  42.7389198  37.5933767  31.4123860  42.3909812  37.5133732  30.4675911
  43.5779198  38.7383767  31.7453860  43.6324491  38.8932416  32.8229493
  45.0099198  38.5723767  31.1983860  44.9630964  38.4285108  30.1189374
  45.8439198  39.8053767  31.5093860  45.8915888  39.9496391  32.5887455
  46.8517543  39.6715633  31.1163669  45.3870510  40.6799647  31.0462786
  45.6579198  37.3253767  31.7763860  45.0701765  36.4493889  31.5019679
  46.6681292  37.2232165  31.3799775  45.7009377  37.4077483  32.8624179
  42.9369198  39.9993767  31.1893860  42.4259198  40.0093767  30.0643860
  42.9599198  41.0633767  31.9853860  43.2644644  40.9433329  32.9408657
  42.5389198  42.3873767  31.5573860  42.6021463  42.4514640  30.4711105
  41.0999198  42.6833767  31.9813860  40.4748398  41.8836737  31.5840834
  41.0722290  42.6583310  33.0707464  40.5779198  44.0243767  31.4923860
  41.2433491  44.8145722  31.8400866  40.5762847  44.0048277  30.4025629
  39.1629198  44.3013767  31.9503860  38.7139198  43.6483767  32.9143860
  38.4999198  45.1713767  31.3483860  37.6123894  45.2777408  31.6978938
  43.4799198  43.4203767  32.1593860  44.0429198  43.2053767  33.2373860
  38.9880587  45.5873324  30.6341171  37.8079461  43.8797365  33.1336058
  39.3507924  43.0286959  33.2767477  43.6489198  44.5383767  31.4623860
  43.1836794  44.6399639  30.5716948  44.5189198  45.6133767  31.9123860
  44.4277566  45.7356745  32.9916597  45.9799198  45.3133767  31.5763860
  46.0888465  45.1973042  30.4980715  46.6081582  46.1359845  31.9180483
  46.2858545  44.3926525  32.0731455  44.0859198  46.9203767  31.2673860
  44.3209198  47.1363767  30.0753860  43.4669198  47.7893767  32.0583860
  43.2918272  47.5319210  33.0191974  42.9879198  49.0813767  31.5923860
  43.0737977  49.1354437  30.5071207  41.5219198  49.2853767  31.9773860
  40.9817814  48.6355303  31.2888735  41.3911279  48.9225127  32.9968581
  40.9749198  50.7083767  31.8693860  41.4164480  51.3172929  32.6582933
  41.3099198  51.3063767  30.5263860  40.8683106  50.6982228  29.7369375
  40.9117233  52.3194521  30.4696526  42.3922440  51.3343665  30.4003253
  39.4749198  50.7113767  32.0983860  39.2578197  50.3202834  33.0923745
  39.0967639  51.7305866  32.0189466  38.9911298  50.0854177  31.3485717
  43.8559198  50.1823767  32.1833860  43.9809198  50.2893767  33.4073860
  44.4509198  50.9933767  31.3143860  44.2895097  50.8475321  30.3280922
  45.3489198  52.0663767  31.7153860  45.5018424  52.0290803  32.7939605
  46.7069198  51.9343767  31.0243860  46.5319696  51.9323575  29.9485200
  47.2683350  52.8274062  31.2989971  47.4959198  50.7073767  31.4073860
  47.0749198  49.4433767  31.0303860  46.1547375  49.3464938  30.4542109
  47.7959198  48.3203767  31.3703860  47.4471747  47.3314028  31.0730488
  48.9619198  48.4513767  32.0893860  49.6849198  47.3313767  32.4283860
  49.2851831  46.5173424  32.1134918  49.4079198  49.6963767  32.4703860
  50.3312943  49.8024340  33.0397996  48.6769198  50.8153767  32.1263860
  49.0253657  51.8055171  32.4201676  44.7309198  53.4133767  31.3703860
  44.3649198  53.6573767  30.2163860  44.6209198  54.2793767  32.3713860
  44.7971748  53.9470431  33.3087162  44.2389198  55.6743767  32.1933860
  44.0382268  55.8640643  31.1389477  42.9839198  56.0103767  32.9973860
  43.1738265  55.4958441  33.9393472  42.9969299  57.0875906  33.1633411
  41.6139198  55.5943767  32.4563860  40.9203455  55.4865245  33.2903066
  41.0879198  56.6363767  31.4953860  41.7807797  56.7444620  30.6609033
  40.1130512  56.3256664  31.1196320  40.9901814  57.5912788  32.0118254
  41.6719198  54.2403767  31.7893860  41.9994801  53.4926791  32.5117100
  40.6824178  53.9757076  31.4166429  42.3757755  54.2742775  30.9577991
  45.4109198  56.5293767  32.6513860  45.5039198  56.8743767  33.8343860
  46.2999198  56.8723767  31.7203860  46.1150963  56.6933918  30.7437059
  47.5869198  57.4523767  32.0853860  47.6523079  57.6577061  33.1538725
  48.7449198  56.5163767  31.6923860  48.7569139  56.4026392  30.6084030
  50.0749198  57.0913767  32.1563860  50.0638535  57.2049774  33.2403940
  50.8823385  56.4172728  31.8704500  50.2327622  58.0644108  31.6912065
  48.5339198  55.1253767  32.2673860  47.6017823  54.7106158  31.8837257
  49.3641958  54.4817333  31.9767583  48.4842409  55.1847876  33.3546317
  47.7749198  58.8193767  31.4423860  48.2269198  58.9243767  30.2973860
  47.4339198  59.8733767  32.1773860  46.8338389  59.7701337  32.9832043
  47.8839198  61.2093767  31.8193860  47.9168152  61.3081755  30.7343718
  46.9329198  62.2643767  32.3763860  46.5521159  61.9365966  33.3436749
  47.4660240  63.2074332  32.4969866  45.4829198  62.5913767  31.3523860
  49.2909198  61.4273767  32.3573860  49.4789198  61.9073767  33.4773860
  50.2819198  61.0703767  31.5473860  50.0828316  60.8571444  30.5804345
  51.6499198  60.9743767  32.0023860  51.6718106  60.3185881  32.8727660
  52.2429264  60.5336244  31.2010247  52.2489198  62.3143767  32.3793860
  51.5609198  63.2883767  32.6863860  53.5809198  62.3493767  32.3463860
  54.0834741  61.5386929  32.0142260  54.3499198  63.4923767  32.8203860
  54.2068312  63.6209856  33.8932721  55.8379198  63.2673767  32.5493860
  55.9562249  63.1563572  31.4715281  56.3651069  64.1615277  32.8820536
  56.4149198  62.0503767  33.2493860  56.1838020  62.1091564  34.3129792
  55.9424884  61.1650449  32.8238329  57.9109198  61.9153767  33.0513860
  58.5439198  62.8933767  32.6043860  58.4539198  60.8293767  33.3433860
  59.3999268  60.8254402  33.1814161  53.8979198  64.7953767  32.1743860
  53.7019198  64.8623767  30.9573860  57.8335922  60.1782207  33.6790472
  59.4824735  62.7169039  32.5026647  57.9871978  63.6579682  32.4419738
  53.7269198  65.8343767  32.9883860  53.8220852  65.6867337  33.9829937
  53.3739198  67.1683767  32.5183860  53.5713449  67.2383418  31.4487004
  51.8959198  67.4733767  32.7633860  51.7216736  67.3673054  33.8341271
  51.7313874  68.5101706  32.4699792  50.9369198  66.5743767  32.0033860
  51.2187242  66.5802130  30.9504601  51.0265569  65.5620246  32.3973535
  49.4999198  67.0473767  32.1453860  48.8542840  66.4078410  31.5435160
  49.2049469  66.9781529  33.1924288  49.3339198  68.4273767  31.7033860
  50.1436619  68.8815372  31.3056987  48.2019198  69.1123767  31.7873860
  47.1039198  68.5783767  32.2973860  47.1183529  67.6261209  32.6336904
  46.2564539  69.1254953  32.3480076  48.1709198  70.3683767  31.3503860
  49.0046058  70.7852141  30.9613947  47.3138399  70.8994216  31.4095823
  54.2499198  68.1803767  33.2393860  54.7369198  67.9083767  34.3423860
  54.4549198  69.3273767  32.6223860  54.0856835  69.4747541  31.6939229
  55.2039198  70.4003767  33.2413860  54.6887390  71.3452682  33.0685622
  55.2759462  70.2172030  34.3134676  56.6049198  70.4873767  32.6593860
  56.8249198  70.1643767  31.4943860  57.5339198  70.9253767  33.5063860
  57.2672559  71.0894589  34.4666291  58.9069198  71.2113767  33.1123860
  58.9993522  71.1316135  32.0292456  59.3169198  72.6233767  33.5353860
  59.2767498  72.7326635  34.6191489  60.3324441  72.8149332  33.1888078
  58.4529198  73.7133767  32.9603860  57.1119198  73.8063767  33.2913860
  56.6819387  73.0735697  33.9741818  56.3219198  74.8093767  32.7693860
  55.2652120  74.8633900  33.0312102  56.8679198  75.7413767  31.9183860
  56.2464060  76.5370381  31.5076020  58.2019198  75.6683767  31.5853860
  58.6368493  76.4044339  30.9092527  58.9899198  74.6603767  32.1093860
  60.0477942  74.6062103  31.8523498  59.8229198  70.1793767  33.7543860
  59.7689198  69.9703767  34.9713860  60.6559198  69.5383767  32.9393860
  60.6334621  69.7530183  31.9527128  61.5769198  68.5083767  33.4013860
  61.6222318  68.5228153  34.4903477  61.1219198  67.1193767  32.9493860
  61.1182462  67.0565086  31.8612071  61.7899931  66.3593173  33.3544636
  59.7389198  66.7613767  33.4043860  58.6339198  67.3663767  32.8363860
  58.7815169  68.1072044  32.0505811  57.3639198  67.0463767  33.2483860
  56.5027297  67.5344847  32.7920935  57.1789198  66.1093767  34.2373860
  56.1714320  65.8561181  34.5674291  58.2679198  65.4903767  34.8113860
  58.1250031  64.7441424  35.5929290  59.5419198  65.8173767  34.3943860
  60.4054185  65.3295938  34.8466445  62.9659198  68.8103767  32.8643860
  63.1389198  69.0023767  31.6573860  63.9539198  68.8353767  33.7593860
  63.7441895  68.6386681  34.7275897  65.3219198  69.1993767  33.4083860
  65.4052855  69.3118390  32.3274135  65.7189198  70.5183767  34.0683860
  65.8149473  70.3345477  35.1384724  66.6915291  70.7902501  33.6582446
  64.7419198  71.6473767  33.8373860  63.5579198  71.7213767  34.5503860
  63.3388540  70.9445858  35.2829880  62.6649198  72.7493767  34.3493860
  61.7353502  72.7906489  34.9170997  62.9509198  73.7273767  33.4273860
  62.0629198  74.7563767  33.2233860  61.2806453  74.6918838  33.7760948
  64.1209198  73.6813767  32.7073860  64.3490550  74.4559461  31.9751995
  65.0099198  72.6453767  32.9163860  65.9411609  72.6039901  32.3514284
  66.2989198  68.0973767  33.7983860  67.3999198  68.3793767  34.2793860
  65.9089198  66.8423767  33.6023860  64.9831494  66.6532920  33.2456009
  66.7699198  65.7113767  33.9233860  66.9644112  65.6830577  34.9955196
  66.1229198  64.3783767  33.5053860  65.9967329  64.3715626  32.4227362
  66.9959198  63.2033767  33.9213860  67.1221838  63.2092579  35.0040320
  66.5205500  62.2710494  33.6166100  67.9712179  63.2870131  33.4419081
  64.8339198  64.2543767  34.1193860  64.4331558  63.4224556  33.8569059
  68.1249198  65.8433767  33.2373860  69.1109198  66.2353767  33.8623860
  68.2399198  65.5413767  31.9883860  67.5495272  65.8248167  31.3078574
  69.3849198  64.7743767  31.5293860  70.0333150  64.5468898  32.3755148
  69.0417572  63.8448950  31.0750691  69.9401028  65.3549791  30.7926550
  87.1023260  96.2366600  79.9379500  87.0217310  95.3221210  79.6671210
  86.6887680  96.7333670  79.2319210  85.2341300  98.0145620  81.8188770
  84.4583400  97.5346060  82.1087340  85.8854230  97.3351270  81.6444930
  79.2507130  98.3265430  82.6964530  78.4192010  98.0714140  83.0961040
  79.8588110  98.3976200  83.4322450  77.6599080  93.2867320  76.4806920
  76.7715780  93.6283290  76.3786800  77.9440270  93.0867640  75.5887750
  75.6232090  95.8872970  82.3646620  76.1948200  95.1195170  82.3650260
  75.6233630  96.1861730  81.4553230  76.8656960  91.2957330  84.1515550
  76.6859800  90.3983080  84.4318310  76.4637040  91.8429200  84.8262500
  85.7055460  93.4973190  82.0527860  86.0820280  92.6245070  81.9401530
  85.6074970  93.8331890  81.1618300  79.8360470  91.8698820  77.5145300
  79.9427220  92.7702550  77.8214060  78.9252830  91.8216790  77.2239950
  89.4879580  90.9923630  78.9856200  90.3089200  90.5020200  79.0281680
  89.5213660  91.5821290  79.7388040  77.4843630  93.7917830  82.7597890
  78.1653740  94.0556200  83.3785290  77.1691680  92.9518700  83.0935900
  81.6768200  94.8385190  81.8470480  82.1846420  95.3366160  82.4875500
  82.2081440  94.0620390  81.6709840  79.9604300  89.4783750  86.1133900
  79.9622740  89.9956140  85.3079800  79.1308610  89.0013930  86.0903830
  89.7241060  92.9324010  81.7583740  89.0196630  93.2208900  82.3386850
  90.0853220  93.7424120  81.3983300  79.6419630  91.1893710  84.1204350
  79.9836440  92.0335760  83.8258220  78.7035440  91.3377450  84.2369690
  83.3247520  88.6775980  80.4448940  83.6322500  88.1222870  79.7284440
  82.3948220  88.8120440  80.2621930  85.7128280  96.7424810  77.1809060
  84.7857560  96.6762190  77.4097530  85.8653100  97.6804940  77.0664300
  85.6997360  93.0141810  74.1776220  84.7601030  93.1755770  74.2628680
  86.0180620  93.7327490  73.6312210  89.7425570  98.3045110  77.6844310
  89.1237990  97.9664660  77.0370610  89.7250020  97.6604870  78.3923500
  89.1852130  94.4829650  85.1010120  88.7723310  95.3083360  85.3550110
  88.4528080  93.8974690  84.9086480  81.3184920  97.2689550  79.9628790
  80.9141920  96.5566800  79.4674690  81.4048040  96.9242790  80.8516830
  80.0313540  94.0432760  83.7427830  80.5828130  94.1528100  82.9681080
  80.5457050  94.4170360  84.4583060  87.9190270  97.5431920  74.6917060
  88.3583550  96.7054350  74.5454880  88.6318690  98.1761320  74.7781200
  91.5007410  88.7974730  73.0058100  91.1880070  88.8901560  73.9057170
  92.2619880  89.3755760  72.9555530  78.0189550  96.1634530  77.4635440
  77.8987150  96.8896620  76.8516710  77.7090440  95.3937440  76.9863350
  80.4853210  89.5069600  80.8459110  80.0421360  90.2879140  80.5143630
  81.0438200  89.8299490  81.5530050  83.6012030  89.1280300  75.7264940
  82.9766210  89.1240170  76.4518250  83.5142150  88.2611260  75.3300910
  82.5229110  90.0516930  82.7048710  82.8201440  90.9579760  82.6240730
  83.0714670  89.5635710  82.0908280  80.2767430  94.6303170  78.5740360
  80.0508350  94.4140340  79.4786980  79.4959960  95.0631630  78.2286330
  87.5065190  94.6366540  77.1731010  86.9074080  95.3602340  76.9894630
  88.0544800  94.5743320  76.3907460  86.1130060  93.2730080  79.2034290
  86.5059630  93.5902280  78.3902980  86.4746910  92.3941960  79.3178810
  75.1494230  89.8630880  81.4264490  74.8607280  90.4333740  82.1389470
  75.8939990  89.3835330  81.7895720  75.3364460  93.8051000  72.6367210
  75.2539130  94.7481760  72.7782200  74.9847520  93.6625910  71.7579560
  86.6985200  95.8635830  83.2985070  85.9666320  96.3722640  83.6475170
  86.3009540  95.0465810  82.9973850  83.1362590  92.5390030  81.7037560
  83.1398650  92.0979980  80.8542100  84.0313710  92.8607360  81.8109380
  78.9864970  92.4216520  80.6631770  78.6465020  92.8991750  81.4198820
  78.2242290  91.9681640  80.3032870  83.1982740  93.5402110  74.6944320
  83.3195560  93.4988590  75.6430140  82.8131250  94.4026260  74.5391050
  87.1611110  91.3169510  82.7108010  87.1783850  91.7678160  83.5549860
  86.9126690  90.4175150  82.9241450  82.2104240  95.8503250  74.0927620
  81.6421140  95.4021500  73.4663530  82.9193240  96.2096030  73.5592770
  83.4370560  96.5991810  83.4502970  83.8040690  96.1250380  84.1964310
  83.2475620  97.4733380  83.7911310  76.3011050  91.3435500  79.5796440
  76.0157970  90.9791170  80.4175060  76.2389910  90.6115960  78.9659580
  81.2269930  95.6400450  85.7687180  80.9227000  96.5192430  85.9937540
  82.1816390  95.7000240  85.8044620  85.9749640  90.2364760  76.3009810
  85.1614250  89.7377930  76.2255120  85.7811590  91.0763010  75.8846160
  88.6898030  94.6084410  74.5971970  89.5777650  94.9201640  74.4223310
  88.6603120  93.7356660  74.2052550  90.9612300  95.9196250  74.0651830
  90.8776020  96.3510470  73.2148270  91.6806490  96.3794600  74.4978650
  75.7941710  96.4794450  73.5393140  76.6636560  96.7619250  73.8229060
  75.3032030  97.2930320  73.4241950  82.9576520  97.8667660  77.6601420
  83.4139300  98.6772910  77.8861610  82.6064730  97.5490800  78.4919910
  78.8588300  88.2105310  78.1323940  78.7302930  88.2023210  79.0808860
  78.0350320  88.5488400  77.7814950  87.3521010  92.4618740  85.3432090
  87.7201830  91.6413950  85.6711660  86.4919210  92.5220630  85.7587740
  90.7183040  91.4175680  76.1519650  90.0896200  91.5221350  75.4377880
  90.2234960  91.6372460  76.9413530  82.6867070  93.6961630  77.5677530
  81.9783220  94.1647970  78.0091140  82.9711550  93.0383640  78.2022720
  84.3123000  95.1158330  85.5670060  84.8108250  95.5904150  86.2321910
  84.4545950  94.1921850  85.7740090  86.7182500  90.4212290  79.0073320
  86.5950280  90.4398420  78.0582830  87.6667060  90.4691230  79.1271720
  80.8902090  92.0046710  74.9428240  81.7392620  92.4416860  74.8768430
  80.5233360  92.3166970  75.7700300  91.5189860  91.3326290  86.4098450
  91.0163460  92.0731690  86.7492260  92.3346520  91.7210290  86.0935240
  89.8111870  96.5759470  79.8559810  88.8702010  96.5909700  80.0307500
  90.1255940  95.7895430  80.3020110  79.7893510  98.2579070  73.4163770
  80.5556780  98.1460430  73.9789200  79.8668200  97.5617040  72.7640540
  78.4840270  95.6904140  74.0996660  78.5643860  94.7431650  74.2114060
  79.3760020  96.0211020  74.2057320  81.8212540  98.2544200  75.3906410
  82.2428960  98.0884070  76.2337800  81.9463380  97.4444430  74.8961550
  84.3340180  97.2781810  72.6383510  84.8545840  96.5630830  72.2724660
  84.9808580  97.9167680  72.9384020  83.2373700  89.7576360  85.3102070
  82.7891000  89.7800620  84.4647620  82.6038900  89.3595380  85.9072370
  88.3185050  96.9384060  85.8914860  87.7920270  97.4626680  85.2880000
  88.6616390  97.5711450  86.5224590  80.7171440  94.3277430  72.3364570
  80.5160500  93.4644790  72.6977910  80.5463490  94.2410790  71.3986170
  88.1959750  89.1385660  74.8651450  88.4762040  88.2953560  75.2210870
  87.4225480  89.3708770  75.3790200  79.5154240  91.4278050  72.3242450
  79.8180140  91.4345480  71.4161600  80.2548830  91.0775910  72.8210110
  82.7339170  90.3712670  73.3098650  82.3861170  89.6936660  72.7301100
  82.9351940  89.9102180  74.1242040  76.0744810  96.9000320  79.7063020
  75.4193650  96.6311960  79.0622720  76.9122760  96.7904800  79.2565000
  89.0235250  91.6941610  73.9281510  89.4420130  91.5072590  73.0878170
  88.7171310  90.8420660  74.2384440  77.1120740  97.2852890  84.2466360
  77.4793780  97.1980290  85.1262380  76.5431560  96.5219440  84.1473220
  75.2882890  94.1099250  75.6488350  74.3846970  94.3729450  75.4740010
  75.7723510  94.3810420  74.8688310  91.7975940  94.8323240  80.9264550
  92.3213420  94.3385890  80.2954720  92.3835360  94.9673600  81.6712120
  91.9765660  94.9163110  84.4484100  91.0268370  94.8826650  84.5629090
  92.1578670  95.8263220  84.2133870  77.8310100  93.1664790  73.5582730
  78.5401800  92.7448010  73.0730010  77.1150040  93.2340020  72.9266080
  77.4784260  89.2204120  72.5985380  78.2012390  89.7613060  72.9166600
  77.7508780  88.9467540  71.7226920  91.2875910  94.0896590  76.8656960
  91.7835030  93.8567460  77.6505840  91.0891980  93.2508430  76.4494600
  77.1676450  88.4710310  82.5008000  77.8152640  87.9207690  82.0603160
  77.5878290  88.7253460  83.3223810  91.0628790  88.6651670  85.8577640
  91.7001010  89.2785810  86.2236830  91.2103680  88.7012330  84.9126870
  76.9208450  88.6265980  85.2433320  76.5723270  89.0829800  86.0091500
  76.5896150  87.7323110  85.3255750  87.8115870  88.0380060  84.7314320
  86.9375710  88.3715170  84.5287250  87.7026620  87.5653240  85.5566190
  88.7187850  90.2450930  86.1156040  88.3901210  89.4302690  85.7357770
  89.6670150  90.2020740  85.9921730  85.5590690  88.9549900  83.6707230
  84.7762480  89.4295400  83.9503990  85.2653620  88.0504730  83.5620410
  90.1111760  89.6573000  81.7156320  90.5519850  89.6018100  80.8677920
  89.8419350  90.5731010  81.7866500  76.9031100  89.2597380  76.1920950
  77.6610460  89.3726260  75.6184980  76.4408270  90.0966580  76.1464380
  83.4444910  91.3736650  79.1823260  82.6319420  90.9993540  78.8419140
  83.9486550  90.6181730  79.4844450  87.9469890  88.0379100  80.4206330
  88.5499260  88.6099310  80.8954850  87.2062880  88.6018540  80.1980230
  91.0904490  88.4400660  75.6946610  91.2855120  89.3384110  75.9614040
  90.3034360  88.2087740  76.1879560  79.2756250  89.7861430  74.7322920
  79.8049010  88.9991230  74.6030870  79.9084570  90.4652620  74.9658450
  81.4694090  89.5236570  77.7868310  80.8396830  88.8223880  77.9538440
  80.9299230  90.2840700  77.5701470  87.1023260  96.2366600  61.1636010
  87.0217310  95.3221210  60.8927720  86.6887680  96.7333670  60.4575720
  85.2341300  98.0145620  63.0445280  84.4583400  97.5346060  63.3343850
  85.8854230  97.3351270  62.8701440  79.2507130  98.3265430  63.9221040
  78.4192010  98.0714140  64.3217550  79.8588110  98.3976200  64.6578960
  77.6599080  93.2867320  57.7063430  76.7715780  93.6283290  57.6043310
  77.9440270  93.0867640  56.8144260  75.6232090  95.8872970  63.5903130
  76.1948200  95.1195170  63.5906770  75.6233630  96.1861730  62.6809740
  76.8656960  91.2957330  65.3772060  76.6859800  90.3983080  65.6574820
  76.4637040  91.8429200  66.0519010  85.7055460  93.4973190  63.2784370
  86.0820280  92.6245070  63.1658040  85.6074970  93.8331890  62.3874810
  79.8360470  91.8698820  58.7401810  79.9427220  92.7702550  59.0470570
  78.9252830  91.8216790  58.4496460  89.4879580  90.9923630  60.2112710
  90.3089200  90.5020200  60.2538190  89.5213660  91.5821290  60.9644550
  77.4843630  93.7917830  63.9854400  78.1653740  94.0556200  64.6041800
  77.1691680  92.9518700  64.3192410  81.6768200  94.8385190  63.0726990
  82.1846420  95.3366160  63.7132010  82.2081440  94.0620390  62.8966350
  79.9604300  89.4783750  67.3390410  79.9622740  89.9956140  66.5336310
  79.1308610  89.0013930  67.3160340  89.7241060  92.9324010  62.9840250
  89.0196630  93.2208900  63.5643360  90.0853220  93.7424120  62.6239810
  79.6419630  91.1893710  65.3460860  79.9836440  92.0335760  65.0514730
  78.7035440  91.3377450  65.4626200  83.3247520  88.6775980  61.6705450
  83.6322500  88.1222870  60.9540950  82.3948220  88.8120440  61.4878440
  85.7128280  96.7424810  58.4065570  84.7857560  96.6762190  58.6354040
  85.8653100  97.6804940  58.2920810  85.6997360  93.0141810  55.4032730
  84.7601030  93.1755770  55.4885190  86.0180620  93.7327490  54.8568720
  89.7425570  98.3045110  58.9100820  89.1237990  97.9664660  58.2627120
  89.7250020  97.6604870  59.6180010  89.1852130  94.4829650  66.3266630
  88.7723310  95.3083360  66.5806620  88.4528080  93.8974690  66.1342990
  81.3184920  97.2689550  61.1885300  80.9141920  96.5566800  60.6931200
  81.4048040  96.9242790  62.0773340  80.0313540  94.0432760  64.9684340
  80.5828130  94.1528100  64.1937590  80.5457050  94.4170360  65.6839570
  87.9190270  97.5431920  55.9173570  88.3583550  96.7054350  55.7711390
  88.6318690  98.1761320  56.0037710  79.7056270  97.5652120  68.5789680
  79.5664040  98.4374920  68.9477080  78.8237630  97.2224930  68.4337620
  91.5007410  88.7974730  54.2314610  91.1880070  88.8901560  55.1313680
  92.2619880  89.3755760  54.1812040  78.0189550  96.1634530  58.6891950
  77.8987150  96.8896620  58.0773220  77.7090440  95.3937440  58.2119860
  80.4853210  89.5069600  62.0715620  80.0421360  90.2879140  61.7400140
  81.0438200  89.8299490  62.7786560  84.7723020  92.3738120  67.6750940
  84.3102390  92.5821140  68.4870880  84.3701130  91.5597470  67.3721610
  89.7727530  93.5947070  68.8047600  88.9221120  93.2952820  69.1256670
  89.6129320  93.8389080  67.8931420  86.8677240  95.0948820  70.9046390
  87.1930650  94.2612570  70.5648620  87.6557570  95.6177340  71.0524720
  83.6012030  89.1280300  56.9521450  82.9766210  89.1240170  57.6774760
  83.5142150  88.2611260  56.5557420  82.5229110  90.0516930  63.9305220
  82.8201440  90.9579760  63.8497240  83.0714670  89.5635710  63.3164790
  80.2767430  94.6303170  59.7996870  80.0508350  94.4140340  60.7043490
  79.4959960  95.0631630  59.4542840  87.5065190  94.6366540  58.3987520
  86.9074080  95.3602340  58.2151140  88.0544800  94.5743320  57.6163970
  82.7166640  95.5288750  70.4657140  82.6210240  94.5883480  70.3157540
  83.5598620  95.7503820  70.0705210  86.1130060  93.2730080  60.4290800
  86.5059630  93.5902280  59.6159490  86.4746910  92.3941960  60.5435320
  77.8477180  91.9402420  68.6190920  77.4540570  92.7877630  68.8263700
  77.1595580  91.3028790  68.8099560  84.4222230  92.0237390  71.6887660
  83.7320550  91.8309590  72.3233750  85.1654530  92.3072030  72.2211960
  75.1494230  89.8630880  62.6521000  74.8607280  90.4333740  63.3645980
  75.8939990  89.3835330  63.0152230  75.3364460  93.8051000  53.8623720
  75.2539130  94.7481760  54.0038710  74.9847520  93.6625910  52.9836070
  86.6985200  95.8635830  64.5241580  85.9666320  96.3722640  64.8731680
  86.3009540  95.0465810  64.2230360  83.1362590  92.5390030  62.9294070
  83.1398650  92.0979980  62.0798610  84.0313710  92.8607360  63.0365890
  78.9864970  92.4216520  61.8888280  78.6465020  92.8991750  62.6455330
  78.2242290  91.9681640  61.5289380  83.1982740  93.5402110  55.9200830
  83.3195560  93.4988590  56.8686650  82.8131250  94.4026260  55.7647560
  87.1611110  91.3169510  63.9364520  87.1783850  91.7678160  64.7806370
  86.9126690  90.4175150  64.1497960  82.2104240  95.8503250  55.3184130
  81.6421140  95.4021500  54.6920040  82.9193240  96.2096030  54.7849280
  90.5881860  88.7301690  69.7750900  90.9127630  87.9991350  70.3008880
  90.6238370  88.4115330  68.8731890  83.4370560  96.5991810  64.6759480
  83.8040690  96.1250380  65.4220820  83.2475620  97.4733380  65.0167820
  76.3011050  91.3435500  60.8052950  76.0157970  90.9791170  61.6431570
  76.2389910  90.6115960  60.1916090  81.2269930  95.6400450  66.9943690
  80.9227000  96.5192430  67.2194050  82.1816390  95.7000240  67.0301130
  85.9749640  90.2364760  57.5266320  85.1614250  89.7377930  57.4511630
  85.7811590  91.0763010  57.1102670  88.6898030  94.6084410  55.8228480
  89.5777650  94.9201640  55.6479820  88.6603120  93.7356660  55.4309060
  77.2833660  96.4803190  68.1415050  76.9248600  97.1457040  68.7288390
  76.9888220  95.6486740  68.5127670  80.4846780  96.9387430  71.0254600
  80.1846920  97.0844610  70.1282420  81.2558020  96.3792720  70.9327990
  90.9612300  95.9196250  55.2908340  90.8776020  96.3510470  54.4404780
  91.6806490  96.3794600  55.7235160  75.7941710  96.4794450  54.7649650
  76.6636560  96.7619250  55.0485570  75.3032030  97.2930320  54.6498460
  82.9576520  97.8667660  58.8857930  83.4139300  98.6772910  59.1118120
  82.6064730  97.5490800  59.7176420  78.8588300  88.2105310  59.3580450
  78.7302930  88.2023210  60.3065370  78.0350320  88.5488400  59.0071460
  75.8582230  89.9696430  68.8187150  75.1440750  90.1693350  69.4239760
  76.2777270  89.1936000  69.1901950  87.3521010  92.4618740  66.5688600
  87.7201830  91.6413950  66.8968170  86.4919210  92.5220630  66.9844250
  90.7183040  91.4175680  57.3776160  90.0896200  91.5221350  56.6634390
  90.2234960  91.6372460  58.1670040  82.6867070  93.6961630  58.7934040
  81.9783220  94.1647970  59.2347650  82.9711550  93.0383640  59.4279230
  84.3123000  95.1158330  66.7926570  84.8108250  95.5904150  67.4578420
  84.4545950  94.1921850  66.9996600  86.7182500  90.4212290  60.2329830
  86.5950280  90.4398420  59.2839340  87.6667060  90.4691230  60.3528230
  80.8902090  92.0046710  56.1684750  81.7392620  92.4416860  56.1024940
  80.5233360  92.3166970  56.9956810  91.5189860  91.3326290  67.6354960
  91.0163460  92.0731690  67.9748770  92.3346520  91.7210290  67.3191750
  89.8111870  96.5759470  61.0816320  88.8702010  96.5909700  61.2564010
  90.1255940  95.7895430  61.5276620  79.7893510  98.2579070  54.6420280
  80.5556780  98.1460430  55.2045710  79.8668200  97.5617040  53.9897050
  78.4840270  95.6904140  55.3253170  78.5643860  94.7431650  55.4370570
  79.3760020  96.0211020  55.4313830  76.0111070  97.5119060  70.5609340
  76.5150090  96.9326340  71.1325570  75.2718490  97.7959290  71.0985710
  78.0434150  95.6548650  71.4559410  78.0839490  95.3562520  72.3644640
  78.8979650  96.0556260  71.2966930  81.8212540  98.2544200  56.6162920
  82.2428960  98.0884070  57.4594310  81.9463380  97.4444430  56.1218060
  79.9839960  94.2340750  69.4233900  79.4536420  93.7431700  68.7957240
  80.6528030  94.6624950  68.8891830  84.3340180  97.2781810  53.8640020
  84.8545840  96.5630830  53.4981170  84.9808580  97.9167680  54.1640530
  89.3540190  96.0406370  71.1914240  89.9360960  95.2858690  71.1034720
  89.5301960  96.5713810  70.4145720  80.4712260  91.2003120  69.5031190
  80.3769130  90.5823870  68.7782060  79.8909650  91.9269410  69.2761100
  83.2373700  89.7576360  66.5358580  82.7891000  89.7800620  65.6904130
  82.6038900  89.3595380  67.1328880  85.9797150  96.3846870  68.5408860
  86.0993360  95.7888010  69.2803700  86.8391150  96.4216560  68.1210160
  88.3185050  96.9384060  67.1171370  87.7920270  97.4626680  66.5136510
  88.6616390  97.5711450  67.7481100  80.7171440  94.3277430  53.5621080
  80.5160500  93.4644790  53.9234420  80.5463490  94.2410790  52.6242680
  82.7465920  92.9268220  69.7984680  83.3365610  92.6184070  70.4862500
  81.9286160  92.4547970  69.9544580  87.5659350  92.5434030  70.0317700
  86.8774870  91.8815570  69.9667690  88.2865370  92.0972300  70.4766160
  88.1959750  89.1385660  56.0907960  88.4762040  88.2953560  56.4467380
  87.4225480  89.3708770  56.6046710  79.5154240  91.4278050  53.5498960
  79.8180140  91.4345480  52.6418110  80.2548830  91.0775910  54.0466620
  82.7339170  90.3712670  54.5355160  82.3861170  89.6936660  53.9557610
  82.9351940  89.9102180  55.3498550  76.0744810  96.9000320  60.9319530
  75.4193650  96.6311960  60.2879230  76.9122760  96.7904800  60.4821510
  89.0235250  91.6941610  55.1538020  89.4420130  91.5072590  54.3134680
  88.7171310  90.8420660  55.4640950  77.1120740  97.2852890  65.4722870
  77.4793780  97.1980290  66.3518890  76.5431560  96.5219440  65.3729730
  91.9124600  95.7537270  68.4853340  91.6810690  95.5250020  67.5851290
  92.1729150  96.6736820  68.4398230  76.6636740  94.1961980  69.3781290
  75.7692790  94.1628740  69.7175000  77.2034290  94.3948770  70.1432540
  90.3512670  90.9793700  71.2633040  91.2282850  90.9877100  71.6467040
  90.3633510  90.2424540  70.6525390  75.2882890  94.1099250  56.8744860
  74.3846970  94.3729450  56.6996520  75.7723510  94.3810420  56.0944820
  91.7975940  94.8323240  62.1521060  92.3213420  94.3385890  61.5211230
  92.3835360  94.9673600  62.8968630  91.9765660  94.9163110  65.6740610
  91.0268370  94.8826650  65.7885600  92.1578670  95.8263220  65.4390380
  77.8310100  93.1664790  54.7839240  78.5401800  92.7448010  54.2986520
  77.1150040  93.2340020  54.1522590  77.4784260  89.2204120  53.8241890
  78.2012390  89.7613060  54.1423110  77.7508780  88.9467540  52.9483430
  91.2875910  94.0896590  58.0913470  91.7835030  93.8567460  58.8762350
  91.0891980  93.2508430  57.6751110  77.1676450  88.4710310  63.7264510
  77.8152640  87.9207690  63.2859670  77.5878290  88.7253460  64.5480320
  91.0628790  88.6651670  67.0834150  91.7001010  89.2785810  67.4493340
  91.2103680  88.7012330  66.1383380  76.9208450  88.6265980  66.4689830
  76.5723270  89.0829800  67.2348010  76.5896150  87.7323110  66.5512260
  84.4333270  89.8177860  69.9909250  84.3722160  90.4099690  70.7404660
  85.3733650  89.7103820  69.8459510  87.0707830  89.4747920  69.6301540
  87.6848240  89.7927210  68.9682620  87.6157390  88.9896510  70.2497400
  77.5929090  88.1542180  69.7440600  78.1412080  87.9730230  68.9806710
  77.6584400  87.3636290  70.2796910  87.8115870  88.0380060  65.9570830
  86.9375710  88.3715170  65.7543760  87.7026620  87.5653240  66.7822700
  88.7187850  90.2450930  67.3412550  88.3901210  89.4302690  66.9614280
  89.6670150  90.2020740  67.2178240  85.5590690  88.9549900  64.8963740
  84.7762480  89.4295400  65.1760500  85.2653620  88.0504730  64.7876920
  90.1111760  89.6573000  62.9412830  90.5519850  89.6018100  62.0934430
  89.8419350  90.5731010  63.0123010  76.9031100  89.2597380  57.4177460
  77.6610460  89.3726260  56.8441490  76.4408270  90.0966580  57.3720890
  83.4444910  91.3736650  60.4079770  82.6319420  90.9993540  60.0675650
  83.9486550  90.6181730  60.7100960  87.9469890  88.0379100  61.6462840
  88.5499260  88.6099310  62.1211360  87.2062880  88.6018540  61.4236740
  91.0904490  88.4400660  56.9203120  91.2855120  89.3384110  57.1870550
  90.3034360  88.2087740  57.4136070  79.2756250  89.7861430  55.9579430
  79.8049010  88.9991230  55.8287380  79.9084570  90.4652620  56.1914960
  81.4694090  89.5236570  59.0124820  80.8396830  88.8223880  59.1794950
  80.9299230  90.2840700  58.7957980  81.5949650  88.8020550  71.4477310
  81.3133920  89.3054150  70.6838130  81.9769350  88.0042300  71.0819440
  88.1965110  88.2174130  72.0257780  88.0830560  88.5368740  72.9209300
  89.0134850  88.6186640  71.7295060  87.1023260  96.2366600  42.3892520
  87.0217310  95.3221210  42.1184230  86.6887680  96.7333670  41.6832230
  85.2341300  98.0145620  44.2701790  84.4583400  97.5346060  44.5600360
  85.8854230  97.3351270  44.0957950  79.2507130  98.3265430  45.1477550
  78.4192010  98.0714140  45.5474060  79.8588110  98.3976200  45.8835470
  77.6599080  93.2867320  38.9319940  76.7715780  93.6283290  38.8299820
  77.9440270  93.0867640  38.0400770  75.6232090  95.8872970  44.8159640
  76.1948200  95.1195170  44.8163280  75.6233630  96.1861730  43.9066250
  76.8656960  91.2957330  46.6028570  76.6859800  90.3983080  46.8831330
  76.4637040  91.8429200  47.2775520  85.7055460  93.4973190  44.5040880
  86.0820280  92.6245070  44.3914550  85.6074970  93.8331890  43.6131320
  79.8360470  91.8698820  39.9658320  79.9427220  92.7702550  40.2727080
  78.9252830  91.8216790  39.6752970  89.4879580  90.9923630  41.4369220
  90.3089200  90.5020200  41.4794700  89.5213660  91.5821290  42.1901060
  77.4843630  93.7917830  45.2110910  78.1653740  94.0556200  45.8298310
  77.1691680  92.9518700  45.5448920  81.6768200  94.8385190  44.2983500
  82.1846420  95.3366160  44.9388520  82.2081440  94.0620390  44.1222860
  79.9604300  89.4783750  48.5646920  79.9622740  89.9956140  47.7592820
  79.1308610  89.0013930  48.5416850  89.7241060  92.9324010  44.2096760
  89.0196630  93.2208900  44.7899870  90.0853220  93.7424120  43.8496320
  79.6419630  91.1893710  46.5717370  79.9836440  92.0335760  46.2771240
  78.7035440  91.3377450  46.6882710  83.3247520  88.6775980  42.8961960
  83.6322500  88.1222870  42.1797460  82.3948220  88.8120440  42.7134950
  85.7128280  96.7424810  39.6322080  84.7857560  96.6762190  39.8610550
  85.8653100  97.6804940  39.5177320  85.6997360  93.0141810  36.6289240
  84.7601030  93.1755770  36.7141700  86.0180620  93.7327490  36.0825230
  89.7425570  98.3045110  40.1357330  89.1237990  97.9664660  39.4883630
  89.7250020  97.6604870  40.8436520  89.1852130  94.4829650  47.5523140
  88.7723310  95.3083360  47.8063130  88.4528080  93.8974690  47.3599500
  81.3184920  97.2689550  42.4141810  80.9141920  96.5566800  41.9187710
  81.4048040  96.9242790  43.3029850  80.0313540  94.0432760  46.1940850
  80.5828130  94.1528100  45.4194100  80.5457050  94.4170360  46.9096080
  87.9190270  97.5431920  37.1430080  88.3583550  96.7054350  36.9967900
  88.6318690  98.1761320  37.2294220  79.7056270  97.5652120  49.8046190
  79.5664040  98.4374920  50.1733590  78.8237630  97.2224930  49.6594130
  91.5007410  88.7974730  35.4571120  91.1880070  88.8901560  36.3570190
  92.2619880  89.3755760  35.4068550  78.0189550  96.1634530  39.9148460
  77.8987150  96.8896620  39.3029730  77.7090440  95.3937440  39.4376370
  80.4853210  89.5069600  43.2972130  80.0421360  90.2879140  42.9656650
  81.0438200  89.8299490  44.0043070  84.7723020  92.3738120  48.9007450
  84.3102390  92.5821140  49.7127390  84.3701130  91.5597470  48.5978120
  89.7727530  93.5947070  50.0304110  88.9221120  93.2952820  50.3513180
  89.6129320  93.8389080  49.1187930  86.8677240  95.0948820  52.1302900
  87.1930650  94.2612570  51.7905130  87.6557570  95.6177340  52.2781230
  83.6012030  89.1280300  38.1777960  82.9766210  89.1240170  38.9031270
  83.5142150  88.2611260  37.7813930  82.5229110  90.0516930  45.1561730
  82.8201440  90.9579760  45.0753750  83.0714670  89.5635710  44.5421300
  80.2767430  94.6303170  41.0253380  80.0508350  94.4140340  41.9300000
  79.4959960  95.0631630  40.6799350  87.5065190  94.6366540  39.6244030
  86.9074080  95.3602340  39.4407650  88.0544800  94.5743320  38.8420480
  82.7166640  95.5288750  51.6913650  82.6210240  94.5883480  51.5414050
  83.5598620  95.7503820  51.2961720  86.1130060  93.2730080  41.6547310
  86.5059630  93.5902280  40.8416000  86.4746910  92.3941960  41.7691830
  77.8477180  91.9402420  49.8447430  77.4540570  92.7877630  50.0520210
  77.1595580  91.3028790  50.0356070  84.4222230  92.0237390  52.9144170
  83.7320550  91.8309590  53.5490260  85.1654530  92.3072030  53.4468470
  75.1494230  89.8630880  43.8777510  74.8607280  90.4333740  44.5902490
  75.8939990  89.3835330  44.2408740  75.3364460  93.8051000  35.0880230
  75.2539130  94.7481760  35.2295220  74.9847520  93.6625910  34.2092580
  86.6985200  95.8635830  45.7498090  85.9666320  96.3722640  46.0988190
  86.3009540  95.0465810  45.4486870  83.1362590  92.5390030  44.1550580
  83.1398650  92.0979980  43.3055120  84.0313710  92.8607360  44.2622400
  78.9864970  92.4216520  43.1144790  78.6465020  92.8991750  43.8711840
  78.2242290  91.9681640  42.7545890  83.1982740  93.5402110  37.1457340
  83.3195560  93.4988590  38.0943160  82.8131250  94.4026260  36.9904070
  87.1611110  91.3169510  45.1621030  87.1783850  91.7678160  46.0062880
  86.9126690  90.4175150  45.3754470  82.2104240  95.8503250  36.5440640
  81.6421140  95.4021500  35.9176550  82.9193240  96.2096030  36.0105790
  90.5881860  88.7301690  51.0007410  90.9127630  87.9991350  51.5265390
  90.6238370  88.4115330  50.0988400  83.4370560  96.5991810  45.9015990
  83.8040690  96.1250380  46.6477330  83.2475620  97.4733380  46.2424330
  76.3011050  91.3435500  42.0309460  76.0157970  90.9791170  42.8688080
  76.2389910  90.6115960  41.4172600  81.2269930  95.6400450  48.2200200
  80.9227000  96.5192430  48.4450560  82.1816390  95.7000240  48.2557640
  85.9749640  90.2364760  38.7522830  85.1614250  89.7377930  38.6768140
  85.7811590  91.0763010  38.3359180  88.6898030  94.6084410  37.0484990
  89.5777650  94.9201640  36.8736330  88.6603120  93.7356660  36.6565570
  77.2833660  96.4803190  49.3671560  76.9248600  97.1457040  49.9544900
  76.9888220  95.6486740  49.7384180  80.4846780  96.9387430  52.2511110
  80.1846920  97.0844610  51.3538930  81.2558020  96.3792720  52.1584500
  90.9612300  95.9196250  36.5164850  90.8776020  96.3510470  35.6661290
  91.6806490  96.3794600  36.9491670  75.7941710  96.4794450  35.9906160
  76.6636560  96.7619250  36.2742080  75.3032030  97.2930320  35.8754970
  82.9576520  97.8667660  40.1114440  83.4139300  98.6772910  40.3374630
  82.6064730  97.5490800  40.9432930  78.8588300  88.2105310  40.5836960
  78.7302930  88.2023210  41.5321880  78.0350320  88.5488400  40.2327970
  75.8582230  89.9696430  50.0443660  75.1440750  90.1693350  50.6496270
  76.2777270  89.1936000  50.4158460  87.3521010  92.4618740  47.7945110
  87.7201830  91.6413950  48.1224680  86.4919210  92.5220630  48.2100760
  90.7183040  91.4175680  38.6032670  90.0896200  91.5221350  37.8890900
  90.2234960  91.6372460  39.3926550  82.6867070  93.6961630  40.0190550
  81.9783220  94.1647970  40.4604160  82.9711550  93.0383640  40.6535740
  84.3123000  95.1158330  48.0183080  84.8108250  95.5904150  48.6834930
  84.4545950  94.1921850  48.2253110  86.7182500  90.4212290  41.4586340
  86.5950280  90.4398420  40.5095850  87.6667060  90.4691230  41.5784740
  80.8902090  92.0046710  37.3941260  81.7392620  92.4416860  37.3281450
  80.5233360  92.3166970  38.2213320  91.5189860  91.3326290  48.8611470
  91.0163460  92.0731690  49.2005280  92.3346520  91.7210290  48.5448260
  89.8111870  96.5759470  42.3072830  88.8702010  96.5909700  42.4820520
  90.1255940  95.7895430  42.7533130  79.7893510  98.2579070  35.8676790
  80.5556780  98.1460430  36.4302220  79.8668200  97.5617040  35.2153560
  78.4840270  95.6904140  36.5509680  78.5643860  94.7431650  36.6627080
  79.3760020  96.0211020  36.6570340  76.0111070  97.5119060  51.7865850
  76.5150090  96.9326340  52.3582080  75.2718490  97.7959290  52.3242220
  78.0434150  95.6548650  52.6815920  78.0839490  95.3562520  53.5901150
  78.8979650  96.0556260  52.5223440  81.8212540  98.2544200  37.8419430
  82.2428960  98.0884070  38.6850820  81.9463380  97.4444430  37.3474570
  79.9839960  94.2340750  50.6490410  79.4536420  93.7431700  50.0213750
  80.6528030  94.6624950  50.1148340  84.3340180  97.2781810  35.0896530
  84.8545840  96.5630830  34.7237680  84.9808580  97.9167680  35.3897040
  89.3540190  96.0406370  52.4170750  89.9360960  95.2858690  52.3291230
  89.5301960  96.5713810  51.6402230  80.4712260  91.2003120  50.7287700
  80.3769130  90.5823870  50.0038570  79.8909650  91.9269410  50.5017610
  83.2373700  89.7576360  47.7615090  82.7891000  89.7800620  46.9160640
  82.6038900  89.3595380  48.3585390  85.9797150  96.3846870  49.7665370
  86.0993360  95.7888010  50.5060210  86.8391150  96.4216560  49.3466670
  88.3185050  96.9384060  48.3427880  87.7920270  97.4626680  47.7393020
  88.6616390  97.5711450  48.9737610  80.7171440  94.3277430  34.7877590
  80.5160500  93.4644790  35.1490930  80.5463490  94.2410790  33.8499190
  82.7465920  92.9268220  51.0241190  83.3365610  92.6184070  51.7119010
  81.9286160  92.4547970  51.1801090  87.5659350  92.5434030  51.2574210
  86.8774870  91.8815570  51.1924200  88.2865370  92.0972300  51.7022670
  88.1959750  89.1385660  37.3164470  88.4762040  88.2953560  37.6723890
  87.4225480  89.3708770  37.8303220  79.5154240  91.4278050  34.7755470
  79.8180140  91.4345480  33.8674620  80.2548830  91.0775910  35.2723130
  82.7339170  90.3712670  35.7611670  82.3861170  89.6936660  35.1814120
  82.9351940  89.9102180  36.5755060  76.0744810  96.9000320  42.1576040
  75.4193650  96.6311960  41.5135740  76.9122760  96.7904800  41.7078020
  89.0235250  91.6941610  36.3794530  89.4420130  91.5072590  35.5391190
  88.7171310  90.8420660  36.6897460  77.1120740  97.2852890  46.6979380
  77.4793780  97.1980290  47.5775400  76.5431560  96.5219440  46.5986240
  91.9124600  95.7537270  49.7109850  91.6810690  95.5250020  48.8107800
  92.1729150  96.6736820  49.6654740  76.6636740  94.1961980  50.6037800
  75.7692790  94.1628740  50.9431510  77.2034290  94.3948770  51.3689050
  90.3512670  90.9793700  52.4889550  91.2282850  90.9877100  52.8723550
  90.3633510  90.2424540  51.8781900  75.2882890  94.1099250  38.1001370
  74.3846970  94.3729450  37.9253030  75.7723510  94.3810420  37.3201330
  91.7975940  94.8323240  43.3777570  92.3213420  94.3385890  42.7467740
  92.3835360  94.9673600  44.1225140  91.9765660  94.9163110  46.8997120
  91.0268370  94.8826650  47.0142110  92.1578670  95.8263220  46.6646890
  77.8310100  93.1664790  36.0095750  78.5401800  92.7448010  35.5243030
  77.1150040  93.2340020  35.3779100  77.4784260  89.2204120  35.0498400
  78.2012390  89.7613060  35.3679620  77.7508780  88.9467540  34.1739940
  91.2875910  94.0896590  39.3169980  91.7835030  93.8567460  40.1018860
  91.0891980  93.2508430  38.9007620  77.1676450  88.4710310  44.9521020
  77.8152640  87.9207690  44.5116180  77.5878290  88.7253460  45.7736830
  91.0628790  88.6651670  48.3090660  91.7001010  89.2785810  48.6749850
  91.2103680  88.7012330  47.3639890  76.9208450  88.6265980  47.6946340
  76.5723270  89.0829800  48.4604520  76.5896150  87.7323110  47.7768770
  84.4333270  89.8177860  51.2165760  84.3722160  90.4099690  51.9661170
  85.3733650  89.7103820  51.0716020  87.0707830  89.4747920  50.8558050
  87.6848240  89.7927210  50.1939130  87.6157390  88.9896510  51.4753910
  77.5929090  88.1542180  50.9697110  78.1412080  87.9730230  50.2063220
  77.6584400  87.3636290  51.5053420  87.8115870  88.0380060  47.1827340
  86.9375710  88.3715170  46.9800270  87.7026620  87.5653240  48.0079210
  88.7187850  90.2450930  48.5669060  88.3901210  89.4302690  48.1870790
  89.6670150  90.2020740  48.4434750  85.5590690  88.9549900  46.1220250
  84.7762480  89.4295400  46.4017010  85.2653620  88.0504730  46.0133430
  90.1111760  89.6573000  44.1669340  90.5519850  89.6018100  43.3190940
  89.8419350  90.5731010  44.2379520  76.9031100  89.2597380  38.6433970
  77.6610460  89.3726260  38.0698000  76.4408270  90.0966580  38.5977400
  83.4444910  91.3736650  41.6336280  82.6319420  90.9993540  41.2932160
  83.9486550  90.6181730  41.9357470  87.9469890  88.0379100  42.8719350
  88.5499260  88.6099310  43.3467870  87.2062880  88.6018540  42.6493250
  91.0904490  88.4400660  38.1459630  91.2855120  89.3384110  38.4127060
  90.3034360  88.2087740  38.6392580  79.2756250  89.7861430  37.1835940
  79.8049010  88.9991230  37.0543890  79.9084570  90.4652620  37.4171470
  81.4694090  89.5236570  40.2381330  80.8396830  88.8223880  40.4051460
  80.9299230  90.2840700  40.0214490  81.5949650  88.8020550  52.6733820
  81.3133920  89.3054150  51.9094640  81.9769350  88.0042300  52.3075950
  88.1965110  88.2174130  53.2514290  88.0830560  88.5368740  54.1465810
  89.0134850  88.6186640  52.9551570  87.1023260  96.2366600  23.6149030
  87.0217310  95.3221210  23.3440740  86.6887680  96.7333670  22.9088740
  85.2341300  98.0145620  25.4958300  84.4583400  97.5346060  25.7856870
  85.8854230  97.3351270  25.3214460  79.2507130  98.3265430  26.3734060
  78.4192010  98.0714140  26.7730570  79.8588110  98.3976200  27.1091980
  77.6599080  93.2867320  20.1576450  76.7715780  93.6283290  20.0556330
  77.9440270  93.0867640  19.2657280  75.6232090  95.8872970  26.0416150
  76.1948200  95.1195170  26.0419790  75.6233630  96.1861730  25.1322760
  76.8656960  91.2957330  27.8285080  76.6859800  90.3983080  28.1087840
  76.4637040  91.8429200  28.5032030  85.7055460  93.4973190  25.7297390
  86.0820280  92.6245070  25.6171060  85.6074970  93.8331890  24.8387830
  79.8360470  91.8698820  21.1914830  79.9427220  92.7702550  21.4983590
  78.9252830  91.8216790  20.9009480  89.4879580  90.9923630  22.6625730
  90.3089200  90.5020200  22.7051210  89.5213660  91.5821290  23.4157570
  77.4843630  93.7917830  26.4367420  78.1653740  94.0556200  27.0554820
  77.1691680  92.9518700  26.7705430  81.6768200  94.8385190  25.5240010
  82.1846420  95.3366160  26.1645030  82.2081440  94.0620390  25.3479370
  79.9604300  89.4783750  29.7903430  79.9622740  89.9956140  28.9849330
  79.1308610  89.0013930  29.7673360  89.7241060  92.9324010  25.4353270
  89.0196630  93.2208900  26.0156380  90.0853220  93.7424120  25.0752830
  79.6419630  91.1893710  27.7973880  79.9836440  92.0335760  27.5027750
  78.7035440  91.3377450  27.9139220  83.3247520  88.6775980  24.1218470
  83.6322500  88.1222870  23.4053970  82.3948220  88.8120440  23.9391460
  85.7128280  96.7424810  20.8578590  84.7857560  96.6762190  21.0867060
  85.8653100  97.6804940  20.7433830  85.6997360  93.0141810  17.8545750
  84.7601030  93.1755770  17.9398210  86.0180620  93.7327490  17.3081740
  89.7425570  98.3045110  21.3613840  89.1237990  97.9664660  20.7140140
  89.7250020  97.6604870  22.0693030  89.1852130  94.4829650  28.7779650
  88.7723310  95.3083360  29.0319640  88.4528080  93.8974690  28.5856010
  81.3184920  97.2689550  23.6398320  80.9141920  96.5566800  23.1444220
  81.4048040  96.9242790  24.5286360  80.0313540  94.0432760  27.4197360
  80.5828130  94.1528100  26.6450610  80.5457050  94.4170360  28.1352590
  87.9190270  97.5431920  18.3686590  88.3583550  96.7054350  18.2224410
  88.6318690  98.1761320  18.4550730  79.7056270  97.5652120  31.0302700
  79.5664040  98.4374920  31.3990100  78.8237630  97.2224930  30.8850640
  91.5007410  88.7974730  16.6827630  91.1880070  88.8901560  17.5826700
  92.2619880  89.3755760  16.6325060  78.0189550  96.1634530  21.1404970
  77.8987150  96.8896620  20.5286240  77.7090440  95.3937440  20.6632880
  80.4853210  89.5069600  24.5228640  80.0421360  90.2879140  24.1913160
  81.0438200  89.8299490  25.2299580  84.7723020  92.3738120  30.1263960
  84.3102390  92.5821140  30.9383900  84.3701130  91.5597470  29.8234630
  89.7727530  93.5947070  31.2560620  88.9221120  93.2952820  31.5769690
  89.6129320  93.8389080  30.3444440  86.8677240  95.0948820  33.3559410
  87.1930650  94.2612570  33.0161640  87.6557570  95.6177340  33.5037740
  83.6012030  89.1280300  19.4034470  82.9766210  89.1240170  20.1287780
  83.5142150  88.2611260  19.0070440  82.5229110  90.0516930  26.3818240
  82.8201440  90.9579760  26.3010260  83.0714670  89.5635710  25.7677810
  80.2767430  94.6303170  22.2509890  80.0508350  94.4140340  23.1556510
  79.4959960  95.0631630  21.9055860  87.5065190  94.6366540  20.8500540
  86.9074080  95.3602340  20.6664160  88.0544800  94.5743320  20.0676990
  82.7166640  95.5288750  32.9170160  82.6210240  94.5883480  32.7670560
  83.5598620  95.7503820  32.5218230  86.1130060  93.2730080  22.8803820
  86.5059630  93.5902280  22.0672510  86.4746910  92.3941960  22.9948340
  77.8477180  91.9402420  31.0703940  77.4540570  92.7877630  31.2776720
  77.1595580  91.3028790  31.2612580  84.4222230  92.0237390  34.1400680
  83.7320550  91.8309590  34.7746770  85.1654530  92.3072030  34.6724980
  75.1494230  89.8630880  25.1034020  74.8607280  90.4333740  25.8159000
  75.8939990  89.3835330  25.4665250  75.3364460  93.8051000  16.3136740
  75.2539130  94.7481760  16.4551730  74.9847520  93.6625910  15.4349090
  86.6985200  95.8635830  26.9754600  85.9666320  96.3722640  27.3244700
  86.3009540  95.0465810  26.6743380  83.1362590  92.5390030  25.3807090
  83.1398650  92.0979980  24.5311630  84.0313710  92.8607360  25.4878910
  78.9864970  92.4216520  24.3401300  78.6465020  92.8991750  25.0968350
  78.2242290  91.9681640  23.9802400  83.1982740  93.5402110  18.3713850
  83.3195560  93.4988590  19.3199670  82.8131250  94.4026260  18.2160580
  87.1611110  91.3169510  26.3877540  87.1783850  91.7678160  27.2319390
  86.9126690  90.4175150  26.6010980  82.2104240  95.8503250  17.7697150
  81.6421140  95.4021500  17.1433060  82.9193240  96.2096030  17.2362300
  90.5881860  88.7301690  32.2263920  90.9127630  87.9991350  32.7521900
  90.6238370  88.4115330  31.3244910  83.4370560  96.5991810  27.1272500
  83.8040690  96.1250380  27.8733840  83.2475620  97.4733380  27.4680840
  76.3011050  91.3435500  23.2565970  76.0157970  90.9791170  24.0944590
  76.2389910  90.6115960  22.6429110  81.2269930  95.6400450  29.4456710
  80.9227000  96.5192430  29.6707070  82.1816390  95.7000240  29.4814150
  85.9749640  90.2364760  19.9779340  85.1614250  89.7377930  19.9024650
  85.7811590  91.0763010  19.5615690  88.6898030  94.6084410  18.2741500
  89.5777650  94.9201640  18.0992840  88.6603120  93.7356660  17.8822080
  77.2833660  96.4803190  30.5928070  76.9248600  97.1457040  31.1801410
  76.9888220  95.6486740  30.9640690  80.4846780  96.9387430  33.4767620
  80.1846920  97.0844610  32.5795440  81.2558020  96.3792720  33.3841010
  90.9612300  95.9196250  17.7421360  90.8776020  96.3510470  16.8917800
  91.6806490  96.3794600  18.1748180  75.7941710  96.4794450  17.2162670
  76.6636560  96.7619250  17.4998590  75.3032030  97.2930320  17.1011480
  82.9576520  97.8667660  21.3370950  83.4139300  98.6772910  21.5631140
  82.6064730  97.5490800  22.1689440  78.8588300  88.2105310  21.8093470
  78.7302930  88.2023210  22.7578390  78.0350320  88.5488400  21.4584480
  75.8582230  89.9696430  31.2700170  75.1440750  90.1693350  31.8752780
  76.2777270  89.1936000  31.6414970  87.3521010  92.4618740  29.0201620
  87.7201830  91.6413950  29.3481190  86.4919210  92.5220630  29.4357270
  90.7183040  91.4175680  19.8289180  90.0896200  91.5221350  19.1147410
  90.2234960  91.6372460  20.6183060  82.6867070  93.6961630  21.2447060
  81.9783220  94.1647970  21.6860670  82.9711550  93.0383640  21.8792250
  84.3123000  95.1158330  29.2439590  84.8108250  95.5904150  29.9091440
  84.4545950  94.1921850  29.4509620  86.7182500  90.4212290  22.6842850
  86.5950280  90.4398420  21.7352360  87.6667060  90.4691230  22.8041250
  80.8902090  92.0046710  18.6197770  81.7392620  92.4416860  18.5537960
  80.5233360  92.3166970  19.4469830  91.5189860  91.3326290  30.0867980
  91.0163460  92.0731690  30.4261790  92.3346520  91.7210290  29.7704770
  89.8111870  96.5759470  23.5329340  88.8702010  96.5909700  23.7077030
  90.1255940  95.7895430  23.9789640  79.7893510  98.2579070  17.0933300
  80.5556780  98.1460430  17.6558730  79.8668200  97.5617040  16.4410070
  78.4840270  95.6904140  17.7766190  78.5643860  94.7431650  17.8883590
  79.3760020  96.0211020  17.8826850  76.0111070  97.5119060  33.0122360
  76.5150090  96.9326340  33.5838590  75.2718490  97.7959290  33.5498730
  78.0434150  95.6548650  33.9072430  78.0839490  95.3562520  34.8157660
  78.8979650  96.0556260  33.7479950  81.8212540  98.2544200  19.0675940
  82.2428960  98.0884070  19.9107330  81.9463380  97.4444430  18.5731080
  79.9839960  94.2340750  31.8746920  79.4536420  93.7431700  31.2470260
  80.6528030  94.6624950  31.3404850  84.3340180  97.2781810  16.3153040
  84.8545840  96.5630830  15.9494190  84.9808580  97.9167680  16.6153550
  89.3540190  96.0406370  33.6427260  89.9360960  95.2858690  33.5547740
  89.5301960  96.5713810  32.8658740  80.4712260  91.2003120  31.9544210
  80.3769130  90.5823870  31.2295080  79.8909650  91.9269410  31.7274120
  83.2373700  89.7576360  28.9871600  82.7891000  89.7800620  28.1417150
  82.6038900  89.3595380  29.5841900  85.9797150  96.3846870  30.9921880
  86.0993360  95.7888010  31.7316720  86.8391150  96.4216560  30.5723180
  88.3185050  96.9384060  29.5684390  87.7920270  97.4626680  28.9649530
  88.6616390  97.5711450  30.1994120  80.7171440  94.3277430  16.0134100
  80.5160500  93.4644790  16.3747440  80.5463490  94.2410790  15.0755700
  82.7465920  92.9268220  32.2497700  83.3365610  92.6184070  32.9375520
  81.9286160  92.4547970  32.4057600  87.5659350  92.5434030  32.4830720
  86.8774870  91.8815570  32.4180710  88.2865370  92.0972300  32.9279180
  88.1959750  89.1385660  18.5420980  88.4762040  88.2953560  18.8980400
  87.4225480  89.3708770  19.0559730  79.5154240  91.4278050  16.0011980
  79.8180140  91.4345480  15.0931130  80.2548830  91.0775910  16.4979640
  82.7339170  90.3712670  16.9868180  82.3861170  89.6936660  16.4070630
  82.9351940  89.9102180  17.8011570  76.0744810  96.9000320  23.3832550
  75.4193650  96.6311960  22.7392250  76.9122760  96.7904800  22.9334530
  89.0235250  91.6941610  17.6051040  89.4420130  91.5072590  16.7647700
  88.7171310  90.8420660  17.9153970  77.1120740  97.2852890  27.9235890
  77.4793780  97.1980290  28.8031910  76.5431560  96.5219440  27.8242750
  91.9124600  95.7537270  30.9366360  91.6810690  95.5250020  30.0364310
  92.1729150  96.6736820  30.8911250  76.6636740  94.1961980  31.8294310
  75.7692790  94.1628740  32.1688020  77.2034290  94.3948770  32.5945560
  90.3512670  90.9793700  33.7146060  91.2282850  90.9877100  34.0980060
  90.3633510  90.2424540  33.1038410  75.2882890  94.1099250  19.3257880
  74.3846970  94.3729450  19.1509540  75.7723510  94.3810420  18.5457840
  91.7975940  94.8323240  24.6034080  92.3213420  94.3385890  23.9724250
  92.3835360  94.9673600  25.3481650  91.9765660  94.9163110  28.1253630
  91.0268370  94.8826650  28.2398620  92.1578670  95.8263220  27.8903400
  77.8310100  93.1664790  17.2352260  78.5401800  92.7448010  16.7499540
  77.1150040  93.2340020  16.6035610  77.4784260  89.2204120  16.2754910
  78.2012390  89.7613060  16.5936130  77.7508780  88.9467540  15.3996450
  91.2875910  94.0896590  20.5426490  91.7835030  93.8567460  21.3275370
  91.0891980  93.2508430  20.1264130  77.1676450  88.4710310  26.1777530
  77.8152640  87.9207690  25.7372690  77.5878290  88.7253460  26.9993340
  91.0628790  88.6651670  29.5347170  91.7001010  89.2785810  29.9006360
  91.2103680  88.7012330  28.5896400  76.9208450  88.6265980  28.9202850
  76.5723270  89.0829800  29.6861030  76.5896150  87.7323110  29.0025280
  84.4333270  89.8177860  32.4422270  84.3722160  90.4099690  33.1917680
  85.3733650  89.7103820  32.2972530  87.0707830  89.4747920  32.0814560
  87.6848240  89.7927210  31.4195640  87.6157390  88.9896510  32.7010420
  77.5929090  88.1542180  32.1953620  78.1412080  87.9730230  31.4319730
  77.6584400  87.3636290  32.7309930  87.8115870  88.0380060  28.4083850
  86.9375710  88.3715170  28.2056780  87.7026620  87.5653240  29.2335720
  88.7187850  90.2450930  29.7925570  88.3901210  89.4302690  29.4127300
  89.6670150  90.2020740  29.6691260  85.5590690  88.9549900  27.3476760
  84.7762480  89.4295400  27.6273520  85.2653620  88.0504730  27.2389940
  90.1111760  89.6573000  25.3925850  90.5519850  89.6018100  24.5447450
  89.8419350  90.5731010  25.4636030  76.9031100  89.2597380  19.8690480
  77.6610460  89.3726260  19.2954510  76.4408270  90.0966580  19.8233910
  83.4444910  91.3736650  22.8592790  82.6319420  90.9993540  22.5188670
  83.9486550  90.6181730  23.1613980  87.9469890  88.0379100  24.0975860
  88.5499260  88.6099310  24.5724380  87.2062880  88.6018540  23.8749760
  91.0904490  88.4400660  19.3716140  91.2855120  89.3384110  19.6383570
  90.3034360  88.2087740  19.8649090  79.2756250  89.7861430  18.4092450
  79.8049010  88.9991230  18.2800400  79.9084570  90.4652620  18.6427980
  81.4694090  89.5236570  21.4637840  80.8396830  88.8223880  21.6307970
  80.9299230  90.2840700  21.2471000  81.5949650  88.8020550  33.8990330
  81.3133920  89.3054150  33.1351150  81.9769350  88.0042300  33.5332460
  88.1965110  88.2174130  34.4770800  88.0830560  88.5368740  35.3722320
  89.0134850  88.6186640  34.1808080  87.1023260  96.2366600   4.8405540
  87.0217310  95.3221210   4.5697250  86.6887680  96.7333670   4.1345250
  85.2341300  98.0145620   6.7214810  84.4583400  97.5346060   7.0113380
  85.8854230  97.3351270   6.5470970  79.2507130  98.3265430   7.5990570
  78.4192010  98.0714140   7.9987080  79.8588110  98.3976200   8.3348490
  75.6232090  95.8872970   7.2672660  76.1948200  95.1195170   7.2676300
  75.6233630  96.1861730   6.3579270  76.8656960  91.2957330   9.0541590
  76.6859800  90.3983080   9.3344350  76.4637040  91.8429200   9.7288540
  85.7055460  93.4973190   6.9553900  86.0820280  92.6245070   6.8427570
  85.6074970  93.8331890   6.0644340  79.8360470  91.8698820   2.4171340
  79.9427220  92.7702550   2.7240100  78.9252830  91.8216790   2.1265990
  89.4879580  90.9923630   3.8882240  90.3089200  90.5020200   3.9307720
  89.5213660  91.5821290   4.6414080  77.4843630  93.7917830   7.6623930
  78.1653740  94.0556200   8.2811330  77.1691680  92.9518700   7.9961940
  81.6768200  94.8385190   6.7496520  82.1846420  95.3366160   7.3901540
  82.2081440  94.0620390   6.5735880  79.9604300  89.4783750  11.0159940
  79.9622740  89.9956140  10.2105840  79.1308610  89.0013930  10.9929870
  89.7241060  92.9324010   6.6609780  89.0196630  93.2208900   7.2412890
  90.0853220  93.7424120   6.3009340  79.6419630  91.1893710   9.0230390
  79.9836440  92.0335760   8.7284260  78.7035440  91.3377450   9.1395730
  83.3247520  88.6775980   5.3474980  83.6322500  88.1222870   4.6310480
  82.3948220  88.8120440   5.1647970  85.7128280  96.7424810   2.0835100
  84.7857560  96.6762190   2.3123570  85.8653100  97.6804940   1.9690340
  89.7425570  98.3045110   2.5870350  89.1237990  97.9664660   1.9396650
  89.7250020  97.6604870   3.2949540  89.1852130  94.4829650  10.0036160
  88.7723310  95.3083360  10.2576150  88.4528080  93.8974690   9.8112520
  81.3184920  97.2689550   4.8654830  80.9141920  96.5566800   4.3700730
  81.4048040  96.9242790   5.7542870  80.0313540  94.0432760   8.6453870
  80.5828130  94.1528100   7.8707120  80.5457050  94.4170360   9.3609100
  79.7056270  97.5652120  12.2559210  79.5664040  98.4374920  12.6246610
  78.8237630  97.2224930  12.1107150  78.0189550  96.1634530   2.3661480
  77.8987150  96.8896620   1.7542750  77.7090440  95.3937440   1.8889390
  80.4853210  89.5069600   5.7485150  80.0421360  90.2879140   5.4169670
  81.0438200  89.8299490   6.4556090  84.7723020  92.3738120  11.3520470
  84.3102390  92.5821140  12.1640410  84.3701130  91.5597470  11.0491140
  89.7727530  93.5947070  12.4817130  88.9221120  93.2952820  12.8026200
  89.6129320  93.8389080  11.5700950  86.8677240  95.0948820  14.5815920
  87.1930650  94.2612570  14.2418150  87.6557570  95.6177340  14.7294250
  82.5229110  90.0516930   7.6074750  82.8201440  90.9579760   7.5266770
  83.0714670  89.5635710   6.9934320  80.2767430  94.6303170   3.4766400
  80.0508350  94.4140340   4.3813020  79.4959960  95.0631630   3.1312370
  87.5065190  94.6366540   2.0757050  86.9074080  95.3602340   1.8920670
  88.0544800  94.5743320   1.2933500  82.7166640  95.5288750  14.1426670
  82.6210240  94.5883480  13.9927070  83.5598620  95.7503820  13.7474740
  86.1130060  93.2730080   4.1060330  86.5059630  93.5902280   3.2929020
  86.4746910  92.3941960   4.2204850  77.8477180  91.9402420  12.2960450
  77.4540570  92.7877630  12.5033230  77.1595580  91.3028790  12.4869090
  84.4222230  92.0237390  15.3657190  83.7320550  91.8309590  16.0003280
  85.1654530  92.3072030  15.8981490  75.1494230  89.8630880   6.3290530
  74.8607280  90.4333740   7.0415510  75.8939990  89.3835330   6.6921760
  86.6985200  95.8635830   8.2011110  85.9666320  96.3722640   8.5501210
  86.3009540  95.0465810   7.8999890  83.1362590  92.5390030   6.6063600
  83.1398650  92.0979980   5.7568140  84.0313710  92.8607360   6.7135420
  78.9864970  92.4216520   5.5657810  78.6465020  92.8991750   6.3224860
  78.2242290  91.9681640   5.2058910  87.1611110  91.3169510   7.6134050
  87.1783850  91.7678160   8.4575900  86.9126690  90.4175150   7.8267490
  90.5881860  88.7301690  13.4520430  90.9127630  87.9991350  13.9778410
  90.6238370  88.4115330  12.5501420  83.4370560  96.5991810   8.3529010
  83.8040690  96.1250380   9.0990350  83.2475620  97.4733380   8.6937350
  76.3011050  91.3435500   4.4822480  76.0157970  90.9791170   5.3201100
  76.2389910  90.6115960   3.8685620  81.2269930  95.6400450  10.6713220
  80.9227000  96.5192430  10.8963580  82.1816390  95.7000240  10.7070660
  77.2833660  96.4803190  11.8184580  76.9248600  97.1457040  12.4057920
  76.9888220  95.6486740  12.1897200  80.4846780  96.9387430  14.7024130
  80.1846920  97.0844610  13.8051950  81.2558020  96.3792720  14.6097520
  82.9576520  97.8667660   2.5627460  83.4139300  98.6772910   2.7887650
  82.6064730  97.5490800   3.3945950  78.8588300  88.2105310   3.0349980
  78.7302930  88.2023210   3.9834900  78.0350320  88.5488400   2.6840990
  75.8582230  89.9696430  12.4956680  75.1440750  90.1693350  13.1009290
  76.2777270  89.1936000  12.8671480  87.3521010  92.4618740  10.2458130
  87.7201830  91.6413950  10.5737700  86.4919210  92.5220630  10.6613780
  82.6867070  93.6961630   2.4703570  81.9783220  94.1647970   2.9117180
  82.9711550  93.0383640   3.1048760  84.3123000  95.1158330  10.4696100
  84.8108250  95.5904150  11.1347950  84.4545950  94.1921850  10.6766130
  86.7182500  90.4212290   3.9099360  86.5950280  90.4398420   2.9608870
  87.6667060  90.4691230   4.0297760  91.5189860  91.3326290  11.3124490
  91.0163460  92.0731690  11.6518300  92.3346520  91.7210290  10.9961280
  89.8111870  96.5759470   4.7585850  88.8702010  96.5909700   4.9333540
  90.1255940  95.7895430   5.2046150  76.0111070  97.5119060  14.2378870
  76.5150090  96.9326340  14.8095100  75.2718490  97.7959290  14.7755240
  78.0434150  95.6548650  15.1328940  78.0839490  95.3562520  16.0414170
  78.8979650  96.0556260  14.9736460  79.9839960  94.2340750  13.1003430
  79.4536420  93.7431700  12.4726770  80.6528030  94.6624950  12.5661360
  89.3540190  96.0406370  14.8683770  89.9360960  95.2858690  14.7804250
  89.5301960  96.5713810  14.0915250  80.4712260  91.2003120  13.1800720
  80.3769130  90.5823870  12.4551590  79.8909650  91.9269410  12.9530630
  83.2373700  89.7576360  10.2128110  82.7891000  89.7800620   9.3673660
  82.6038900  89.3595380  10.8098410  85.9797150  96.3846870  12.2178390
  86.0993360  95.7888010  12.9573230  86.8391150  96.4216560  11.7979690
  88.3185050  96.9384060  10.7940900  87.7920270  97.4626680  10.1906040
  88.6616390  97.5711450  11.4250630  82.7465920  92.9268220  13.4754210
  83.3365610  92.6184070  14.1632030  81.9286160  92.4547970  13.6314110
  87.5659350  92.5434030  13.7087230  86.8774870  91.8815570  13.6437220
  88.2865370  92.0972300  14.1535690  76.0744810  96.9000320   4.6089060
  75.4193650  96.6311960   3.9648760  76.9122760  96.7904800   4.1591040
  77.1120740  97.2852890   9.1492400  77.4793780  97.1980290  10.0288420
  76.5431560  96.5219440   9.0499260  91.9124600  95.7537270  12.1622870
  91.6810690  95.5250020  11.2620820  92.1729150  96.6736820  12.1167760
  76.6636740  94.1961980  13.0550820  75.7692790  94.1628740  13.3944530
  77.2034290  94.3948770  13.8202070  90.3512670  90.9793700  14.9402570
  91.2282850  90.9877100  15.3236570  90.3633510  90.2424540  14.3294920
  91.7975940  94.8323240   5.8290590  92.3213420  94.3385890   5.1980760
  92.3835360  94.9673600   6.5738160  91.9765660  94.9163110   9.3510140
  91.0268370  94.8826650   9.4655130  92.1578670  95.8263220   9.1159910
  91.2875910  94.0896590   1.7683000  91.7835030  93.8567460   2.5531880
  91.0891980  93.2508430   1.3520640  77.1676450  88.4710310   7.4034040
  77.8152640  87.9207690   6.9629200  77.5878290  88.7253460   8.2249850
  91.0628790  88.6651670  10.7603680  91.7001010  89.2785810  11.1262870
  91.2103680  88.7012330   9.8152910  76.9208450  88.6265980  10.1459360
  76.5723270  89.0829800  10.9117540  76.5896150  87.7323110  10.2281790
  84.4333270  89.8177860  13.6678780  84.3722160  90.4099690  14.4174190
  85.3733650  89.7103820  13.5229040  87.0707830  89.4747920  13.3071070
  87.6848240  89.7927210  12.6452150  87.6157390  88.9896510  13.9266930
  77.5929090  88.1542180  13.4210130  78.1412080  87.9730230  12.6576240
  77.6584400  87.3636290  13.9566440  87.8115870  88.0380060   9.6340360
  86.9375710  88.3715170   9.4313290  87.7026620  87.5653240  10.4592230
  88.7187850  90.2450930  11.0182080  88.3901210  89.4302690  10.6383810
  89.6670150  90.2020740  10.8947770  85.5590690  88.9549900   8.5733270
  84.7762480  89.4295400   8.8530030  85.2653620  88.0504730   8.4646450
  90.1111760  89.6573000   6.6182360  90.5519850  89.6018100   5.7703960
  89.8419350  90.5731010   6.6892540  83.4444910  91.3736650   4.0849300
  82.6319420  90.9993540   3.7445180  83.9486550  90.6181730   4.3870490
  87.9469890  88.0379100   5.3232370  88.5499260  88.6099310   5.7980890
  87.2062880  88.6018540   5.1006270  81.4694090  89.5236570   2.6894350
  80.8396830  88.8223880   2.8564480  80.9299230  90.2840700   2.4727510
  81.5949650  88.8020550  15.1246840  81.3133920  89.3054150  14.3607660
  81.9769350  88.0042300  14.7588970  88.1965110  88.2174130  15.7027310
  88.0830560  88.5368740  16.5978830  89.0134850  88.6186640  15.4064590
  87.1023260  77.4623110  79.9379500  87.0217310  76.5477720  79.6671210
  86.6887680  77.9590180  79.2319210  85.2341300  79.2402130  81.8188770
  84.4583400  78.7602570  82.1087340  85.8854230  78.5607780  81.6444930
  79.2507130  79.5521940  82.6964530  78.4192010  79.2970650  83.0961040
  79.8588110  79.6232710  83.4322450  89.2548730  83.6462320  80.5987900
  88.7930260  82.8749560  80.9275070  90.0674280  83.6728390  81.1040350
  79.2308390  83.5862030  82.8922550  79.5336430  82.6959770  82.7132770
  79.9751980  84.1432250  82.6644800  77.6599080  74.5123830  76.4806920
  76.7715780  74.8539800  76.3786800  77.9440270  74.3124150  75.5887750
  75.6232090  77.1129480  82.3646620  76.1948200  76.3451680  82.3650260
  75.6233630  77.4118240  81.4553230  85.4812040  85.9320330  80.2191890
  84.8623480  86.3877830  79.6486330  86.3363820  86.0871790  79.8181590
  84.6750290  81.9159320  81.8258930  84.6058570  80.9749260  81.6648060
  85.4370150  82.0060730  82.3981500  76.8656960  72.5213840  84.1515550
  76.6859800  71.6239590  84.4318310  76.4637040  73.0685710  84.8262500
  85.7055460  74.7229700  82.0527860  86.0820280  73.8501580  81.9401530
  85.6074970  75.0588400  81.1618300  79.8360470  73.0955330  77.5145300
  79.9427220  73.9959060  77.8214060  78.9252830  73.0473300  77.2239950
  89.4879580  72.2180140  78.9856200  90.3089200  71.7276710  79.0281680
  89.5213660  72.8077800  79.7388040  77.4843630  75.0174340  82.7597890
  78.1653740  75.2812710  83.3785290  77.1691680  74.1775210  83.0935900
  81.6768200  76.0641700  81.8470480  82.1846420  76.5622670  82.4875500
  82.2081440  75.2876900  81.6709840  79.9604300  70.7040260  86.1133900
  79.9622740  71.2212650  85.3079800  79.1308610  70.2270440  86.0903830
  86.3475390  80.8159570  77.6123800  85.7292660  81.2809020  77.0486520
  86.8598640  81.5087050  78.0293310  81.2107150  80.3435440  84.2907400
  80.8776530  80.9704360  84.9328470  81.3873830  80.8697320  83.5109070
  89.7241060  74.1580520  81.7583740  89.0196630  74.4465410  82.3386850
  90.0853220  74.9680630  81.3983300  79.6419630  72.4150220  84.1204350
  79.9836440  73.2592270  83.8258220  78.7035440  72.5633960  84.2369690
  80.4226250  82.3116240  86.1056580  81.0400250  82.9867320  85.8241030
  79.5619370  82.7204220  86.0144080  75.7158590  81.5016100  74.9863430
  75.3386570  81.9903200  74.2548330  75.9731660  82.1741380  75.6169960
  91.3403840  83.7755650  84.0211220  90.6567360  84.4454760  84.0127890
  91.8798130  83.9736300  83.2556080  83.3247520  69.9032490  80.4448940
  83.6322500  69.3479380  79.7284440  82.3948220  70.0376950  80.2621930
  88.8762580  85.6199780  82.7356400  88.8889740  85.2162070  81.8678660
  88.3237800  86.3947070  82.6317830  90.1708000  82.3416000  77.8246570
  90.0604330  81.3990330  77.9495990  90.1676250  82.7031640  78.7109330
  88.2748020  80.5229620  84.0639010  88.6916810  80.3089730  83.2292470
  88.9987840  80.7802410  84.6347630  85.7128280  77.9681320  77.1809060
  84.7857560  77.9018700  77.4097530  85.8653100  78.9061450  77.0664300
  85.6997360  74.2398320  74.1776220  84.7601030  74.4012280  74.2628680
  86.0180620  74.9584000  73.6312210  89.7425570  79.5301620  77.6844310
  89.1237990  79.1921170  77.0370610  89.7250020  78.8861380  78.3923500
  89.1852130  75.7086160  85.1010120  88.7723310  76.5339870  85.3550110
  88.4528080  75.1231200  84.9086480  81.3184920  78.4946060  79.9628790
  80.9141920  77.7823310  79.4674690  81.4048040  78.1499300  80.8516830
  81.7866620  82.1813620  82.1268000  81.4894910  81.5759090  81.4475780
  82.7366440  82.2190930  82.0157360  80.0313540  75.2689270  83.7427830
  80.5828130  75.3784610  82.9681080  80.5457050  75.6426870  84.4583060
  89.8752230  85.7545490  85.7891100  89.3982790  86.5617680  85.5963710
  89.1914020  85.1023820  85.9417310  87.9190270  78.7688430  74.6917060
  88.3583550  77.9310860  74.5454880  88.6318690  79.4017830  74.7781200
  86.0285650  83.7084500  78.6598300  86.4681560  84.4508830  78.2453690
  85.9672540  83.9511070  79.5837260  91.5007410  70.0231240  73.0058100
  91.1880070  70.1158070  73.9057170  92.2619880  70.6012270  72.9555530
  78.0189550  77.3891040  77.4635440  77.8987150  78.1153130  76.8516710
  77.7090440  76.6193950  76.9863350  75.6574920  80.5606180  83.2704080
  75.7355340  80.6954950  82.3259800  76.2716600  79.8522070  83.4632200
  76.9022550  82.2606370  79.6810260  76.4950630  82.4020960  78.8263860
  77.7935560  81.9766530  79.4781470  88.6955830  86.6953620  76.0161310
  88.5356970  86.4056560  76.9143140  88.5302540  85.9193750  75.4806540
  81.1744210  86.4752150  77.7932930  80.9986690  85.5587690  77.5800730
  80.3199950  86.8339440  78.0330730  88.3981960  84.2041180  74.5759310
  87.7047120  84.2018470  73.9161590  89.1404820  83.7800500  74.1453480
  87.9631890  85.8303890  78.6507800  88.4188840  85.0493270  78.9646420
  88.3024410  86.5410710  79.1948980  75.7134440  81.6020350  85.8098540
  75.8765480  81.1325710  84.9917910  76.1786890  81.0943910  86.4747380
  80.4853210  70.7326110  80.8459110  80.0421360  71.5135650  80.5143630
  81.0438200  71.0556000  81.5530050  83.6012030  70.3536810  75.7264940
  82.9766210  70.3496680  76.4518250  83.5142150  69.4867770  75.3300910
  82.5229110  71.2773440  82.7048710  82.8201440  72.1836270  82.6240730
  83.0714670  70.7892220  82.0908280  80.2767430  75.8559680  78.5740360
  80.0508350  75.6396850  79.4786980  79.4959960  76.2888140  78.2286330
  87.5065190  75.8623050  77.1731010  86.9074080  76.5858850  76.9894630
  88.0544800  75.7999830  76.3907460  86.1130060  74.4986590  79.2034290
  86.5059630  74.8158790  78.3902980  86.4746910  73.6198470  79.3178810
  75.1494230  71.0887390  81.4264490  74.8607280  71.6590250  82.1389470
  75.8939990  70.6091840  81.7895720  75.3364460  75.0307510  72.6367210
  75.2539130  75.9738270  72.7782200  74.9847520  74.8882420  71.7579560
  86.6985200  77.0892340  83.2985070  85.9666320  77.5979150  83.6475170
  86.3009540  76.2722320  82.9973850  83.1362590  73.7646540  81.7037560
  83.1398650  73.3236490  80.8542100  84.0313710  74.0863870  81.8109380
  78.9864970  73.6473030  80.6631770  78.6465020  74.1248260  81.4198820
  78.2242290  73.1938150  80.3032870  83.1982740  74.7658620  74.6944320
  83.3195560  74.7245100  75.6430140  82.8131250  75.6282770  74.5391050
  87.1611110  72.5426020  82.7108010  87.1783850  72.9934670  83.5549860
  86.9126690  71.6431660  82.9241450  82.2104240  77.0759760  74.0927620
  81.6421140  76.6278010  73.4663530  82.9193240  77.4352540  73.5592770
  83.4370560  77.8248320  83.4502970  83.8040690  77.3506890  84.1964310
  83.2475620  78.6989890  83.7911310  76.3011050  72.5692010  79.5796440
  76.0157970  72.2047680  80.4175060  76.2389910  71.8372470  78.9659580
  81.2269930  76.8656960  85.7687180  80.9227000  77.7448940  85.9937540
  82.1816390  76.9256750  85.8044620  79.7551720  81.0717950  76.3654030
  78.9813980  80.5315570  76.2052750  80.4846350  80.5524560  76.0271790
  90.5139700  80.0683310  82.1580420  91.2338820  80.5638600  81.7676530
  90.3121520  79.3901200  81.5134290  85.9749640  71.4621270  76.3009810
  85.1614250  70.9634440  76.2255120  85.7811590  72.3019520  75.8846160
  88.6898030  75.8340920  74.5971970  89.5777650  76.1458150  74.4223310
  88.6603120  74.9613170  74.2052550  79.7989120  80.7398330  80.0032840
  80.3167790  79.9366590  79.9489730  79.3473140  80.6777470  80.8449670
  84.6858620  82.0064610  75.2760140  85.0274320  82.7506840  74.7803460
  83.8571330  82.3195730  75.6384970  90.9612300  77.1452760  74.0651830
  90.8776020  77.5766980  73.2148270  91.6806490  77.6051110  74.4978650
  91.9899550  83.9995020  76.7933960  91.3475710  83.3450640  77.0677680
  91.6030210  84.4050110  76.0174630  87.5686030  81.3280450  80.6405650
  87.9209850  80.7308580  79.9807020  86.6848360  81.0024680  80.8113900
  83.6549310  82.0878140  78.0476060  84.3420440  82.6347350  78.4283650
  82.8681730  82.6318870  78.0825670  75.7941710  77.7050960  73.5393140
  76.6636560  77.9875760  73.8229060  75.3032030  78.5186830  73.4241950
  82.9576520  79.0924170  77.6601420  83.4139300  79.9029420  77.8861610
  82.6064730  78.7747310  78.4919910  85.2609130  84.6030510  84.8893720
  85.9051350  84.8089890  85.5667140  85.6238570  83.8418910  84.4364570
  78.8588300  69.4361820  78.1323940  78.7302930  69.4279720  79.0808860
  78.0350320  69.7744910  77.7814950  86.5341210  82.6062860  83.6071170
  87.1763440  81.9056020  83.7203340  87.0590560  83.3861300  83.4268060
  90.3796930  82.8911480  73.3310310  90.1534510  82.1741920  73.9234950
  89.9893130  82.6423920  72.4932060  76.1612960  86.9178340  74.1054770
  76.5210600  87.5167680  73.4512040  76.0205300  87.4638230  74.8789800
  89.9613180  80.8083420  74.9924470  89.6734880  81.2696110  75.7802350
  90.7565350  80.3481190  75.2608690  82.1781580  84.3009540  74.9228440
  82.1691680  85.0339230  74.3072950  81.2579940  84.0541120  75.0155400
  77.7788220  79.5224430  75.6675200  77.1716170  80.2623330  75.6770500
  78.2537570  79.6123790  74.8413400  87.3521010  73.6875250  85.3432090
  87.7201830  72.8670460  85.6711660  86.4919210  73.7477140  85.7587740
  90.7183040  72.6432190  76.1519650  90.0896200  72.7477860  75.4377880
  90.2234960  72.8628970  76.9413530  85.1641180  84.3637780  73.5853630
  85.2653160  84.1601770  72.6555610  84.2642920  84.1096060  73.7901410
  82.6867070  74.9218140  77.5677530  81.9783220  75.3904480  78.0091140
  82.9711550  74.2640150  78.2022720  84.3123000  76.3414840  85.5670060
  84.8108250  76.8160660  86.2321910  84.4545950  75.4178360  85.7740090
  86.7182500  71.6468800  79.0073320  86.5950280  71.6654930  78.0582830
  87.6667060  71.6947740  79.1271720  83.8059290  86.8824100  78.2801300
  84.0600790  86.8445490  77.3580670  82.8571770  86.7557430  78.2729550
  80.8902090  73.2303220  74.9428240  81.7392620  73.6673370  74.8768430
  80.5233360  73.5423480  75.7700300  91.5189860  72.5582800  86.4098450
  91.0163460  73.2988200  86.7492260  92.3346520  72.9466800  86.0935240
  89.8111870  77.8015980  79.8559810  88.8702010  77.8166210  80.0307500
  90.1255940  77.0151940  80.3020110  79.7893510  79.4835580  73.4163770
  80.5556780  79.3716940  73.9789200  79.8668200  78.7873550  72.7640540
  78.4840270  76.9160650  74.0996660  78.5643860  75.9688160  74.2114060
  79.3760020  77.2467530  74.2057320  79.2854980  87.0656040  81.2031200
  80.0217460  86.5171500  81.4739770  79.6695900  87.9312050  81.0637190
  76.1700460  83.1329610  77.0772710  75.2440240  83.3750750  77.0678120
  76.6356890  83.9603870  76.9557460  82.3957290  86.2386350  73.0256770
  83.1885900  86.5275180  72.5738560  81.8761640  85.8078520  72.3469250
  91.4487460  85.4656480  74.4493510  91.1628970  85.0521620  73.6347690
  91.2507010  86.3944190  74.3294030  82.9134690  81.4589760  72.8899120
  82.8085330  80.8442110  73.6160500  82.7458910  80.9355650  72.1062130
  86.1537420  80.5209790  73.4941110  85.6047520  80.9679090  74.1383850
  86.7756680  80.0159040  74.0178780  81.8212540  79.4800710  75.3906410
  82.2428960  79.3140580  76.2337800  81.9463380  78.6700940  74.8961550
  84.3340180  78.5038320  72.6383510  84.8545840  77.7887340  72.2724660
  84.9808580  79.1424190  72.9384020  83.2373700  70.9832870  85.3102070
  82.7891000  71.0057130  84.4647620  82.6038900  70.5851890  85.9072370
  83.6433250  79.8787200  85.9314510  84.0621360  80.7219930  85.7590750
  82.7241880  80.0159240  85.7021290  88.3185050  78.1640570  85.8914860
  87.7920270  78.6883190  85.2880000  88.6616390  78.7967960  86.5224590
  80.7171440  75.5533940  72.3364570  80.5160500  74.6901300  72.6977910
  80.5463490  75.4667300  71.3986170  88.1959750  70.3642170  74.8651450
  88.4762040  69.5210070  75.2210870  87.4225480  70.5965280  75.3790200
  79.5154240  72.6534560  72.3242450  79.8180140  72.6601990  71.4161600
  80.2548830  72.3032420  72.8210110  82.7339170  71.5969180  73.3098650
  82.3861170  70.9193170  72.7301100  82.9351940  71.1358690  74.1242040
  84.8988210  86.5849930  74.9285250  85.7939000  86.9234900  74.9504010
  84.9305840  85.8629340  74.3009530  78.5384370  81.9576980  73.1572250
  78.9759240  82.5006650  73.8129830  79.0232100  81.1323930  73.1668590
  75.7530170  84.7466010  80.6092510  76.0833180  83.8787070  80.3771150
  76.1821170  84.9524530  81.4397470  80.3492090  83.0775020  78.2694480
  80.0487630  82.9539990  79.1698390  80.2429580  82.2183610  77.8610210
  76.2420380  85.6136600  83.3474140  75.8051370  85.7937400  84.1798290
  76.8098060  86.3711220  83.2055860  76.0744810  78.1256830  79.7063020
  75.4193650  77.8568470  79.0622720  76.9122760  78.0161310  79.2565000
  90.5634200  81.8405580  85.7327610  89.7494040  82.2702740  85.9953400
  90.9708400  82.4523990  85.1196660  89.0235250  72.9198120  73.9281510
  89.4420130  72.7329100  73.0878170  88.7171310  72.0677170  74.2384440
  77.1120740  78.5109400  84.2466360  77.4793780  78.4236800  85.1262380
  76.5431560  77.7475950  84.1473220  75.2882890  75.3355760  75.6488350
  74.3846970  75.5985960  75.4740010  75.7723510  75.6066930  74.8688310
  91.7975940  76.0579750  80.9264550  92.3213420  75.5642400  80.2954720
  92.3835360  76.1930110  81.6712120  91.9765660  76.1419620  84.4484100
  91.0268370  76.1083160  84.5629090  92.1578670  77.0519730  84.2133870
  77.8310100  74.3921300  73.5582730  78.5401800  73.9704520  73.0730010
  77.1150040  74.4596530  72.9266080  77.4784260  70.4460630  72.5985380
  78.2012390  70.9869570  72.9166600  77.7508780  70.1724050  71.7226920
  91.2875910  75.3153100  76.8656960  91.7835030  75.0823970  77.6505840
  91.0891980  74.4764940  76.4494600  77.1676450  69.6966820  82.5008000
  77.8152640  69.1464200  82.0603160  77.5878290  69.9509970  83.3223810
  91.0628790  69.8908180  85.8577640  91.7001010  70.5042320  86.2236830
  91.2103680  69.9268840  84.9126870  90.6210250  86.5924180  79.2595880
  91.2169320  86.2708750  78.5830300  90.8788400  86.1196000  80.0509150
  76.9208450  69.8522490  85.2433320  76.5723270  70.3086310  86.0091500
  76.5896150  68.9579620  85.3255750  82.2278850  84.5801680  85.0096230
  81.9870210  84.8476240  84.1226750  83.1681490  84.7507410  85.0647090
  87.8115870  69.2636570  84.7314320  86.9375710  69.5971680  84.5287250
  87.7026620  68.7909750  85.5566190  88.7187850  71.4707440  86.1156040
  88.3901210  70.6559200  85.7357770  89.6670150  71.4277250  85.9921730
  91.1722460  87.2419480  83.0893610  90.7125430  87.9935290  82.7151630
  90.5434920  86.5225950  83.0308410  77.9973080  83.3362720  85.4792330
  77.2707140  82.7168010  85.4118280  78.0582230  83.7303330  84.6090410
  81.6018180  85.5507720  82.2641740  82.1183200  84.9395080  81.7390000
  82.2515560  86.0536500  82.7552750  84.3413680  86.4416210  83.0910720
  84.6291490  86.1870510  82.2143730  84.8536900  85.8893570  83.6816290
  85.5590690  70.1806410  83.6707230  84.7762480  70.6551910  83.9503990
  85.2653620  69.2761240  83.5620410  90.1111760  70.8829510  81.7156320
  90.5519850  70.8274610  80.8677920  89.8419350  71.7987520  81.7866500
  76.2803080  86.6537110  78.6889090  76.1125120  86.0207790  79.3870980
  75.4137590  86.8596510  78.3383280  76.9031100  70.4853890  76.1920950
  77.6610460  70.5982770  75.6184980  76.4408270  71.3223090  76.1464380
  83.4444910  72.5993160  79.1823260  82.6319420  72.2250050  78.8419140
  83.9486550  71.8438240  79.4844450  87.9469890  69.2635610  80.4206330
  88.5499260  69.8355820  80.8954850  87.2062880  69.8275050  80.1980230
  91.0904490  69.6657170  75.6946610  91.2855120  70.5640620  75.9614040
  90.3034360  69.4344250  76.1879560  77.8865780  85.3470340  76.1339230
  77.3613400  85.7278370  75.4301190  77.8110360  85.9721110  76.8548940
  79.2756250  71.0117940  74.7322920  79.8049010  70.2247740  74.6030870
  79.9084570  71.6909130  74.9658450  81.4694090  70.7493080  77.7868310
  80.8396830  70.0480390  77.9538440  80.9299230  71.5097210  77.5701470
  80.4858750  87.2952720  75.0088480  81.2177570  87.0112000  74.4612370
  80.7452420  87.0566000  75.8987860  79.6473540  83.4117450  75.0134810
  79.0182420  83.8802550  75.5620640  79.7621370  82.5666670  75.4481000
  87.1023260  77.4623110  61.1636010  87.0217310  76.5477720  60.8927720
  86.6887680  77.9590180  60.4575720  85.2341300  79.2402130  63.0445280
  84.4583400  78.7602570  63.3343850  85.8854230  78.5607780  62.8701440
  79.2507130  79.5521940  63.9221040  78.4192010  79.2970650  64.3217550
  79.8588110  79.6232710  64.6578960  89.2548730  83.6462320  61.8244410
  88.7930260  82.8749560  62.1531580  90.0674280  83.6728390  62.3296860
  79.2308390  83.5862030  64.1179060  79.5336430  82.6959770  63.9389280
  79.9751980  84.1432250  63.8901310  77.6599080  74.5123830  57.7063430
  76.7715780  74.8539800  57.6043310  77.9440270  74.3124150  56.8144260
  75.6232090  77.1129480  63.5903130  76.1948200  76.3451680  63.5906770
  75.6233630  77.4118240  62.6809740  85.4812040  85.9320330  61.4448400
  84.8623480  86.3877830  60.8742840  86.3363820  86.0871790  61.0438100
  84.6750290  81.9159320  63.0515440  84.6058570  80.9749260  62.8904570
  85.4370150  82.0060730  63.6238010  76.8656960  72.5213840  65.3772060
  76.6859800  71.6239590  65.6574820  76.4637040  73.0685710  66.0519010
  85.7055460  74.7229700  63.2784370  86.0820280  73.8501580  63.1658040
  85.6074970  75.0588400  62.3874810  79.8360470  73.0955330  58.7401810
  79.9427220  73.9959060  59.0470570  78.9252830  73.0473300  58.4496460
  89.4879580  72.2180140  60.2112710  90.3089200  71.7276710  60.2538190
  89.5213660  72.8077800  60.9644550  77.4843630  75.0174340  63.9854400
  78.1653740  75.2812710  64.6041800  77.1691680  74.1775210  64.3192410
  81.6768200  76.0641700  63.0726990  82.1846420  76.5622670  63.7132010
  82.2081440  75.2876900  62.8966350  79.9604300  70.7040260  67.3390410
  79.9622740  71.2212650  66.5336310  79.1308610  70.2270440  67.3160340
  86.3475390  80.8159570  58.8380310  85.7292660  81.2809020  58.2743030
  86.8598640  81.5087050  59.2549820  81.2107150  80.3435440  65.5163910
  80.8776530  80.9704360  66.1584980  81.3873830  80.8697320  64.7365580
  89.7241060  74.1580520  62.9840250  89.0196630  74.4465410  63.5643360
  90.0853220  74.9680630  62.6239810  79.6419630  72.4150220  65.3460860
  79.9836440  73.2592270  65.0514730  78.7035440  72.5633960  65.4626200
  80.4226250  82.3116240  67.3313090  81.0400250  82.9867320  67.0497540
  79.5619370  82.7204220  67.2400590  75.7158590  81.5016100  56.2119940
  75.3386570  81.9903200  55.4804840  75.9731660  82.1741380  56.8426470
  91.3403840  83.7755650  65.2467730  90.6567360  84.4454760  65.2384400
  91.8798130  83.9736300  64.4812590  83.3247520  69.9032490  61.6705450
  83.6322500  69.3479380  60.9540950  82.3948220  70.0376950  61.4878440
  88.8762580  85.6199780  63.9612910  88.8889740  85.2162070  63.0935170
  88.3237800  86.3947070  63.8574340  90.1708000  82.3416000  59.0503080
  90.0604330  81.3990330  59.1752500  90.1676250  82.7031640  59.9365840
  88.2748020  80.5229620  65.2895520  88.6916810  80.3089730  64.4548980
  88.9987840  80.7802410  65.8604140  85.7128280  77.9681320  58.4065570
  84.7857560  77.9018700  58.6354040  85.8653100  78.9061450  58.2920810
  85.6997360  74.2398320  55.4032730  84.7601030  74.4012280  55.4885190
  86.0180620  74.9584000  54.8568720  89.7425570  79.5301620  58.9100820
  89.1237990  79.1921170  58.2627120  89.7250020  78.8861380  59.6180010
  89.1852130  75.7086160  66.3266630  88.7723310  76.5339870  66.5806620
  88.4528080  75.1231200  66.1342990  81.3184920  78.4946060  61.1885300
  80.9141920  77.7823310  60.6931200  81.4048040  78.1499300  62.0773340
  81.7866620  82.1813620  63.3524510  81.4894910  81.5759090  62.6732290
  82.7366440  82.2190930  63.2413870  80.0313540  75.2689270  64.9684340
  80.5828130  75.3784610  64.1937590  80.5457050  75.6426870  65.6839570
  89.8752230  85.7545490  67.0147610  89.3982790  86.5617680  66.8220220
  89.1914020  85.1023820  67.1673820  80.8785050  81.9195310  70.0032310
  79.9813580  82.1435280  70.2505710  80.9037920  82.0430250  69.0543710
  87.9190270  78.7688430  55.9173570  88.3583550  77.9310860  55.7711390
  88.6318690  79.4017830  56.0037710  79.7056270  78.7908630  68.5789680
  79.5664040  79.6631430  68.9477080  78.8237630  78.4481440  68.4337620
  86.0285650  83.7084500  59.8854810  86.4681560  84.4508830  59.4710200
  85.9672540  83.9511070  60.8093770  81.5036620  84.7330330  70.7874830
  81.4752050  85.1373280  69.9203260  81.3401590  83.8040690  70.6246430
  91.5007410  70.0231240  54.2314610  91.1880070  70.1158070  55.1313680
  92.2619880  70.6012270  54.1812040  78.0189550  77.3891040  58.6891950
  77.8987150  78.1153130  58.0773220  77.7090440  76.6193950  58.2119860
  75.6574920  80.5606180  64.4960590  75.7355340  80.6954950  63.5516310
  76.2716600  79.8522070  64.6888710  76.9022550  82.2606370  60.9066770
  76.4950630  82.4020960  60.0520370  77.7935560  81.9766530  60.7037980
  86.7201430  86.4098280  67.8133820  87.2346100  86.3206290  68.6156250
  85.8770510  86.7557980  68.1061730  88.6955830  86.6953620  57.2417820
  88.5356970  86.4056560  58.1399650  88.5302540  85.9193750  56.7063050
  81.1744210  86.4752150  59.0189440  80.9986690  85.5587690  58.8057240
  80.3199950  86.8339440  59.2587240  88.3981960  84.2041180  55.8015820
  87.7047120  84.2018470  55.1418100  89.1404820  83.7800500  55.3709990
  87.9631890  85.8303890  59.8764310  88.4188840  85.0493270  60.1902930
  88.3024410  86.5410710  60.4205490  75.7134440  81.6020350  67.0355050
  75.8765480  81.1325710  66.2174420  76.1786890  81.0943910  67.7003890
  80.4853210  70.7326110  62.0715620  80.0421360  71.5135650  61.7400140
  81.0438200  71.0556000  62.7786560  84.7723020  73.5994630  67.6750940
  84.3102390  73.8077650  68.4870880  84.3701130  72.7853980  67.3721610
  89.7727530  74.8203580  68.8047600  88.9221120  74.5209330  69.1256670
  89.6129320  75.0645590  67.8931420  86.8677240  76.3205330  70.9046390
  87.1930650  75.4869080  70.5648620  87.6557570  76.8433850  71.0524720
  83.6012030  70.3536810  56.9521450  82.9766210  70.3496680  57.6774760
  83.5142150  69.4867770  56.5557420  82.5229110  71.2773440  63.9305220
  82.8201440  72.1836270  63.8497240  83.0714670  70.7892220  63.3164790
  80.2767430  75.8559680  59.7996870  80.0508350  75.6396850  60.7043490
  79.4959960  76.2888140  59.4542840  87.5065190  75.8623050  58.3987520
  86.9074080  76.5858850  58.2151140  88.0544800  75.7999830  57.6163970
  82.7166640  76.7545260  70.4657140  82.6210240  75.8139990  70.3157540
  83.5598620  76.9760330  70.0705210  86.1130060  74.4986590  60.4290800
  86.5059630  74.8158790  59.6159490  86.4746910  73.6198470  60.5435320
  77.8477180  73.1658930  68.6190920  77.4540570  74.0134140  68.8263700
  77.1595580  72.5285300  68.8099560  84.4222230  73.2493900  71.6887660
  83.7320550  73.0566100  72.3233750  85.1654530  73.5328540  72.2211960
  75.1494230  71.0887390  62.6521000  74.8607280  71.6590250  63.3645980
  75.8939990  70.6091840  63.0152230  75.3364460  75.0307510  53.8623720
  75.2539130  75.9738270  54.0038710  74.9847520  74.8882420  52.9836070
  86.6985200  77.0892340  64.5241580  85.9666320  77.5979150  64.8731680
  86.3009540  76.2722320  64.2230360  83.1362590  73.7646540  62.9294070
  83.1398650  73.3236490  62.0798610  84.0313710  74.0863870  63.0365890
  78.9864970  73.6473030  61.8888280  78.6465020  74.1248260  62.6455330
  78.2242290  73.1938150  61.5289380  83.1982740  74.7658620  55.9200830
  83.3195560  74.7245100  56.8686650  82.8131250  75.6282770  55.7647560
  87.1611110  72.5426020  63.9364520  87.1783850  72.9934670  64.7806370
  86.9126690  71.6431660  64.1497960  82.2104240  77.0759760  55.3184130
  81.6421140  76.6278010  54.6920040  82.9193240  77.4352540  54.7849280
  90.5881860  69.9558200  69.7750900  90.9127630  69.2247860  70.3008880
  90.6238370  69.6371840  68.8731890  77.2873420  80.9771780  69.1950860
  76.9028210  80.3365450  69.7933820  77.5985610  81.6807900  69.7645590
  83.4370560  77.8248320  64.6759480  83.8040690  77.3506890  65.4220820
  83.2475620  78.6989890  65.0167820  76.3011050  72.5692010  60.8052950
  76.0157970  72.2047680  61.6431570  76.2389910  71.8372470  60.1916090
  81.2269930  76.8656960  66.9943690  80.9227000  77.7448940  67.2194050
  82.1816390  76.9256750  67.0301130  79.7551720  81.0717950  57.5910540
  78.9813980  80.5315570  57.4309260  80.4846350  80.5524560  57.2528300
  90.5139700  80.0683310  63.3836930  91.2338820  80.5638600  62.9933040
  90.3121520  79.3901200  62.7390800  85.9749640  71.4621270  57.5266320
  85.1614250  70.9634440  57.4511630  85.7811590  72.3019520  57.1102670
  85.8958500  80.1392370  69.2705930  85.8295810  79.2188040  69.0163520
  85.2663640  80.2367810  69.9850570  88.6898030  75.8340920  55.8228480
  89.5777650  76.1458150  55.6479820  88.6603120  74.9613170  55.4309060
  79.7989120  80.7398330  61.2289350  80.3167790  79.9366590  61.1746240
  79.3473140  80.6777470  62.0706180  84.6858620  82.0064610  56.5016650
  85.0274320  82.7506840  56.0059970  83.8571330  82.3195730  56.8641480
  77.2833660  77.7059700  68.1415050  76.9248600  78.3713550  68.7288390
  76.9888220  76.8743250  68.5127670  80.4846780  78.1643940  71.0254600
  80.1846920  78.3101120  70.1282420  81.2558020  77.6049230  70.9327990
  85.8275230  82.9612940  69.0209730  85.8419770  82.0293900  68.8028640
  85.1200330  83.0472700  69.6599500  90.9612300  77.1452760  55.2908340
  90.8776020  77.5766980  54.4404780  91.6806490  77.6051110  55.7235160
  91.9899550  83.9995020  58.0190470  91.3475710  83.3450640  58.2934190
  91.6030210  84.4050110  57.2431140  87.5686030  81.3280450  61.8662160
  87.9209850  80.7308580  61.2063530  86.6848360  81.0024680  62.0370410
  83.6549310  82.0878140  59.2732570  84.3420440  82.6347350  59.6540160
  82.8681730  82.6318870  59.3082180  75.7941710  77.7050960  54.7649650
  76.6636560  77.9875760  55.0485570  75.3032030  78.5186830  54.6498460
  82.9576520  79.0924170  58.8857930  83.4139300  79.9029420  59.1118120
  82.6064730  78.7747310  59.7176420  85.2609130  84.6030510  66.1150230
  85.9051350  84.8089890  66.7923650  85.6238570  83.8418910  65.6621080
  78.8588300  69.4361820  59.3580450  78.7302930  69.4279720  60.3065370
  78.0350320  69.7744910  59.0071460  86.5341210  82.6062860  64.8327680
  87.1763440  81.9056020  64.9459850  87.0590560  83.3861300  64.6524570
  90.3796930  82.8911480  54.5566820  90.1534510  82.1741920  55.1491460
  89.9893130  82.6423920  53.7188570  88.3078830  83.4057760  68.0363740
  88.6435070  83.9924450  68.7141660  87.3879170  83.2750470  68.2661530
  76.1612960  86.9178340  55.3311280  76.5210600  87.5167680  54.6768550
  76.0205300  87.4638230  56.1046310  75.8582230  71.1952940  68.8187150
  75.1440750  71.3949860  69.4239760  76.2777270  70.4192510  69.1901950
  89.9613180  80.8083420  56.2180980  89.6734880  81.2696110  57.0058860
  90.7565350  80.3481190  56.4865200  76.1454820  85.1833200  69.8053680
  76.2545940  84.2427940  69.6649070  75.4935380  85.4487950  69.1567410
  84.1367410  83.4549090  71.2051800  83.8164280  82.7358330  71.7497490
  83.4625770  84.1304160  71.2787860  82.1781580  84.3009540  56.1484950
  82.1691680  85.0339230  55.5329460  81.2579940  84.0541120  56.2411910
  77.7788220  79.5224430  56.8931710  77.1716170  80.2623330  56.9027010
  78.2537570  79.6123790  56.0669910  87.3521010  73.6875250  66.5688600
  87.7201830  72.8670460  66.8968170  86.4919210  73.7477140  66.9844250
  90.7183040  72.6432190  57.3776160  90.0896200  72.7477860  56.6634390
  90.2234960  72.8628970  58.1670040  85.1641180  84.3637780  54.8110140
  85.2653160  84.1601770  53.8812120  84.2642920  84.1096060  55.0157920
  82.6867070  74.9218140  58.7934040  81.9783220  75.3904480  59.2347650
  82.9711550  74.2640150  59.4279230  84.3123000  76.3414840  66.7926570
  84.8108250  76.8160660  67.4578420  84.4545950  75.4178360  66.9996600
  86.7182500  71.6468800  60.2329830  86.5950280  71.6654930  59.2839340
  87.6667060  71.6947740  60.3528230  83.8059290  86.8824100  59.5057810
  84.0600790  86.8445490  58.5837180  82.8571770  86.7557430  59.4986060
  80.8902090  73.2303220  56.1684750  81.7392620  73.6673370  56.1024940
  80.5233360  73.5423480  56.9956810  91.5189860  72.5582800  67.6354960
  91.0163460  73.2988200  67.9748770  92.3346520  72.9466800  67.3191750
  89.8111870  77.8015980  61.0816320  88.8702010  77.8166210  61.2564010
  90.1255940  77.0151940  61.5276620  79.7893510  79.4835580  54.6420280
  80.5556780  79.3716940  55.2045710  79.8668200  78.7873550  53.9897050
  78.4840270  76.9160650  55.3253170  78.5643860  75.9688160  55.4370570
  79.3760020  77.2467530  55.4313830  79.2854980  87.0656040  62.4287710
  80.0217460  86.5171500  62.6996280  79.6695900  87.9312050  62.2893700
  76.1700460  83.1329610  58.3029220  75.2440240  83.3750750  58.2934630
  76.6356890  83.9603870  58.1813970  78.2913260  86.2502110  71.6173290
  79.0925990  86.5714160  72.0308690  77.7765080  85.8897690  72.3393200
  82.3957290  86.2386350  54.2513280  83.1885900  86.5275180  53.7995070
  81.8761640  85.8078520  53.5725760  87.1277890  82.3581980  71.5648700
  86.5216050  82.3813580  70.8244450  86.8232000  81.6265020  72.1015950
  88.5578260  86.0862270  70.1758110  89.5100010  86.0020290  70.1258350
  88.4106480  86.7503980  70.8491900  91.4487460  85.4656480  55.6750020
  91.1628970  85.0521620  54.8604200  91.2507010  86.3944190  55.5550540
  76.0111070  78.7375570  70.5609340  76.5150090  78.1582850  71.1325570
  75.2718490  79.0215800  71.0985710  82.9134690  81.4589760  54.1155630
  82.8085330  80.8442110  54.8417010  82.7458910  80.9355650  53.3318640
  83.0649010  80.1446560  70.0944860  82.2994680  80.7131560  70.0099530
  83.2464970  79.8522770  69.2013090  86.1537420  80.5209790  54.7197620
  85.6047520  80.9679090  55.3640360  86.7756680  80.0159040  55.2435290
  90.2072360  81.8751890  70.6519880  90.9481830  82.2127650  70.1487340
  89.4445040  82.0443950  70.0989650  78.0434150  76.8805160  71.4559410
  78.0839490  76.5819030  72.3644640  78.8979650  77.2812770  71.2966930
  81.8212540  79.4800710  56.6162920  82.2428960  79.3140580  57.4594310
  81.9463380  78.6700940  56.1218060  79.9839960  75.4597260  69.4233900
  79.4536420  74.9688210  68.7957240  80.6528030  75.8881460  68.8891830
  84.3340180  78.5038320  53.8640020  84.8545840  77.7887340  53.4981170
  84.9808580  79.1424190  54.1640530  88.8818020  79.9266720  69.1875090
  89.2959040  80.0811800  70.0365510  87.9469020  80.0521940  69.3500870
  89.3540190  77.2662880  71.1914240  89.9360960  76.5115200  71.1034720
  89.5301960  77.7970320  70.4145720  80.4712260  72.4259630  69.5031190
  80.3769130  71.8080380  68.7782060  79.8909650  73.1525920  69.2761100
  83.2373700  70.9832870  66.5358580  82.7891000  71.0057130  65.6904130
  82.6038900  70.5851890  67.1328880  83.6433250  79.8787200  67.1571020
  84.0621360  80.7219930  66.9847260  82.7241880  80.0159240  66.9277800
  85.9797150  77.6103380  68.5408860  86.0993360  77.0144520  69.2803700
  86.8391150  77.6473070  68.1210160  88.3185050  78.1640570  67.1171370
  87.7920270  78.6883190  66.5136510  88.6616390  78.7967960  67.7481100
  80.7171440  75.5533940  53.5621080  80.5160500  74.6901300  53.9234420
  80.5463490  75.4667300  52.6242680  81.4940670  86.1840210  68.2728750
  80.9561760  86.9086270  67.9537450  81.7474630  85.7070550  67.4826090
  82.7465920  74.1524730  69.7984680  83.3365610  73.8440580  70.4862500
  81.9286160  73.6804480  69.9544580  87.5659350  73.7690540  70.0317700
  86.8774870  73.1072080  69.9667690  88.2865370  73.3228810  70.4766160
  88.1959750  70.3642170  56.0907960  88.4762040  69.5210070  56.4467380
  87.4225480  70.5965280  56.6046710  79.5154240  72.6534560  53.5498960
  79.8180140  72.6601990  52.6418110  80.2548830  72.3032420  54.0466620
  84.3502880  87.4191420  68.5315400  84.2761580  88.3226560  68.8387770
  83.4481720  87.1003320  68.5037470  82.7339170  71.5969180  54.5355160
  82.3861170  70.9193170  53.9557610  82.9351940  71.1358690  55.3498550
  84.8988210  86.5849930  56.1541760  85.7939000  86.9234900  56.1760520
  84.9305840  85.8629340  55.5266040  78.5384370  81.9576980  54.3828760
  78.9759240  82.5006650  55.0386340  79.0232100  81.1323930  54.3925100
  75.7530170  84.7466010  61.8349020  76.0833180  83.8787070  61.6027660
  76.1821170  84.9524530  62.6653980  80.3492090  83.0775020  59.4950990
  80.0487630  82.9539990  60.3954900  80.2429580  82.2183610  59.0866720
  76.2420380  85.6136600  64.5730650  75.8051370  85.7937400  65.4054800
  76.8098060  86.3711220  64.4312370  91.8782560  85.1153600  68.8607960
  91.2784550  85.1746160  68.1171880  92.0076460  84.1758580  68.9904810
  76.0744810  78.1256830  60.9319530  75.4193650  77.8568470  60.2879230
  76.9122760  78.0161310  60.4821510  90.5634200  81.8405580  66.9584120
  89.7494040  82.2702740  67.2209910  90.9708400  82.4523990  66.3453170
  89.0235250  72.9198120  55.1538020  89.4420130  72.7329100  54.3134680
  88.7171310  72.0677170  55.4640950  77.1120740  78.5109400  65.4722870
  77.4793780  78.4236800  66.3518890  76.5431560  77.7475950  65.3729730
  91.9124600  76.9793780  68.4853340  91.6810690  76.7506530  67.5851290
  92.1729150  77.8993330  68.4398230  76.6636740  75.4218490  69.3781290
  75.7692790  75.3885250  69.7175000  77.2034290  75.6205280  70.1432540
  90.3512670  72.2050210  71.2633040  91.2282850  72.2133610  71.6467040
  90.3633510  71.4681050  70.6525390  75.2882890  75.3355760  56.8744860
  74.3846970  75.5985960  56.6996520  75.7723510  75.6066930  56.0944820
  91.7975940  76.0579750  62.1521060  92.3213420  75.5642400  61.5211230
  92.3835360  76.1930110  62.8968630  91.9765660  76.1419620  65.6740610
  91.0268370  76.1083160  65.7885600  92.1578670  77.0519730  65.4390380
  77.8310100  74.3921300  54.7839240  78.5401800  73.9704520  54.2986520
  77.1150040  74.4596530  54.1522590  77.4784260  70.4460630  53.8241890
  78.2012390  70.9869570  54.1423110  77.7508780  70.1724050  52.9483430
  91.2875910  75.3153100  58.0913470  91.7835030  75.0823970  58.8762350
  91.0891980  74.4764940  57.6751110  77.1676450  69.6966820  63.7264510
  77.8152640  69.1464200  63.2859670  77.5878290  69.9509970  64.5480320
  91.0628790  69.8908180  67.0834150  91.7001010  70.5042320  67.4493340
  91.2103680  69.9268840  66.1383380  90.6210250  86.5924180  60.4852390
  91.2169320  86.2708750  59.8086810  90.8788400  86.1196000  61.2765660
  76.9208450  69.8522490  66.4689830  76.5723270  70.3086310  67.2348010
  76.5896150  68.9579620  66.5512260  78.5272820  83.0242090  70.6343020
  78.4842450  82.6535000  71.5157480  78.6583830  83.9619660  70.7744840
  82.2278850  84.5801680  66.2352740  81.9870210  84.8476240  65.3483260
  83.1681490  84.7507410  66.2903600  84.4333270  71.0434370  69.9909250
  84.3722160  71.6356200  70.7404660  85.3733650  70.9360330  69.8459510
  87.0707830  70.7004430  69.6301540  87.6848240  71.0183720  68.9682620
  87.6157390  70.2153020  70.2497400  77.5929090  69.3798690  69.7440600
  78.1412080  69.1986740  68.9806710  77.6584400  68.5892800  70.2796910
  78.3660850  85.9704340  67.7540800  77.7721170  85.8389040  68.4930840
  78.3584690  85.1342480  67.2882900  87.8115870  69.2636570  65.9570830
  86.9375710  69.5971680  65.7543760  87.7026620  68.7909750  66.7822700
  88.7187850  71.4707440  67.3412550  88.3901210  70.6559200  66.9614280
  89.6670150  71.4277250  67.2178240  91.1722460  87.2419480  64.3150120
  90.7125430  87.9935290  63.9408140  90.5434920  86.5225950  64.2564920
  77.9973080  83.3362720  66.7048840  77.2707140  82.7168010  66.6374790
  78.0582230  83.7303330  65.8346920  81.6018180  85.5507720  63.4898250
  82.1183200  84.9395080  62.9646510  82.2515560  86.0536500  63.9809260
  84.3413680  86.4416210  64.3167230  84.6291490  86.1870510  63.4400240
  84.8536900  85.8893570  64.9072800  85.5590690  70.1806410  64.8963740
  84.7762480  70.6551910  65.1760500  85.2653620  69.2761240  64.7876920
  90.1111760  70.8829510  62.9412830  90.5519850  70.8274610  62.0934430
  89.8419350  71.7987520  63.0123010  76.2803080  86.6537110  59.9145600
  76.1125120  86.0207790  60.6127490  75.4137590  86.8596510  59.5639790
  76.9031100  70.4853890  57.4177460  77.6610460  70.5982770  56.8441490
  76.4408270  71.3223090  57.3720890  83.4444910  72.5993160  60.4079770
  82.6319420  72.2250050  60.0675650  83.9486550  71.8438240  60.7100960
  87.9469890  69.2635610  61.6462840  88.5499260  69.8355820  62.1211360
  87.2062880  69.8275050  61.4236740  91.0904490  69.6657170  56.9203120
  91.2855120  70.5640620  57.1870550  90.3034360  69.4344250  57.4136070
  77.8865780  85.3470340  57.3595740  77.3613400  85.7278370  56.6557700
  77.8110360  85.9721110  58.0805450  79.2756250  71.0117940  55.9579430
  79.8049010  70.2247740  55.8287380  79.9084570  71.6909130  56.1914960
  81.4694090  70.7493080  59.0124820  80.8396830  70.0480390  59.1794950
  80.9299230  71.5097210  58.7957980  84.4086040  87.3632310  71.6835430
  85.3353350  87.1276580  71.7271390  84.3936470  88.1904310  71.2021460
  81.5949650  70.0277060  71.4477310  81.3133920  70.5310660  70.6838130
  81.9769350  69.2298810  71.0819440  80.4858750  87.2952720  56.2344990
  81.2177570  87.0112000  55.6868880  80.7452420  87.0566000  57.1244370
  79.6473540  83.4117450  56.2391320  79.0182420  83.8802550  56.7877150
  79.7621370  82.5666670  56.6737510  88.1965110  69.4430640  72.0257780
  88.0830560  69.7625250  72.9209300  89.0134850  69.8443150  71.7295060
  90.9763600  86.5902170  71.5076470  91.7688920  86.0951400  71.3002430
  91.2696750  87.2692310  72.1152080  87.1023260  77.4623110  42.3892520
  87.0217310  76.5477720  42.1184230  86.6887680  77.9590180  41.6832230
  85.2341300  79.2402130  44.2701790  84.4583400  78.7602570  44.5600360
  85.8854230  78.5607780  44.0957950  79.2507130  79.5521940  45.1477550
  78.4192010  79.2970650  45.5474060  79.8588110  79.6232710  45.8835470
  89.2548730  83.6462320  43.0500920  88.7930260  82.8749560  43.3788090
  90.0674280  83.6728390  43.5553370  79.2308390  83.5862030  45.3435570
  79.5336430  82.6959770  45.1645790  79.9751980  84.1432250  45.1157820
  77.6599080  74.5123830  38.9319940  76.7715780  74.8539800  38.8299820
  77.9440270  74.3124150  38.0400770  75.6232090  77.1129480  44.8159640
  76.1948200  76.3451680  44.8163280  75.6233630  77.4118240  43.9066250
  85.4812040  85.9320330  42.6704910  84.8623480  86.3877830  42.0999350
  86.3363820  86.0871790  42.2694610  84.6750290  81.9159320  44.2771950
  84.6058570  80.9749260  44.1161080  85.4370150  82.0060730  44.8494520
  76.8656960  72.5213840  46.6028570  76.6859800  71.6239590  46.8831330
  76.4637040  73.0685710  47.2775520  85.7055460  74.7229700  44.5040880
  86.0820280  73.8501580  44.3914550  85.6074970  75.0588400  43.6131320
  79.8360470  73.0955330  39.9658320  79.9427220  73.9959060  40.2727080
  78.9252830  73.0473300  39.6752970  89.4879580  72.2180140  41.4369220
  90.3089200  71.7276710  41.4794700  89.5213660  72.8077800  42.1901060
  77.4843630  75.0174340  45.2110910  78.1653740  75.2812710  45.8298310
  77.1691680  74.1775210  45.5448920  81.6768200  76.0641700  44.2983500
  82.1846420  76.5622670  44.9388520  82.2081440  75.2876900  44.1222860
  79.9604300  70.7040260  48.5646920  79.9622740  71.2212650  47.7592820
  79.1308610  70.2270440  48.5416850  86.3475390  80.8159570  40.0636820
  85.7292660  81.2809020  39.4999540  86.8598640  81.5087050  40.4806330
  81.2107150  80.3435440  46.7420420  80.8776530  80.9704360  47.3841490
  81.3873830  80.8697320  45.9622090  89.7241060  74.1580520  44.2096760
  89.0196630  74.4465410  44.7899870  90.0853220  74.9680630  43.8496320
  79.6419630  72.4150220  46.5717370  79.9836440  73.2592270  46.2771240
  78.7035440  72.5633960  46.6882710  80.4226250  82.3116240  48.5569600
  81.0400250  82.9867320  48.2754050  79.5619370  82.7204220  48.4657100
  75.7158590  81.5016100  37.4376450  75.3386570  81.9903200  36.7061350
  75.9731660  82.1741380  38.0682980  91.3403840  83.7755650  46.4724240
  90.6567360  84.4454760  46.4640910  91.8798130  83.9736300  45.7069100
  83.3247520  69.9032490  42.8961960  83.6322500  69.3479380  42.1797460
  82.3948220  70.0376950  42.7134950  88.8762580  85.6199780  45.1869420
  88.8889740  85.2162070  44.3191680  88.3237800  86.3947070  45.0830850
  90.1708000  82.3416000  40.2759590  90.0604330  81.3990330  40.4009010
  90.1676250  82.7031640  41.1622350  88.2748020  80.5229620  46.5152030
  88.6916810  80.3089730  45.6805490  88.9987840  80.7802410  47.0860650
  85.7128280  77.9681320  39.6322080  84.7857560  77.9018700  39.8610550
  85.8653100  78.9061450  39.5177320  85.6997360  74.2398320  36.6289240
  84.7601030  74.4012280  36.7141700  86.0180620  74.9584000  36.0825230
  89.7425570  79.5301620  40.1357330  89.1237990  79.1921170  39.4883630
  89.7250020  78.8861380  40.8436520  89.1852130  75.7086160  47.5523140
  88.7723310  76.5339870  47.8063130  88.4528080  75.1231200  47.3599500
  81.3184920  78.4946060  42.4141810  80.9141920  77.7823310  41.9187710
  81.4048040  78.1499300  43.3029850  81.7866620  82.1813620  44.5781020
  81.4894910  81.5759090  43.8988800  82.7366440  82.2190930  44.4670380
  80.0313540  75.2689270  46.1940850  80.5828130  75.3784610  45.4194100
  80.5457050  75.6426870  46.9096080  89.8752230  85.7545490  48.2404120
  89.3982790  86.5617680  48.0476730  89.1914020  85.1023820  48.3930330
  80.8785050  81.9195310  51.2288820  79.9813580  82.1435280  51.4762220
  80.9037920  82.0430250  50.2800220  87.9190270  78.7688430  37.1430080
  88.3583550  77.9310860  36.9967900  88.6318690  79.4017830  37.2294220
  79.7056270  78.7908630  49.8046190  79.5664040  79.6631430  50.1733590
  78.8237630  78.4481440  49.6594130  86.0285650  83.7084500  41.1111320
  86.4681560  84.4508830  40.6966710  85.9672540  83.9511070  42.0350280
  81.5036620  84.7330330  52.0131340  81.4752050  85.1373280  51.1459770
  81.3401590  83.8040690  51.8502940  91.5007410  70.0231240  35.4571120
  91.1880070  70.1158070  36.3570190  92.2619880  70.6012270  35.4068550
  78.0189550  77.3891040  39.9148460  77.8987150  78.1153130  39.3029730
  77.7090440  76.6193950  39.4376370  75.6574920  80.5606180  45.7217100
  75.7355340  80.6954950  44.7772820  76.2716600  79.8522070  45.9145220
  76.9022550  82.2606370  42.1323280  76.4950630  82.4020960  41.2776880
  77.7935560  81.9766530  41.9294490  86.7201430  86.4098280  49.0390330
  87.2346100  86.3206290  49.8412760  85.8770510  86.7557980  49.3318240
  88.6955830  86.6953620  38.4674330  88.5356970  86.4056560  39.3656160
  88.5302540  85.9193750  37.9319560  81.1744210  86.4752150  40.2445950
  80.9986690  85.5587690  40.0313750  80.3199950  86.8339440  40.4843750
  88.3981960  84.2041180  37.0272330  87.7047120  84.2018470  36.3674610
  89.1404820  83.7800500  36.5966500  87.9631890  85.8303890  41.1020820
  88.4188840  85.0493270  41.4159440  88.3024410  86.5410710  41.6462000
  75.7134440  81.6020350  48.2611560  75.8765480  81.1325710  47.4430930
  76.1786890  81.0943910  48.9260400  80.4853210  70.7326110  43.2972130
  80.0421360  71.5135650  42.9656650  81.0438200  71.0556000  44.0043070
  84.7723020  73.5994630  48.9007450  84.3102390  73.8077650  49.7127390
  84.3701130  72.7853980  48.5978120  89.7727530  74.8203580  50.0304110
  88.9221120  74.5209330  50.3513180  89.6129320  75.0645590  49.1187930
  86.8677240  76.3205330  52.1302900  87.1930650  75.4869080  51.7905130
  87.6557570  76.8433850  52.2781230  83.6012030  70.3536810  38.1777960
  82.9766210  70.3496680  38.9031270  83.5142150  69.4867770  37.7813930
  82.5229110  71.2773440  45.1561730  82.8201440  72.1836270  45.0753750
  83.0714670  70.7892220  44.5421300  80.2767430  75.8559680  41.0253380
  80.0508350  75.6396850  41.9300000  79.4959960  76.2888140  40.6799350
  87.5065190  75.8623050  39.6244030  86.9074080  76.5858850  39.4407650
  88.0544800  75.7999830  38.8420480  82.7166640  76.7545260  51.6913650
  82.6210240  75.8139990  51.5414050  83.5598620  76.9760330  51.2961720
  86.1130060  74.4986590  41.6547310  86.5059630  74.8158790  40.8416000
  86.4746910  73.6198470  41.7691830  77.8477180  73.1658930  49.8447430
  77.4540570  74.0134140  50.0520210  77.1595580  72.5285300  50.0356070
  84.4222230  73.2493900  52.9144170  83.7320550  73.0566100  53.5490260
  85.1654530  73.5328540  53.4468470  75.1494230  71.0887390  43.8777510
  74.8607280  71.6590250  44.5902490  75.8939990  70.6091840  44.2408740
  75.3364460  75.0307510  35.0880230  75.2539130  75.9738270  35.2295220
  74.9847520  74.8882420  34.2092580  86.6985200  77.0892340  45.7498090
  85.9666320  77.5979150  46.0988190  86.3009540  76.2722320  45.4486870
  83.1362590  73.7646540  44.1550580  83.1398650  73.3236490  43.3055120
  84.0313710  74.0863870  44.2622400  78.9864970  73.6473030  43.1144790
  78.6465020  74.1248260  43.8711840  78.2242290  73.1938150  42.7545890
  83.1982740  74.7658620  37.1457340  83.3195560  74.7245100  38.0943160
  82.8131250  75.6282770  36.9904070  87.1611110  72.5426020  45.1621030
  87.1783850  72.9934670  46.0062880  86.9126690  71.6431660  45.3754470
  82.2104240  77.0759760  36.5440640  81.6421140  76.6278010  35.9176550
  82.9193240  77.4352540  36.0105790  90.5881860  69.9558200  51.0007410
  90.9127630  69.2247860  51.5265390  90.6238370  69.6371840  50.0988400
  77.2873420  80.9771780  50.4207370  76.9028210  80.3365450  51.0190330
  77.5985610  81.6807900  50.9902100  83.4370560  77.8248320  45.9015990
  83.8040690  77.3506890  46.6477330  83.2475620  78.6989890  46.2424330
  76.3011050  72.5692010  42.0309460  76.0157970  72.2047680  42.8688080
  76.2389910  71.8372470  41.4172600  81.2269930  76.8656960  48.2200200
  80.9227000  77.7448940  48.4450560  82.1816390  76.9256750  48.2557640
  79.7551720  81.0717950  38.8167050  78.9813980  80.5315570  38.6565770
  80.4846350  80.5524560  38.4784810  90.5139700  80.0683310  44.6093440
  91.2338820  80.5638600  44.2189550  90.3121520  79.3901200  43.9647310
  85.9749640  71.4621270  38.7522830  85.1614250  70.9634440  38.6768140
  85.7811590  72.3019520  38.3359180  85.8958500  80.1392370  50.4962440
  85.8295810  79.2188040  50.2420030  85.2663640  80.2367810  51.2107080
  88.6898030  75.8340920  37.0484990  89.5777650  76.1458150  36.8736330
  88.6603120  74.9613170  36.6565570  79.7989120  80.7398330  42.4545860
  80.3167790  79.9366590  42.4002750  79.3473140  80.6777470  43.2962690
  84.6858620  82.0064610  37.7273160  85.0274320  82.7506840  37.2316480
  83.8571330  82.3195730  38.0897990  77.2833660  77.7059700  49.3671560
  76.9248600  78.3713550  49.9544900  76.9888220  76.8743250  49.7384180
  80.4846780  78.1643940  52.2511110  80.1846920  78.3101120  51.3538930
  81.2558020  77.6049230  52.1584500  85.8275230  82.9612940  50.2466240
  85.8419770  82.0293900  50.0285150  85.1200330  83.0472700  50.8856010
  90.9612300  77.1452760  36.5164850  90.8776020  77.5766980  35.6661290
  91.6806490  77.6051110  36.9491670  91.9899550  83.9995020  39.2446980
  91.3475710  83.3450640  39.5190700  91.6030210  84.4050110  38.4687650
  87.5686030  81.3280450  43.0918670  87.9209850  80.7308580  42.4320040
  86.6848360  81.0024680  43.2626920  83.6549310  82.0878140  40.4989080
  84.3420440  82.6347350  40.8796670  82.8681730  82.6318870  40.5338690
  75.7941710  77.7050960  35.9906160  76.6636560  77.9875760  36.2742080
  75.3032030  78.5186830  35.8754970  82.9576520  79.0924170  40.1114440
  83.4139300  79.9029420  40.3374630  82.6064730  78.7747310  40.9432930
  85.2609130  84.6030510  47.3406740  85.9051350  84.8089890  48.0180160
  85.6238570  83.8418910  46.8877590  78.8588300  69.4361820  40.5836960
  78.7302930  69.4279720  41.5321880  78.0350320  69.7744910  40.2327970
  86.5341210  82.6062860  46.0584190  87.1763440  81.9056020  46.1716360
  87.0590560  83.3861300  45.8781080  90.3796930  82.8911480  35.7823330
  90.1534510  82.1741920  36.3747970  89.9893130  82.6423920  34.9445080
  88.3078830  83.4057760  49.2620250  88.6435070  83.9924450  49.9398170
  87.3879170  83.2750470  49.4918040  76.1612960  86.9178340  36.5567790
  76.5210600  87.5167680  35.9025060  76.0205300  87.4638230  37.3302820
  75.8582230  71.1952940  50.0443660  75.1440750  71.3949860  50.6496270
  76.2777270  70.4192510  50.4158460  89.9613180  80.8083420  37.4437490
  89.6734880  81.2696110  38.2315370  90.7565350  80.3481190  37.7121710
  76.1454820  85.1833200  51.0310190  76.2545940  84.2427940  50.8905580
  75.4935380  85.4487950  50.3823920  84.1367410  83.4549090  52.4308310
  83.8164280  82.7358330  52.9754000  83.4625770  84.1304160  52.5044370
  82.1781580  84.3009540  37.3741460  82.1691680  85.0339230  36.7585970
  81.2579940  84.0541120  37.4668420  77.7788220  79.5224430  38.1188220
  77.1716170  80.2623330  38.1283520  78.2537570  79.6123790  37.2926420
  87.3521010  73.6875250  47.7945110  87.7201830  72.8670460  48.1224680
  86.4919210  73.7477140  48.2100760  90.7183040  72.6432190  38.6032670
  90.0896200  72.7477860  37.8890900  90.2234960  72.8628970  39.3926550
  85.1641180  84.3637780  36.0366650  85.2653160  84.1601770  35.1068630
  84.2642920  84.1096060  36.2414430  82.6867070  74.9218140  40.0190550
  81.9783220  75.3904480  40.4604160  82.9711550  74.2640150  40.6535740
  84.3123000  76.3414840  48.0183080  84.8108250  76.8160660  48.6834930
  84.4545950  75.4178360  48.2253110  86.7182500  71.6468800  41.4586340
  86.5950280  71.6654930  40.5095850  87.6667060  71.6947740  41.5784740
  83.8059290  86.8824100  40.7314320  84.0600790  86.8445490  39.8093690
  82.8571770  86.7557430  40.7242570  80.8902090  73.2303220  37.3941260
  81.7392620  73.6673370  37.3281450  80.5233360  73.5423480  38.2213320
  91.5189860  72.5582800  48.8611470  91.0163460  73.2988200  49.2005280
  92.3346520  72.9466800  48.5448260  89.8111870  77.8015980  42.3072830
  88.8702010  77.8166210  42.4820520  90.1255940  77.0151940  42.7533130
  79.7893510  79.4835580  35.8676790  80.5556780  79.3716940  36.4302220
  79.8668200  78.7873550  35.2153560  78.4840270  76.9160650  36.5509680
  78.5643860  75.9688160  36.6627080  79.3760020  77.2467530  36.6570340
  79.2854980  87.0656040  43.6544220  80.0217460  86.5171500  43.9252790
  79.6695900  87.9312050  43.5150210  76.1700460  83.1329610  39.5285730
  75.2440240  83.3750750  39.5191140  76.6356890  83.9603870  39.4070480
  78.2913260  86.2502110  52.8429800  79.0925990  86.5714160  53.2565200
  77.7765080  85.8897690  53.5649710  82.3957290  86.2386350  35.4769790
  83.1885900  86.5275180  35.0251580  81.8761640  85.8078520  34.7982270
  87.1277890  82.3581980  52.7905210  86.5216050  82.3813580  52.0500960
  86.8232000  81.6265020  53.3272460  88.5578260  86.0862270  51.4014620
  89.5100010  86.0020290  51.3514860  88.4106480  86.7503980  52.0748410
  91.4487460  85.4656480  36.9006530  91.1628970  85.0521620  36.0860710
  91.2507010  86.3944190  36.7807050  76.0111070  78.7375570  51.7865850
  76.5150090  78.1582850  52.3582080  75.2718490  79.0215800  52.3242220
  82.9134690  81.4589760  35.3412140  82.8085330  80.8442110  36.0673520
  82.7458910  80.9355650  34.5575150  83.0649010  80.1446560  51.3201370
  82.2994680  80.7131560  51.2356040  83.2464970  79.8522770  50.4269600
  86.1537420  80.5209790  35.9454130  85.6047520  80.9679090  36.5896870
  86.7756680  80.0159040  36.4691800  90.2072360  81.8751890  51.8776390
  90.9481830  82.2127650  51.3743850  89.4445040  82.0443950  51.3246160
  78.0434150  76.8805160  52.6815920  78.0839490  76.5819030  53.5901150
  78.8979650  77.2812770  52.5223440  81.8212540  79.4800710  37.8419430
  82.2428960  79.3140580  38.6850820  81.9463380  78.6700940  37.3474570
  79.9839960  75.4597260  50.6490410  79.4536420  74.9688210  50.0213750
  80.6528030  75.8881460  50.1148340  84.3340180  78.5038320  35.0896530
  84.8545840  77.7887340  34.7237680  84.9808580  79.1424190  35.3897040
  88.8818020  79.9266720  50.4131600  89.2959040  80.0811800  51.2622020
  87.9469020  80.0521940  50.5757380  89.3540190  77.2662880  52.4170750
  89.9360960  76.5115200  52.3291230  89.5301960  77.7970320  51.6402230
  80.4712260  72.4259630  50.7287700  80.3769130  71.8080380  50.0038570
  79.8909650  73.1525920  50.5017610  83.2373700  70.9832870  47.7615090
  82.7891000  71.0057130  46.9160640  82.6038900  70.5851890  48.3585390
  83.6433250  79.8787200  48.3827530  84.0621360  80.7219930  48.2103770
  82.7241880  80.0159240  48.1534310  85.9797150  77.6103380  49.7665370
  86.0993360  77.0144520  50.5060210  86.8391150  77.6473070  49.3466670
  88.3185050  78.1640570  48.3427880  87.7920270  78.6883190  47.7393020
  88.6616390  78.7967960  48.9737610  80.7171440  75.5533940  34.7877590
  80.5160500  74.6901300  35.1490930  80.5463490  75.4667300  33.8499190
  81.4940670  86.1840210  49.4985260  80.9561760  86.9086270  49.1793960
  81.7474630  85.7070550  48.7082600  82.7465920  74.1524730  51.0241190
  83.3365610  73.8440580  51.7119010  81.9286160  73.6804480  51.1801090
  87.5659350  73.7690540  51.2574210  86.8774870  73.1072080  51.1924200
  88.2865370  73.3228810  51.7022670  88.1959750  70.3642170  37.3164470
  88.4762040  69.5210070  37.6723890  87.4225480  70.5965280  37.8303220
  79.5154240  72.6534560  34.7755470  79.8180140  72.6601990  33.8674620
  80.2548830  72.3032420  35.2723130  84.3502880  87.4191420  49.7571910
  84.2761580  88.3226560  50.0644280  83.4481720  87.1003320  49.7293980
  82.7339170  71.5969180  35.7611670  82.3861170  70.9193170  35.1814120
  82.9351940  71.1358690  36.5755060  84.8988210  86.5849930  37.3798270
  85.7939000  86.9234900  37.4017030  84.9305840  85.8629340  36.7522550
  78.5384370  81.9576980  35.6085270  78.9759240  82.5006650  36.2642850
  79.0232100  81.1323930  35.6181610  75.7530170  84.7466010  43.0605530
  76.0833180  83.8787070  42.8284170  76.1821170  84.9524530  43.8910490
  80.3492090  83.0775020  40.7207500  80.0487630  82.9539990  41.6211410
  80.2429580  82.2183610  40.3123230  76.2420380  85.6136600  45.7987160
  75.8051370  85.7937400  46.6311310  76.8098060  86.3711220  45.6568880
  91.8782560  85.1153600  50.0864470  91.2784550  85.1746160  49.3428390
  92.0076460  84.1758580  50.2161320  76.0744810  78.1256830  42.1576040
  75.4193650  77.8568470  41.5135740  76.9122760  78.0161310  41.7078020
  90.5634200  81.8405580  48.1840630  89.7494040  82.2702740  48.4466420
  90.9708400  82.4523990  47.5709680  89.0235250  72.9198120  36.3794530
  89.4420130  72.7329100  35.5391190  88.7171310  72.0677170  36.6897460
  77.1120740  78.5109400  46.6979380  77.4793780  78.4236800  47.5775400
  76.5431560  77.7475950  46.5986240  91.9124600  76.9793780  49.7109850
  91.6810690  76.7506530  48.8107800  92.1729150  77.8993330  49.6654740
  76.6636740  75.4218490  50.6037800  75.7692790  75.3885250  50.9431510
  77.2034290  75.6205280  51.3689050  90.3512670  72.2050210  52.4889550
  91.2282850  72.2133610  52.8723550  90.3633510  71.4681050  51.8781900
  75.2882890  75.3355760  38.1001370  74.3846970  75.5985960  37.9253030
  75.7723510  75.6066930  37.3201330  91.7975940  76.0579750  43.3777570
  92.3213420  75.5642400  42.7467740  92.3835360  76.1930110  44.1225140
  91.9765660  76.1419620  46.8997120  91.0268370  76.1083160  47.0142110
  92.1578670  77.0519730  46.6646890  77.8310100  74.3921300  36.0095750
  78.5401800  73.9704520  35.5243030  77.1150040  74.4596530  35.3779100
  77.4784260  70.4460630  35.0498400  78.2012390  70.9869570  35.3679620
  77.7508780  70.1724050  34.1739940  91.2875910  75.3153100  39.3169980
  91.7835030  75.0823970  40.1018860  91.0891980  74.4764940  38.9007620
  77.1676450  69.6966820  44.9521020  77.8152640  69.1464200  44.5116180
  77.5878290  69.9509970  45.7736830  91.0628790  69.8908180  48.3090660
  91.7001010  70.5042320  48.6749850  91.2103680  69.9268840  47.3639890
  90.6210250  86.5924180  41.7108900  91.2169320  86.2708750  41.0343320
  90.8788400  86.1196000  42.5022170  76.9208450  69.8522490  47.6946340
  76.5723270  70.3086310  48.4604520  76.5896150  68.9579620  47.7768770
  78.5272820  83.0242090  51.8599530  78.4842450  82.6535000  52.7413990
  78.6583830  83.9619660  52.0001350  82.2278850  84.5801680  47.4609250
  81.9870210  84.8476240  46.5739770  83.1681490  84.7507410  47.5160110
  84.4333270  71.0434370  51.2165760  84.3722160  71.6356200  51.9661170
  85.3733650  70.9360330  51.0716020  87.0707830  70.7004430  50.8558050
  87.6848240  71.0183720  50.1939130  87.6157390  70.2153020  51.4753910
  77.5929090  69.3798690  50.9697110  78.1412080  69.1986740  50.2063220
  77.6584400  68.5892800  51.5053420  78.3660850  85.9704340  48.9797310
  77.7721170  85.8389040  49.7187350  78.3584690  85.1342480  48.5139410
  87.8115870  69.2636570  47.1827340  86.9375710  69.5971680  46.9800270
  87.7026620  68.7909750  48.0079210  88.7187850  71.4707440  48.5669060
  88.3901210  70.6559200  48.1870790  89.6670150  71.4277250  48.4434750
  91.1722460  87.2419480  45.5406630  90.7125430  87.9935290  45.1664650
  90.5434920  86.5225950  45.4821430  77.9973080  83.3362720  47.9305350
  77.2707140  82.7168010  47.8631300  78.0582230  83.7303330  47.0603430
  81.6018180  85.5507720  44.7154760  82.1183200  84.9395080  44.1903020
  82.2515560  86.0536500  45.2065770  84.3413680  86.4416210  45.5423740
  84.6291490  86.1870510  44.6656750  84.8536900  85.8893570  46.1329310
  85.5590690  70.1806410  46.1220250  84.7762480  70.6551910  46.4017010
  85.2653620  69.2761240  46.0133430  90.1111760  70.8829510  44.1669340
  90.5519850  70.8274610  43.3190940  89.8419350  71.7987520  44.2379520
  76.2803080  86.6537110  41.1402110  76.1125120  86.0207790  41.8384000
  75.4137590  86.8596510  40.7896300  76.9031100  70.4853890  38.6433970
  77.6610460  70.5982770  38.0698000  76.4408270  71.3223090  38.5977400
  83.4444910  72.5993160  41.6336280  82.6319420  72.2250050  41.2932160
  83.9486550  71.8438240  41.9357470  87.9469890  69.2635610  42.8719350
  88.5499260  69.8355820  43.3467870  87.2062880  69.8275050  42.6493250
  91.0904490  69.6657170  38.1459630  91.2855120  70.5640620  38.4127060
  90.3034360  69.4344250  38.6392580  77.8865780  85.3470340  38.5852250
  77.3613400  85.7278370  37.8814210  77.8110360  85.9721110  39.3061960
  79.2756250  71.0117940  37.1835940  79.8049010  70.2247740  37.0543890
  79.9084570  71.6909130  37.4171470  81.4694090  70.7493080  40.2381330
  80.8396830  70.0480390  40.4051460  80.9299230  71.5097210  40.0214490
  84.4086040  87.3632310  52.9091940  85.3353350  87.1276580  52.9527900
  84.3936470  88.1904310  52.4277970  81.5949650  70.0277060  52.6733820
  81.3133920  70.5310660  51.9094640  81.9769350  69.2298810  52.3075950
  80.4858750  87.2952720  37.4601500  81.2177570  87.0112000  36.9125390
  80.7452420  87.0566000  38.3500880  79.6473540  83.4117450  37.4647830
  79.0182420  83.8802550  38.0133660  79.7621370  82.5666670  37.8994020
  88.1965110  69.4430640  53.2514290  88.0830560  69.7625250  54.1465810
  89.0134850  69.8443150  52.9551570  90.9763600  86.5902170  52.7332980
  91.7688920  86.0951400  52.5258940  91.2696750  87.2692310  53.3408590
  87.1023260  77.4623110  23.6149030  87.0217310  76.5477720  23.3440740
  86.6887680  77.9590180  22.9088740  85.2341300  79.2402130  25.4958300
  84.4583400  78.7602570  25.7856870  85.8854230  78.5607780  25.3214460
  79.2507130  79.5521940  26.3734060  78.4192010  79.2970650  26.7730570
  79.8588110  79.6232710  27.1091980  89.2548730  83.6462320  24.2757430
  88.7930260  82.8749560  24.6044600  90.0674280  83.6728390  24.7809880
  79.2308390  83.5862030  26.5692080  79.5336430  82.6959770  26.3902300
  79.9751980  84.1432250  26.3414330  77.6599080  74.5123830  20.1576450
  76.7715780  74.8539800  20.0556330  77.9440270  74.3124150  19.2657280
  75.6232090  77.1129480  26.0416150  76.1948200  76.3451680  26.0419790
  75.6233630  77.4118240  25.1322760  85.4812040  85.9320330  23.8961420
  84.8623480  86.3877830  23.3255860  86.3363820  86.0871790  23.4951120
  84.6750290  81.9159320  25.5028460  84.6058570  80.9749260  25.3417590
  85.4370150  82.0060730  26.0751030  76.8656960  72.5213840  27.8285080
  76.6859800  71.6239590  28.1087840  76.4637040  73.0685710  28.5032030
  85.7055460  74.7229700  25.7297390  86.0820280  73.8501580  25.6171060
  85.6074970  75.0588400  24.8387830  79.8360470  73.0955330  21.1914830
  79.9427220  73.9959060  21.4983590  78.9252830  73.0473300  20.9009480
  89.4879580  72.2180140  22.6625730  90.3089200  71.7276710  22.7051210
  89.5213660  72.8077800  23.4157570  77.4843630  75.0174340  26.4367420
  78.1653740  75.2812710  27.0554820  77.1691680  74.1775210  26.7705430
  81.6768200  76.0641700  25.5240010  82.1846420  76.5622670  26.1645030
  82.2081440  75.2876900  25.3479370  79.9604300  70.7040260  29.7903430
  79.9622740  71.2212650  28.9849330  79.1308610  70.2270440  29.7673360
  86.3475390  80.8159570  21.2893330  85.7292660  81.2809020  20.7256050
  86.8598640  81.5087050  21.7062840  81.2107150  80.3435440  27.9676930
  80.8776530  80.9704360  28.6098000  81.3873830  80.8697320  27.1878600
  89.7241060  74.1580520  25.4353270  89.0196630  74.4465410  26.0156380
  90.0853220  74.9680630  25.0752830  79.6419630  72.4150220  27.7973880
  79.9836440  73.2592270  27.5027750  78.7035440  72.5633960  27.9139220
  80.4226250  82.3116240  29.7826110  81.0400250  82.9867320  29.5010560
  79.5619370  82.7204220  29.6913610  75.7158590  81.5016100  18.6632960
  75.3386570  81.9903200  17.9317860  75.9731660  82.1741380  19.2939490
  91.3403840  83.7755650  27.6980750  90.6567360  84.4454760  27.6897420
  91.8798130  83.9736300  26.9325610  83.3247520  69.9032490  24.1218470
  83.6322500  69.3479380  23.4053970  82.3948220  70.0376950  23.9391460
  88.8762580  85.6199780  26.4125930  88.8889740  85.2162070  25.5448190
  88.3237800  86.3947070  26.3087360  90.1708000  82.3416000  21.5016100
  90.0604330  81.3990330  21.6265520  90.1676250  82.7031640  22.3878860
  88.2748020  80.5229620  27.7408540  88.6916810  80.3089730  26.9062000
  88.9987840  80.7802410  28.3117160  85.7128280  77.9681320  20.8578590
  84.7857560  77.9018700  21.0867060  85.8653100  78.9061450  20.7433830
  85.6997360  74.2398320  17.8545750  84.7601030  74.4012280  17.9398210
  86.0180620  74.9584000  17.3081740  89.7425570  79.5301620  21.3613840
  89.1237990  79.1921170  20.7140140  89.7250020  78.8861380  22.0693030
  89.1852130  75.7086160  28.7779650  88.7723310  76.5339870  29.0319640
  88.4528080  75.1231200  28.5856010  81.3184920  78.4946060  23.6398320
  80.9141920  77.7823310  23.1444220  81.4048040  78.1499300  24.5286360
  81.7866620  82.1813620  25.8037530  81.4894910  81.5759090  25.1245310
  82.7366440  82.2190930  25.6926890  80.0313540  75.2689270  27.4197360
  80.5828130  75.3784610  26.6450610  80.5457050  75.6426870  28.1352590
  89.8752230  85.7545490  29.4660630  89.3982790  86.5617680  29.2733240
  89.1914020  85.1023820  29.6186840  80.8785050  81.9195310  32.4545330
  79.9813580  82.1435280  32.7018730  80.9037920  82.0430250  31.5056730
  87.9190270  78.7688430  18.3686590  88.3583550  77.9310860  18.2224410
  88.6318690  79.4017830  18.4550730  79.7056270  78.7908630  31.0302700
  79.5664040  79.6631430  31.3990100  78.8237630  78.4481440  30.8850640
  86.0285650  83.7084500  22.3367830  86.4681560  84.4508830  21.9223220
  85.9672540  83.9511070  23.2606790  81.5036620  84.7330330  33.2387850
  81.4752050  85.1373280  32.3716280  81.3401590  83.8040690  33.0759450
  91.5007410  70.0231240  16.6827630  91.1880070  70.1158070  17.5826700
  92.2619880  70.6012270  16.6325060  78.0189550  77.3891040  21.1404970
  77.8987150  78.1153130  20.5286240  77.7090440  76.6193950  20.6632880
  75.6574920  80.5606180  26.9473610  75.7355340  80.6954950  26.0029330
  76.2716600  79.8522070  27.1401730  76.9022550  82.2606370  23.3579790
  76.4950630  82.4020960  22.5033390  77.7935560  81.9766530  23.1551000
  86.7201430  86.4098280  30.2646840  87.2346100  86.3206290  31.0669270
  85.8770510  86.7557980  30.5574750  88.6955830  86.6953620  19.6930840
  88.5356970  86.4056560  20.5912670  88.5302540  85.9193750  19.1576070
  81.1744210  86.4752150  21.4702460  80.9986690  85.5587690  21.2570260
  80.3199950  86.8339440  21.7100260  88.3981960  84.2041180  18.2528840
  87.7047120  84.2018470  17.5931120  89.1404820  83.7800500  17.8223010
  87.9631890  85.8303890  22.3277330  88.4188840  85.0493270  22.6415950
  88.3024410  86.5410710  22.8718510  75.7134440  81.6020350  29.4868070
  75.8765480  81.1325710  28.6687440  76.1786890  81.0943910  30.1516910
  80.4853210  70.7326110  24.5228640  80.0421360  71.5135650  24.1913160
  81.0438200  71.0556000  25.2299580  84.7723020  73.5994630  30.1263960
  84.3102390  73.8077650  30.9383900  84.3701130  72.7853980  29.8234630
  89.7727530  74.8203580  31.2560620  88.9221120  74.5209330  31.5769690
  89.6129320  75.0645590  30.3444440  86.8677240  76.3205330  33.3559410
  87.1930650  75.4869080  33.0161640  87.6557570  76.8433850  33.5037740
  83.6012030  70.3536810  19.4034470  82.9766210  70.3496680  20.1287780
  83.5142150  69.4867770  19.0070440  82.5229110  71.2773440  26.3818240
  82.8201440  72.1836270  26.3010260  83.0714670  70.7892220  25.7677810
  80.2767430  75.8559680  22.2509890  80.0508350  75.6396850  23.1556510
  79.4959960  76.2888140  21.9055860  87.5065190  75.8623050  20.8500540
  86.9074080  76.5858850  20.6664160  88.0544800  75.7999830  20.0676990
  82.7166640  76.7545260  32.9170160  82.6210240  75.8139990  32.7670560
  83.5598620  76.9760330  32.5218230  86.1130060  74.4986590  22.8803820
  86.5059630  74.8158790  22.0672510  86.4746910  73.6198470  22.9948340
  77.8477180  73.1658930  31.0703940  77.4540570  74.0134140  31.2776720
  77.1595580  72.5285300  31.2612580  84.4222230  73.2493900  34.1400680
  83.7320550  73.0566100  34.7746770  85.1654530  73.5328540  34.6724980
  75.1494230  71.0887390  25.1034020  74.8607280  71.6590250  25.8159000
  75.8939990  70.6091840  25.4665250  75.3364460  75.0307510  16.3136740
  75.2539130  75.9738270  16.4551730  74.9847520  74.8882420  15.4349090
  86.6985200  77.0892340  26.9754600  85.9666320  77.5979150  27.3244700
  86.3009540  76.2722320  26.6743380  83.1362590  73.7646540  25.3807090
  83.1398650  73.3236490  24.5311630  84.0313710  74.0863870  25.4878910
  78.9864970  73.6473030  24.3401300  78.6465020  74.1248260  25.0968350
  78.2242290  73.1938150  23.9802400  83.1982740  74.7658620  18.3713850
  83.3195560  74.7245100  19.3199670  82.8131250  75.6282770  18.2160580
  87.1611110  72.5426020  26.3877540  87.1783850  72.9934670  27.2319390
  86.9126690  71.6431660  26.6010980  82.2104240  77.0759760  17.7697150
  81.6421140  76.6278010  17.1433060  82.9193240  77.4352540  17.2362300
  90.5881860  69.9558200  32.2263920  90.9127630  69.2247860  32.7521900
  90.6238370  69.6371840  31.3244910  77.2873420  80.9771780  31.6463880
  76.9028210  80.3365450  32.2446840  77.5985610  81.6807900  32.2158610
  83.4370560  77.8248320  27.1272500  83.8040690  77.3506890  27.8733840
  83.2475620  78.6989890  27.4680840  76.3011050  72.5692010  23.2565970
  76.0157970  72.2047680  24.0944590  76.2389910  71.8372470  22.6429110
  81.2269930  76.8656960  29.4456710  80.9227000  77.7448940  29.6707070
  82.1816390  76.9256750  29.4814150  79.7551720  81.0717950  20.0423560
  78.9813980  80.5315570  19.8822280  80.4846350  80.5524560  19.7041320
  90.5139700  80.0683310  25.8349950  91.2338820  80.5638600  25.4446060
  90.3121520  79.3901200  25.1903820  85.9749640  71.4621270  19.9779340
  85.1614250  70.9634440  19.9024650  85.7811590  72.3019520  19.5615690
  85.8958500  80.1392370  31.7218950  85.8295810  79.2188040  31.4676540
  85.2663640  80.2367810  32.4363590  88.6898030  75.8340920  18.2741500
  89.5777650  76.1458150  18.0992840  88.6603120  74.9613170  17.8822080
  79.7989120  80.7398330  23.6802370  80.3167790  79.9366590  23.6259260
  79.3473140  80.6777470  24.5219200  84.6858620  82.0064610  18.9529670
  85.0274320  82.7506840  18.4572990  83.8571330  82.3195730  19.3154500
  77.2833660  77.7059700  30.5928070  76.9248600  78.3713550  31.1801410
  76.9888220  76.8743250  30.9640690  80.4846780  78.1643940  33.4767620
  80.1846920  78.3101120  32.5795440  81.2558020  77.6049230  33.3841010
  85.8275230  82.9612940  31.4722750  85.8419770  82.0293900  31.2541660
  85.1200330  83.0472700  32.1112520  90.9612300  77.1452760  17.7421360
  90.8776020  77.5766980  16.8917800  91.6806490  77.6051110  18.1748180
  91.9899550  83.9995020  20.4703490  91.3475710  83.3450640  20.7447210
  91.6030210  84.4050110  19.6944160  87.5686030  81.3280450  24.3175180
  87.9209850  80.7308580  23.6576550  86.6848360  81.0024680  24.4883430
  83.6549310  82.0878140  21.7245590  84.3420440  82.6347350  22.1053180
  82.8681730  82.6318870  21.7595200  75.7941710  77.7050960  17.2162670
  76.6636560  77.9875760  17.4998590  75.3032030  78.5186830  17.1011480
  82.9576520  79.0924170  21.3370950  83.4139300  79.9029420  21.5631140
  82.6064730  78.7747310  22.1689440  85.2609130  84.6030510  28.5663250
  85.9051350  84.8089890  29.2436670  85.6238570  83.8418910  28.1134100
  78.8588300  69.4361820  21.8093470  78.7302930  69.4279720  22.7578390
  78.0350320  69.7744910  21.4584480  86.5341210  82.6062860  27.2840700
  87.1763440  81.9056020  27.3972870  87.0590560  83.3861300  27.1037590
  90.3796930  82.8911480  17.0079840  90.1534510  82.1741920  17.6004480
  89.9893130  82.6423920  16.1701590  88.3078830  83.4057760  30.4876760
  88.6435070  83.9924450  31.1654680  87.3879170  83.2750470  30.7174550
  76.1612960  86.9178340  17.7824300  76.5210600  87.5167680  17.1281570
  76.0205300  87.4638230  18.5559330  75.8582230  71.1952940  31.2700170
  75.1440750  71.3949860  31.8752780  76.2777270  70.4192510  31.6414970
  89.9613180  80.8083420  18.6694000  89.6734880  81.2696110  19.4571880
  90.7565350  80.3481190  18.9378220  76.1454820  85.1833200  32.2566700
  76.2545940  84.2427940  32.1162090  75.4935380  85.4487950  31.6080430
  84.1367410  83.4549090  33.6564820  83.8164280  82.7358330  34.2010510
  83.4625770  84.1304160  33.7300880  82.1781580  84.3009540  18.5997970
  82.1691680  85.0339230  17.9842480  81.2579940  84.0541120  18.6924930
  77.7788220  79.5224430  19.3444730  77.1716170  80.2623330  19.3540030
  78.2537570  79.6123790  18.5182930  87.3521010  73.6875250  29.0201620
  87.7201830  72.8670460  29.3481190  86.4919210  73.7477140  29.4357270
  90.7183040  72.6432190  19.8289180  90.0896200  72.7477860  19.1147410
  90.2234960  72.8628970  20.6183060  85.1641180  84.3637780  17.2623160
  85.2653160  84.1601770  16.3325140  84.2642920  84.1096060  17.4670940
  82.6867070  74.9218140  21.2447060  81.9783220  75.3904480  21.6860670
  82.9711550  74.2640150  21.8792250  84.3123000  76.3414840  29.2439590
  84.8108250  76.8160660  29.9091440  84.4545950  75.4178360  29.4509620
  86.7182500  71.6468800  22.6842850  86.5950280  71.6654930  21.7352360
  87.6667060  71.6947740  22.8041250  83.8059290  86.8824100  21.9570830
  84.0600790  86.8445490  21.0350200  82.8571770  86.7557430  21.9499080
  80.8902090  73.2303220  18.6197770  81.7392620  73.6673370  18.5537960
  80.5233360  73.5423480  19.4469830  91.5189860  72.5582800  30.0867980
  91.0163460  73.2988200  30.4261790  92.3346520  72.9466800  29.7704770
  89.8111870  77.8015980  23.5329340  88.8702010  77.8166210  23.7077030
  90.1255940  77.0151940  23.9789640  79.7893510  79.4835580  17.0933300
  80.5556780  79.3716940  17.6558730  79.8668200  78.7873550  16.4410070
  78.4840270  76.9160650  17.7766190  78.5643860  75.9688160  17.8883590
  79.3760020  77.2467530  17.8826850  79.2854980  87.0656040  24.8800730
  80.0217460  86.5171500  25.1509300  79.6695900  87.9312050  24.7406720
  76.1700460  83.1329610  20.7542240  75.2440240  83.3750750  20.7447650
  76.6356890  83.9603870  20.6326990  78.2913260  86.2502110  34.0686310
  79.0925990  86.5714160  34.4821710  77.7765080  85.8897690  34.7906220
  82.3957290  86.2386350  16.7026300  83.1885900  86.5275180  16.2508090
  81.8761640  85.8078520  16.0238780  87.1277890  82.3581980  34.0161720
  86.5216050  82.3813580  33.2757470  86.8232000  81.6265020  34.5528970
  88.5578260  86.0862270  32.6271130  89.5100010  86.0020290  32.5771370
  88.4106480  86.7503980  33.3004920  91.4487460  85.4656480  18.1263040
  91.1628970  85.0521620  17.3117220  91.2507010  86.3944190  18.0063560
  76.0111070  78.7375570  33.0122360  76.5150090  78.1582850  33.5838590
  75.2718490  79.0215800  33.5498730  82.9134690  81.4589760  16.5668650
  82.8085330  80.8442110  17.2930030  82.7458910  80.9355650  15.7831660
  83.0649010  80.1446560  32.5457880  82.2994680  80.7131560  32.4612550
  83.2464970  79.8522770  31.6526110  86.1537420  80.5209790  17.1710640
  85.6047520  80.9679090  17.8153380  86.7756680  80.0159040  17.6948310
  90.2072360  81.8751890  33.1032900  90.9481830  82.2127650  32.6000360
  89.4445040  82.0443950  32.5502670  78.0434150  76.8805160  33.9072430
  78.0839490  76.5819030  34.8157660  78.8979650  77.2812770  33.7479950
  81.8212540  79.4800710  19.0675940  82.2428960  79.3140580  19.9107330
  81.9463380  78.6700940  18.5731080  79.9839960  75.4597260  31.8746920
  79.4536420  74.9688210  31.2470260  80.6528030  75.8881460  31.3404850
  84.3340180  78.5038320  16.3153040  84.8545840  77.7887340  15.9494190
  84.9808580  79.1424190  16.6153550  88.8818020  79.9266720  31.6388110
  89.2959040  80.0811800  32.4878530  87.9469020  80.0521940  31.8013890
  89.3540190  77.2662880  33.6427260  89.9360960  76.5115200  33.5547740
  89.5301960  77.7970320  32.8658740  80.4712260  72.4259630  31.9544210
  80.3769130  71.8080380  31.2295080  79.8909650  73.1525920  31.7274120
  83.2373700  70.9832870  28.9871600  82.7891000  71.0057130  28.1417150
  82.6038900  70.5851890  29.5841900  83.6433250  79.8787200  29.6084040
  84.0621360  80.7219930  29.4360280  82.7241880  80.0159240  29.3790820
  85.9797150  77.6103380  30.9921880  86.0993360  77.0144520  31.7316720
  86.8391150  77.6473070  30.5723180  88.3185050  78.1640570  29.5684390
  87.7920270  78.6883190  28.9649530  88.6616390  78.7967960  30.1994120
  80.7171440  75.5533940  16.0134100  80.5160500  74.6901300  16.3747440
  80.5463490  75.4667300  15.0755700  81.4940670  86.1840210  30.7241770
  80.9561760  86.9086270  30.4050470  81.7474630  85.7070550  29.9339110
  82.7465920  74.1524730  32.2497700  83.3365610  73.8440580  32.9375520
  81.9286160  73.6804480  32.4057600  87.5659350  73.7690540  32.4830720
  86.8774870  73.1072080  32.4180710  88.2865370  73.3228810  32.9279180
  88.1959750  70.3642170  18.5420980  88.4762040  69.5210070  18.8980400
  87.4225480  70.5965280  19.0559730  79.5154240  72.6534560  16.0011980
  79.8180140  72.6601990  15.0931130  80.2548830  72.3032420  16.4979640
  84.3502880  87.4191420  30.9828420  84.2761580  88.3226560  31.2900790
  83.4481720  87.1003320  30.9550490  82.7339170  71.5969180  16.9868180
  82.3861170  70.9193170  16.4070630  82.9351940  71.1358690  17.8011570
  84.8988210  86.5849930  18.6054780  85.7939000  86.9234900  18.6273540
  84.9305840  85.8629340  17.9779060  78.5384370  81.9576980  16.8341780
  78.9759240  82.5006650  17.4899360  79.0232100  81.1323930  16.8438120
  75.7530170  84.7466010  24.2862040  76.0833180  83.8787070  24.0540680
  76.1821170  84.9524530  25.1167000  80.3492090  83.0775020  21.9464010
  80.0487630  82.9539990  22.8467920  80.2429580  82.2183610  21.5379740
  76.2420380  85.6136600  27.0243670  75.8051370  85.7937400  27.8567820
  76.8098060  86.3711220  26.8825390  91.8782560  85.1153600  31.3120980
  91.2784550  85.1746160  30.5684900  92.0076460  84.1758580  31.4417830
  76.0744810  78.1256830  23.3832550  75.4193650  77.8568470  22.7392250
  76.9122760  78.0161310  22.9334530  90.5634200  81.8405580  29.4097140
  89.7494040  82.2702740  29.6722930  90.9708400  82.4523990  28.7966190
  89.0235250  72.9198120  17.6051040  89.4420130  72.7329100  16.7647700
  88.7171310  72.0677170  17.9153970  77.1120740  78.5109400  27.9235890
  77.4793780  78.4236800  28.8031910  76.5431560  77.7475950  27.8242750
  91.9124600  76.9793780  30.9366360  91.6810690  76.7506530  30.0364310
  92.1729150  77.8993330  30.8911250  76.6636740  75.4218490  31.8294310
  75.7692790  75.3885250  32.1688020  77.2034290  75.6205280  32.5945560
  90.3512670  72.2050210  33.7146060  91.2282850  72.2133610  34.0980060
  90.3633510  71.4681050  33.1038410  75.2882890  75.3355760  19.3257880
  74.3846970  75.5985960  19.1509540  75.7723510  75.6066930  18.5457840
  91.7975940  76.0579750  24.6034080  92.3213420  75.5642400  23.9724250
  92.3835360  76.1930110  25.3481650  91.9765660  76.1419620  28.1253630
  91.0268370  76.1083160  28.2398620  92.1578670  77.0519730  27.8903400
  77.8310100  74.3921300  17.2352260  78.5401800  73.9704520  16.7499540
  77.1150040  74.4596530  16.6035610  77.4784260  70.4460630  16.2754910
  78.2012390  70.9869570  16.5936130  77.7508780  70.1724050  15.3996450
  91.2875910  75.3153100  20.5426490  91.7835030  75.0823970  21.3275370
  91.0891980  74.4764940  20.1264130  77.1676450  69.6966820  26.1777530
  77.8152640  69.1464200  25.7372690  77.5878290  69.9509970  26.9993340
  91.0628790  69.8908180  29.5347170  91.7001010  70.5042320  29.9006360
  91.2103680  69.9268840  28.5896400  90.6210250  86.5924180  22.9365410
  91.2169320  86.2708750  22.2599830  90.8788400  86.1196000  23.7278680
  76.9208450  69.8522490  28.9202850  76.5723270  70.3086310  29.6861030
  76.5896150  68.9579620  29.0025280  78.5272820  83.0242090  33.0856040
  78.4842450  82.6535000  33.9670500  78.6583830  83.9619660  33.2257860
  82.2278850  84.5801680  28.6865760  81.9870210  84.8476240  27.7996280
  83.1681490  84.7507410  28.7416620  84.4333270  71.0434370  32.4422270
  84.3722160  71.6356200  33.1917680  85.3733650  70.9360330  32.2972530
  87.0707830  70.7004430  32.0814560  87.6848240  71.0183720  31.4195640
  87.6157390  70.2153020  32.7010420  77.5929090  69.3798690  32.1953620
  78.1412080  69.1986740  31.4319730  77.6584400  68.5892800  32.7309930
  78.3660850  85.9704340  30.2053820  77.7721170  85.8389040  30.9443860
  78.3584690  85.1342480  29.7395920  87.8115870  69.2636570  28.4083850
  86.9375710  69.5971680  28.2056780  87.7026620  68.7909750  29.2335720
  88.7187850  71.4707440  29.7925570  88.3901210  70.6559200  29.4127300
  89.6670150  71.4277250  29.6691260  91.1722460  87.2419480  26.7663140
  90.7125430  87.9935290  26.3921160  90.5434920  86.5225950  26.7077940
  77.9973080  83.3362720  29.1561860  77.2707140  82.7168010  29.0887810
  78.0582230  83.7303330  28.2859940  81.6018180  85.5507720  25.9411270
  82.1183200  84.9395080  25.4159530  82.2515560  86.0536500  26.4322280
  84.3413680  86.4416210  26.7680250  84.6291490  86.1870510  25.8913260
  84.8536900  85.8893570  27.3585820  85.5590690  70.1806410  27.3476760
  84.7762480  70.6551910  27.6273520  85.2653620  69.2761240  27.2389940
  90.1111760  70.8829510  25.3925850  90.5519850  70.8274610  24.5447450
  89.8419350  71.7987520  25.4636030  76.2803080  86.6537110  22.3658620
  76.1125120  86.0207790  23.0640510  75.4137590  86.8596510  22.0152810
  76.9031100  70.4853890  19.8690480  77.6610460  70.5982770  19.2954510
  76.4408270  71.3223090  19.8233910  83.4444910  72.5993160  22.8592790
  82.6319420  72.2250050  22.5188670  83.9486550  71.8438240  23.1613980
  87.9469890  69.2635610  24.0975860  88.5499260  69.8355820  24.5724380
  87.2062880  69.8275050  23.8749760  91.0904490  69.6657170  19.3716140
  91.2855120  70.5640620  19.6383570  90.3034360  69.4344250  19.8649090
  77.8865780  85.3470340  19.8108760  77.3613400  85.7278370  19.1070720
  77.8110360  85.9721110  20.5318470  79.2756250  71.0117940  18.4092450
  79.8049010  70.2247740  18.2800400  79.9084570  71.6909130  18.6427980
  81.4694090  70.7493080  21.4637840  80.8396830  70.0480390  21.6307970
  80.9299230  71.5097210  21.2471000  84.4086040  87.3632310  34.1348450
  85.3353350  87.1276580  34.1784410  84.3936470  88.1904310  33.6534480
  81.5949650  70.0277060  33.8990330  81.3133920  70.5310660  33.1351150
  81.9769350  69.2298810  33.5332460  80.4858750  87.2952720  18.6858010
  81.2177570  87.0112000  18.1381900  80.7452420  87.0566000  19.5757390
  79.6473540  83.4117450  18.6904340  79.0182420  83.8802550  19.2390170
  79.7621370  82.5666670  19.1250530  88.1965110  69.4430640  34.4770800
  88.0830560  69.7625250  35.3722320  89.0134850  69.8443150  34.1808080
  90.9763600  86.5902170  33.9589490  91.7688920  86.0951400  33.7515450
  91.2696750  87.2692310  34.5665100  87.1023260  77.4623110   4.8405540
  87.0217310  76.5477720   4.5697250  86.6887680  77.9590180   4.1345250
  85.2341300  79.2402130   6.7214810  84.4583400  78.7602570   7.0113380
  85.8854230  78.5607780   6.5470970  79.2507130  79.5521940   7.5990570
  78.4192010  79.2970650   7.9987080  79.8588110  79.6232710   8.3348490
  89.2548730  83.6462320   5.5013940  88.7930260  82.8749560   5.8301110
  90.0674280  83.6728390   6.0066390  79.2308390  83.5862030   7.7948590
  79.5336430  82.6959770   7.6158810  79.9751980  84.1432250   7.5670840
  75.6232090  77.1129480   7.2672660  76.1948200  76.3451680   7.2676300
  75.6233630  77.4118240   6.3579270  85.4812040  85.9320330   5.1217930
  84.8623480  86.3877830   4.5512370  86.3363820  86.0871790   4.7207630
  84.6750290  81.9159320   6.7284970  84.6058570  80.9749260   6.5674100
  85.4370150  82.0060730   7.3007540  76.8656960  72.5213840   9.0541590
  76.6859800  71.6239590   9.3344350  76.4637040  73.0685710   9.7288540
  85.7055460  74.7229700   6.9553900  86.0820280  73.8501580   6.8427570
  85.6074970  75.0588400   6.0644340  79.8360470  73.0955330   2.4171340
  79.9427220  73.9959060   2.7240100  78.9252830  73.0473300   2.1265990
  89.4879580  72.2180140   3.8882240  90.3089200  71.7276710   3.9307720
  89.5213660  72.8077800   4.6414080  77.4843630  75.0174340   7.6623930
  78.1653740  75.2812710   8.2811330  77.1691680  74.1775210   7.9961940
  81.6768200  76.0641700   6.7496520  82.1846420  76.5622670   7.3901540
  82.2081440  75.2876900   6.5735880  79.9604300  70.7040260  11.0159940
  79.9622740  71.2212650  10.2105840  79.1308610  70.2270440  10.9929870
  86.3475390  80.8159570   2.5149840  85.7292660  81.2809020   1.9512560
  86.8598640  81.5087050   2.9319350  81.2107150  80.3435440   9.1933440
  80.8776530  80.9704360   9.8354510  81.3873830  80.8697320   8.4135110
  89.7241060  74.1580520   6.6609780  89.0196630  74.4465410   7.2412890
  90.0853220  74.9680630   6.3009340  79.6419630  72.4150220   9.0230390
  79.9836440  73.2592270   8.7284260  78.7035440  72.5633960   9.1395730
  80.4226250  82.3116240  11.0082620  81.0400250  82.9867320  10.7267070
  79.5619370  82.7204220  10.9170120  91.3403840  83.7755650   8.9237260
  90.6567360  84.4454760   8.9153930  91.8798130  83.9736300   8.1582120
  83.3247520  69.9032490   5.3474980  83.6322500  69.3479380   4.6310480
  82.3948220  70.0376950   5.1647970  88.8762580  85.6199780   7.6382440
  88.8889740  85.2162070   6.7704700  88.3237800  86.3947070   7.5343870
  90.1708000  82.3416000   2.7272610  90.0604330  81.3990330   2.8522030
  90.1676250  82.7031640   3.6135370  88.2748020  80.5229620   8.9665050
  88.6916810  80.3089730   8.1318510  88.9987840  80.7802410   9.5373670
  85.7128280  77.9681320   2.0835100  84.7857560  77.9018700   2.3123570
  85.8653100  78.9061450   1.9690340  89.7425570  79.5301620   2.5870350
  89.1237990  79.1921170   1.9396650  89.7250020  78.8861380   3.2949540
  89.1852130  75.7086160  10.0036160  88.7723310  76.5339870  10.2576150
  88.4528080  75.1231200   9.8112520  81.3184920  78.4946060   4.8654830
  80.9141920  77.7823310   4.3700730  81.4048040  78.1499300   5.7542870
  81.7866620  82.1813620   7.0294040  81.4894910  81.5759090   6.3501820
  82.7366440  82.2190930   6.9183400  80.0313540  75.2689270   8.6453870
  80.5828130  75.3784610   7.8707120  80.5457050  75.6426870   9.3609100
  89.8752230  85.7545490  10.6917140  89.3982790  86.5617680  10.4989750
  89.1914020  85.1023820  10.8443350  80.8785050  81.9195310  13.6801840
  79.9813580  82.1435280  13.9275240  80.9037920  82.0430250  12.7313240
  79.7056270  78.7908630  12.2559210  79.5664040  79.6631430  12.6246610
  78.8237630  78.4481440  12.1107150  86.0285650  83.7084500   3.5624340
  86.4681560  84.4508830   3.1479730  85.9672540  83.9511070   4.4863300
  81.5036620  84.7330330  14.4644360  81.4752050  85.1373280  13.5972790
  81.3401590  83.8040690  14.3015960  78.0189550  77.3891040   2.3661480
  77.8987150  78.1153130   1.7542750  77.7090440  76.6193950   1.8889390
  75.6574920  80.5606180   8.1730120  75.7355340  80.6954950   7.2285840
  76.2716600  79.8522070   8.3658240  76.9022550  82.2606370   4.5836300
  76.4950630  82.4020960   3.7289900  77.7935560  81.9766530   4.3807510
  86.7201430  86.4098280  11.4903350  87.2346100  86.3206290  12.2925780
  85.8770510  86.7557980  11.7831260  81.1744210  86.4752150   2.6958970
  80.9986690  85.5587690   2.4826770  80.3199950  86.8339440   2.9356770
  87.9631890  85.8303890   3.5533840  88.4188840  85.0493270   3.8672460
  88.3024410  86.5410710   4.0975020  75.7134440  81.6020350  10.7124580
  75.8765480  81.1325710   9.8943950  76.1786890  81.0943910  11.3773420
  80.4853210  70.7326110   5.7485150  80.0421360  71.5135650   5.4169670
  81.0438200  71.0556000   6.4556090  84.7723020  73.5994630  11.3520470
  84.3102390  73.8077650  12.1640410  84.3701130  72.7853980  11.0491140
  89.7727530  74.8203580  12.4817130  88.9221120  74.5209330  12.8026200
  89.6129320  75.0645590  11.5700950  86.8677240  76.3205330  14.5815920
  87.1930650  75.4869080  14.2418150  87.6557570  76.8433850  14.7294250
  82.5229110  71.2773440   7.6074750  82.8201440  72.1836270   7.5266770
  83.0714670  70.7892220   6.9934320  80.2767430  75.8559680   3.4766400
  80.0508350  75.6396850   4.3813020  79.4959960  76.2888140   3.1312370
  87.5065190  75.8623050   2.0757050  86.9074080  76.5858850   1.8920670
  88.0544800  75.7999830   1.2933500  82.7166640  76.7545260  14.1426670
  82.6210240  75.8139990  13.9927070  83.5598620  76.9760330  13.7474740
  86.1130060  74.4986590   4.1060330  86.5059630  74.8158790   3.2929020
  86.4746910  73.6198470   4.2204850  77.8477180  73.1658930  12.2960450
  77.4540570  74.0134140  12.5033230  77.1595580  72.5285300  12.4869090
  84.4222230  73.2493900  15.3657190  83.7320550  73.0566100  16.0003280
  85.1654530  73.5328540  15.8981490  75.1494230  71.0887390   6.3290530
  74.8607280  71.6590250   7.0415510  75.8939990  70.6091840   6.6921760
  86.6985200  77.0892340   8.2011110  85.9666320  77.5979150   8.5501210
  86.3009540  76.2722320   7.8999890  83.1362590  73.7646540   6.6063600
  83.1398650  73.3236490   5.7568140  84.0313710  74.0863870   6.7135420
  78.9864970  73.6473030   5.5657810  78.6465020  74.1248260   6.3224860
  78.2242290  73.1938150   5.2058910  87.1611110  72.5426020   7.6134050
  87.1783850  72.9934670   8.4575900  86.9126690  71.6431660   7.8267490
  90.5881860  69.9558200  13.4520430  90.9127630  69.2247860  13.9778410
  90.6238370  69.6371840  12.5501420  77.2873420  80.9771780  12.8720390
  76.9028210  80.3365450  13.4703350  77.5985610  81.6807900  13.4415120
  83.4370560  77.8248320   8.3529010  83.8040690  77.3506890   9.0990350
  83.2475620  78.6989890   8.6937350  76.3011050  72.5692010   4.4822480
  76.0157970  72.2047680   5.3201100  76.2389910  71.8372470   3.8685620
  81.2269930  76.8656960  10.6713220  80.9227000  77.7448940  10.8963580
  82.1816390  76.9256750  10.7070660  90.5139700  80.0683310   7.0606460
  91.2338820  80.5638600   6.6702570  90.3121520  79.3901200   6.4160330
  85.8958500  80.1392370  12.9475460  85.8295810  79.2188040  12.6933050
  85.2663640  80.2367810  13.6620100  79.7989120  80.7398330   4.9058880
  80.3167790  79.9366590   4.8515770  79.3473140  80.6777470   5.7475710
  77.2833660  77.7059700  11.8184580  76.9248600  78.3713550  12.4057920
  76.9888220  76.8743250  12.1897200  80.4846780  78.1643940  14.7024130
  80.1846920  78.3101120  13.8051950  81.2558020  77.6049230  14.6097520
  85.8275230  82.9612940  12.6979260  85.8419770  82.0293900  12.4798170
  85.1200330  83.0472700  13.3369030  87.5686030  81.3280450   5.5431690
  87.9209850  80.7308580   4.8833060  86.6848360  81.0024680   5.7139940
  83.6549310  82.0878140   2.9502100  84.3420440  82.6347350   3.3309690
  82.8681730  82.6318870   2.9851710  82.9576520  79.0924170   2.5627460
  83.4139300  79.9029420   2.7887650  82.6064730  78.7747310   3.3945950
  85.2609130  84.6030510   9.7919760  85.9051350  84.8089890  10.4693180
  85.6238570  83.8418910   9.3390610  78.8588300  69.4361820   3.0349980
  78.7302930  69.4279720   3.9834900  78.0350320  69.7744910   2.6840990
  86.5341210  82.6062860   8.5097210  87.1763440  81.9056020   8.6229380
  87.0590560  83.3861300   8.3294100  88.3078830  83.4057760  11.7133270
  88.6435070  83.9924450  12.3911190  87.3879170  83.2750470  11.9431060
  75.8582230  71.1952940  12.4956680  75.1440750  71.3949860  13.1009290
  76.2777270  70.4192510  12.8671480  76.1454820  85.1833200  13.4823210
  76.2545940  84.2427940  13.3418600  75.4935380  85.4487950  12.8336940
  84.1367410  83.4549090  14.8821330  83.8164280  82.7358330  15.4267020
  83.4625770  84.1304160  14.9557390  87.3521010  73.6875250  10.2458130
  87.7201830  72.8670460  10.5737700  86.4919210  73.7477140  10.6613780
  82.6867070  74.9218140   2.4703570  81.9783220  75.3904480   2.9117180
  82.9711550  74.2640150   3.1048760  84.3123000  76.3414840  10.4696100
  84.8108250  76.8160660  11.1347950  84.4545950  75.4178360  10.6766130
  86.7182500  71.6468800   3.9099360  86.5950280  71.6654930   2.9608870
  87.6667060  71.6947740   4.0297760  83.8059290  86.8824100   3.1827340
  84.0600790  86.8445490   2.2606710  82.8571770  86.7557430   3.1755590
  91.5189860  72.5582800  11.3124490  91.0163460  73.2988200  11.6518300
  92.3346520  72.9466800  10.9961280  89.8111870  77.8015980   4.7585850
  88.8702010  77.8166210   4.9333540  90.1255940  77.0151940   5.2046150
  79.2854980  87.0656040   6.1057240  80.0217460  86.5171500   6.3765810
  79.6695900  87.9312050   5.9663230  76.1700460  83.1329610   1.9798750
  75.2440240  83.3750750   1.9704160  76.6356890  83.9603870   1.8583500
  78.2913260  86.2502110  15.2942820  79.0925990  86.5714160  15.7078220
  77.7765080  85.8897690  16.0162730  87.1277890  82.3581980  15.2418230
  86.5216050  82.3813580  14.5013980  86.8232000  81.6265020  15.7785480
  88.5578260  86.0862270  13.8527640  89.5100010  86.0020290  13.8027880
  88.4106480  86.7503980  14.5261430  76.0111070  78.7375570  14.2378870
  76.5150090  78.1582850  14.8095100  75.2718490  79.0215800  14.7755240
  83.0649010  80.1446560  13.7714390  82.2994680  80.7131560  13.6869060
  83.2464970  79.8522770  12.8782620  90.2072360  81.8751890  14.3289410
  90.9481830  82.2127650  13.8256870  89.4445040  82.0443950  13.7759180
  78.0434150  76.8805160  15.1328940  78.0839490  76.5819030  16.0414170
  78.8979650  77.2812770  14.9736460  79.9839960  75.4597260  13.1003430
  79.4536420  74.9688210  12.4726770  80.6528030  75.8881460  12.5661360
  88.8818020  79.9266720  12.8644620  89.2959040  80.0811800  13.7135040
  87.9469020  80.0521940  13.0270400  89.3540190  77.2662880  14.8683770
  89.9360960  76.5115200  14.7804250  89.5301960  77.7970320  14.0915250
  80.4712260  72.4259630  13.1800720  80.3769130  71.8080380  12.4551590
  79.8909650  73.1525920  12.9530630  83.2373700  70.9832870  10.2128110
  82.7891000  71.0057130   9.3673660  82.6038900  70.5851890  10.8098410
  83.6433250  79.8787200  10.8340550  84.0621360  80.7219930  10.6616790
  82.7241880  80.0159240  10.6047330  85.9797150  77.6103380  12.2178390
  86.0993360  77.0144520  12.9573230  86.8391150  77.6473070  11.7979690
  88.3185050  78.1640570  10.7940900  87.7920270  78.6883190  10.1906040
  88.6616390  78.7967960  11.4250630  81.4940670  86.1840210  11.9498280
  80.9561760  86.9086270  11.6306980  81.7474630  85.7070550  11.1595620
  82.7465920  74.1524730  13.4754210  83.3365610  73.8440580  14.1632030
  81.9286160  73.6804480  13.6314110  87.5659350  73.7690540  13.7087230
  86.8774870  73.1072080  13.6437220  88.2865370  73.3228810  14.1535690
  84.3502880  87.4191420  12.2084930  84.2761580  88.3226560  12.5157300
  83.4481720  87.1003320  12.1807000  75.7530170  84.7466010   5.5118550
  76.0833180  83.8787070   5.2797190  76.1821170  84.9524530   6.3423510
  80.3492090  83.0775020   3.1720520  80.0487630  82.9539990   4.0724430
  80.2429580  82.2183610   2.7636250  76.2420380  85.6136600   8.2500180
  75.8051370  85.7937400   9.0824330  76.8098060  86.3711220   8.1081900
  91.8782560  85.1153600  12.5377490  91.2784550  85.1746160  11.7941410
  92.0076460  84.1758580  12.6674340  76.0744810  78.1256830   4.6089060
  75.4193650  77.8568470   3.9648760  76.9122760  78.0161310   4.1591040
  90.5634200  81.8405580  10.6353650  89.7494040  82.2702740  10.8979440
  90.9708400  82.4523990  10.0222700  77.1120740  78.5109400   9.1492400
  77.4793780  78.4236800  10.0288420  76.5431560  77.7475950   9.0499260
  91.9124600  76.9793780  12.1622870  91.6810690  76.7506530  11.2620820
  92.1729150  77.8993330  12.1167760  76.6636740  75.4218490  13.0550820
  75.7692790  75.3885250  13.3944530  77.2034290  75.6205280  13.8202070
  90.3512670  72.2050210  14.9402570  91.2282850  72.2133610  15.3236570
  90.3633510  71.4681050  14.3294920  91.7975940  76.0579750   5.8290590
  92.3213420  75.5642400   5.1980760  92.3835360  76.1930110   6.5738160
  91.9765660  76.1419620   9.3510140  91.0268370  76.1083160   9.4655130
  92.1578670  77.0519730   9.1159910  91.2875910  75.3153100   1.7683000
  91.7835030  75.0823970   2.5531880  91.0891980  74.4764940   1.3520640
  77.1676450  69.6966820   7.4034040  77.8152640  69.1464200   6.9629200
  77.5878290  69.9509970   8.2249850  91.0628790  69.8908180  10.7603680
  91.7001010  70.5042320  11.1262870  91.2103680  69.9268840   9.8152910
  90.6210250  86.5924180   4.1621920  91.2169320  86.2708750   3.4856340
  90.8788400  86.1196000   4.9535190  76.9208450  69.8522490  10.1459360
  76.5723270  70.3086310  10.9117540  76.5896150  68.9579620  10.2281790
  78.5272820  83.0242090  14.3112550  78.4842450  82.6535000  15.1927010
  78.6583830  83.9619660  14.4514370  82.2278850  84.5801680   9.9122270
  81.9870210  84.8476240   9.0252790  83.1681490  84.7507410   9.9673130
  84.4333270  71.0434370  13.6678780  84.3722160  71.6356200  14.4174190
  85.3733650  70.9360330  13.5229040  87.0707830  70.7004430  13.3071070
  87.6848240  71.0183720  12.6452150  87.6157390  70.2153020  13.9266930
  77.5929090  69.3798690  13.4210130  78.1412080  69.1986740  12.6576240
  77.6584400  68.5892800  13.9566440  78.3660850  85.9704340  11.4310330
  77.7721170  85.8389040  12.1700370  78.3584690  85.1342480  10.9652430
  87.8115870  69.2636570   9.6340360  86.9375710  69.5971680   9.4313290
  87.7026620  68.7909750  10.4592230  88.7187850  71.4707440  11.0182080
  88.3901210  70.6559200  10.6383810  89.6670150  71.4277250  10.8947770
  91.1722460  87.2419480   7.9919650  90.7125430  87.9935290   7.6177670
  90.5434920  86.5225950   7.9334450  77.9973080  83.3362720  10.3818370
  77.2707140  82.7168010  10.3144320  78.0582230  83.7303330   9.5116450
  81.6018180  85.5507720   7.1667780  82.1183200  84.9395080   6.6416040
  82.2515560  86.0536500   7.6578790  84.3413680  86.4416210   7.9936760
  84.6291490  86.1870510   7.1169770  84.8536900  85.8893570   8.5842330
  85.5590690  70.1806410   8.5733270  84.7762480  70.6551910   8.8530030
  85.2653620  69.2761240   8.4646450  90.1111760  70.8829510   6.6182360
  90.5519850  70.8274610   5.7703960  89.8419350  71.7987520   6.6892540
  76.2803080  86.6537110   3.5915130  76.1125120  86.0207790   4.2897020
  75.4137590  86.8596510   3.2409320  83.4444910  72.5993160   4.0849300
  82.6319420  72.2250050   3.7445180  83.9486550  71.8438240   4.3870490
  87.9469890  69.2635610   5.3232370  88.5499260  69.8355820   5.7980890
  87.2062880  69.8275050   5.1006270  81.4694090  70.7493080   2.6894350
  80.8396830  70.0480390   2.8564480  80.9299230  71.5097210   2.4727510
  84.4086040  87.3632310  15.3604960  85.3353350  87.1276580  15.4040920
  84.3936470  88.1904310  14.8790990  81.5949650  70.0277060  15.1246840
  81.3133920  70.5310660  14.3607660  81.9769350  69.2298810  14.7588970
  88.1965110  69.4430640  15.7027310  88.0830560  69.7625250  16.5978830
  89.0134850  69.8443150  15.4064590  90.9763600  86.5902170  15.1846000
  91.7688920  86.0951400  14.9771960  91.2696750  87.2692310  15.7921610
  87.1023260  58.6879620  79.9379500  87.0217310  57.7734230  79.6671210
  86.6887680  59.1846690  79.2319210  85.2341300  60.4658640  81.8188770
  84.4583400  59.9859080  82.1087340  85.8854230  59.7864290  81.6444930
  79.2507130  60.7778450  82.6964530  78.4192010  60.5227160  83.0961040
  79.8588110  60.8489220  83.4322450  89.2548730  64.8718830  80.5987900
  88.7930260  64.1006070  80.9275070  90.0674280  64.8984900  81.1040350
  79.2308390  64.8118540  82.8922550  79.5336430  63.9216280  82.7132770
  79.9751980  65.3688760  82.6644800  77.6599080  55.7380340  76.4806920
  76.7715780  56.0796310  76.3786800  77.9440270  55.5380660  75.5887750
  75.6232090  58.3385990  82.3646620  76.1948200  57.5708190  82.3650260
  75.6233630  58.6374750  81.4553230  85.4812040  67.1576840  80.2191890
  84.8623480  67.6134340  79.6486330  86.3363820  67.3128300  79.8181590
  84.6750290  63.1415830  81.8258930  84.6058570  62.2005770  81.6648060
  85.4370150  63.2317240  82.3981500  76.8656960  53.7470350  84.1515550
  76.6859800  52.8496100  84.4318310  76.4637040  54.2942220  84.8262500
  85.7055460  55.9486210  82.0527860  86.0820280  55.0758090  81.9401530
  85.6074970  56.2844910  81.1618300  79.8360470  54.3211840  77.5145300
  79.9427220  55.2215570  77.8214060  78.9252830  54.2729810  77.2239950
  89.4879580  53.4436650  78.9856200  90.3089200  52.9533220  79.0281680
  89.5213660  54.0334310  79.7388040  77.4843630  56.2430850  82.7597890
  78.1653740  56.5069220  83.3785290  77.1691680  55.4031720  83.0935900
  81.6768200  57.2898210  81.8470480  82.1846420  57.7879180  82.4875500
  82.2081440  56.5133410  81.6709840  79.9604300  51.9296770  86.1133900
  79.9622740  52.4469160  85.3079800  79.1308610  51.4526950  86.0903830
  86.3475390  62.0416080  77.6123800  85.7292660  62.5065530  77.0486520
  86.8598640  62.7343560  78.0293310  81.2107150  61.5691950  84.2907400
  80.8776530  62.1960870  84.9328470  81.3873830  62.0953830  83.5109070
  89.7241060  55.3837030  81.7583740  89.0196630  55.6721920  82.3386850
  90.0853220  56.1937140  81.3983300  79.6419630  53.6406730  84.1204350
  79.9836440  54.4848780  83.8258220  78.7035440  53.7890470  84.2369690
  80.4226250  63.5372750  86.1056580  81.0400250  64.2123830  85.8241030
  79.5619370  63.9460730  86.0144080  75.7158590  62.7272610  74.9863430
  75.3386570  63.2159710  74.2548330  75.9731660  63.3997890  75.6169960
  91.3403840  65.0012160  84.0211220  90.6567360  65.6711270  84.0127890
  91.8798130  65.1992810  83.2556080  83.3247520  51.1289000  80.4448940
  83.6322500  50.5735890  79.7284440  82.3948220  51.2633460  80.2621930
  88.8762580  66.8456290  82.7356400  88.8889740  66.4418580  81.8678660
  88.3237800  67.6203580  82.6317830  90.1708000  63.5672510  77.8246570
  90.0604330  62.6246840  77.9495990  90.1676250  63.9288150  78.7109330
  88.2748020  61.7486130  84.0639010  88.6916810  61.5346240  83.2292470
  88.9987840  62.0058920  84.6347630  85.7128280  59.1937830  77.1809060
  84.7857560  59.1275210  77.4097530  85.8653100  60.1317960  77.0664300
  85.6997360  55.4654830  74.1776220  84.7601030  55.6268790  74.2628680
  86.0180620  56.1840510  73.6312210  89.7425570  60.7558130  77.6844310
  89.1237990  60.4177680  77.0370610  89.7250020  60.1117890  78.3923500
  89.1852130  56.9342670  85.1010120  88.7723310  57.7596380  85.3550110
  88.4528080  56.3487710  84.9086480  81.3184920  59.7202570  79.9628790
  80.9141920  59.0079820  79.4674690  81.4048040  59.3755810  80.8516830
  81.7866620  63.4070130  82.1268000  81.4894910  62.8015600  81.4475780
  82.7366440  63.4447440  82.0157360  80.0313540  56.4945780  83.7427830
  80.5828130  56.6041120  82.9681080  80.5457050  56.8683380  84.4583060
  89.8752230  66.9802000  85.7891100  89.3982790  67.7874190  85.5963710
  89.1914020  66.3280330  85.9417310  87.9190270  59.9944940  74.6917060
  88.3583550  59.1567370  74.5454880  88.6318690  60.6274340  74.7781200
  86.0285650  64.9341010  78.6598300  86.4681560  65.6765340  78.2453690
  85.9672540  65.1767580  79.5837260  91.5007410  51.2487750  73.0058100
  91.1880070  51.3414580  73.9057170  92.2619880  51.8268780  72.9555530
  78.0189550  58.6147550  77.4635440  77.8987150  59.3409640  76.8516710
  77.7090440  57.8450460  76.9863350  75.6574920  61.7862690  83.2704080
  75.7355340  61.9211460  82.3259800  76.2716600  61.0778580  83.4632200
  76.9022550  63.4862880  79.6810260  76.4950630  63.6277470  78.8263860
  77.7935560  63.2023040  79.4781470  88.6955830  67.9210130  76.0161310
  88.5356970  67.6313070  76.9143140  88.5302540  67.1450260  75.4806540
  81.1744210  67.7008660  77.7932930  80.9986690  66.7844200  77.5800730
  80.3199950  68.0595950  78.0330730  88.3981960  65.4297690  74.5759310
  87.7047120  65.4274980  73.9161590  89.1404820  65.0057010  74.1453480
  87.9631890  67.0560400  78.6507800  88.4188840  66.2749780  78.9646420
  88.3024410  67.7667220  79.1948980  75.7134440  62.8276860  85.8098540
  75.8765480  62.3582220  84.9917910  76.1786890  62.3200420  86.4747380
  80.4853210  51.9582620  80.8459110  80.0421360  52.7392160  80.5143630
  81.0438200  52.2812510  81.5530050  83.6012030  51.5793320  75.7264940
  82.9766210  51.5753190  76.4518250  83.5142150  50.7124280  75.3300910
  82.5229110  52.5029950  82.7048710  82.8201440  53.4092780  82.6240730
  83.0714670  52.0148730  82.0908280  80.2767430  57.0816190  78.5740360
  80.0508350  56.8653360  79.4786980  79.4959960  57.5144650  78.2286330
  87.5065190  57.0879560  77.1731010  86.9074080  57.8115360  76.9894630
  88.0544800  57.0256340  76.3907460  86.1130060  55.7243100  79.2034290
  86.5059630  56.0415300  78.3902980  86.4746910  54.8454980  79.3178810
  75.1494230  52.3143900  81.4264490  74.8607280  52.8846760  82.1389470
  75.8939990  51.8348350  81.7895720  75.3364460  56.2564020  72.6367210
  75.2539130  57.1994780  72.7782200  74.9847520  56.1138930  71.7579560
  86.6985200  58.3148850  83.2985070  85.9666320  58.8235660  83.6475170
  86.3009540  57.4978830  82.9973850  83.1362590  54.9903050  81.7037560
  83.1398650  54.5493000  80.8542100  84.0313710  55.3120380  81.8109380
  78.9864970  54.8729540  80.6631770  78.6465020  55.3504770  81.4198820
  78.2242290  54.4194660  80.3032870  83.1982740  55.9915130  74.6944320
  83.3195560  55.9501610  75.6430140  82.8131250  56.8539280  74.5391050
  87.1611110  53.7682530  82.7108010  87.1783850  54.2191180  83.5549860
  86.9126690  52.8688170  82.9241450  82.2104240  58.3016270  74.0927620
  81.6421140  57.8534520  73.4663530  82.9193240  58.6609050  73.5592770
  83.4370560  59.0504830  83.4502970  83.8040690  58.5763400  84.1964310
  83.2475620  59.9246400  83.7911310  76.3011050  53.7948520  79.5796440
  76.0157970  53.4304190  80.4175060  76.2389910  53.0628980  78.9659580
  81.2269930  58.0913470  85.7687180  80.9227000  58.9705450  85.9937540
  82.1816390  58.1513260  85.8044620  79.7551720  62.2974460  76.3654030
  78.9813980  61.7572080  76.2052750  80.4846350  61.7781070  76.0271790
  90.5139700  61.2939820  82.1580420  91.2338820  61.7895110  81.7676530
  90.3121520  60.6157710  81.5134290  85.9749640  52.6877780  76.3009810
  85.1614250  52.1890950  76.2255120  85.7811590  53.5276030  75.8846160
  88.6898030  57.0597430  74.5971970  89.5777650  57.3714660  74.4223310
  88.6603120  56.1869680  74.2052550  79.7989120  61.9654840  80.0032840
  80.3167790  61.1623100  79.9489730  79.3473140  61.9033980  80.8449670
  84.6858620  63.2321120  75.2760140  85.0274320  63.9763350  74.7803460
  83.8571330  63.5452240  75.6384970  90.9612300  58.3709270  74.0651830
  90.8776020  58.8023490  73.2148270  91.6806490  58.8307620  74.4978650
  91.9899550  65.2251530  76.7933960  91.3475710  64.5707150  77.0677680
  91.6030210  65.6306620  76.0174630  87.5686030  62.5536960  80.6405650
  87.9209850  61.9565090  79.9807020  86.6848360  62.2281190  80.8113900
  83.6549310  63.3134650  78.0476060  84.3420440  63.8603860  78.4283650
  82.8681730  63.8575380  78.0825670  75.7941710  58.9307470  73.5393140
  76.6636560  59.2132270  73.8229060  75.3032030  59.7443340  73.4241950
  82.9576520  60.3180680  77.6601420  83.4139300  61.1285930  77.8861610
  82.6064730  60.0003820  78.4919910  85.2609130  65.8287020  84.8893720
  85.9051350  66.0346400  85.5667140  85.6238570  65.0675420  84.4364570
  78.8588300  50.6618330  78.1323940  78.7302930  50.6536230  79.0808860
  78.0350320  51.0001420  77.7814950  86.5341210  63.8319370  83.6071170
  87.1763440  63.1312530  83.7203340  87.0590560  64.6117810  83.4268060
  90.3796930  64.1167990  73.3310310  90.1534510  63.3998430  73.9234950
  89.9893130  63.8680430  72.4932060  76.1612960  68.1434850  74.1054770
  76.5210600  68.7424190  73.4512040  76.0205300  68.6894740  74.8789800
  89.9613180  62.0339930  74.9924470  89.6734880  62.4952620  75.7802350
  90.7565350  61.5737700  75.2608690  82.1781580  65.5266050  74.9228440
  82.1691680  66.2595740  74.3072950  81.2579940  65.2797630  75.0155400
  77.7788220  60.7480940  75.6675200  77.1716170  61.4879840  75.6770500
  78.2537570  60.8380300  74.8413400  87.3521010  54.9131760  85.3432090
  87.7201830  54.0926970  85.6711660  86.4919210  54.9733650  85.7587740
  90.7183040  53.8688700  76.1519650  90.0896200  53.9734370  75.4377880
  90.2234960  54.0885480  76.9413530  85.1641180  65.5894290  73.5853630
  85.2653160  65.3858280  72.6555610  84.2642920  65.3352570  73.7901410
  82.6867070  56.1474650  77.5677530  81.9783220  56.6160990  78.0091140
  82.9711550  55.4896660  78.2022720  84.3123000  57.5671350  85.5670060
  84.8108250  58.0417170  86.2321910  84.4545950  56.6434870  85.7740090
  86.7182500  52.8725310  79.0073320  86.5950280  52.8911440  78.0582830
  87.6667060  52.9204250  79.1271720  83.8059290  68.1080610  78.2801300
  84.0600790  68.0702000  77.3580670  82.8571770  67.9813940  78.2729550
  80.8902090  54.4559730  74.9428240  81.7392620  54.8929880  74.8768430
  80.5233360  54.7679990  75.7700300  91.5189860  53.7839310  86.4098450
  91.0163460  54.5244710  86.7492260  92.3346520  54.1723310  86.0935240
  89.8111870  59.0272490  79.8559810  88.8702010  59.0422720  80.0307500
  90.1255940  58.2408450  80.3020110  79.7893510  60.7092090  73.4163770
  80.5556780  60.5973450  73.9789200  79.8668200  60.0130060  72.7640540
  78.4840270  58.1417160  74.0996660  78.5643860  57.1944670  74.2114060
  79.3760020  58.4724040  74.2057320  79.2854980  68.2912550  81.2031200
  80.0217460  67.7428010  81.4739770  79.6695900  69.1568560  81.0637190
  76.1700460  64.3586120  77.0772710  75.2440240  64.6007260  77.0678120
  76.6356890  65.1860380  76.9557460  82.3957290  67.4642860  73.0256770
  83.1885900  67.7531690  72.5738560  81.8761640  67.0335030  72.3469250
  91.4487460  66.6912990  74.4493510  91.1628970  66.2778130  73.6347690
  91.2507010  67.6200700  74.3294030  82.9134690  62.6846270  72.8899120
  82.8085330  62.0698620  73.6160500  82.7458910  62.1612160  72.1062130
  86.1537420  61.7466300  73.4941110  85.6047520  62.1935600  74.1383850
  86.7756680  61.2415550  74.0178780  81.8212540  60.7057220  75.3906410
  82.2428960  60.5397090  76.2337800  81.9463380  59.8957450  74.8961550
  84.3340180  59.7294830  72.6383510  84.8545840  59.0143850  72.2724660
  84.9808580  60.3680700  72.9384020  83.2373700  52.2089380  85.3102070
  82.7891000  52.2313640  84.4647620  82.6038900  51.8108400  85.9072370
  83.6433250  61.1043710  85.9314510  84.0621360  61.9476440  85.7590750
  82.7241880  61.2415750  85.7021290  88.3185050  59.3897080  85.8914860
  87.7920270  59.9139700  85.2880000  88.6616390  60.0224470  86.5224590
  80.7171440  56.7790450  72.3364570  80.5160500  55.9157810  72.6977910
  80.5463490  56.6923810  71.3986170  88.1959750  51.5898680  74.8651450
  88.4762040  50.7466580  75.2210870  87.4225480  51.8221790  75.3790200
  79.5154240  53.8791070  72.3242450  79.8180140  53.8858500  71.4161600
  80.2548830  53.5288930  72.8210110  82.7339170  52.8225690  73.3098650
  82.3861170  52.1449680  72.7301100  82.9351940  52.3615200  74.1242040
  84.8988210  67.8106440  74.9285250  85.7939000  68.1491410  74.9504010
  84.9305840  67.0885850  74.3009530  78.5384370  63.1833490  73.1572250
  78.9759240  63.7263160  73.8129830  79.0232100  62.3580440  73.1668590
  75.7530170  65.9722520  80.6092510  76.0833180  65.1043580  80.3771150
  76.1821170  66.1781040  81.4397470  80.3492090  64.3031530  78.2694480
  80.0487630  64.1796500  79.1698390  80.2429580  63.4440120  77.8610210
  76.2420380  66.8393110  83.3474140  75.8051370  67.0193910  84.1798290
  76.8098060  67.5967730  83.2055860  76.0744810  59.3513340  79.7063020
  75.4193650  59.0824980  79.0622720  76.9122760  59.2417820  79.2565000
  90.5634200  63.0662090  85.7327610  89.7494040  63.4959250  85.9953400
  90.9708400  63.6780500  85.1196660  89.0235250  54.1454630  73.9281510
  89.4420130  53.9585610  73.0878170  88.7171310  53.2933680  74.2384440
  77.1120740  59.7365910  84.2466360  77.4793780  59.6493310  85.1262380
  76.5431560  58.9732460  84.1473220  75.2882890  56.5612270  75.6488350
  74.3846970  56.8242470  75.4740010  75.7723510  56.8323440  74.8688310
  91.7975940  57.2836260  80.9264550  92.3213420  56.7898910  80.2954720
  92.3835360  57.4186620  81.6712120  91.9765660  57.3676130  84.4484100
  91.0268370  57.3339670  84.5629090  92.1578670  58.2776240  84.2133870
  77.8310100  55.6177810  73.5582730  78.5401800  55.1961030  73.0730010
  77.1150040  55.6853040  72.9266080  77.4784260  51.6717140  72.5985380
  78.2012390  52.2126080  72.9166600  77.7508780  51.3980560  71.7226920
  91.2875910  56.5409610  76.8656960  91.7835030  56.3080480  77.6505840
  91.0891980  55.7021450  76.4494600  77.1676450  50.9223330  82.5008000
  77.8152640  50.3720710  82.0603160  77.5878290  51.1766480  83.3223810
  91.0628790  51.1164690  85.8577640  91.7001010  51.7298830  86.2236830
  91.2103680  51.1525350  84.9126870  90.6210250  67.8180690  79.2595880
  91.2169320  67.4965260  78.5830300  90.8788400  67.3452510  80.0509150
  76.9208450  51.0779000  85.2433320  76.5723270  51.5342820  86.0091500
  76.5896150  50.1836130  85.3255750  82.2278850  65.8058190  85.0096230
  81.9870210  66.0732750  84.1226750  83.1681490  65.9763920  85.0647090
  87.8115870  50.4893080  84.7314320  86.9375710  50.8228190  84.5287250
  87.7026620  50.0166260  85.5566190  88.7187850  52.6963950  86.1156040
  88.3901210  51.8815710  85.7357770  89.6670150  52.6533760  85.9921730
  91.1722460  68.4675990  83.0893610  90.7125430  69.2191800  82.7151630
  90.5434920  67.7482460  83.0308410  77.9973080  64.5619230  85.4792330
  77.2707140  63.9424520  85.4118280  78.0582230  64.9559840  84.6090410
  81.6018180  66.7764230  82.2641740  82.1183200  66.1651590  81.7390000
  82.2515560  67.2793010  82.7552750  84.3413680  67.6672720  83.0910720
  84.6291490  67.4127020  82.2143730  84.8536900  67.1150080  83.6816290
  85.5590690  51.4062920  83.6707230  84.7762480  51.8808420  83.9503990
  85.2653620  50.5017750  83.5620410  90.1111760  52.1086020  81.7156320
  90.5519850  52.0531120  80.8677920  89.8419350  53.0244030  81.7866500
  76.2803080  67.8793620  78.6889090  76.1125120  67.2464300  79.3870980
  75.4137590  68.0853020  78.3383280  76.9031100  51.7110400  76.1920950
  77.6610460  51.8239280  75.6184980  76.4408270  52.5479600  76.1464380
  83.4444910  53.8249670  79.1823260  82.6319420  53.4506560  78.8419140
  83.9486550  53.0694750  79.4844450  87.9469890  50.4892120  80.4206330
  88.5499260  51.0612330  80.8954850  87.2062880  51.0531560  80.1980230
  91.0904490  50.8913680  75.6946610  91.2855120  51.7897130  75.9614040
  90.3034360  50.6600760  76.1879560  77.8865780  66.5726850  76.1339230
  77.3613400  66.9534880  75.4301190  77.8110360  67.1977620  76.8548940
  79.2756250  52.2374450  74.7322920  79.8049010  51.4504250  74.6030870
  79.9084570  52.9165640  74.9658450  81.4694090  51.9749590  77.7868310
  80.8396830  51.2736900  77.9538440  80.9299230  52.7353720  77.5701470
  80.4858750  68.5209230  75.0088480  81.2177570  68.2368510  74.4612370
  80.7452420  68.2822510  75.8987860  79.6473540  64.6373960  75.0134810
  79.0182420  65.1059060  75.5620640  79.7621370  63.7923180  75.4481000
  87.1023260  58.6879620  61.1636010  87.0217310  57.7734230  60.8927720
  86.6887680  59.1846690  60.4575720  85.2341300  60.4658640  63.0445280
  84.4583400  59.9859080  63.3343850  85.8854230  59.7864290  62.8701440
  79.2507130  60.7778450  63.9221040  78.4192010  60.5227160  64.3217550
  79.8588110  60.8489220  64.6578960  89.2548730  64.8718830  61.8244410
  88.7930260  64.1006070  62.1531580  90.0674280  64.8984900  62.3296860
  79.2308390  64.8118540  64.1179060  79.5336430  63.9216280  63.9389280
  79.9751980  65.3688760  63.8901310  77.6599080  55.7380340  57.7063430
  76.7715780  56.0796310  57.6043310  77.9440270  55.5380660  56.8144260
  75.6232090  58.3385990  63.5903130  76.1948200  57.5708190  63.5906770
  75.6233630  58.6374750  62.6809740  85.4812040  67.1576840  61.4448400
  84.8623480  67.6134340  60.8742840  86.3363820  67.3128300  61.0438100
  84.6750290  63.1415830  63.0515440  84.6058570  62.2005770  62.8904570
  85.4370150  63.2317240  63.6238010  76.8656960  53.7470350  65.3772060
  76.6859800  52.8496100  65.6574820  76.4637040  54.2942220  66.0519010
  85.7055460  55.9486210  63.2784370  86.0820280  55.0758090  63.1658040
  85.6074970  56.2844910  62.3874810  79.8360470  54.3211840  58.7401810
  79.9427220  55.2215570  59.0470570  78.9252830  54.2729810  58.4496460
  89.4879580  53.4436650  60.2112710  90.3089200  52.9533220  60.2538190
  89.5213660  54.0334310  60.9644550  77.4843630  56.2430850  63.9854400
  78.1653740  56.5069220  64.6041800  77.1691680  55.4031720  64.3192410
  81.6768200  57.2898210  63.0726990  82.1846420  57.7879180  63.7132010
  82.2081440  56.5133410  62.8966350  79.9604300  51.9296770  67.3390410
  79.9622740  52.4469160  66.5336310  79.1308610  51.4526950  67.3160340
  86.3475390  62.0416080  58.8380310  85.7292660  62.5065530  58.2743030
  86.8598640  62.7343560  59.2549820  81.2107150  61.5691950  65.5163910
  80.8776530  62.1960870  66.1584980  81.3873830  62.0953830  64.7365580
  89.7241060  55.3837030  62.9840250  89.0196630  55.6721920  63.5643360
  90.0853220  56.1937140  62.6239810  79.6419630  53.6406730  65.3460860
  79.9836440  54.4848780  65.0514730  78.7035440  53.7890470  65.4626200
  80.4226250  63.5372750  67.3313090  81.0400250  64.2123830  67.0497540
  79.5619370  63.9460730  67.2400590  75.7158590  62.7272610  56.2119940
  75.3386570  63.2159710  55.4804840  75.9731660  63.3997890  56.8426470
  91.3403840  65.0012160  65.2467730  90.6567360  65.6711270  65.2384400
  91.8798130  65.1992810  64.4812590  83.3247520  51.1289000  61.6705450
  83.6322500  50.5735890  60.9540950  82.3948220  51.2633460  61.4878440
  88.8762580  66.8456290  63.9612910  88.8889740  66.4418580  63.0935170
  88.3237800  67.6203580  63.8574340  90.1708000  63.5672510  59.0503080
  90.0604330  62.6246840  59.1752500  90.1676250  63.9288150  59.9365840
  88.2748020  61.7486130  65.2895520  88.6916810  61.5346240  64.4548980
  88.9987840  62.0058920  65.8604140  85.7128280  59.1937830  58.4065570
  84.7857560  59.1275210  58.6354040  85.8653100  60.1317960  58.2920810
  85.6997360  55.4654830  55.4032730  84.7601030  55.6268790  55.4885190
  86.0180620  56.1840510  54.8568720  89.7425570  60.7558130  58.9100820
  89.1237990  60.4177680  58.2627120  89.7250020  60.1117890  59.6180010
  89.1852130  56.9342670  66.3266630  88.7723310  57.7596380  66.5806620
  88.4528080  56.3487710  66.1342990  81.3184920  59.7202570  61.1885300
  80.9141920  59.0079820  60.6931200  81.4048040  59.3755810  62.0773340
  81.7866620  63.4070130  63.3524510  81.4894910  62.8015600  62.6732290
  82.7366440  63.4447440  63.2413870  80.0313540  56.4945780  64.9684340
  80.5828130  56.6041120  64.1937590  80.5457050  56.8683380  65.6839570
  89.8752230  66.9802000  67.0147610  89.3982790  67.7874190  66.8220220
  89.1914020  66.3280330  67.1673820  80.8785050  63.1451820  70.0032310
  79.9813580  63.3691790  70.2505710  80.9037920  63.2686760  69.0543710
  87.9190270  59.9944940  55.9173570  88.3583550  59.1567370  55.7711390
  88.6318690  60.6274340  56.0037710  79.7056270  60.0165140  68.5789680
  79.5664040  60.8887940  68.9477080  78.8237630  59.6737950  68.4337620
  86.0285650  64.9341010  59.8854810  86.4681560  65.6765340  59.4710200
  85.9672540  65.1767580  60.8093770  81.5036620  65.9586840  70.7874830
  81.4752050  66.3629790  69.9203260  81.3401590  65.0297200  70.6246430
  91.5007410  51.2487750  54.2314610  91.1880070  51.3414580  55.1313680
  92.2619880  51.8268780  54.1812040  78.0189550  58.6147550  58.6891950
  77.8987150  59.3409640  58.0773220  77.7090440  57.8450460  58.2119860
  75.6574920  61.7862690  64.4960590  75.7355340  61.9211460  63.5516310
  76.2716600  61.0778580  64.6888710  76.9022550  63.4862880  60.9066770
  76.4950630  63.6277470  60.0520370  77.7935560  63.2023040  60.7037980
  86.7201430  67.6354790  67.8133820  87.2346100  67.5462800  68.6156250
  85.8770510  67.9814490  68.1061730  88.6955830  67.9210130  57.2417820
  88.5356970  67.6313070  58.1399650  88.5302540  67.1450260  56.7063050
  81.1744210  67.7008660  59.0189440  80.9986690  66.7844200  58.8057240
  80.3199950  68.0595950  59.2587240  88.3981960  65.4297690  55.8015820
  87.7047120  65.4274980  55.1418100  89.1404820  65.0057010  55.3709990
  87.9631890  67.0560400  59.8764310  88.4188840  66.2749780  60.1902930
  88.3024410  67.7667220  60.4205490  75.7134440  62.8276860  67.0355050
  75.8765480  62.3582220  66.2174420  76.1786890  62.3200420  67.7003890
  80.4853210  51.9582620  62.0715620  80.0421360  52.7392160  61.7400140
  81.0438200  52.2812510  62.7786560  84.7723020  54.8251140  67.6750940
  84.3102390  55.0334160  68.4870880  84.3701130  54.0110490  67.3721610
  89.7727530  56.0460090  68.8047600  88.9221120  55.7465840  69.1256670
  89.6129320  56.2902100  67.8931420  86.8677240  57.5461840  70.9046390
  87.1930650  56.7125590  70.5648620  87.6557570  58.0690360  71.0524720
  83.6012030  51.5793320  56.9521450  82.9766210  51.5753190  57.6774760
  83.5142150  50.7124280  56.5557420  82.5229110  52.5029950  63.9305220
  82.8201440  53.4092780  63.8497240  83.0714670  52.0148730  63.3164790
  80.2767430  57.0816190  59.7996870  80.0508350  56.8653360  60.7043490
  79.4959960  57.5144650  59.4542840  87.5065190  57.0879560  58.3987520
  86.9074080  57.8115360  58.2151140  88.0544800  57.0256340  57.6163970
  82.7166640  57.9801770  70.4657140  82.6210240  57.0396500  70.3157540
  83.5598620  58.2016840  70.0705210  86.1130060  55.7243100  60.4290800
  86.5059630  56.0415300  59.6159490  86.4746910  54.8454980  60.5435320
  77.8477180  54.3915440  68.6190920  77.4540570  55.2390650  68.8263700
  77.1595580  53.7541810  68.8099560  84.4222230  54.4750410  71.6887660
  83.7320550  54.2822610  72.3233750  85.1654530  54.7585050  72.2211960
  75.1494230  52.3143900  62.6521000  74.8607280  52.8846760  63.3645980
  75.8939990  51.8348350  63.0152230  75.3364460  56.2564020  53.8623720
  75.2539130  57.1994780  54.0038710  74.9847520  56.1138930  52.9836070
  86.6985200  58.3148850  64.5241580  85.9666320  58.8235660  64.8731680
  86.3009540  57.4978830  64.2230360  83.1362590  54.9903050  62.9294070
  83.1398650  54.5493000  62.0798610  84.0313710  55.3120380  63.0365890
  78.9864970  54.8729540  61.8888280  78.6465020  55.3504770  62.6455330
  78.2242290  54.4194660  61.5289380  83.1982740  55.9915130  55.9200830
  83.3195560  55.9501610  56.8686650  82.8131250  56.8539280  55.7647560
  87.1611110  53.7682530  63.9364520  87.1783850  54.2191180  64.7806370
  86.9126690  52.8688170  64.1497960  82.2104240  58.3016270  55.3184130
  81.6421140  57.8534520  54.6920040  82.9193240  58.6609050  54.7849280
  90.5881860  51.1814710  69.7750900  90.9127630  50.4504370  70.3008880
  90.6238370  50.8628350  68.8731890  77.2873420  62.2028290  69.1950860
  76.9028210  61.5621960  69.7933820  77.5985610  62.9064410  69.7645590
  83.4370560  59.0504830  64.6759480  83.8040690  58.5763400  65.4220820
  83.2475620  59.9246400  65.0167820  76.3011050  53.7948520  60.8052950
  76.0157970  53.4304190  61.6431570  76.2389910  53.0628980  60.1916090
  81.2269930  58.0913470  66.9943690  80.9227000  58.9705450  67.2194050
  82.1816390  58.1513260  67.0301130  79.7551720  62.2974460  57.5910540
  78.9813980  61.7572080  57.4309260  80.4846350  61.7781070  57.2528300
  90.5139700  61.2939820  63.3836930  91.2338820  61.7895110  62.9933040
  90.3121520  60.6157710  62.7390800  85.9749640  52.6877780  57.5266320
  85.1614250  52.1890950  57.4511630  85.7811590  53.5276030  57.1102670
  85.8958500  61.3648880  69.2705930  85.8295810  60.4444550  69.0163520
  85.2663640  61.4624320  69.9850570  88.6898030  57.0597430  55.8228480
  89.5777650  57.3714660  55.6479820  88.6603120  56.1869680  55.4309060
  79.7989120  61.9654840  61.2289350  80.3167790  61.1623100  61.1746240
  79.3473140  61.9033980  62.0706180  84.6858620  63.2321120  56.5016650
  85.0274320  63.9763350  56.0059970  83.8571330  63.5452240  56.8641480
  77.2833660  58.9316210  68.1415050  76.9248600  59.5970060  68.7288390
  76.9888220  58.0999760  68.5127670  80.4846780  59.3900450  71.0254600
  80.1846920  59.5357630  70.1282420  81.2558020  58.8305740  70.9327990
  85.8275230  64.1869450  69.0209730  85.8419770  63.2550410  68.8028640
  85.1200330  64.2729210  69.6599500  90.9612300  58.3709270  55.2908340
  90.8776020  58.8023490  54.4404780  91.6806490  58.8307620  55.7235160
  91.9899550  65.2251530  58.0190470  91.3475710  64.5707150  58.2934190
  91.6030210  65.6306620  57.2431140  87.5686030  62.5536960  61.8662160
  87.9209850  61.9565090  61.2063530  86.6848360  62.2281190  62.0370410
  83.6549310  63.3134650  59.2732570  84.3420440  63.8603860  59.6540160
  82.8681730  63.8575380  59.3082180  75.7941710  58.9307470  54.7649650
  76.6636560  59.2132270  55.0485570  75.3032030  59.7443340  54.6498460
  82.9576520  60.3180680  58.8857930  83.4139300  61.1285930  59.1118120
  82.6064730  60.0003820  59.7176420  85.2609130  65.8287020  66.1150230
  85.9051350  66.0346400  66.7923650  85.6238570  65.0675420  65.6621080
  78.8588300  50.6618330  59.3580450  78.7302930  50.6536230  60.3065370
  78.0350320  51.0001420  59.0071460  86.5341210  63.8319370  64.8327680
  87.1763440  63.1312530  64.9459850  87.0590560  64.6117810  64.6524570
  90.3796930  64.1167990  54.5566820  90.1534510  63.3998430  55.1491460
  89.9893130  63.8680430  53.7188570  88.3078830  64.6314270  68.0363740
  88.6435070  65.2180960  68.7141660  87.3879170  64.5006980  68.2661530
  76.1612960  68.1434850  55.3311280  76.5210600  68.7424190  54.6768550
  76.0205300  68.6894740  56.1046310  75.8582230  52.4209450  68.8187150
  75.1440750  52.6206370  69.4239760  76.2777270  51.6449020  69.1901950
  89.9613180  62.0339930  56.2180980  89.6734880  62.4952620  57.0058860
  90.7565350  61.5737700  56.4865200  76.1454820  66.4089710  69.8053680
  76.2545940  65.4684450  69.6649070  75.4935380  66.6744460  69.1567410
  84.1367410  64.6805600  71.2051800  83.8164280  63.9614840  71.7497490
  83.4625770  65.3560670  71.2787860  82.1781580  65.5266050  56.1484950
  82.1691680  66.2595740  55.5329460  81.2579940  65.2797630  56.2411910
  77.7788220  60.7480940  56.8931710  77.1716170  61.4879840  56.9027010
  78.2537570  60.8380300  56.0669910  87.3521010  54.9131760  66.5688600
  87.7201830  54.0926970  66.8968170  86.4919210  54.9733650  66.9844250
  90.7183040  53.8688700  57.3776160  90.0896200  53.9734370  56.6634390
  90.2234960  54.0885480  58.1670040  85.1641180  65.5894290  54.8110140
  85.2653160  65.3858280  53.8812120  84.2642920  65.3352570  55.0157920
  82.6867070  56.1474650  58.7934040  81.9783220  56.6160990  59.2347650
  82.9711550  55.4896660  59.4279230  84.3123000  57.5671350  66.7926570
  84.8108250  58.0417170  67.4578420  84.4545950  56.6434870  66.9996600
  86.7182500  52.8725310  60.2329830  86.5950280  52.8911440  59.2839340
  87.6667060  52.9204250  60.3528230  83.8059290  68.1080610  59.5057810
  84.0600790  68.0702000  58.5837180  82.8571770  67.9813940  59.4986060
  80.8902090  54.4559730  56.1684750  81.7392620  54.8929880  56.1024940
  80.5233360  54.7679990  56.9956810  91.5189860  53.7839310  67.6354960
  91.0163460  54.5244710  67.9748770  92.3346520  54.1723310  67.3191750
  89.8111870  59.0272490  61.0816320  88.8702010  59.0422720  61.2564010
  90.1255940  58.2408450  61.5276620  79.7893510  60.7092090  54.6420280
  80.5556780  60.5973450  55.2045710  79.8668200  60.0130060  53.9897050
  78.4840270  58.1417160  55.3253170  78.5643860  57.1944670  55.4370570
  79.3760020  58.4724040  55.4313830  79.2854980  68.2912550  62.4287710
  80.0217460  67.7428010  62.6996280  79.6695900  69.1568560  62.2893700
  76.1700460  64.3586120  58.3029220  75.2440240  64.6007260  58.2934630
  76.6356890  65.1860380  58.1813970  78.2913260  67.4758620  71.6173290
  79.0925990  67.7970670  72.0308690  77.7765080  67.1154200  72.3393200
  82.3957290  67.4642860  54.2513280  83.1885900  67.7531690  53.7995070
  81.8761640  67.0335030  53.5725760  87.1277890  63.5838490  71.5648700
  86.5216050  63.6070090  70.8244450  86.8232000  62.8521530  72.1015950
  88.5578260  67.3118780  70.1758110  89.5100010  67.2276800  70.1258350
  88.4106480  67.9760490  70.8491900  91.4487460  66.6912990  55.6750020
  91.1628970  66.2778130  54.8604200  91.2507010  67.6200700  55.5550540
  76.0111070  59.9632080  70.5609340  76.5150090  59.3839360  71.1325570
  75.2718490  60.2472310  71.0985710  82.9134690  62.6846270  54.1155630
  82.8085330  62.0698620  54.8417010  82.7458910  62.1612160  53.3318640
  83.0649010  61.3703070  70.0944860  82.2994680  61.9388070  70.0099530
  83.2464970  61.0779280  69.2013090  86.1537420  61.7466300  54.7197620
  85.6047520  62.1935600  55.3640360  86.7756680  61.2415550  55.2435290
  90.2072360  63.1008400  70.6519880  90.9481830  63.4384160  70.1487340
  89.4445040  63.2700460  70.0989650  78.0434150  58.1061670  71.4559410
  78.0839490  57.8075540  72.3644640  78.8979650  58.5069280  71.2966930
  81.8212540  60.7057220  56.6162920  82.2428960  60.5397090  57.4594310
  81.9463380  59.8957450  56.1218060  79.9839960  56.6853770  69.4233900
  79.4536420  56.1944720  68.7957240  80.6528030  57.1137970  68.8891830
  84.3340180  59.7294830  53.8640020  84.8545840  59.0143850  53.4981170
  84.9808580  60.3680700  54.1640530  88.8818020  61.1523230  69.1875090
  89.2959040  61.3068310  70.0365510  87.9469020  61.2778450  69.3500870
  89.3540190  58.4919390  71.1914240  89.9360960  57.7371710  71.1034720
  89.5301960  59.0226830  70.4145720  80.4712260  53.6516140  69.5031190
  80.3769130  53.0336890  68.7782060  79.8909650  54.3782430  69.2761100
  83.2373700  52.2089380  66.5358580  82.7891000  52.2313640  65.6904130
  82.6038900  51.8108400  67.1328880  83.6433250  61.1043710  67.1571020
  84.0621360  61.9476440  66.9847260  82.7241880  61.2415750  66.9277800
  85.9797150  58.8359890  68.5408860  86.0993360  58.2401030  69.2803700
  86.8391150  58.8729580  68.1210160  88.3185050  59.3897080  67.1171370
  87.7920270  59.9139700  66.5136510  88.6616390  60.0224470  67.7481100
  80.7171440  56.7790450  53.5621080  80.5160500  55.9157810  53.9234420
  80.5463490  56.6923810  52.6242680  81.4940670  67.4096720  68.2728750
  80.9561760  68.1342780  67.9537450  81.7474630  66.9327060  67.4826090
  82.7465920  55.3781240  69.7984680  83.3365610  55.0697090  70.4862500
  81.9286160  54.9060990  69.9544580  87.5659350  54.9947050  70.0317700
  86.8774870  54.3328590  69.9667690  88.2865370  54.5485320  70.4766160
  88.1959750  51.5898680  56.0907960  88.4762040  50.7466580  56.4467380
  87.4225480  51.8221790  56.6046710  79.5154240  53.8791070  53.5498960
  79.8180140  53.8858500  52.6418110  80.2548830  53.5288930  54.0466620
  84.3502880  68.6447930  68.5315400  84.2761580  69.5483070  68.8387770
  83.4481720  68.3259830  68.5037470  82.7339170  52.8225690  54.5355160
  82.3861170  52.1449680  53.9557610  82.9351940  52.3615200  55.3498550
  84.8988210  67.8106440  56.1541760  85.7939000  68.1491410  56.1760520
  84.9305840  67.0885850  55.5266040  78.5384370  63.1833490  54.3828760
  78.9759240  63.7263160  55.0386340  79.0232100  62.3580440  54.3925100
  75.7530170  65.9722520  61.8349020  76.0833180  65.1043580  61.6027660
  76.1821170  66.1781040  62.6653980  80.3492090  64.3031530  59.4950990
  80.0487630  64.1796500  60.3954900  80.2429580  63.4440120  59.0866720
  76.2420380  66.8393110  64.5730650  75.8051370  67.0193910  65.4054800
  76.8098060  67.5967730  64.4312370  91.8782560  66.3410110  68.8607960
  91.2784550  66.4002670  68.1171880  92.0076460  65.4015090  68.9904810
  76.0744810  59.3513340  60.9319530  75.4193650  59.0824980  60.2879230
  76.9122760  59.2417820  60.4821510  90.5634200  63.0662090  66.9584120
  89.7494040  63.4959250  67.2209910  90.9708400  63.6780500  66.3453170
  89.0235250  54.1454630  55.1538020  89.4420130  53.9585610  54.3134680
  88.7171310  53.2933680  55.4640950  77.1120740  59.7365910  65.4722870
  77.4793780  59.6493310  66.3518890  76.5431560  58.9732460  65.3729730
  91.9124600  58.2050290  68.4853340  91.6810690  57.9763040  67.5851290
  92.1729150  59.1249840  68.4398230  76.6636740  56.6475000  69.3781290
  75.7692790  56.6141760  69.7175000  77.2034290  56.8461790  70.1432540
  90.3512670  53.4306720  71.2633040  91.2282850  53.4390120  71.6467040
  90.3633510  52.6937560  70.6525390  75.2882890  56.5612270  56.8744860
  74.3846970  56.8242470  56.6996520  75.7723510  56.8323440  56.0944820
  91.7975940  57.2836260  62.1521060  92.3213420  56.7898910  61.5211230
  92.3835360  57.4186620  62.8968630  91.9765660  57.3676130  65.6740610
  91.0268370  57.3339670  65.7885600  92.1578670  58.2776240  65.4390380
  77.8310100  55.6177810  54.7839240  78.5401800  55.1961030  54.2986520
  77.1150040  55.6853040  54.1522590  77.4784260  51.6717140  53.8241890
  78.2012390  52.2126080  54.1423110  77.7508780  51.3980560  52.9483430
  91.2875910  56.5409610  58.0913470  91.7835030  56.3080480  58.8762350
  91.0891980  55.7021450  57.6751110  77.1676450  50.9223330  63.7264510
  77.8152640  50.3720710  63.2859670  77.5878290  51.1766480  64.5480320
  91.0628790  51.1164690  67.0834150  91.7001010  51.7298830  67.4493340
  91.2103680  51.1525350  66.1383380  90.6210250  67.8180690  60.4852390
  91.2169320  67.4965260  59.8086810  90.8788400  67.3452510  61.2765660
  76.9208450  51.0779000  66.4689830  76.5723270  51.5342820  67.2348010
  76.5896150  50.1836130  66.5512260  78.5272820  64.2498600  70.6343020
  78.4842450  63.8791510  71.5157480  78.6583830  65.1876170  70.7744840
  82.2278850  65.8058190  66.2352740  81.9870210  66.0732750  65.3483260
  83.1681490  65.9763920  66.2903600  84.4333270  52.2690880  69.9909250
  84.3722160  52.8612710  70.7404660  85.3733650  52.1616840  69.8459510
  87.0707830  51.9260940  69.6301540  87.6848240  52.2440230  68.9682620
  87.6157390  51.4409530  70.2497400  77.5929090  50.6055200  69.7440600
  78.1412080  50.4243250  68.9806710  77.6584400  49.8149310  70.2796910
  78.3660850  67.1960850  67.7540800  77.7721170  67.0645550  68.4930840
  78.3584690  66.3598990  67.2882900  87.8115870  50.4893080  65.9570830
  86.9375710  50.8228190  65.7543760  87.7026620  50.0166260  66.7822700
  88.7187850  52.6963950  67.3412550  88.3901210  51.8815710  66.9614280
  89.6670150  52.6533760  67.2178240  91.1722460  68.4675990  64.3150120
  90.7125430  69.2191800  63.9408140  90.5434920  67.7482460  64.2564920
  77.9973080  64.5619230  66.7048840  77.2707140  63.9424520  66.6374790
  78.0582230  64.9559840  65.8346920  81.6018180  66.7764230  63.4898250
  82.1183200  66.1651590  62.9646510  82.2515560  67.2793010  63.9809260
  84.3413680  67.6672720  64.3167230  84.6291490  67.4127020  63.4400240
  84.8536900  67.1150080  64.9072800  85.5590690  51.4062920  64.8963740
  84.7762480  51.8808420  65.1760500  85.2653620  50.5017750  64.7876920
  90.1111760  52.1086020  62.9412830  90.5519850  52.0531120  62.0934430
  89.8419350  53.0244030  63.0123010  76.2803080  67.8793620  59.9145600
  76.1125120  67.2464300  60.6127490  75.4137590  68.0853020  59.5639790
  76.9031100  51.7110400  57.4177460  77.6610460  51.8239280  56.8441490
  76.4408270  52.5479600  57.3720890  83.4444910  53.8249670  60.4079770
  82.6319420  53.4506560  60.0675650  83.9486550  53.0694750  60.7100960
  87.9469890  50.4892120  61.6462840  88.5499260  51.0612330  62.1211360
  87.2062880  51.0531560  61.4236740  91.0904490  50.8913680  56.9203120
  91.2855120  51.7897130  57.1870550  90.3034360  50.6600760  57.4136070
  77.8865780  66.5726850  57.3595740  77.3613400  66.9534880  56.6557700
  77.8110360  67.1977620  58.0805450  79.2756250  52.2374450  55.9579430
  79.8049010  51.4504250  55.8287380  79.9084570  52.9165640  56.1914960
  81.4694090  51.9749590  59.0124820  80.8396830  51.2736900  59.1794950
  80.9299230  52.7353720  58.7957980  84.4086040  68.5888820  71.6835430
  85.3353350  68.3533090  71.7271390  84.3936470  69.4160820  71.2021460
  81.5949650  51.2533570  71.4477310  81.3133920  51.7567170  70.6838130
  81.9769350  50.4555320  71.0819440  80.4858750  68.5209230  56.2344990
  81.2177570  68.2368510  55.6868880  80.7452420  68.2822510  57.1244370
  79.6473540  64.6373960  56.2391320  79.0182420  65.1059060  56.7877150
  79.7621370  63.7923180  56.6737510  88.1965110  50.6687150  72.0257780
  88.0830560  50.9881760  72.9209300  89.0134850  51.0699660  71.7295060
  90.9763600  67.8158680  71.5076470  91.7688920  67.3207910  71.3002430
  91.2696750  68.4948820  72.1152080  87.1023260  58.6879620  42.3892520
  87.0217310  57.7734230  42.1184230  86.6887680  59.1846690  41.6832230
  85.2341300  60.4658640  44.2701790  84.4583400  59.9859080  44.5600360
  85.8854230  59.7864290  44.0957950  79.2507130  60.7778450  45.1477550
  78.4192010  60.5227160  45.5474060  79.8588110  60.8489220  45.8835470
  89.2548730  64.8718830  43.0500920  88.7930260  64.1006070  43.3788090
  90.0674280  64.8984900  43.5553370  79.2308390  64.8118540  45.3435570
  79.5336430  63.9216280  45.1645790  79.9751980  65.3688760  45.1157820
  77.6599080  55.7380340  38.9319940  76.7715780  56.0796310  38.8299820
  77.9440270  55.5380660  38.0400770  75.6232090  58.3385990  44.8159640
  76.1948200  57.5708190  44.8163280  75.6233630  58.6374750  43.9066250
  85.4812040  67.1576840  42.6704910  84.8623480  67.6134340  42.0999350
  86.3363820  67.3128300  42.2694610  84.6750290  63.1415830  44.2771950
  84.6058570  62.2005770  44.1161080  85.4370150  63.2317240  44.8494520
  76.8656960  53.7470350  46.6028570  76.6859800  52.8496100  46.8831330
  76.4637040  54.2942220  47.2775520  85.7055460  55.9486210  44.5040880
  86.0820280  55.0758090  44.3914550  85.6074970  56.2844910  43.6131320
  79.8360470  54.3211840  39.9658320  79.9427220  55.2215570  40.2727080
  78.9252830  54.2729810  39.6752970  89.4879580  53.4436650  41.4369220
  90.3089200  52.9533220  41.4794700  89.5213660  54.0334310  42.1901060
  77.4843630  56.2430850  45.2110910  78.1653740  56.5069220  45.8298310
  77.1691680  55.4031720  45.5448920  81.6768200  57.2898210  44.2983500
  82.1846420  57.7879180  44.9388520  82.2081440  56.5133410  44.1222860
  79.9604300  51.9296770  48.5646920  79.9622740  52.4469160  47.7592820
  79.1308610  51.4526950  48.5416850  86.3475390  62.0416080  40.0636820
  85.7292660  62.5065530  39.4999540  86.8598640  62.7343560  40.4806330
  81.2107150  61.5691950  46.7420420  80.8776530  62.1960870  47.3841490
  81.3873830  62.0953830  45.9622090  89.7241060  55.3837030  44.2096760
  89.0196630  55.6721920  44.7899870  90.0853220  56.1937140  43.8496320
  79.6419630  53.6406730  46.5717370  79.9836440  54.4848780  46.2771240
  78.7035440  53.7890470  46.6882710  80.4226250  63.5372750  48.5569600
  81.0400250  64.2123830  48.2754050  79.5619370  63.9460730  48.4657100
  75.7158590  62.7272610  37.4376450  75.3386570  63.2159710  36.7061350
  75.9731660  63.3997890  38.0682980  91.3403840  65.0012160  46.4724240
  90.6567360  65.6711270  46.4640910  91.8798130  65.1992810  45.7069100
  83.3247520  51.1289000  42.8961960  83.6322500  50.5735890  42.1797460
  82.3948220  51.2633460  42.7134950  88.8762580  66.8456290  45.1869420
  88.8889740  66.4418580  44.3191680  88.3237800  67.6203580  45.0830850
  90.1708000  63.5672510  40.2759590  90.0604330  62.6246840  40.4009010
  90.1676250  63.9288150  41.1622350  88.2748020  61.7486130  46.5152030
  88.6916810  61.5346240  45.6805490  88.9987840  62.0058920  47.0860650
  85.7128280  59.1937830  39.6322080  84.7857560  59.1275210  39.8610550
  85.8653100  60.1317960  39.5177320  85.6997360  55.4654830  36.6289240
  84.7601030  55.6268790  36.7141700  86.0180620  56.1840510  36.0825230
  89.7425570  60.7558130  40.1357330  89.1237990  60.4177680  39.4883630
  89.7250020  60.1117890  40.8436520  89.1852130  56.9342670  47.5523140
  88.7723310  57.7596380  47.8063130  88.4528080  56.3487710  47.3599500
  81.3184920  59.7202570  42.4141810  80.9141920  59.0079820  41.9187710
  81.4048040  59.3755810  43.3029850  81.7866620  63.4070130  44.5781020
  81.4894910  62.8015600  43.8988800  82.7366440  63.4447440  44.4670380
  80.0313540  56.4945780  46.1940850  80.5828130  56.6041120  45.4194100
  80.5457050  56.8683380  46.9096080  89.8752230  66.9802000  48.2404120
  89.3982790  67.7874190  48.0476730  89.1914020  66.3280330  48.3930330
  80.8785050  63.1451820  51.2288820  79.9813580  63.3691790  51.4762220
  80.9037920  63.2686760  50.2800220  87.9190270  59.9944940  37.1430080
  88.3583550  59.1567370  36.9967900  88.6318690  60.6274340  37.2294220
  79.7056270  60.0165140  49.8046190  79.5664040  60.8887940  50.1733590
  78.8237630  59.6737950  49.6594130  86.0285650  64.9341010  41.1111320
  86.4681560  65.6765340  40.6966710  85.9672540  65.1767580  42.0350280
  81.5036620  65.9586840  52.0131340  81.4752050  66.3629790  51.1459770
  81.3401590  65.0297200  51.8502940  91.5007410  51.2487750  35.4571120
  91.1880070  51.3414580  36.3570190  92.2619880  51.8268780  35.4068550
  78.0189550  58.6147550  39.9148460  77.8987150  59.3409640  39.3029730
  77.7090440  57.8450460  39.4376370  75.6574920  61.7862690  45.7217100
  75.7355340  61.9211460  44.7772820  76.2716600  61.0778580  45.9145220
  76.9022550  63.4862880  42.1323280  76.4950630  63.6277470  41.2776880
  77.7935560  63.2023040  41.9294490  86.7201430  67.6354790  49.0390330
  87.2346100  67.5462800  49.8412760  85.8770510  67.9814490  49.3318240
  88.6955830  67.9210130  38.4674330  88.5356970  67.6313070  39.3656160
  88.5302540  67.1450260  37.9319560  81.1744210  67.7008660  40.2445950
  80.9986690  66.7844200  40.0313750  80.3199950  68.0595950  40.4843750
  88.3981960  65.4297690  37.0272330  87.7047120  65.4274980  36.3674610
  89.1404820  65.0057010  36.5966500  87.9631890  67.0560400  41.1020820
  88.4188840  66.2749780  41.4159440  88.3024410  67.7667220  41.6462000
  75.7134440  62.8276860  48.2611560  75.8765480  62.3582220  47.4430930
  76.1786890  62.3200420  48.9260400  80.4853210  51.9582620  43.2972130
  80.0421360  52.7392160  42.9656650  81.0438200  52.2812510  44.0043070
  84.7723020  54.8251140  48.9007450  84.3102390  55.0334160  49.7127390
  84.3701130  54.0110490  48.5978120  89.7727530  56.0460090  50.0304110
  88.9221120  55.7465840  50.3513180  89.6129320  56.2902100  49.1187930
  86.8677240  57.5461840  52.1302900  87.1930650  56.7125590  51.7905130
  87.6557570  58.0690360  52.2781230  83.6012030  51.5793320  38.1777960
  82.9766210  51.5753190  38.9031270  83.5142150  50.7124280  37.7813930
  82.5229110  52.5029950  45.1561730  82.8201440  53.4092780  45.0753750
  83.0714670  52.0148730  44.5421300  80.2767430  57.0816190  41.0253380
  80.0508350  56.8653360  41.9300000  79.4959960  57.5144650  40.6799350
  87.5065190  57.0879560  39.6244030  86.9074080  57.8115360  39.4407650
  88.0544800  57.0256340  38.8420480  82.7166640  57.9801770  51.6913650
  82.6210240  57.0396500  51.5414050  83.5598620  58.2016840  51.2961720
  86.1130060  55.7243100  41.6547310  86.5059630  56.0415300  40.8416000
  86.4746910  54.8454980  41.7691830  77.8477180  54.3915440  49.8447430
  77.4540570  55.2390650  50.0520210  77.1595580  53.7541810  50.0356070
  84.4222230  54.4750410  52.9144170  83.7320550  54.2822610  53.5490260
  85.1654530  54.7585050  53.4468470  75.1494230  52.3143900  43.8777510
  74.8607280  52.8846760  44.5902490  75.8939990  51.8348350  44.2408740
  75.3364460  56.2564020  35.0880230  75.2539130  57.1994780  35.2295220
  74.9847520  56.1138930  34.2092580  86.6985200  58.3148850  45.7498090
  85.9666320  58.8235660  46.0988190  86.3009540  57.4978830  45.4486870
  83.1362590  54.9903050  44.1550580  83.1398650  54.5493000  43.3055120
  84.0313710  55.3120380  44.2622400  78.9864970  54.8729540  43.1144790
  78.6465020  55.3504770  43.8711840  78.2242290  54.4194660  42.7545890
  83.1982740  55.9915130  37.1457340  83.3195560  55.9501610  38.0943160
  82.8131250  56.8539280  36.9904070  87.1611110  53.7682530  45.1621030
  87.1783850  54.2191180  46.0062880  86.9126690  52.8688170  45.3754470
  82.2104240  58.3016270  36.5440640  81.6421140  57.8534520  35.9176550
  82.9193240  58.6609050  36.0105790  90.5881860  51.1814710  51.0007410
  90.9127630  50.4504370  51.5265390  90.6238370  50.8628350  50.0988400
  77.2873420  62.2028290  50.4207370  76.9028210  61.5621960  51.0190330
  77.5985610  62.9064410  50.9902100  83.4370560  59.0504830  45.9015990
  83.8040690  58.5763400  46.6477330  83.2475620  59.9246400  46.2424330
  76.3011050  53.7948520  42.0309460  76.0157970  53.4304190  42.8688080
  76.2389910  53.0628980  41.4172600  81.2269930  58.0913470  48.2200200
  80.9227000  58.9705450  48.4450560  82.1816390  58.1513260  48.2557640
  79.7551720  62.2974460  38.8167050  78.9813980  61.7572080  38.6565770
  80.4846350  61.7781070  38.4784810  90.5139700  61.2939820  44.6093440
  91.2338820  61.7895110  44.2189550  90.3121520  60.6157710  43.9647310
  85.9749640  52.6877780  38.7522830  85.1614250  52.1890950  38.6768140
  85.7811590  53.5276030  38.3359180  85.8958500  61.3648880  50.4962440
  85.8295810  60.4444550  50.2420030  85.2663640  61.4624320  51.2107080
  88.6898030  57.0597430  37.0484990  89.5777650  57.3714660  36.8736330
  88.6603120  56.1869680  36.6565570  79.7989120  61.9654840  42.4545860
  80.3167790  61.1623100  42.4002750  79.3473140  61.9033980  43.2962690
  84.6858620  63.2321120  37.7273160  85.0274320  63.9763350  37.2316480
  83.8571330  63.5452240  38.0897990  77.2833660  58.9316210  49.3671560
  76.9248600  59.5970060  49.9544900  76.9888220  58.0999760  49.7384180
  80.4846780  59.3900450  52.2511110  80.1846920  59.5357630  51.3538930
  81.2558020  58.8305740  52.1584500  85.8275230  64.1869450  50.2466240
  85.8419770  63.2550410  50.0285150  85.1200330  64.2729210  50.8856010
  90.9612300  58.3709270  36.5164850  90.8776020  58.8023490  35.6661290
  91.6806490  58.8307620  36.9491670  91.9899550  65.2251530  39.2446980
  91.3475710  64.5707150  39.5190700  91.6030210  65.6306620  38.4687650
  87.5686030  62.5536960  43.0918670  87.9209850  61.9565090  42.4320040
  86.6848360  62.2281190  43.2626920  83.6549310  63.3134650  40.4989080
  84.3420440  63.8603860  40.8796670  82.8681730  63.8575380  40.5338690
  75.7941710  58.9307470  35.9906160  76.6636560  59.2132270  36.2742080
  75.3032030  59.7443340  35.8754970  82.9576520  60.3180680  40.1114440
  83.4139300  61.1285930  40.3374630  82.6064730  60.0003820  40.9432930
  85.2609130  65.8287020  47.3406740  85.9051350  66.0346400  48.0180160
  85.6238570  65.0675420  46.8877590  78.8588300  50.6618330  40.5836960
  78.7302930  50.6536230  41.5321880  78.0350320  51.0001420  40.2327970
  86.5341210  63.8319370  46.0584190  87.1763440  63.1312530  46.1716360
  87.0590560  64.6117810  45.8781080  90.3796930  64.1167990  35.7823330
  90.1534510  63.3998430  36.3747970  89.9893130  63.8680430  34.9445080
  88.3078830  64.6314270  49.2620250  88.6435070  65.2180960  49.9398170
  87.3879170  64.5006980  49.4918040  76.1612960  68.1434850  36.5567790
  76.5210600  68.7424190  35.9025060  76.0205300  68.6894740  37.3302820
  75.8582230  52.4209450  50.0443660  75.1440750  52.6206370  50.6496270
  76.2777270  51.6449020  50.4158460  89.9613180  62.0339930  37.4437490
  89.6734880  62.4952620  38.2315370  90.7565350  61.5737700  37.7121710
  76.1454820  66.4089710  51.0310190  76.2545940  65.4684450  50.8905580
  75.4935380  66.6744460  50.3823920  84.1367410  64.6805600  52.4308310
  83.8164280  63.9614840  52.9754000  83.4625770  65.3560670  52.5044370
  82.1781580  65.5266050  37.3741460  82.1691680  66.2595740  36.7585970
  81.2579940  65.2797630  37.4668420  77.7788220  60.7480940  38.1188220
  77.1716170  61.4879840  38.1283520  78.2537570  60.8380300  37.2926420
  87.3521010  54.9131760  47.7945110  87.7201830  54.0926970  48.1224680
  86.4919210  54.9733650  48.2100760  90.7183040  53.8688700  38.6032670
  90.0896200  53.9734370  37.8890900  90.2234960  54.0885480  39.3926550
  85.1641180  65.5894290  36.0366650  85.2653160  65.3858280  35.1068630
  84.2642920  65.3352570  36.2414430  82.6867070  56.1474650  40.0190550
  81.9783220  56.6160990  40.4604160  82.9711550  55.4896660  40.6535740
  84.3123000  57.5671350  48.0183080  84.8108250  58.0417170  48.6834930
  84.4545950  56.6434870  48.2253110  86.7182500  52.8725310  41.4586340
  86.5950280  52.8911440  40.5095850  87.6667060  52.9204250  41.5784740
  83.8059290  68.1080610  40.7314320  84.0600790  68.0702000  39.8093690
  82.8571770  67.9813940  40.7242570  80.8902090  54.4559730  37.3941260
  81.7392620  54.8929880  37.3281450  80.5233360  54.7679990  38.2213320
  91.5189860  53.7839310  48.8611470  91.0163460  54.5244710  49.2005280
  92.3346520  54.1723310  48.5448260  89.8111870  59.0272490  42.3072830
  88.8702010  59.0422720  42.4820520  90.1255940  58.2408450  42.7533130
  79.7893510  60.7092090  35.8676790  80.5556780  60.5973450  36.4302220
  79.8668200  60.0130060  35.2153560  78.4840270  58.1417160  36.5509680
  78.5643860  57.1944670  36.6627080  79.3760020  58.4724040  36.6570340
  79.2854980  68.2912550  43.6544220  80.0217460  67.7428010  43.9252790
  79.6695900  69.1568560  43.5150210  76.1700460  64.3586120  39.5285730
  75.2440240  64.6007260  39.5191140  76.6356890  65.1860380  39.4070480
  78.2913260  67.4758620  52.8429800  79.0925990  67.7970670  53.2565200
  77.7765080  67.1154200  53.5649710  82.3957290  67.4642860  35.4769790
  83.1885900  67.7531690  35.0251580  81.8761640  67.0335030  34.7982270
  87.1277890  63.5838490  52.7905210  86.5216050  63.6070090  52.0500960
  86.8232000  62.8521530  53.3272460  88.5578260  67.3118780  51.4014620
  89.5100010  67.2276800  51.3514860  88.4106480  67.9760490  52.0748410
  91.4487460  66.6912990  36.9006530  91.1628970  66.2778130  36.0860710
  91.2507010  67.6200700  36.7807050  76.0111070  59.9632080  51.7865850
  76.5150090  59.3839360  52.3582080  75.2718490  60.2472310  52.3242220
  82.9134690  62.6846270  35.3412140  82.8085330  62.0698620  36.0673520
  82.7458910  62.1612160  34.5575150  83.0649010  61.3703070  51.3201370
  82.2994680  61.9388070  51.2356040  83.2464970  61.0779280  50.4269600
  86.1537420  61.7466300  35.9454130  85.6047520  62.1935600  36.5896870
  86.7756680  61.2415550  36.4691800  90.2072360  63.1008400  51.8776390
  90.9481830  63.4384160  51.3743850  89.4445040  63.2700460  51.3246160
  78.0434150  58.1061670  52.6815920  78.0839490  57.8075540  53.5901150
  78.8979650  58.5069280  52.5223440  81.8212540  60.7057220  37.8419430
  82.2428960  60.5397090  38.6850820  81.9463380  59.8957450  37.3474570
  79.9839960  56.6853770  50.6490410  79.4536420  56.1944720  50.0213750
  80.6528030  57.1137970  50.1148340  84.3340180  59.7294830  35.0896530
  84.8545840  59.0143850  34.7237680  84.9808580  60.3680700  35.3897040
  88.8818020  61.1523230  50.4131600  89.2959040  61.3068310  51.2622020
  87.9469020  61.2778450  50.5757380  89.3540190  58.4919390  52.4170750
  89.9360960  57.7371710  52.3291230  89.5301960  59.0226830  51.6402230
  80.4712260  53.6516140  50.7287700  80.3769130  53.0336890  50.0038570
  79.8909650  54.3782430  50.5017610  83.2373700  52.2089380  47.7615090
  82.7891000  52.2313640  46.9160640  82.6038900  51.8108400  48.3585390
  83.6433250  61.1043710  48.3827530  84.0621360  61.9476440  48.2103770
  82.7241880  61.2415750  48.1534310  85.9797150  58.8359890  49.7665370
  86.0993360  58.2401030  50.5060210  86.8391150  58.8729580  49.3466670
  88.3185050  59.3897080  48.3427880  87.7920270  59.9139700  47.7393020
  88.6616390  60.0224470  48.9737610  80.7171440  56.7790450  34.7877590
  80.5160500  55.9157810  35.1490930  80.5463490  56.6923810  33.8499190
  81.4940670  67.4096720  49.4985260  80.9561760  68.1342780  49.1793960
  81.7474630  66.9327060  48.7082600  82.7465920  55.3781240  51.0241190
  83.3365610  55.0697090  51.7119010  81.9286160  54.9060990  51.1801090
  87.5659350  54.9947050  51.2574210  86.8774870  54.3328590  51.1924200
  88.2865370  54.5485320  51.7022670  88.1959750  51.5898680  37.3164470
  88.4762040  50.7466580  37.6723890  87.4225480  51.8221790  37.8303220
  79.5154240  53.8791070  34.7755470  79.8180140  53.8858500  33.8674620
  80.2548830  53.5288930  35.2723130  84.3502880  68.6447930  49.7571910
  84.2761580  69.5483070  50.0644280  83.4481720  68.3259830  49.7293980
  82.7339170  52.8225690  35.7611670  82.3861170  52.1449680  35.1814120
  82.9351940  52.3615200  36.5755060  84.8988210  67.8106440  37.3798270
  85.7939000  68.1491410  37.4017030  84.9305840  67.0885850  36.7522550
  78.5384370  63.1833490  35.6085270  78.9759240  63.7263160  36.2642850
  79.0232100  62.3580440  35.6181610  75.7530170  65.9722520  43.0605530
  76.0833180  65.1043580  42.8284170  76.1821170  66.1781040  43.8910490
  80.3492090  64.3031530  40.7207500  80.0487630  64.1796500  41.6211410
  80.2429580  63.4440120  40.3123230  76.2420380  66.8393110  45.7987160
  75.8051370  67.0193910  46.6311310  76.8098060  67.5967730  45.6568880
  91.8782560  66.3410110  50.0864470  91.2784550  66.4002670  49.3428390
  92.0076460  65.4015090  50.2161320  76.0744810  59.3513340  42.1576040
  75.4193650  59.0824980  41.5135740  76.9122760  59.2417820  41.7078020
  90.5634200  63.0662090  48.1840630  89.7494040  63.4959250  48.4466420
  90.9708400  63.6780500  47.5709680  89.0235250  54.1454630  36.3794530
  89.4420130  53.9585610  35.5391190  88.7171310  53.2933680  36.6897460
  77.1120740  59.7365910  46.6979380  77.4793780  59.6493310  47.5775400
  76.5431560  58.9732460  46.5986240  91.9124600  58.2050290  49.7109850
  91.6810690  57.9763040  48.8107800  92.1729150  59.1249840  49.6654740
  76.6636740  56.6475000  50.6037800  75.7692790  56.6141760  50.9431510
  77.2034290  56.8461790  51.3689050  90.3512670  53.4306720  52.4889550
  91.2282850  53.4390120  52.8723550  90.3633510  52.6937560  51.8781900
  75.2882890  56.5612270  38.1001370  74.3846970  56.8242470  37.9253030
  75.7723510  56.8323440  37.3201330  91.7975940  57.2836260  43.3777570
  92.3213420  56.7898910  42.7467740  92.3835360  57.4186620  44.1225140
  91.9765660  57.3676130  46.8997120  91.0268370  57.3339670  47.0142110
  92.1578670  58.2776240  46.6646890  77.8310100  55.6177810  36.0095750
  78.5401800  55.1961030  35.5243030  77.1150040  55.6853040  35.3779100
  77.4784260  51.6717140  35.0498400  78.2012390  52.2126080  35.3679620
  77.7508780  51.3980560  34.1739940  91.2875910  56.5409610  39.3169980
  91.7835030  56.3080480  40.1018860  91.0891980  55.7021450  38.9007620
  77.1676450  50.9223330  44.9521020  77.8152640  50.3720710  44.5116180
  77.5878290  51.1766480  45.7736830  91.0628790  51.1164690  48.3090660
  91.7001010  51.7298830  48.6749850  91.2103680  51.1525350  47.3639890
  90.6210250  67.8180690  41.7108900  91.2169320  67.4965260  41.0343320
  90.8788400  67.3452510  42.5022170  76.9208450  51.0779000  47.6946340
  76.5723270  51.5342820  48.4604520  76.5896150  50.1836130  47.7768770
  78.5272820  64.2498600  51.8599530  78.4842450  63.8791510  52.7413990
  78.6583830  65.1876170  52.0001350  82.2278850  65.8058190  47.4609250
  81.9870210  66.0732750  46.5739770  83.1681490  65.9763920  47.5160110
  84.4333270  52.2690880  51.2165760  84.3722160  52.8612710  51.9661170
  85.3733650  52.1616840  51.0716020  87.0707830  51.9260940  50.8558050
  87.6848240  52.2440230  50.1939130  87.6157390  51.4409530  51.4753910
  77.5929090  50.6055200  50.9697110  78.1412080  50.4243250  50.2063220
  77.6584400  49.8149310  51.5053420  78.3660850  67.1960850  48.9797310
  77.7721170  67.0645550  49.7187350  78.3584690  66.3598990  48.5139410
  87.8115870  50.4893080  47.1827340  86.9375710  50.8228190  46.9800270
  87.7026620  50.0166260  48.0079210  88.7187850  52.6963950  48.5669060
  88.3901210  51.8815710  48.1870790  89.6670150  52.6533760  48.4434750
  91.1722460  68.4675990  45.5406630  90.7125430  69.2191800  45.1664650
  90.5434920  67.7482460  45.4821430  77.9973080  64.5619230  47.9305350
  77.2707140  63.9424520  47.8631300  78.0582230  64.9559840  47.0603430
  81.6018180  66.7764230  44.7154760  82.1183200  66.1651590  44.1903020
  82.2515560  67.2793010  45.2065770  84.3413680  67.6672720  45.5423740
  84.6291490  67.4127020  44.6656750  84.8536900  67.1150080  46.1329310
  85.5590690  51.4062920  46.1220250  84.7762480  51.8808420  46.4017010
  85.2653620  50.5017750  46.0133430  90.1111760  52.1086020  44.1669340
  90.5519850  52.0531120  43.3190940  89.8419350  53.0244030  44.2379520
  76.2803080  67.8793620  41.1402110  76.1125120  67.2464300  41.8384000
  75.4137590  68.0853020  40.7896300  76.9031100  51.7110400  38.6433970
  77.6610460  51.8239280  38.0698000  76.4408270  52.5479600  38.5977400
  83.4444910  53.8249670  41.6336280  82.6319420  53.4506560  41.2932160
  83.9486550  53.0694750  41.9357470  87.9469890  50.4892120  42.8719350
  88.5499260  51.0612330  43.3467870  87.2062880  51.0531560  42.6493250
  91.0904490  50.8913680  38.1459630  91.2855120  51.7897130  38.4127060
  90.3034360  50.6600760  38.6392580  77.8865780  66.5726850  38.5852250
  77.3613400  66.9534880  37.8814210  77.8110360  67.1977620  39.3061960
  79.2756250  52.2374450  37.1835940  79.8049010  51.4504250  37.0543890
  79.9084570  52.9165640  37.4171470  81.4694090  51.9749590  40.2381330
  80.8396830  51.2736900  40.4051460  80.9299230  52.7353720  40.0214490
  84.4086040  68.5888820  52.9091940  85.3353350  68.3533090  52.9527900
  84.3936470  69.4160820  52.4277970  81.5949650  51.2533570  52.6733820
  81.3133920  51.7567170  51.9094640  81.9769350  50.4555320  52.3075950
  80.4858750  68.5209230  37.4601500  81.2177570  68.2368510  36.9125390
  80.7452420  68.2822510  38.3500880  79.6473540  64.6373960  37.4647830
  79.0182420  65.1059060  38.0133660  79.7621370  63.7923180  37.8994020
  88.1965110  50.6687150  53.2514290  88.0830560  50.9881760  54.1465810
  89.0134850  51.0699660  52.9551570  90.9763600  67.8158680  52.7332980
  91.7688920  67.3207910  52.5258940  91.2696750  68.4948820  53.3408590
  87.1023260  58.6879620  23.6149030  87.0217310  57.7734230  23.3440740
  86.6887680  59.1846690  22.9088740  85.2341300  60.4658640  25.4958300
  84.4583400  59.9859080  25.7856870  85.8854230  59.7864290  25.3214460
  79.2507130  60.7778450  26.3734060  78.4192010  60.5227160  26.7730570
  79.8588110  60.8489220  27.1091980  89.2548730  64.8718830  24.2757430
  88.7930260  64.1006070  24.6044600  90.0674280  64.8984900  24.7809880
  79.2308390  64.8118540  26.5692080  79.5336430  63.9216280  26.3902300
  79.9751980  65.3688760  26.3414330  77.6599080  55.7380340  20.1576450
  76.7715780  56.0796310  20.0556330  77.9440270  55.5380660  19.2657280
  75.6232090  58.3385990  26.0416150  76.1948200  57.5708190  26.0419790
  75.6233630  58.6374750  25.1322760  85.4812040  67.1576840  23.8961420
  84.8623480  67.6134340  23.3255860  86.3363820  67.3128300  23.4951120
  84.6750290  63.1415830  25.5028460  84.6058570  62.2005770  25.3417590
  85.4370150  63.2317240  26.0751030  76.8656960  53.7470350  27.8285080
  76.6859800  52.8496100  28.1087840  76.4637040  54.2942220  28.5032030
  85.7055460  55.9486210  25.7297390  86.0820280  55.0758090  25.6171060
  85.6074970  56.2844910  24.8387830  79.8360470  54.3211840  21.1914830
  79.9427220  55.2215570  21.4983590  78.9252830  54.2729810  20.9009480
  89.4879580  53.4436650  22.6625730  90.3089200  52.9533220  22.7051210
  89.5213660  54.0334310  23.4157570  77.4843630  56.2430850  26.4367420
  78.1653740  56.5069220  27.0554820  77.1691680  55.4031720  26.7705430
  81.6768200  57.2898210  25.5240010  82.1846420  57.7879180  26.1645030
  82.2081440  56.5133410  25.3479370  79.9604300  51.9296770  29.7903430
  79.9622740  52.4469160  28.9849330  79.1308610  51.4526950  29.7673360
  86.3475390  62.0416080  21.2893330  85.7292660  62.5065530  20.7256050
  86.8598640  62.7343560  21.7062840  81.2107150  61.5691950  27.9676930
  80.8776530  62.1960870  28.6098000  81.3873830  62.0953830  27.1878600
  89.7241060  55.3837030  25.4353270  89.0196630  55.6721920  26.0156380
  90.0853220  56.1937140  25.0752830  79.6419630  53.6406730  27.7973880
  79.9836440  54.4848780  27.5027750  78.7035440  53.7890470  27.9139220
  80.4226250  63.5372750  29.7826110  81.0400250  64.2123830  29.5010560
  79.5619370  63.9460730  29.6913610  75.7158590  62.7272610  18.6632960
  75.3386570  63.2159710  17.9317860  75.9731660  63.3997890  19.2939490
  91.3403840  65.0012160  27.6980750  90.6567360  65.6711270  27.6897420
  91.8798130  65.1992810  26.9325610  83.3247520  51.1289000  24.1218470
  83.6322500  50.5735890  23.4053970  82.3948220  51.2633460  23.9391460
  88.8762580  66.8456290  26.4125930  88.8889740  66.4418580  25.5448190
  88.3237800  67.6203580  26.3087360  90.1708000  63.5672510  21.5016100
  90.0604330  62.6246840  21.6265520  90.1676250  63.9288150  22.3878860
  88.2748020  61.7486130  27.7408540  88.6916810  61.5346240  26.9062000
  88.9987840  62.0058920  28.3117160  85.7128280  59.1937830  20.8578590
  84.7857560  59.1275210  21.0867060  85.8653100  60.1317960  20.7433830
  85.6997360  55.4654830  17.8545750  84.7601030  55.6268790  17.9398210
  86.0180620  56.1840510  17.3081740  89.7425570  60.7558130  21.3613840
  89.1237990  60.4177680  20.7140140  89.7250020  60.1117890  22.0693030
  89.1852130  56.9342670  28.7779650  88.7723310  57.7596380  29.0319640
  88.4528080  56.3487710  28.5856010  81.3184920  59.7202570  23.6398320
  80.9141920  59.0079820  23.1444220  81.4048040  59.3755810  24.5286360
  81.7866620  63.4070130  25.8037530  81.4894910  62.8015600  25.1245310
  82.7366440  63.4447440  25.6926890  80.0313540  56.4945780  27.4197360
  80.5828130  56.6041120  26.6450610  80.5457050  56.8683380  28.1352590
  89.8752230  66.9802000  29.4660630  89.3982790  67.7874190  29.2733240
  89.1914020  66.3280330  29.6186840  80.8785050  63.1451820  32.4545330
  79.9813580  63.3691790  32.7018730  80.9037920  63.2686760  31.5056730
  87.9190270  59.9944940  18.3686590  88.3583550  59.1567370  18.2224410
  88.6318690  60.6274340  18.4550730  79.7056270  60.0165140  31.0302700
  79.5664040  60.8887940  31.3990100  78.8237630  59.6737950  30.8850640
  86.0285650  64.9341010  22.3367830  86.4681560  65.6765340  21.9223220
  85.9672540  65.1767580  23.2606790  81.5036620  65.9586840  33.2387850
  81.4752050  66.3629790  32.3716280  81.3401590  65.0297200  33.0759450
  91.5007410  51.2487750  16.6827630  91.1880070  51.3414580  17.5826700
  92.2619880  51.8268780  16.6325060  78.0189550  58.6147550  21.1404970
  77.8987150  59.3409640  20.5286240  77.7090440  57.8450460  20.6632880
  75.6574920  61.7862690  26.9473610  75.7355340  61.9211460  26.0029330
  76.2716600  61.0778580  27.1401730  76.9022550  63.4862880  23.3579790
  76.4950630  63.6277470  22.5033390  77.7935560  63.2023040  23.1551000
  86.7201430  67.6354790  30.2646840  87.2346100  67.5462800  31.0669270
  85.8770510  67.9814490  30.5574750  88.6955830  67.9210130  19.6930840
  88.5356970  67.6313070  20.5912670  88.5302540  67.1450260  19.1576070
  81.1744210  67.7008660  21.4702460  80.9986690  66.7844200  21.2570260
  80.3199950  68.0595950  21.7100260  88.3981960  65.4297690  18.2528840
  87.7047120  65.4274980  17.5931120  89.1404820  65.0057010  17.8223010
  87.9631890  67.0560400  22.3277330  88.4188840  66.2749780  22.6415950
  88.3024410  67.7667220  22.8718510  75.7134440  62.8276860  29.4868070
  75.8765480  62.3582220  28.6687440  76.1786890  62.3200420  30.1516910
  80.4853210  51.9582620  24.5228640  80.0421360  52.7392160  24.1913160
  81.0438200  52.2812510  25.2299580  84.7723020  54.8251140  30.1263960
  84.3102390  55.0334160  30.9383900  84.3701130  54.0110490  29.8234630
  89.7727530  56.0460090  31.2560620  88.9221120  55.7465840  31.5769690
  89.6129320  56.2902100  30.3444440  86.8677240  57.5461840  33.3559410
  87.1930650  56.7125590  33.0161640  87.6557570  58.0690360  33.5037740
  83.6012030  51.5793320  19.4034470  82.9766210  51.5753190  20.1287780
  83.5142150  50.7124280  19.0070440  82.5229110  52.5029950  26.3818240
  82.8201440  53.4092780  26.3010260  83.0714670  52.0148730  25.7677810
  80.2767430  57.0816190  22.2509890  80.0508350  56.8653360  23.1556510
  79.4959960  57.5144650  21.9055860  87.5065190  57.0879560  20.8500540
  86.9074080  57.8115360  20.6664160  88.0544800  57.0256340  20.0676990
  82.7166640  57.9801770  32.9170160  82.6210240  57.0396500  32.7670560
  83.5598620  58.2016840  32.5218230  86.1130060  55.7243100  22.8803820
  86.5059630  56.0415300  22.0672510  86.4746910  54.8454980  22.9948340
  77.8477180  54.3915440  31.0703940  77.4540570  55.2390650  31.2776720
  77.1595580  53.7541810  31.2612580  84.4222230  54.4750410  34.1400680
  83.7320550  54.2822610  34.7746770  85.1654530  54.7585050  34.6724980
  75.1494230  52.3143900  25.1034020  74.8607280  52.8846760  25.8159000
  75.8939990  51.8348350  25.4665250  75.3364460  56.2564020  16.3136740
  75.2539130  57.1994780  16.4551730  74.9847520  56.1138930  15.4349090
  86.6985200  58.3148850  26.9754600  85.9666320  58.8235660  27.3244700
  86.3009540  57.4978830  26.6743380  83.1362590  54.9903050  25.3807090
  83.1398650  54.5493000  24.5311630  84.0313710  55.3120380  25.4878910
  78.9864970  54.8729540  24.3401300  78.6465020  55.3504770  25.0968350
  78.2242290  54.4194660  23.9802400  83.1982740  55.9915130  18.3713850
  83.3195560  55.9501610  19.3199670  82.8131250  56.8539280  18.2160580
  87.1611110  53.7682530  26.3877540  87.1783850  54.2191180  27.2319390
  86.9126690  52.8688170  26.6010980  82.2104240  58.3016270  17.7697150
  81.6421140  57.8534520  17.1433060  82.9193240  58.6609050  17.2362300
  90.5881860  51.1814710  32.2263920  90.9127630  50.4504370  32.7521900
  90.6238370  50.8628350  31.3244910  77.2873420  62.2028290  31.6463880
  76.9028210  61.5621960  32.2446840  77.5985610  62.9064410  32.2158610
  83.4370560  59.0504830  27.1272500  83.8040690  58.5763400  27.8733840
  83.2475620  59.9246400  27.4680840  76.3011050  53.7948520  23.2565970
  76.0157970  53.4304190  24.0944590  76.2389910  53.0628980  22.6429110
  81.2269930  58.0913470  29.4456710  80.9227000  58.9705450  29.6707070
  82.1816390  58.1513260  29.4814150  79.7551720  62.2974460  20.0423560
  78.9813980  61.7572080  19.8822280  80.4846350  61.7781070  19.7041320
  90.5139700  61.2939820  25.8349950  91.2338820  61.7895110  25.4446060
  90.3121520  60.6157710  25.1903820  85.9749640  52.6877780  19.9779340
  85.1614250  52.1890950  19.9024650  85.7811590  53.5276030  19.5615690
  85.8958500  61.3648880  31.7218950  85.8295810  60.4444550  31.4676540
  85.2663640  61.4624320  32.4363590  88.6898030  57.0597430  18.2741500
  89.5777650  57.3714660  18.0992840  88.6603120  56.1869680  17.8822080
  79.7989120  61.9654840  23.6802370  80.3167790  61.1623100  23.6259260
  79.3473140  61.9033980  24.5219200  84.6858620  63.2321120  18.9529670
  85.0274320  63.9763350  18.4572990  83.8571330  63.5452240  19.3154500
  77.2833660  58.9316210  30.5928070  76.9248600  59.5970060  31.1801410
  76.9888220  58.0999760  30.9640690  80.4846780  59.3900450  33.4767620
  80.1846920  59.5357630  32.5795440  81.2558020  58.8305740  33.3841010
  85.8275230  64.1869450  31.4722750  85.8419770  63.2550410  31.2541660
  85.1200330  64.2729210  32.1112520  90.9612300  58.3709270  17.7421360
  90.8776020  58.8023490  16.8917800  91.6806490  58.8307620  18.1748180
  91.9899550  65.2251530  20.4703490  91.3475710  64.5707150  20.7447210
  91.6030210  65.6306620  19.6944160  87.5686030  62.5536960  24.3175180
  87.9209850  61.9565090  23.6576550  86.6848360  62.2281190  24.4883430
  83.6549310  63.3134650  21.7245590  84.3420440  63.8603860  22.1053180
  82.8681730  63.8575380  21.7595200  75.7941710  58.9307470  17.2162670
  76.6636560  59.2132270  17.4998590  75.3032030  59.7443340  17.1011480
  82.9576520  60.3180680  21.3370950  83.4139300  61.1285930  21.5631140
  82.6064730  60.0003820  22.1689440  85.2609130  65.8287020  28.5663250
  85.9051350  66.0346400  29.2436670  85.6238570  65.0675420  28.1134100
  78.8588300  50.6618330  21.8093470  78.7302930  50.6536230  22.7578390
  78.0350320  51.0001420  21.4584480  86.5341210  63.8319370  27.2840700
  87.1763440  63.1312530  27.3972870  87.0590560  64.6117810  27.1037590
  90.3796930  64.1167990  17.0079840  90.1534510  63.3998430  17.6004480
  89.9893130  63.8680430  16.1701590  88.3078830  64.6314270  30.4876760
  88.6435070  65.2180960  31.1654680  87.3879170  64.5006980  30.7174550
  76.1612960  68.1434850  17.7824300  76.5210600  68.7424190  17.1281570
  76.0205300  68.6894740  18.5559330  75.8582230  52.4209450  31.2700170
  75.1440750  52.6206370  31.8752780  76.2777270  51.6449020  31.6414970
  89.9613180  62.0339930  18.6694000  89.6734880  62.4952620  19.4571880
  90.7565350  61.5737700  18.9378220  76.1454820  66.4089710  32.2566700
  76.2545940  65.4684450  32.1162090  75.4935380  66.6744460  31.6080430
  84.1367410  64.6805600  33.6564820  83.8164280  63.9614840  34.2010510
  83.4625770  65.3560670  33.7300880  82.1781580  65.5266050  18.5997970
  82.1691680  66.2595740  17.9842480  81.2579940  65.2797630  18.6924930
  77.7788220  60.7480940  19.3444730  77.1716170  61.4879840  19.3540030
  78.2537570  60.8380300  18.5182930  87.3521010  54.9131760  29.0201620
  87.7201830  54.0926970  29.3481190  86.4919210  54.9733650  29.4357270
  90.7183040  53.8688700  19.8289180  90.0896200  53.9734370  19.1147410
  90.2234960  54.0885480  20.6183060  85.1641180  65.5894290  17.2623160
  85.2653160  65.3858280  16.3325140  84.2642920  65.3352570  17.4670940
  82.6867070  56.1474650  21.2447060  81.9783220  56.6160990  21.6860670
  82.9711550  55.4896660  21.8792250  84.3123000  57.5671350  29.2439590
  84.8108250  58.0417170  29.9091440  84.4545950  56.6434870  29.4509620
  86.7182500  52.8725310  22.6842850  86.5950280  52.8911440  21.7352360
  87.6667060  52.9204250  22.8041250  83.8059290  68.1080610  21.9570830
  84.0600790  68.0702000  21.0350200  82.8571770  67.9813940  21.9499080
  80.8902090  54.4559730  18.6197770  81.7392620  54.8929880  18.5537960
  80.5233360  54.7679990  19.4469830  91.5189860  53.7839310  30.0867980
  91.0163460  54.5244710  30.4261790  92.3346520  54.1723310  29.7704770
  89.8111870  59.0272490  23.5329340  88.8702010  59.0422720  23.7077030
  90.1255940  58.2408450  23.9789640  79.7893510  60.7092090  17.0933300
  80.5556780  60.5973450  17.6558730  79.8668200  60.0130060  16.4410070
  78.4840270  58.1417160  17.7766190  78.5643860  57.1944670  17.8883590
  79.3760020  58.4724040  17.8826850  79.2854980  68.2912550  24.8800730
  80.0217460  67.7428010  25.1509300  79.6695900  69.1568560  24.7406720
  76.1700460  64.3586120  20.7542240  75.2440240  64.6007260  20.7447650
  76.6356890  65.1860380  20.6326990  78.2913260  67.4758620  34.0686310
  79.0925990  67.7970670  34.4821710  77.7765080  67.1154200  34.7906220
  82.3957290  67.4642860  16.7026300  83.1885900  67.7531690  16.2508090
  81.8761640  67.0335030  16.0238780  87.1277890  63.5838490  34.0161720
  86.5216050  63.6070090  33.2757470  86.8232000  62.8521530  34.5528970
  88.5578260  67.3118780  32.6271130  89.5100010  67.2276800  32.5771370
  88.4106480  67.9760490  33.3004920  91.4487460  66.6912990  18.1263040
  91.1628970  66.2778130  17.3117220  91.2507010  67.6200700  18.0063560
  76.0111070  59.9632080  33.0122360  76.5150090  59.3839360  33.5838590
  75.2718490  60.2472310  33.5498730  82.9134690  62.6846270  16.5668650
  82.8085330  62.0698620  17.2930030  82.7458910  62.1612160  15.7831660
  83.0649010  61.3703070  32.5457880  82.2994680  61.9388070  32.4612550
  83.2464970  61.0779280  31.6526110  86.1537420  61.7466300  17.1710640
  85.6047520  62.1935600  17.8153380  86.7756680  61.2415550  17.6948310
  90.2072360  63.1008400  33.1032900  90.9481830  63.4384160  32.6000360
  89.4445040  63.2700460  32.5502670  78.0434150  58.1061670  33.9072430
  78.0839490  57.8075540  34.8157660  78.8979650  58.5069280  33.7479950
  81.8212540  60.7057220  19.0675940  82.2428960  60.5397090  19.9107330
  81.9463380  59.8957450  18.5731080  79.9839960  56.6853770  31.8746920
  79.4536420  56.1944720  31.2470260  80.6528030  57.1137970  31.3404850
  84.3340180  59.7294830  16.3153040  84.8545840  59.0143850  15.9494190
  84.9808580  60.3680700  16.6153550  88.8818020  61.1523230  31.6388110
  89.2959040  61.3068310  32.4878530  87.9469020  61.2778450  31.8013890
  89.3540190  58.4919390  33.6427260  89.9360960  57.7371710  33.5547740
  89.5301960  59.0226830  32.8658740  80.4712260  53.6516140  31.9544210
  80.3769130  53.0336890  31.2295080  79.8909650  54.3782430  31.7274120
  83.2373700  52.2089380  28.9871600  82.7891000  52.2313640  28.1417150
  82.6038900  51.8108400  29.5841900  83.6433250  61.1043710  29.6084040
  84.0621360  61.9476440  29.4360280  82.7241880  61.2415750  29.3790820
  85.9797150  58.8359890  30.9921880  86.0993360  58.2401030  31.7316720
  86.8391150  58.8729580  30.5723180  88.3185050  59.3897080  29.5684390
  87.7920270  59.9139700  28.9649530  88.6616390  60.0224470  30.1994120
  80.7171440  56.7790450  16.0134100  80.5160500  55.9157810  16.3747440
  80.5463490  56.6923810  15.0755700  81.4940670  67.4096720  30.7241770
  80.9561760  68.1342780  30.4050470  81.7474630  66.9327060  29.9339110
  82.7465920  55.3781240  32.2497700  83.3365610  55.0697090  32.9375520
  81.9286160  54.9060990  32.4057600  87.5659350  54.9947050  32.4830720
  86.8774870  54.3328590  32.4180710  88.2865370  54.5485320  32.9279180
  88.1959750  51.5898680  18.5420980  88.4762040  50.7466580  18.8980400
  87.4225480  51.8221790  19.0559730  79.5154240  53.8791070  16.0011980
  79.8180140  53.8858500  15.0931130  80.2548830  53.5288930  16.4979640
  84.3502880  68.6447930  30.9828420  84.2761580  69.5483070  31.2900790
  83.4481720  68.3259830  30.9550490  82.7339170  52.8225690  16.9868180
  82.3861170  52.1449680  16.4070630  82.9351940  52.3615200  17.8011570
  84.8988210  67.8106440  18.6054780  85.7939000  68.1491410  18.6273540
  84.9305840  67.0885850  17.9779060  78.5384370  63.1833490  16.8341780
  78.9759240  63.7263160  17.4899360  79.0232100  62.3580440  16.8438120
  75.7530170  65.9722520  24.2862040  76.0833180  65.1043580  24.0540680
  76.1821170  66.1781040  25.1167000  80.3492090  64.3031530  21.9464010
  80.0487630  64.1796500  22.8467920  80.2429580  63.4440120  21.5379740
  76.2420380  66.8393110  27.0243670  75.8051370  67.0193910  27.8567820
  76.8098060  67.5967730  26.8825390  91.8782560  66.3410110  31.3120980
  91.2784550  66.4002670  30.5684900  92.0076460  65.4015090  31.4417830
  76.0744810  59.3513340  23.3832550  75.4193650  59.0824980  22.7392250
  76.9122760  59.2417820  22.9334530  90.5634200  63.0662090  29.4097140
  89.7494040  63.4959250  29.6722930  90.9708400  63.6780500  28.7966190
  89.0235250  54.1454630  17.6051040  89.4420130  53.9585610  16.7647700
  88.7171310  53.2933680  17.9153970  77.1120740  59.7365910  27.9235890
  77.4793780  59.6493310  28.8031910  76.5431560  58.9732460  27.8242750
  91.9124600  58.2050290  30.9366360  91.6810690  57.9763040  30.0364310
  92.1729150  59.1249840  30.8911250  76.6636740  56.6475000  31.8294310
  75.7692790  56.6141760  32.1688020  77.2034290  56.8461790  32.5945560
  90.3512670  53.4306720  33.7146060  91.2282850  53.4390120  34.0980060
  90.3633510  52.6937560  33.1038410  75.2882890  56.5612270  19.3257880
  74.3846970  56.8242470  19.1509540  75.7723510  56.8323440  18.5457840
  91.7975940  57.2836260  24.6034080  92.3213420  56.7898910  23.9724250
  92.3835360  57.4186620  25.3481650  91.9765660  57.3676130  28.1253630
  91.0268370  57.3339670  28.2398620  92.1578670  58.2776240  27.8903400
  77.8310100  55.6177810  17.2352260  78.5401800  55.1961030  16.7499540
  77.1150040  55.6853040  16.6035610  77.4784260  51.6717140  16.2754910
  78.2012390  52.2126080  16.5936130  77.7508780  51.3980560  15.3996450
  91.2875910  56.5409610  20.5426490  91.7835030  56.3080480  21.3275370
  91.0891980  55.7021450  20.1264130  77.1676450  50.9223330  26.1777530
  77.8152640  50.3720710  25.7372690  77.5878290  51.1766480  26.9993340
  91.0628790  51.1164690  29.5347170  91.7001010  51.7298830  29.9006360
  91.2103680  51.1525350  28.5896400  90.6210250  67.8180690  22.9365410
  91.2169320  67.4965260  22.2599830  90.8788400  67.3452510  23.7278680
  76.9208450  51.0779000  28.9202850  76.5723270  51.5342820  29.6861030
  76.5896150  50.1836130  29.0025280  78.5272820  64.2498600  33.0856040
  78.4842450  63.8791510  33.9670500  78.6583830  65.1876170  33.2257860
  82.2278850  65.8058190  28.6865760  81.9870210  66.0732750  27.7996280
  83.1681490  65.9763920  28.7416620  84.4333270  52.2690880  32.4422270
  84.3722160  52.8612710  33.1917680  85.3733650  52.1616840  32.2972530
  87.0707830  51.9260940  32.0814560  87.6848240  52.2440230  31.4195640
  87.6157390  51.4409530  32.7010420  77.5929090  50.6055200  32.1953620
  78.1412080  50.4243250  31.4319730  77.6584400  49.8149310  32.7309930
  78.3660850  67.1960850  30.2053820  77.7721170  67.0645550  30.9443860
  78.3584690  66.3598990  29.7395920  87.8115870  50.4893080  28.4083850
  86.9375710  50.8228190  28.2056780  87.7026620  50.0166260  29.2335720
  88.7187850  52.6963950  29.7925570  88.3901210  51.8815710  29.4127300
  89.6670150  52.6533760  29.6691260  91.1722460  68.4675990  26.7663140
  90.7125430  69.2191800  26.3921160  90.5434920  67.7482460  26.7077940
  77.9973080  64.5619230  29.1561860  77.2707140  63.9424520  29.0887810
  78.0582230  64.9559840  28.2859940  81.6018180  66.7764230  25.9411270
  82.1183200  66.1651590  25.4159530  82.2515560  67.2793010  26.4322280
  84.3413680  67.6672720  26.7680250  84.6291490  67.4127020  25.8913260
  84.8536900  67.1150080  27.3585820  85.5590690  51.4062920  27.3476760
  84.7762480  51.8808420  27.6273520  85.2653620  50.5017750  27.2389940
  90.1111760  52.1086020  25.3925850  90.5519850  52.0531120  24.5447450
  89.8419350  53.0244030  25.4636030  76.2803080  67.8793620  22.3658620
  76.1125120  67.2464300  23.0640510  75.4137590  68.0853020  22.0152810
  76.9031100  51.7110400  19.8690480  77.6610460  51.8239280  19.2954510
  76.4408270  52.5479600  19.8233910  83.4444910  53.8249670  22.8592790
  82.6319420  53.4506560  22.5188670  83.9486550  53.0694750  23.1613980
  87.9469890  50.4892120  24.0975860  88.5499260  51.0612330  24.5724380
  87.2062880  51.0531560  23.8749760  91.0904490  50.8913680  19.3716140
  91.2855120  51.7897130  19.6383570  90.3034360  50.6600760  19.8649090
  77.8865780  66.5726850  19.8108760  77.3613400  66.9534880  19.1070720
  77.8110360  67.1977620  20.5318470  79.2756250  52.2374450  18.4092450
  79.8049010  51.4504250  18.2800400  79.9084570  52.9165640  18.6427980
  81.4694090  51.9749590  21.4637840  80.8396830  51.2736900  21.6307970
  80.9299230  52.7353720  21.2471000  84.4086040  68.5888820  34.1348450
  85.3353350  68.3533090  34.1784410  84.3936470  69.4160820  33.6534480
  81.5949650  51.2533570  33.8990330  81.3133920  51.7567170  33.1351150
  81.9769350  50.4555320  33.5332460  80.4858750  68.5209230  18.6858010
  81.2177570  68.2368510  18.1381900  80.7452420  68.2822510  19.5757390
  79.6473540  64.6373960  18.6904340  79.0182420  65.1059060  19.2390170
  79.7621370  63.7923180  19.1250530  88.1965110  50.6687150  34.4770800
  88.0830560  50.9881760  35.3722320  89.0134850  51.0699660  34.1808080
  90.9763600  67.8158680  33.9589490  91.7688920  67.3207910  33.7515450
  91.2696750  68.4948820  34.5665100  87.1023260  58.6879620   4.8405540
  87.0217310  57.7734230   4.5697250  86.6887680  59.1846690   4.1345250
  85.2341300  60.4658640   6.7214810  84.4583400  59.9859080   7.0113380
  85.8854230  59.7864290   6.5470970  79.2507130  60.7778450   7.5990570
  78.4192010  60.5227160   7.9987080  79.8588110  60.8489220   8.3348490
  89.2548730  64.8718830   5.5013940  88.7930260  64.1006070   5.8301110
  90.0674280  64.8984900   6.0066390  79.2308390  64.8118540   7.7948590
  79.5336430  63.9216280   7.6158810  79.9751980  65.3688760   7.5670840
  75.6232090  58.3385990   7.2672660  76.1948200  57.5708190   7.2676300
  75.6233630  58.6374750   6.3579270  85.4812040  67.1576840   5.1217930
  84.8623480  67.6134340   4.5512370  86.3363820  67.3128300   4.7207630
  84.6750290  63.1415830   6.7284970  84.6058570  62.2005770   6.5674100
  85.4370150  63.2317240   7.3007540  76.8656960  53.7470350   9.0541590
  76.6859800  52.8496100   9.3344350  76.4637040  54.2942220   9.7288540
  85.7055460  55.9486210   6.9553900  86.0820280  55.0758090   6.8427570
  85.6074970  56.2844910   6.0644340  79.8360470  54.3211840   2.4171340
  79.9427220  55.2215570   2.7240100  78.9252830  54.2729810   2.1265990
  89.4879580  53.4436650   3.8882240  90.3089200  52.9533220   3.9307720
  89.5213660  54.0334310   4.6414080  77.4843630  56.2430850   7.6623930
  78.1653740  56.5069220   8.2811330  77.1691680  55.4031720   7.9961940
  81.6768200  57.2898210   6.7496520  82.1846420  57.7879180   7.3901540
  82.2081440  56.5133410   6.5735880  79.9604300  51.9296770  11.0159940
  79.9622740  52.4469160  10.2105840  79.1308610  51.4526950  10.9929870
  86.3475390  62.0416080   2.5149840  85.7292660  62.5065530   1.9512560
  86.8598640  62.7343560   2.9319350  81.2107150  61.5691950   9.1933440
  80.8776530  62.1960870   9.8354510  81.3873830  62.0953830   8.4135110
  89.7241060  55.3837030   6.6609780  89.0196630  55.6721920   7.2412890
  90.0853220  56.1937140   6.3009340  79.6419630  53.6406730   9.0230390
  79.9836440  54.4848780   8.7284260  78.7035440  53.7890470   9.1395730
  80.4226250  63.5372750  11.0082620  81.0400250  64.2123830  10.7267070
  79.5619370  63.9460730  10.9170120  91.3403840  65.0012160   8.9237260
  90.6567360  65.6711270   8.9153930  91.8798130  65.1992810   8.1582120
  83.3247520  51.1289000   5.3474980  83.6322500  50.5735890   4.6310480
  82.3948220  51.2633460   5.1647970  88.8762580  66.8456290   7.6382440
  88.8889740  66.4418580   6.7704700  88.3237800  67.6203580   7.5343870
  90.1708000  63.5672510   2.7272610  90.0604330  62.6246840   2.8522030
  90.1676250  63.9288150   3.6135370  88.2748020  61.7486130   8.9665050
  88.6916810  61.5346240   8.1318510  88.9987840  62.0058920   9.5373670
  85.7128280  59.1937830   2.0835100  84.7857560  59.1275210   2.3123570
  85.8653100  60.1317960   1.9690340  89.7425570  60.7558130   2.5870350
  89.1237990  60.4177680   1.9396650  89.7250020  60.1117890   3.2949540
  89.1852130  56.9342670  10.0036160  88.7723310  57.7596380  10.2576150
  88.4528080  56.3487710   9.8112520  81.3184920  59.7202570   4.8654830
  80.9141920  59.0079820   4.3700730  81.4048040  59.3755810   5.7542870
  81.7866620  63.4070130   7.0294040  81.4894910  62.8015600   6.3501820
  82.7366440  63.4447440   6.9183400  80.0313540  56.4945780   8.6453870
  80.5828130  56.6041120   7.8707120  80.5457050  56.8683380   9.3609100
  89.8752230  66.9802000  10.6917140  89.3982790  67.7874190  10.4989750
  89.1914020  66.3280330  10.8443350  80.8785050  63.1451820  13.6801840
  79.9813580  63.3691790  13.9275240  80.9037920  63.2686760  12.7313240
  79.7056270  60.0165140  12.2559210  79.5664040  60.8887940  12.6246610
  78.8237630  59.6737950  12.1107150  86.0285650  64.9341010   3.5624340
  86.4681560  65.6765340   3.1479730  85.9672540  65.1767580   4.4863300
  81.5036620  65.9586840  14.4644360  81.4752050  66.3629790  13.5972790
  81.3401590  65.0297200  14.3015960  78.0189550  58.6147550   2.3661480
  77.8987150  59.3409640   1.7542750  77.7090440  57.8450460   1.8889390
  75.6574920  61.7862690   8.1730120  75.7355340  61.9211460   7.2285840
  76.2716600  61.0778580   8.3658240  76.9022550  63.4862880   4.5836300
  76.4950630  63.6277470   3.7289900  77.7935560  63.2023040   4.3807510
  86.7201430  67.6354790  11.4903350  87.2346100  67.5462800  12.2925780
  85.8770510  67.9814490  11.7831260  81.1744210  67.7008660   2.6958970
  80.9986690  66.7844200   2.4826770  80.3199950  68.0595950   2.9356770
  87.9631890  67.0560400   3.5533840  88.4188840  66.2749780   3.8672460
  88.3024410  67.7667220   4.0975020  75.7134440  62.8276860  10.7124580
  75.8765480  62.3582220   9.8943950  76.1786890  62.3200420  11.3773420
  80.4853210  51.9582620   5.7485150  80.0421360  52.7392160   5.4169670
  81.0438200  52.2812510   6.4556090  84.7723020  54.8251140  11.3520470
  84.3102390  55.0334160  12.1640410  84.3701130  54.0110490  11.0491140
  89.7727530  56.0460090  12.4817130  88.9221120  55.7465840  12.8026200
  89.6129320  56.2902100  11.5700950  86.8677240  57.5461840  14.5815920
  87.1930650  56.7125590  14.2418150  87.6557570  58.0690360  14.7294250
  82.5229110  52.5029950   7.6074750  82.8201440  53.4092780   7.5266770
  83.0714670  52.0148730   6.9934320  80.2767430  57.0816190   3.4766400
  80.0508350  56.8653360   4.3813020  79.4959960  57.5144650   3.1312370
  87.5065190  57.0879560   2.0757050  86.9074080  57.8115360   1.8920670
  88.0544800  57.0256340   1.2933500  82.7166640  57.9801770  14.1426670
  82.6210240  57.0396500  13.9927070  83.5598620  58.2016840  13.7474740
  86.1130060  55.7243100   4.1060330  86.5059630  56.0415300   3.2929020
  86.4746910  54.8454980   4.2204850  77.8477180  54.3915440  12.2960450
  77.4540570  55.2390650  12.5033230  77.1595580  53.7541810  12.4869090
  84.4222230  54.4750410  15.3657190  83.7320550  54.2822610  16.0003280
  85.1654530  54.7585050  15.8981490  75.1494230  52.3143900   6.3290530
  74.8607280  52.8846760   7.0415510  75.8939990  51.8348350   6.6921760
  86.6985200  58.3148850   8.2011110  85.9666320  58.8235660   8.5501210
  86.3009540  57.4978830   7.8999890  83.1362590  54.9903050   6.6063600
  83.1398650  54.5493000   5.7568140  84.0313710  55.3120380   6.7135420
  78.9864970  54.8729540   5.5657810  78.6465020  55.3504770   6.3224860
  78.2242290  54.4194660   5.2058910  87.1611110  53.7682530   7.6134050
  87.1783850  54.2191180   8.4575900  86.9126690  52.8688170   7.8267490
  90.5881860  51.1814710  13.4520430  90.9127630  50.4504370  13.9778410
  90.6238370  50.8628350  12.5501420  77.2873420  62.2028290  12.8720390
  76.9028210  61.5621960  13.4703350  77.5985610  62.9064410  13.4415120
  83.4370560  59.0504830   8.3529010  83.8040690  58.5763400   9.0990350
  83.2475620  59.9246400   8.6937350  76.3011050  53.7948520   4.4822480
  76.0157970  53.4304190   5.3201100  76.2389910  53.0628980   3.8685620
  81.2269930  58.0913470  10.6713220  80.9227000  58.9705450  10.8963580
  82.1816390  58.1513260  10.7070660  90.5139700  61.2939820   7.0606460
  91.2338820  61.7895110   6.6702570  90.3121520  60.6157710   6.4160330
  85.8958500  61.3648880  12.9475460  85.8295810  60.4444550  12.6933050
  85.2663640  61.4624320  13.6620100  79.7989120  61.9654840   4.9058880
  80.3167790  61.1623100   4.8515770  79.3473140  61.9033980   5.7475710
  77.2833660  58.9316210  11.8184580  76.9248600  59.5970060  12.4057920
  76.9888220  58.0999760  12.1897200  80.4846780  59.3900450  14.7024130
  80.1846920  59.5357630  13.8051950  81.2558020  58.8305740  14.6097520
  85.8275230  64.1869450  12.6979260  85.8419770  63.2550410  12.4798170
  85.1200330  64.2729210  13.3369030  87.5686030  62.5536960   5.5431690
  87.9209850  61.9565090   4.8833060  86.6848360  62.2281190   5.7139940
  83.6549310  63.3134650   2.9502100  84.3420440  63.8603860   3.3309690
  82.8681730  63.8575380   2.9851710  82.9576520  60.3180680   2.5627460
  83.4139300  61.1285930   2.7887650  82.6064730  60.0003820   3.3945950
  85.2609130  65.8287020   9.7919760  85.9051350  66.0346400  10.4693180
  85.6238570  65.0675420   9.3390610  78.8588300  50.6618330   3.0349980
  78.7302930  50.6536230   3.9834900  78.0350320  51.0001420   2.6840990
  86.5341210  63.8319370   8.5097210  87.1763440  63.1312530   8.6229380
  87.0590560  64.6117810   8.3294100  88.3078830  64.6314270  11.7133270
  88.6435070  65.2180960  12.3911190  87.3879170  64.5006980  11.9431060
  75.8582230  52.4209450  12.4956680  75.1440750  52.6206370  13.1009290
  76.2777270  51.6449020  12.8671480  76.1454820  66.4089710  13.4823210
  76.2545940  65.4684450  13.3418600  75.4935380  66.6744460  12.8336940
  84.1367410  64.6805600  14.8821330  83.8164280  63.9614840  15.4267020
  83.4625770  65.3560670  14.9557390  87.3521010  54.9131760  10.2458130
  87.7201830  54.0926970  10.5737700  86.4919210  54.9733650  10.6613780
  82.6867070  56.1474650   2.4703570  81.9783220  56.6160990   2.9117180
  82.9711550  55.4896660   3.1048760  84.3123000  57.5671350  10.4696100
  84.8108250  58.0417170  11.1347950  84.4545950  56.6434870  10.6766130
  86.7182500  52.8725310   3.9099360  86.5950280  52.8911440   2.9608870
  87.6667060  52.9204250   4.0297760  83.8059290  68.1080610   3.1827340
  84.0600790  68.0702000   2.2606710  82.8571770  67.9813940   3.1755590
  91.5189860  53.7839310  11.3124490  91.0163460  54.5244710  11.6518300
  92.3346520  54.1723310  10.9961280  89.8111870  59.0272490   4.7585850
  88.8702010  59.0422720   4.9333540  90.1255940  58.2408450   5.2046150
  79.2854980  68.2912550   6.1057240  80.0217460  67.7428010   6.3765810
  79.6695900  69.1568560   5.9663230  76.1700460  64.3586120   1.9798750
  75.2440240  64.6007260   1.9704160  76.6356890  65.1860380   1.8583500
  78.2913260  67.4758620  15.2942820  79.0925990  67.7970670  15.7078220
  77.7765080  67.1154200  16.0162730  87.1277890  63.5838490  15.2418230
  86.5216050  63.6070090  14.5013980  86.8232000  62.8521530  15.7785480
  88.5578260  67.3118780  13.8527640  89.5100010  67.2276800  13.8027880
  88.4106480  67.9760490  14.5261430  76.0111070  59.9632080  14.2378870
  76.5150090  59.3839360  14.8095100  75.2718490  60.2472310  14.7755240
  83.0649010  61.3703070  13.7714390  82.2994680  61.9388070  13.6869060
  83.2464970  61.0779280  12.8782620  90.2072360  63.1008400  14.3289410
  90.9481830  63.4384160  13.8256870  89.4445040  63.2700460  13.7759180
  78.0434150  58.1061670  15.1328940  78.0839490  57.8075540  16.0414170
  78.8979650  58.5069280  14.9736460  79.9839960  56.6853770  13.1003430
  79.4536420  56.1944720  12.4726770  80.6528030  57.1137970  12.5661360
  88.8818020  61.1523230  12.8644620  89.2959040  61.3068310  13.7135040
  87.9469020  61.2778450  13.0270400  89.3540190  58.4919390  14.8683770
  89.9360960  57.7371710  14.7804250  89.5301960  59.0226830  14.0915250
  80.4712260  53.6516140  13.1800720  80.3769130  53.0336890  12.4551590
  79.8909650  54.3782430  12.9530630  83.2373700  52.2089380  10.2128110
  82.7891000  52.2313640   9.3673660  82.6038900  51.8108400  10.8098410
  83.6433250  61.1043710  10.8340550  84.0621360  61.9476440  10.6616790
  82.7241880  61.2415750  10.6047330  85.9797150  58.8359890  12.2178390
  86.0993360  58.2401030  12.9573230  86.8391150  58.8729580  11.7979690
  88.3185050  59.3897080  10.7940900  87.7920270  59.9139700  10.1906040
  88.6616390  60.0224470  11.4250630  81.4940670  67.4096720  11.9498280
  80.9561760  68.1342780  11.6306980  81.7474630  66.9327060  11.1595620
  82.7465920  55.3781240  13.4754210  83.3365610  55.0697090  14.1632030
  81.9286160  54.9060990  13.6314110  87.5659350  54.9947050  13.7087230
  86.8774870  54.3328590  13.6437220  88.2865370  54.5485320  14.1535690
  84.3502880  68.6447930  12.2084930  84.2761580  69.5483070  12.5157300
  83.4481720  68.3259830  12.1807000  75.7530170  65.9722520   5.5118550
  76.0833180  65.1043580   5.2797190  76.1821170  66.1781040   6.3423510
  80.3492090  64.3031530   3.1720520  80.0487630  64.1796500   4.0724430
  80.2429580  63.4440120   2.7636250  76.2420380  66.8393110   8.2500180
  75.8051370  67.0193910   9.0824330  76.8098060  67.5967730   8.1081900
  91.8782560  66.3410110  12.5377490  91.2784550  66.4002670  11.7941410
  92.0076460  65.4015090  12.6674340  76.0744810  59.3513340   4.6089060
  75.4193650  59.0824980   3.9648760  76.9122760  59.2417820   4.1591040
  90.5634200  63.0662090  10.6353650  89.7494040  63.4959250  10.8979440
  90.9708400  63.6780500  10.0222700  77.1120740  59.7365910   9.1492400
  77.4793780  59.6493310  10.0288420  76.5431560  58.9732460   9.0499260
  91.9124600  58.2050290  12.1622870  91.6810690  57.9763040  11.2620820
  92.1729150  59.1249840  12.1167760  76.6636740  56.6475000  13.0550820
  75.7692790  56.6141760  13.3944530  77.2034290  56.8461790  13.8202070
  90.3512670  53.4306720  14.9402570  91.2282850  53.4390120  15.3236570
  90.3633510  52.6937560  14.3294920  91.7975940  57.2836260   5.8290590
  92.3213420  56.7898910   5.1980760  92.3835360  57.4186620   6.5738160
  91.9765660  57.3676130   9.3510140  91.0268370  57.3339670   9.4655130
  92.1578670  58.2776240   9.1159910  91.2875910  56.5409610   1.7683000
  91.7835030  56.3080480   2.5531880  91.0891980  55.7021450   1.3520640
  77.1676450  50.9223330   7.4034040  77.8152640  50.3720710   6.9629200
  77.5878290  51.1766480   8.2249850  91.0628790  51.1164690  10.7603680
  91.7001010  51.7298830  11.1262870  91.2103680  51.1525350   9.8152910
  90.6210250  67.8180690   4.1621920  91.2169320  67.4965260   3.4856340
  90.8788400  67.3452510   4.9535190  76.9208450  51.0779000  10.1459360
  76.5723270  51.5342820  10.9117540  76.5896150  50.1836130  10.2281790
  78.5272820  64.2498600  14.3112550  78.4842450  63.8791510  15.1927010
  78.6583830  65.1876170  14.4514370  82.2278850  65.8058190   9.9122270
  81.9870210  66.0732750   9.0252790  83.1681490  65.9763920   9.9673130
  84.4333270  52.2690880  13.6678780  84.3722160  52.8612710  14.4174190
  85.3733650  52.1616840  13.5229040  87.0707830  51.9260940  13.3071070
  87.6848240  52.2440230  12.6452150  87.6157390  51.4409530  13.9266930
  77.5929090  50.6055200  13.4210130  78.1412080  50.4243250  12.6576240
  77.6584400  49.8149310  13.9566440  78.3660850  67.1960850  11.4310330
  77.7721170  67.0645550  12.1700370  78.3584690  66.3598990  10.9652430
  87.8115870  50.4893080   9.6340360  86.9375710  50.8228190   9.4313290
  87.7026620  50.0166260  10.4592230  88.7187850  52.6963950  11.0182080
  88.3901210  51.8815710  10.6383810  89.6670150  52.6533760  10.8947770
  91.1722460  68.4675990   7.9919650  90.7125430  69.2191800   7.6177670
  90.5434920  67.7482460   7.9334450  77.9973080  64.5619230  10.3818370
  77.2707140  63.9424520  10.3144320  78.0582230  64.9559840   9.5116450
  81.6018180  66.7764230   7.1667780  82.1183200  66.1651590   6.6416040
  82.2515560  67.2793010   7.6578790  84.3413680  67.6672720   7.9936760
  84.6291490  67.4127020   7.1169770  84.8536900  67.1150080   8.5842330
  85.5590690  51.4062920   8.5733270  84.7762480  51.8808420   8.8530030
  85.2653620  50.5017750   8.4646450  90.1111760  52.1086020   6.6182360
  90.5519850  52.0531120   5.7703960  89.8419350  53.0244030   6.6892540
  76.2803080  67.8793620   3.5915130  76.1125120  67.2464300   4.2897020
  75.4137590  68.0853020   3.2409320  83.4444910  53.8249670   4.0849300
  82.6319420  53.4506560   3.7445180  83.9486550  53.0694750   4.3870490
  87.9469890  50.4892120   5.3232370  88.5499260  51.0612330   5.7980890
  87.2062880  51.0531560   5.1006270  81.4694090  51.9749590   2.6894350
  80.8396830  51.2736900   2.8564480  80.9299230  52.7353720   2.4727510
  84.4086040  68.5888820  15.3604960  85.3353350  68.3533090  15.4040920
  84.3936470  69.4160820  14.8790990  81.5949650  51.2533570  15.1246840
  81.3133920  51.7567170  14.3607660  81.9769350  50.4555320  14.7588970
  88.1965110  50.6687150  15.7027310  88.0830560  50.9881760  16.5978830
  89.0134850  51.0699660  15.4064590  90.9763600  67.8158680  15.1846000
  91.7688920  67.3207910  14.9771960  91.2696750  68.4948820  15.7921610
  87.1023260  39.9136130  79.9379500  87.0217310  38.9990740  79.6671210
  86.6887680  40.4103200  79.2319210  85.2341300  41.6915150  81.8188770
  84.4583400  41.2115590  82.1087340  85.8854230  41.0120800  81.6444930
  79.2507130  42.0034960  82.6964530  78.4192010  41.7483670  83.0961040
  79.8588110  42.0745730  83.4322450  89.2548730  46.0975340  80.5987900
  88.7930260  45.3262580  80.9275070  90.0674280  46.1241410  81.1040350
  79.2308390  46.0375050  82.8922550  79.5336430  45.1472790  82.7132770
  79.9751980  46.5945270  82.6644800  77.6599080  36.9636850  76.4806920
  76.7715780  37.3052820  76.3786800  77.9440270  36.7637170  75.5887750
  75.6232090  39.5642500  82.3646620  76.1948200  38.7964700  82.3650260
  75.6233630  39.8631260  81.4553230  85.4812040  48.3833350  80.2191890
  84.8623480  48.8390850  79.6486330  86.3363820  48.5384810  79.8181590
  84.6750290  44.3672340  81.8258930  84.6058570  43.4262280  81.6648060
  85.4370150  44.4573750  82.3981500  76.8656960  34.9726860  84.1515550
  76.6859800  34.0752610  84.4318310  76.4637040  35.5198730  84.8262500
  85.7055460  37.1742720  82.0527860  86.0820280  36.3014600  81.9401530
  85.6074970  37.5101420  81.1618300  79.8360470  35.5468350  77.5145300
  79.9427220  36.4472080  77.8214060  78.9252830  35.4986320  77.2239950
  89.4879580  34.6693160  78.9856200  90.3089200  34.1789730  79.0281680
  89.5213660  35.2590820  79.7388040  77.4843630  37.4687360  82.7597890
  78.1653740  37.7325730  83.3785290  77.1691680  36.6288230  83.0935900
  81.6768200  38.5154720  81.8470480  82.1846420  39.0135690  82.4875500
  82.2081440  37.7389920  81.6709840  79.9604300  33.1553280  86.1133900
  79.9622740  33.6725670  85.3079800  79.1308610  32.6783460  86.0903830
  86.3475390  43.2672590  77.6123800  85.7292660  43.7322040  77.0486520
  86.8598640  43.9600070  78.0293310  81.2107150  42.7948460  84.2907400
  80.8776530  43.4217380  84.9328470  81.3873830  43.3210340  83.5109070
  89.7241060  36.6093540  81.7583740  89.0196630  36.8978430  82.3386850
  90.0853220  37.4193650  81.3983300  79.6419630  34.8663240  84.1204350
  79.9836440  35.7105290  83.8258220  78.7035440  35.0146980  84.2369690
  80.4226250  44.7629260  86.1056580  81.0400250  45.4380340  85.8241030
  79.5619370  45.1717240  86.0144080  75.7158590  43.9529120  74.9863430
  75.3386570  44.4416220  74.2548330  75.9731660  44.6254400  75.6169960
  91.3403840  46.2268670  84.0211220  90.6567360  46.8967780  84.0127890
  91.8798130  46.4249320  83.2556080  83.3247520  32.3545510  80.4448940
  83.6322500  31.7992400  79.7284440  82.3948220  32.4889970  80.2621930
  88.8762580  48.0712800  82.7356400  88.8889740  47.6675090  81.8678660
  88.3237800  48.8460090  82.6317830  90.1708000  44.7929020  77.8246570
  90.0604330  43.8503350  77.9495990  90.1676250  45.1544660  78.7109330
  88.2748020  42.9742640  84.0639010  88.6916810  42.7602750  83.2292470
  88.9987840  43.2315430  84.6347630  85.7128280  40.4194340  77.1809060
  84.7857560  40.3531720  77.4097530  85.8653100  41.3574470  77.0664300
  85.6997360  36.6911340  74.1776220  84.7601030  36.8525300  74.2628680
  86.0180620  37.4097020  73.6312210  89.7425570  41.9814640  77.6844310
  89.1237990  41.6434190  77.0370610  89.7250020  41.3374400  78.3923500
  89.1852130  38.1599180  85.1010120  88.7723310  38.9852890  85.3550110
  88.4528080  37.5744220  84.9086480  81.3184920  40.9459080  79.9628790
  80.9141920  40.2336330  79.4674690  81.4048040  40.6012320  80.8516830
  81.7866620  44.6326640  82.1268000  81.4894910  44.0272110  81.4475780
  82.7366440  44.6703950  82.0157360  80.0313540  37.7202290  83.7427830
  80.5828130  37.8297630  82.9681080  80.5457050  38.0939890  84.4583060
  89.8752230  48.2058510  85.7891100  89.3982790  49.0130700  85.5963710
  89.1914020  47.5536840  85.9417310  87.9190270  41.2201450  74.6917060
  88.3583550  40.3823880  74.5454880  88.6318690  41.8530850  74.7781200
  86.0285650  46.1597520  78.6598300  86.4681560  46.9021850  78.2453690
  85.9672540  46.4024090  79.5837260  91.5007410  32.4744260  73.0058100
  91.1880070  32.5671090  73.9057170  92.2619880  33.0525290  72.9555530
  78.0189550  39.8404060  77.4635440  77.8987150  40.5666150  76.8516710
  77.7090440  39.0706970  76.9863350  75.6574920  43.0119200  83.2704080
  75.7355340  43.1467970  82.3259800  76.2716600  42.3035090  83.4632200
  76.9022550  44.7119390  79.6810260  76.4950630  44.8533980  78.8263860
  77.7935560  44.4279550  79.4781470  88.6955830  49.1466640  76.0161310
  88.5356970  48.8569580  76.9143140  88.5302540  48.3706770  75.4806540
  81.1744210  48.9265170  77.7932930  80.9986690  48.0100710  77.5800730
  80.3199950  49.2852460  78.0330730  88.3981960  46.6554200  74.5759310
  87.7047120  46.6531490  73.9161590  89.1404820  46.2313520  74.1453480
  87.9631890  48.2816910  78.6507800  88.4188840  47.5006290  78.9646420
  88.3024410  48.9923730  79.1948980  75.7134440  44.0533370  85.8098540
  75.8765480  43.5838730  84.9917910  76.1786890  43.5456930  86.4747380
  80.4853210  33.1839130  80.8459110  80.0421360  33.9648670  80.5143630
  81.0438200  33.5069020  81.5530050  83.6012030  32.8049830  75.7264940
  82.9766210  32.8009700  76.4518250  83.5142150  31.9380790  75.3300910
  82.5229110  33.7286460  82.7048710  82.8201440  34.6349290  82.6240730
  83.0714670  33.2405240  82.0908280  80.2767430  38.3072700  78.5740360
  80.0508350  38.0909870  79.4786980  79.4959960  38.7401160  78.2286330
  87.5065190  38.3136070  77.1731010  86.9074080  39.0371870  76.9894630
  88.0544800  38.2512850  76.3907460  86.1130060  36.9499610  79.2034290
  86.5059630  37.2671810  78.3902980  86.4746910  36.0711490  79.3178810
  75.1494230  33.5400410  81.4264490  74.8607280  34.1103270  82.1389470
  75.8939990  33.0604860  81.7895720  75.3364460  37.4820530  72.6367210
  75.2539130  38.4251290  72.7782200  74.9847520  37.3395440  71.7579560
  86.6985200  39.5405360  83.2985070  85.9666320  40.0492170  83.6475170
  86.3009540  38.7235340  82.9973850  83.1362590  36.2159560  81.7037560
  83.1398650  35.7749510  80.8542100  84.0313710  36.5376890  81.8109380
  78.9864970  36.0986050  80.6631770  78.6465020  36.5761280  81.4198820
  78.2242290  35.6451170  80.3032870  83.1982740  37.2171640  74.6944320
  83.3195560  37.1758120  75.6430140  82.8131250  38.0795790  74.5391050
  87.1611110  34.9939040  82.7108010  87.1783850  35.4447690  83.5549860
  86.9126690  34.0944680  82.9241450  82.2104240  39.5272780  74.0927620
  81.6421140  39.0791030  73.4663530  82.9193240  39.8865560  73.5592770
  83.4370560  40.2761340  83.4502970  83.8040690  39.8019910  84.1964310
  83.2475620  41.1502910  83.7911310  76.3011050  35.0205030  79.5796440
  76.0157970  34.6560700  80.4175060  76.2389910  34.2885490  78.9659580
  81.2269930  39.3169980  85.7687180  80.9227000  40.1961960  85.9937540
  82.1816390  39.3769770  85.8044620  79.7551720  43.5230970  76.3654030
  78.9813980  42.9828590  76.2052750  80.4846350  43.0037580  76.0271790
  90.5139700  42.5196330  82.1580420  91.2338820  43.0151620  81.7676530
  90.3121520  41.8414220  81.5134290  85.9749640  33.9134290  76.3009810
  85.1614250  33.4147460  76.2255120  85.7811590  34.7532540  75.8846160
  88.6898030  38.2853940  74.5971970  89.5777650  38.5971170  74.4223310
  88.6603120  37.4126190  74.2052550  79.7989120  43.1911350  80.0032840
  80.3167790  42.3879610  79.9489730  79.3473140  43.1290490  80.8449670
  84.6858620  44.4577630  75.2760140  85.0274320  45.2019860  74.7803460
  83.8571330  44.7708750  75.6384970  90.9612300  39.5965780  74.0651830
  90.8776020  40.0280000  73.2148270  91.6806490  40.0564130  74.4978650
  91.9899550  46.4508040  76.7933960  91.3475710  45.7963660  77.0677680
  91.6030210  46.8563130  76.0174630  87.5686030  43.7793470  80.6405650
  87.9209850  43.1821600  79.9807020  86.6848360  43.4537700  80.8113900
  83.6549310  44.5391160  78.0476060  84.3420440  45.0860370  78.4283650
  82.8681730  45.0831890  78.0825670  75.7941710  40.1563980  73.5393140
  76.6636560  40.4388780  73.8229060  75.3032030  40.9699850  73.4241950
  82.9576520  41.5437190  77.6601420  83.4139300  42.3542440  77.8861610
  82.6064730  41.2260330  78.4919910  85.2609130  47.0543530  84.8893720
  85.9051350  47.2602910  85.5667140  85.6238570  46.2931930  84.4364570
  78.8588300  31.8874840  78.1323940  78.7302930  31.8792740  79.0808860
  78.0350320  32.2257930  77.7814950  86.5341210  45.0575880  83.6071170
  87.1763440  44.3569040  83.7203340  87.0590560  45.8374320  83.4268060
  90.3796930  45.3424500  73.3310310  90.1534510  44.6254940  73.9234950
  89.9893130  45.0936940  72.4932060  76.1612960  49.3691360  74.1054770
  76.5210600  49.9680700  73.4512040  76.0205300  49.9151250  74.8789800
  89.9613180  43.2596440  74.9924470  89.6734880  43.7209130  75.7802350
  90.7565350  42.7994210  75.2608690  82.1781580  46.7522560  74.9228440
  82.1691680  47.4852250  74.3072950  81.2579940  46.5054140  75.0155400
  77.7788220  41.9737450  75.6675200  77.1716170  42.7136350  75.6770500
  78.2537570  42.0636810  74.8413400  87.3521010  36.1388270  85.3432090
  87.7201830  35.3183480  85.6711660  86.4919210  36.1990160  85.7587740
  90.7183040  35.0945210  76.1519650  90.0896200  35.1990880  75.4377880
  90.2234960  35.3141990  76.9413530  85.1641180  46.8150800  73.5853630
  85.2653160  46.6114790  72.6555610  84.2642920  46.5609080  73.7901410
  82.6867070  37.3731160  77.5677530  81.9783220  37.8417500  78.0091140
  82.9711550  36.7153170  78.2022720  84.3123000  38.7927860  85.5670060
  84.8108250  39.2673680  86.2321910  84.4545950  37.8691380  85.7740090
  86.7182500  34.0981820  79.0073320  86.5950280  34.1167950  78.0582830
  87.6667060  34.1460760  79.1271720  83.8059290  49.3337120  78.2801300
  84.0600790  49.2958510  77.3580670  82.8571770  49.2070450  78.2729550
  80.8902090  35.6816240  74.9428240  81.7392620  36.1186390  74.8768430
  80.5233360  35.9936500  75.7700300  91.5189860  35.0095820  86.4098450
  91.0163460  35.7501220  86.7492260  92.3346520  35.3979820  86.0935240
  89.8111870  40.2529000  79.8559810  88.8702010  40.2679230  80.0307500
  90.1255940  39.4664960  80.3020110  79.7893510  41.9348600  73.4163770
  80.5556780  41.8229960  73.9789200  79.8668200  41.2386570  72.7640540
  78.4840270  39.3673670  74.0996660  78.5643860  38.4201180  74.2114060
  79.3760020  39.6980550  74.2057320  79.2854980  49.5169060  81.2031200
  80.0217460  48.9684520  81.4739770  79.6695900  50.3825070  81.0637190
  76.1700460  45.5842630  77.0772710  75.2440240  45.8263770  77.0678120
  76.6356890  46.4116890  76.9557460  82.3957290  48.6899370  73.0256770
  83.1885900  48.9788200  72.5738560  81.8761640  48.2591540  72.3469250
  91.4487460  47.9169500  74.4493510  91.1628970  47.5034640  73.6347690
  91.2507010  48.8457210  74.3294030  82.9134690  43.9102780  72.8899120
  82.8085330  43.2955130  73.6160500  82.7458910  43.3868670  72.1062130
  86.1537420  42.9722810  73.4941110  85.6047520  43.4192110  74.1383850
  86.7756680  42.4672060  74.0178780  81.8212540  41.9313730  75.3906410
  82.2428960  41.7653600  76.2337800  81.9463380  41.1213960  74.8961550
  84.3340180  40.9551340  72.6383510  84.8545840  40.2400360  72.2724660
  84.9808580  41.5937210  72.9384020  83.2373700  33.4345890  85.3102070
  82.7891000  33.4570150  84.4647620  82.6038900  33.0364910  85.9072370
  83.6433250  42.3300220  85.9314510  84.0621360  43.1732950  85.7590750
  82.7241880  42.4672260  85.7021290  88.3185050  40.6153590  85.8914860
  87.7920270  41.1396210  85.2880000  88.6616390  41.2480980  86.5224590
  80.7171440  38.0046960  72.3364570  80.5160500  37.1414320  72.6977910
  80.5463490  37.9180320  71.3986170  88.1959750  32.8155190  74.8651450
  88.4762040  31.9723090  75.2210870  87.4225480  33.0478300  75.3790200
  79.5154240  35.1047580  72.3242450  79.8180140  35.1115010  71.4161600
  80.2548830  34.7545440  72.8210110  82.7339170  34.0482200  73.3098650
  82.3861170  33.3706190  72.7301100  82.9351940  33.5871710  74.1242040
  84.8988210  49.0362950  74.9285250  85.7939000  49.3747920  74.9504010
  84.9305840  48.3142360  74.3009530  78.5384370  44.4090000  73.1572250
  78.9759240  44.9519670  73.8129830  79.0232100  43.5836950  73.1668590
  75.7530170  47.1979030  80.6092510  76.0833180  46.3300090  80.3771150
  76.1821170  47.4037550  81.4397470  80.3492090  45.5288040  78.2694480
  80.0487630  45.4053010  79.1698390  80.2429580  44.6696630  77.8610210
  76.2420380  48.0649620  83.3474140  75.8051370  48.2450420  84.1798290
  76.8098060  48.8224240  83.2055860  76.0744810  40.5769850  79.7063020
  75.4193650  40.3081490  79.0622720  76.9122760  40.4674330  79.2565000
  90.5634200  44.2918600  85.7327610  89.7494040  44.7215760  85.9953400
  90.9708400  44.9037010  85.1196660  89.0235250  35.3711140  73.9281510
  89.4420130  35.1842120  73.0878170  88.7171310  34.5190190  74.2384440
  77.1120740  40.9622420  84.2466360  77.4793780  40.8749820  85.1262380
  76.5431560  40.1988970  84.1473220  75.2882890  37.7868780  75.6488350
  74.3846970  38.0498980  75.4740010  75.7723510  38.0579950  74.8688310
  91.7975940  38.5092770  80.9264550  92.3213420  38.0155420  80.2954720
  92.3835360  38.6443130  81.6712120  91.9765660  38.5932640  84.4484100
  91.0268370  38.5596180  84.5629090  92.1578670  39.5032750  84.2133870
  77.8310100  36.8434320  73.5582730  78.5401800  36.4217540  73.0730010
  77.1150040  36.9109550  72.9266080  77.4784260  32.8973650  72.5985380
  78.2012390  33.4382590  72.9166600  77.7508780  32.6237070  71.7226920
  91.2875910  37.7666120  76.8656960  91.7835030  37.5336990  77.6505840
  91.0891980  36.9277960  76.4494600  77.1676450  32.1479840  82.5008000
  77.8152640  31.5977220  82.0603160  77.5878290  32.4022990  83.3223810
  91.0628790  32.3421200  85.8577640  91.7001010  32.9555340  86.2236830
  91.2103680  32.3781860  84.9126870  90.6210250  49.0437200  79.2595880
  91.2169320  48.7221770  78.5830300  90.8788400  48.5709020  80.0509150
  76.9208450  32.3035510  85.2433320  76.5723270  32.7599330  86.0091500
  76.5896150  31.4092640  85.3255750  82.2278850  47.0314700  85.0096230
  81.9870210  47.2989260  84.1226750  83.1681490  47.2020430  85.0647090
  87.8115870  31.7149590  84.7314320  86.9375710  32.0484700  84.5287250
  87.7026620  31.2422770  85.5566190  88.7187850  33.9220460  86.1156040
  88.3901210  33.1072220  85.7357770  89.6670150  33.8790270  85.9921730
  91.1722460  49.6932500  83.0893610  90.7125430  50.4448310  82.7151630
  90.5434920  48.9738970  83.0308410  77.9973080  45.7875740  85.4792330
  77.2707140  45.1681030  85.4118280  78.0582230  46.1816350  84.6090410
  81.6018180  48.0020740  82.2641740  82.1183200  47.3908100  81.7390000
  82.2515560  48.5049520  82.7552750  84.3413680  48.8929230  83.0910720
  84.6291490  48.6383530  82.2143730  84.8536900  48.3406590  83.6816290
  85.5590690  32.6319430  83.6707230  84.7762480  33.1064930  83.9503990
  85.2653620  31.7274260  83.5620410  90.1111760  33.3342530  81.7156320
  90.5519850  33.2787630  80.8677920  89.8419350  34.2500540  81.7866500
  76.2803080  49.1050130  78.6889090  76.1125120  48.4720810  79.3870980
  75.4137590  49.3109530  78.3383280  76.9031100  32.9366910  76.1920950
  77.6610460  33.0495790  75.6184980  76.4408270  33.7736110  76.1464380
  83.4444910  35.0506180  79.1823260  82.6319420  34.6763070  78.8419140
  83.9486550  34.2951260  79.4844450  87.9469890  31.7148630  80.4206330
  88.5499260  32.2868840  80.8954850  87.2062880  32.2788070  80.1980230
  91.0904490  32.1170190  75.6946610  91.2855120  33.0153640  75.9614040
  90.3034360  31.8857270  76.1879560  77.8865780  47.7983360  76.1339230
  77.3613400  48.1791390  75.4301190  77.8110360  48.4234130  76.8548940
  79.2756250  33.4630960  74.7322920  79.8049010  32.6760760  74.6030870
  79.9084570  34.1422150  74.9658450  81.4694090  33.2006100  77.7868310
  80.8396830  32.4993410  77.9538440  80.9299230  33.9610230  77.5701470
  80.4858750  49.7465740  75.0088480  81.2177570  49.4625020  74.4612370
  80.7452420  49.5079020  75.8987860  79.6473540  45.8630470  75.0134810
  79.0182420  46.3315570  75.5620640  79.7621370  45.0179690  75.4481000
  87.1023260  39.9136130  61.1636010  87.0217310  38.9990740  60.8927720
  86.6887680  40.4103200  60.4575720  85.2341300  41.6915150  63.0445280
  84.4583400  41.2115590  63.3343850  85.8854230  41.0120800  62.8701440
  79.2507130  42.0034960  63.9221040  78.4192010  41.7483670  64.3217550
  79.8588110  42.0745730  64.6578960  89.2548730  46.0975340  61.8244410
  88.7930260  45.3262580  62.1531580  90.0674280  46.1241410  62.3296860
  79.2308390  46.0375050  64.1179060  79.5336430  45.1472790  63.9389280
  79.9751980  46.5945270  63.8901310  77.6599080  36.9636850  57.7063430
  76.7715780  37.3052820  57.6043310  77.9440270  36.7637170  56.8144260
  75.6232090  39.5642500  63.5903130  76.1948200  38.7964700  63.5906770
  75.6233630  39.8631260  62.6809740  85.4812040  48.3833350  61.4448400
  84.8623480  48.8390850  60.8742840  86.3363820  48.5384810  61.0438100
  84.6750290  44.3672340  63.0515440  84.6058570  43.4262280  62.8904570
  85.4370150  44.4573750  63.6238010  76.8656960  34.9726860  65.3772060
  76.6859800  34.0752610  65.6574820  76.4637040  35.5198730  66.0519010
  85.7055460  37.1742720  63.2784370  86.0820280  36.3014600  63.1658040
  85.6074970  37.5101420  62.3874810  79.8360470  35.5468350  58.7401810
  79.9427220  36.4472080  59.0470570  78.9252830  35.4986320  58.4496460
  89.4879580  34.6693160  60.2112710  90.3089200  34.1789730  60.2538190
  89.5213660  35.2590820  60.9644550  77.4843630  37.4687360  63.9854400
  78.1653740  37.7325730  64.6041800  77.1691680  36.6288230  64.3192410
  81.6768200  38.5154720  63.0726990  82.1846420  39.0135690  63.7132010
  82.2081440  37.7389920  62.8966350  79.9604300  33.1553280  67.3390410
  79.9622740  33.6725670  66.5336310  79.1308610  32.6783460  67.3160340
  86.3475390  43.2672590  58.8380310  85.7292660  43.7322040  58.2743030
  86.8598640  43.9600070  59.2549820  81.2107150  42.7948460  65.5163910
  80.8776530  43.4217380  66.1584980  81.3873830  43.3210340  64.7365580
  89.7241060  36.6093540  62.9840250  89.0196630  36.8978430  63.5643360
  90.0853220  37.4193650  62.6239810  79.6419630  34.8663240  65.3460860
  79.9836440  35.7105290  65.0514730  78.7035440  35.0146980  65.4626200
  80.4226250  44.7629260  67.3313090  81.0400250  45.4380340  67.0497540
  79.5619370  45.1717240  67.2400590  75.7158590  43.9529120  56.2119940
  75.3386570  44.4416220  55.4804840  75.9731660  44.6254400  56.8426470
  91.3403840  46.2268670  65.2467730  90.6567360  46.8967780  65.2384400
  91.8798130  46.4249320  64.4812590  83.3247520  32.3545510  61.6705450
  83.6322500  31.7992400  60.9540950  82.3948220  32.4889970  61.4878440
  88.8762580  48.0712800  63.9612910  88.8889740  47.6675090  63.0935170
  88.3237800  48.8460090  63.8574340  90.1708000  44.7929020  59.0503080
  90.0604330  43.8503350  59.1752500  90.1676250  45.1544660  59.9365840
  88.2748020  42.9742640  65.2895520  88.6916810  42.7602750  64.4548980
  88.9987840  43.2315430  65.8604140  85.7128280  40.4194340  58.4065570
  84.7857560  40.3531720  58.6354040  85.8653100  41.3574470  58.2920810
  85.6997360  36.6911340  55.4032730  84.7601030  36.8525300  55.4885190
  86.0180620  37.4097020  54.8568720  89.7425570  41.9814640  58.9100820
  89.1237990  41.6434190  58.2627120  89.7250020  41.3374400  59.6180010
  89.1852130  38.1599180  66.3266630  88.7723310  38.9852890  66.5806620
  88.4528080  37.5744220  66.1342990  81.3184920  40.9459080  61.1885300
  80.9141920  40.2336330  60.6931200  81.4048040  40.6012320  62.0773340
  81.7866620  44.6326640  63.3524510  81.4894910  44.0272110  62.6732290
  82.7366440  44.6703950  63.2413870  80.0313540  37.7202290  64.9684340
  80.5828130  37.8297630  64.1937590  80.5457050  38.0939890  65.6839570
  89.8752230  48.2058510  67.0147610  89.3982790  49.0130700  66.8220220
  89.1914020  47.5536840  67.1673820  80.8785050  44.3708330  70.0032310
  79.9813580  44.5948300  70.2505710  80.9037920  44.4943270  69.0543710
  87.9190270  41.2201450  55.9173570  88.3583550  40.3823880  55.7711390
  88.6318690  41.8530850  56.0037710  79.7056270  41.2421650  68.5789680
  79.5664040  42.1144450  68.9477080  78.8237630  40.8994460  68.4337620
  86.0285650  46.1597520  59.8854810  86.4681560  46.9021850  59.4710200
  85.9672540  46.4024090  60.8093770  81.5036620  47.1843350  70.7874830
  81.4752050  47.5886300  69.9203260  81.3401590  46.2553710  70.6246430
  91.5007410  32.4744260  54.2314610  91.1880070  32.5671090  55.1313680
  92.2619880  33.0525290  54.1812040  78.0189550  39.8404060  58.6891950
  77.8987150  40.5666150  58.0773220  77.7090440  39.0706970  58.2119860
  75.6574920  43.0119200  64.4960590  75.7355340  43.1467970  63.5516310
  76.2716600  42.3035090  64.6888710  76.9022550  44.7119390  60.9066770
  76.4950630  44.8533980  60.0520370  77.7935560  44.4279550  60.7037980
  86.7201430  48.8611300  67.8133820  87.2346100  48.7719310  68.6156250
  85.8770510  49.2071000  68.1061730  88.6955830  49.1466640  57.2417820
  88.5356970  48.8569580  58.1399650  88.5302540  48.3706770  56.7063050
  81.1744210  48.9265170  59.0189440  80.9986690  48.0100710  58.8057240
  80.3199950  49.2852460  59.2587240  88.3981960  46.6554200  55.8015820
  87.7047120  46.6531490  55.1418100  89.1404820  46.2313520  55.3709990
  87.9631890  48.2816910  59.8764310  88.4188840  47.5006290  60.1902930
  88.3024410  48.9923730  60.4205490  75.7134440  44.0533370  67.0355050
  75.8765480  43.5838730  66.2174420  76.1786890  43.5456930  67.7003890
  80.4853210  33.1839130  62.0715620  80.0421360  33.9648670  61.7400140
  81.0438200  33.5069020  62.7786560  84.7723020  36.0507650  67.6750940
  84.3102390  36.2590670  68.4870880  84.3701130  35.2367000  67.3721610
  89.7727530  37.2716600  68.8047600  88.9221120  36.9722350  69.1256670
  89.6129320  37.5158610  67.8931420  86.8677240  38.7718350  70.9046390
  87.1930650  37.9382100  70.5648620  87.6557570  39.2946870  71.0524720
  83.6012030  32.8049830  56.9521450  82.9766210  32.8009700  57.6774760
  83.5142150  31.9380790  56.5557420  82.5229110  33.7286460  63.9305220
  82.8201440  34.6349290  63.8497240  83.0714670  33.2405240  63.3164790
  80.2767430  38.3072700  59.7996870  80.0508350  38.0909870  60.7043490
  79.4959960  38.7401160  59.4542840  87.5065190  38.3136070  58.3987520
  86.9074080  39.0371870  58.2151140  88.0544800  38.2512850  57.6163970
  82.7166640  39.2058280  70.4657140  82.6210240  38.2653010  70.3157540
  83.5598620  39.4273350  70.0705210  86.1130060  36.9499610  60.4290800
  86.5059630  37.2671810  59.6159490  86.4746910  36.0711490  60.5435320
  77.8477180  35.6171950  68.6190920  77.4540570  36.4647160  68.8263700
  77.1595580  34.9798320  68.8099560  84.4222230  35.7006920  71.6887660
  83.7320550  35.5079120  72.3233750  85.1654530  35.9841560  72.2211960
  75.1494230  33.5400410  62.6521000  74.8607280  34.1103270  63.3645980
  75.8939990  33.0604860  63.0152230  75.3364460  37.4820530  53.8623720
  75.2539130  38.4251290  54.0038710  74.9847520  37.3395440  52.9836070
  86.6985200  39.5405360  64.5241580  85.9666320  40.0492170  64.8731680
  86.3009540  38.7235340  64.2230360  83.1362590  36.2159560  62.9294070
  83.1398650  35.7749510  62.0798610  84.0313710  36.5376890  63.0365890
  78.9864970  36.0986050  61.8888280  78.6465020  36.5761280  62.6455330
  78.2242290  35.6451170  61.5289380  83.1982740  37.2171640  55.9200830
  83.3195560  37.1758120  56.8686650  82.8131250  38.0795790  55.7647560
  87.1611110  34.9939040  63.9364520  87.1783850  35.4447690  64.7806370
  86.9126690  34.0944680  64.1497960  82.2104240  39.5272780  55.3184130
  81.6421140  39.0791030  54.6920040  82.9193240  39.8865560  54.7849280
  90.5881860  32.4071220  69.7750900  90.9127630  31.6760880  70.3008880
  90.6238370  32.0884860  68.8731890  77.2873420  43.4284800  69.1950860
  76.9028210  42.7878470  69.7933820  77.5985610  44.1320920  69.7645590
  83.4370560  40.2761340  64.6759480  83.8040690  39.8019910  65.4220820
  83.2475620  41.1502910  65.0167820  76.3011050  35.0205030  60.8052950
  76.0157970  34.6560700  61.6431570  76.2389910  34.2885490  60.1916090
  81.2269930  39.3169980  66.9943690  80.9227000  40.1961960  67.2194050
  82.1816390  39.3769770  67.0301130  79.7551720  43.5230970  57.5910540
  78.9813980  42.9828590  57.4309260  80.4846350  43.0037580  57.2528300
  90.5139700  42.5196330  63.3836930  91.2338820  43.0151620  62.9933040
  90.3121520  41.8414220  62.7390800  85.9749640  33.9134290  57.5266320
  85.1614250  33.4147460  57.4511630  85.7811590  34.7532540  57.1102670
  85.8958500  42.5905390  69.2705930  85.8295810  41.6701060  69.0163520
  85.2663640  42.6880830  69.9850570  88.6898030  38.2853940  55.8228480
  89.5777650  38.5971170  55.6479820  88.6603120  37.4126190  55.4309060
  79.7989120  43.1911350  61.2289350  80.3167790  42.3879610  61.1746240
  79.3473140  43.1290490  62.0706180  84.6858620  44.4577630  56.5016650
  85.0274320  45.2019860  56.0059970  83.8571330  44.7708750  56.8641480
  77.2833660  40.1572720  68.1415050  76.9248600  40.8226570  68.7288390
  76.9888220  39.3256270  68.5127670  80.4846780  40.6156960  71.0254600
  80.1846920  40.7614140  70.1282420  81.2558020  40.0562250  70.9327990
  85.8275230  45.4125960  69.0209730  85.8419770  44.4806920  68.8028640
  85.1200330  45.4985720  69.6599500  90.9612300  39.5965780  55.2908340
  90.8776020  40.0280000  54.4404780  91.6806490  40.0564130  55.7235160
  91.9899550  46.4508040  58.0190470  91.3475710  45.7963660  58.2934190
  91.6030210  46.8563130  57.2431140  87.5686030  43.7793470  61.8662160
  87.9209850  43.1821600  61.2063530  86.6848360  43.4537700  62.0370410
  83.6549310  44.5391160  59.2732570  84.3420440  45.0860370  59.6540160
  82.8681730  45.0831890  59.3082180  75.7941710  40.1563980  54.7649650
  76.6636560  40.4388780  55.0485570  75.3032030  40.9699850  54.6498460
  82.9576520  41.5437190  58.8857930  83.4139300  42.3542440  59.1118120
  82.6064730  41.2260330  59.7176420  85.2609130  47.0543530  66.1150230
  85.9051350  47.2602910  66.7923650  85.6238570  46.2931930  65.6621080
  78.8588300  31.8874840  59.3580450  78.7302930  31.8792740  60.3065370
  78.0350320  32.2257930  59.0071460  86.5341210  45.0575880  64.8327680
  87.1763440  44.3569040  64.9459850  87.0590560  45.8374320  64.6524570
  90.3796930  45.3424500  54.5566820  90.1534510  44.6254940  55.1491460
  89.9893130  45.0936940  53.7188570  88.3078830  45.8570780  68.0363740
  88.6435070  46.4437470  68.7141660  87.3879170  45.7263490  68.2661530
  76.1612960  49.3691360  55.3311280  76.5210600  49.9680700  54.6768550
  76.0205300  49.9151250  56.1046310  75.8582230  33.6465960  68.8187150
  75.1440750  33.8462880  69.4239760  76.2777270  32.8705530  69.1901950
  89.9613180  43.2596440  56.2180980  89.6734880  43.7209130  57.0058860
  90.7565350  42.7994210  56.4865200  76.1454820  47.6346220  69.8053680
  76.2545940  46.6940960  69.6649070  75.4935380  47.9000970  69.1567410
  84.1367410  45.9062110  71.2051800  83.8164280  45.1871350  71.7497490
  83.4625770  46.5817180  71.2787860  82.1781580  46.7522560  56.1484950
  82.1691680  47.4852250  55.5329460  81.2579940  46.5054140  56.2411910
  77.7788220  41.9737450  56.8931710  77.1716170  42.7136350  56.9027010
  78.2537570  42.0636810  56.0669910  87.3521010  36.1388270  66.5688600
  87.7201830  35.3183480  66.8968170  86.4919210  36.1990160  66.9844250
  90.7183040  35.0945210  57.3776160  90.0896200  35.1990880  56.6634390
  90.2234960  35.3141990  58.1670040  85.1641180  46.8150800  54.8110140
  85.2653160  46.6114790  53.8812120  84.2642920  46.5609080  55.0157920
  82.6867070  37.3731160  58.7934040  81.9783220  37.8417500  59.2347650
  82.9711550  36.7153170  59.4279230  84.3123000  38.7927860  66.7926570
  84.8108250  39.2673680  67.4578420  84.4545950  37.8691380  66.9996600
  86.7182500  34.0981820  60.2329830  86.5950280  34.1167950  59.2839340
  87.6667060  34.1460760  60.3528230  83.8059290  49.3337120  59.5057810
  84.0600790  49.2958510  58.5837180  82.8571770  49.2070450  59.4986060
  80.8902090  35.6816240  56.1684750  81.7392620  36.1186390  56.1024940
  80.5233360  35.9936500  56.9956810  91.5189860  35.0095820  67.6354960
  91.0163460  35.7501220  67.9748770  92.3346520  35.3979820  67.3191750
  89.8111870  40.2529000  61.0816320  88.8702010  40.2679230  61.2564010
  90.1255940  39.4664960  61.5276620  79.7893510  41.9348600  54.6420280
  80.5556780  41.8229960  55.2045710  79.8668200  41.2386570  53.9897050
  78.4840270  39.3673670  55.3253170  78.5643860  38.4201180  55.4370570
  79.3760020  39.6980550  55.4313830  79.2854980  49.5169060  62.4287710
  80.0217460  48.9684520  62.6996280  79.6695900  50.3825070  62.2893700
  76.1700460  45.5842630  58.3029220  75.2440240  45.8263770  58.2934630
  76.6356890  46.4116890  58.1813970  78.2913260  48.7015130  71.6173290
  79.0925990  49.0227180  72.0308690  77.7765080  48.3410710  72.3393200
  82.3957290  48.6899370  54.2513280  83.1885900  48.9788200  53.7995070
  81.8761640  48.2591540  53.5725760  87.1277890  44.8095000  71.5648700
  86.5216050  44.8326600  70.8244450  86.8232000  44.0778040  72.1015950
  88.5578260  48.5375290  70.1758110  89.5100010  48.4533310  70.1258350
  88.4106480  49.2017000  70.8491900  91.4487460  47.9169500  55.6750020
  91.1628970  47.5034640  54.8604200  91.2507010  48.8457210  55.5550540
  76.0111070  41.1888590  70.5609340  76.5150090  40.6095870  71.1325570
  75.2718490  41.4728820  71.0985710  82.9134690  43.9102780  54.1155630
  82.8085330  43.2955130  54.8417010  82.7458910  43.3868670  53.3318640
  83.0649010  42.5959580  70.0944860  82.2994680  43.1644580  70.0099530
  83.2464970  42.3035790  69.2013090  86.1537420  42.9722810  54.7197620
  85.6047520  43.4192110  55.3640360  86.7756680  42.4672060  55.2435290
  90.2072360  44.3264910  70.6519880  90.9481830  44.6640670  70.1487340
  89.4445040  44.4956970  70.0989650  78.0434150  39.3318180  71.4559410
  78.0839490  39.0332050  72.3644640  78.8979650  39.7325790  71.2966930
  81.8212540  41.9313730  56.6162920  82.2428960  41.7653600  57.4594310
  81.9463380  41.1213960  56.1218060  79.9839960  37.9110280  69.4233900
  79.4536420  37.4201230  68.7957240  80.6528030  38.3394480  68.8891830
  84.3340180  40.9551340  53.8640020  84.8545840  40.2400360  53.4981170
  84.9808580  41.5937210  54.1640530  88.8818020  42.3779740  69.1875090
  89.2959040  42.5324820  70.0365510  87.9469020  42.5034960  69.3500870
  89.3540190  39.7175900  71.1914240  89.9360960  38.9628220  71.1034720
  89.5301960  40.2483340  70.4145720  80.4712260  34.8772650  69.5031190
  80.3769130  34.2593400  68.7782060  79.8909650  35.6038940  69.2761100
  83.2373700  33.4345890  66.5358580  82.7891000  33.4570150  65.6904130
  82.6038900  33.0364910  67.1328880  83.6433250  42.3300220  67.1571020
  84.0621360  43.1732950  66.9847260  82.7241880  42.4672260  66.9277800
  85.9797150  40.0616400  68.5408860  86.0993360  39.4657540  69.2803700
  86.8391150  40.0986090  68.1210160  88.3185050  40.6153590  67.1171370
  87.7920270  41.1396210  66.5136510  88.6616390  41.2480980  67.7481100
  80.7171440  38.0046960  53.5621080  80.5160500  37.1414320  53.9234420
  80.5463490  37.9180320  52.6242680  81.4940670  48.6353230  68.2728750
  80.9561760  49.3599290  67.9537450  81.7474630  48.1583570  67.4826090
  82.7465920  36.6037750  69.7984680  83.3365610  36.2953600  70.4862500
  81.9286160  36.1317500  69.9544580  87.5659350  36.2203560  70.0317700
  86.8774870  35.5585100  69.9667690  88.2865370  35.7741830  70.4766160
  88.1959750  32.8155190  56.0907960  88.4762040  31.9723090  56.4467380
  87.4225480  33.0478300  56.6046710  79.5154240  35.1047580  53.5498960
  79.8180140  35.1115010  52.6418110  80.2548830  34.7545440  54.0466620
  84.3502880  49.8704440  68.5315400  84.2761580  50.7739580  68.8387770
  83.4481720  49.5516340  68.5037470  82.7339170  34.0482200  54.5355160
  82.3861170  33.3706190  53.9557610  82.9351940  33.5871710  55.3498550
  84.8988210  49.0362950  56.1541760  85.7939000  49.3747920  56.1760520
  84.9305840  48.3142360  55.5266040  78.5384370  44.4090000  54.3828760
  78.9759240  44.9519670  55.0386340  79.0232100  43.5836950  54.3925100
  75.7530170  47.1979030  61.8349020  76.0833180  46.3300090  61.6027660
  76.1821170  47.4037550  62.6653980  80.3492090  45.5288040  59.4950990
  80.0487630  45.4053010  60.3954900  80.2429580  44.6696630  59.0866720
  76.2420380  48.0649620  64.5730650  75.8051370  48.2450420  65.4054800
  76.8098060  48.8224240  64.4312370  91.8782560  47.5666620  68.8607960
  91.2784550  47.6259180  68.1171880  92.0076460  46.6271600  68.9904810
  76.0744810  40.5769850  60.9319530  75.4193650  40.3081490  60.2879230
  76.9122760  40.4674330  60.4821510  90.5634200  44.2918600  66.9584120
  89.7494040  44.7215760  67.2209910  90.9708400  44.9037010  66.3453170
  89.0235250  35.3711140  55.1538020  89.4420130  35.1842120  54.3134680
  88.7171310  34.5190190  55.4640950  77.1120740  40.9622420  65.4722870
  77.4793780  40.8749820  66.3518890  76.5431560  40.1988970  65.3729730
  91.9124600  39.4306800  68.4853340  91.6810690  39.2019550  67.5851290
  92.1729150  40.3506350  68.4398230  76.6636740  37.8731510  69.3781290
  75.7692790  37.8398270  69.7175000  77.2034290  38.0718300  70.1432540
  90.3512670  34.6563230  71.2633040  91.2282850  34.6646630  71.6467040
  90.3633510  33.9194070  70.6525390  75.2882890  37.7868780  56.8744860
  74.3846970  38.0498980  56.6996520  75.7723510  38.0579950  56.0944820
  91.7975940  38.5092770  62.1521060  92.3213420  38.0155420  61.5211230
  92.3835360  38.6443130  62.8968630  91.9765660  38.5932640  65.6740610
  91.0268370  38.5596180  65.7885600  92.1578670  39.5032750  65.4390380
  77.8310100  36.8434320  54.7839240  78.5401800  36.4217540  54.2986520
  77.1150040  36.9109550  54.1522590  77.4784260  32.8973650  53.8241890
  78.2012390  33.4382590  54.1423110  77.7508780  32.6237070  52.9483430
  91.2875910  37.7666120  58.0913470  91.7835030  37.5336990  58.8762350
  91.0891980  36.9277960  57.6751110  77.1676450  32.1479840  63.7264510
  77.8152640  31.5977220  63.2859670  77.5878290  32.4022990  64.5480320
  91.0628790  32.3421200  67.0834150  91.7001010  32.9555340  67.4493340
  91.2103680  32.3781860  66.1383380  90.6210250  49.0437200  60.4852390
  91.2169320  48.7221770  59.8086810  90.8788400  48.5709020  61.2765660
  76.9208450  32.3035510  66.4689830  76.5723270  32.7599330  67.2348010
  76.5896150  31.4092640  66.5512260  78.5272820  45.4755110  70.6343020
  78.4842450  45.1048020  71.5157480  78.6583830  46.4132680  70.7744840
  82.2278850  47.0314700  66.2352740  81.9870210  47.2989260  65.3483260
  83.1681490  47.2020430  66.2903600  84.4333270  33.4947390  69.9909250
  84.3722160  34.0869220  70.7404660  85.3733650  33.3873350  69.8459510
  87.0707830  33.1517450  69.6301540  87.6848240  33.4696740  68.9682620
  87.6157390  32.6666040  70.2497400  77.5929090  31.8311710  69.7440600
  78.1412080  31.6499760  68.9806710  77.6584400  31.0405820  70.2796910
  78.3660850  48.4217360  67.7540800  77.7721170  48.2902060  68.4930840
  78.3584690  47.5855500  67.2882900  87.8115870  31.7149590  65.9570830
  86.9375710  32.0484700  65.7543760  87.7026620  31.2422770  66.7822700
  88.7187850  33.9220460  67.3412550  88.3901210  33.1072220  66.9614280
  89.6670150  33.8790270  67.2178240  91.1722460  49.6932500  64.3150120
  90.7125430  50.4448310  63.9408140  90.5434920  48.9738970  64.2564920
  77.9973080  45.7875740  66.7048840  77.2707140  45.1681030  66.6374790
  78.0582230  46.1816350  65.8346920  81.6018180  48.0020740  63.4898250
  82.1183200  47.3908100  62.9646510  82.2515560  48.5049520  63.9809260
  84.3413680  48.8929230  64.3167230  84.6291490  48.6383530  63.4400240
  84.8536900  48.3406590  64.9072800  85.5590690  32.6319430  64.8963740
  84.7762480  33.1064930  65.1760500  85.2653620  31.7274260  64.7876920
  90.1111760  33.3342530  62.9412830  90.5519850  33.2787630  62.0934430
  89.8419350  34.2500540  63.0123010  76.2803080  49.1050130  59.9145600
  76.1125120  48.4720810  60.6127490  75.4137590  49.3109530  59.5639790
  76.9031100  32.9366910  57.4177460  77.6610460  33.0495790  56.8441490
  76.4408270  33.7736110  57.3720890  83.4444910  35.0506180  60.4079770
  82.6319420  34.6763070  60.0675650  83.9486550  34.2951260  60.7100960
  87.9469890  31.7148630  61.6462840  88.5499260  32.2868840  62.1211360
  87.2062880  32.2788070  61.4236740  91.0904490  32.1170190  56.9203120
  91.2855120  33.0153640  57.1870550  90.3034360  31.8857270  57.4136070
  77.8865780  47.7983360  57.3595740  77.3613400  48.1791390  56.6557700
  77.8110360  48.4234130  58.0805450  79.2756250  33.4630960  55.9579430
  79.8049010  32.6760760  55.8287380  79.9084570  34.1422150  56.1914960
  81.4694090  33.2006100  59.0124820  80.8396830  32.4993410  59.1794950
  80.9299230  33.9610230  58.7957980  84.4086040  49.8145330  71.6835430
  85.3353350  49.5789600  71.7271390  84.3936470  50.6417330  71.2021460
  81.5949650  32.4790080  71.4477310  81.3133920  32.9823680  70.6838130
  81.9769350  31.6811830  71.0819440  80.4858750  49.7465740  56.2344990
  81.2177570  49.4625020  55.6868880  80.7452420  49.5079020  57.1244370
  79.6473540  45.8630470  56.2391320  79.0182420  46.3315570  56.7877150
  79.7621370  45.0179690  56.6737510  88.1965110  31.8943660  72.0257780
  88.0830560  32.2138270  72.9209300  89.0134850  32.2956170  71.7295060
  90.9763600  49.0415190  71.5076470  91.7688920  48.5464420  71.3002430
  91.2696750  49.7205330  72.1152080  87.1023260  39.9136130  42.3892520
  87.0217310  38.9990740  42.1184230  86.6887680  40.4103200  41.6832230
  85.2341300  41.6915150  44.2701790  84.4583400  41.2115590  44.5600360
  85.8854230  41.0120800  44.0957950  79.2507130  42.0034960  45.1477550
  78.4192010  41.7483670  45.5474060  79.8588110  42.0745730  45.8835470
  89.2548730  46.0975340  43.0500920  88.7930260  45.3262580  43.3788090
  90.0674280  46.1241410  43.5553370  79.2308390  46.0375050  45.3435570
  79.5336430  45.1472790  45.1645790  79.9751980  46.5945270  45.1157820
  77.6599080  36.9636850  38.9319940  76.7715780  37.3052820  38.8299820
  77.9440270  36.7637170  38.0400770  75.6232090  39.5642500  44.8159640
  76.1948200  38.7964700  44.8163280  75.6233630  39.8631260  43.9066250
  85.4812040  48.3833350  42.6704910  84.8623480  48.8390850  42.0999350
  86.3363820  48.5384810  42.2694610  84.6750290  44.3672340  44.2771950
  84.6058570  43.4262280  44.1161080  85.4370150  44.4573750  44.8494520
  76.8656960  34.9726860  46.6028570  76.6859800  34.0752610  46.8831330
  76.4637040  35.5198730  47.2775520  85.7055460  37.1742720  44.5040880
  86.0820280  36.3014600  44.3914550  85.6074970  37.5101420  43.6131320
  79.8360470  35.5468350  39.9658320  79.9427220  36.4472080  40.2727080
  78.9252830  35.4986320  39.6752970  89.4879580  34.6693160  41.4369220
  90.3089200  34.1789730  41.4794700  89.5213660  35.2590820  42.1901060
  77.4843630  37.4687360  45.2110910  78.1653740  37.7325730  45.8298310
  77.1691680  36.6288230  45.5448920  81.6768200  38.5154720  44.2983500
  82.1846420  39.0135690  44.9388520  82.2081440  37.7389920  44.1222860
  79.9604300  33.1553280  48.5646920  79.9622740  33.6725670  47.7592820
  79.1308610  32.6783460  48.5416850  86.3475390  43.2672590  40.0636820
  85.7292660  43.7322040  39.4999540  86.8598640  43.9600070  40.4806330
  81.2107150  42.7948460  46.7420420  80.8776530  43.4217380  47.3841490
  81.3873830  43.3210340  45.9622090  89.7241060  36.6093540  44.2096760
  89.0196630  36.8978430  44.7899870  90.0853220  37.4193650  43.8496320
  79.6419630  34.8663240  46.5717370  79.9836440  35.7105290  46.2771240
  78.7035440  35.0146980  46.6882710  80.4226250  44.7629260  48.5569600
  81.0400250  45.4380340  48.2754050  79.5619370  45.1717240  48.4657100
  75.7158590  43.9529120  37.4376450  75.3386570  44.4416220  36.7061350
  75.9731660  44.6254400  38.0682980  91.3403840  46.2268670  46.4724240
  90.6567360  46.8967780  46.4640910  91.8798130  46.4249320  45.7069100
  83.3247520  32.3545510  42.8961960  83.6322500  31.7992400  42.1797460
  82.3948220  32.4889970  42.7134950  88.8762580  48.0712800  45.1869420
  88.8889740  47.6675090  44.3191680  88.3237800  48.8460090  45.0830850
  90.1708000  44.7929020  40.2759590  90.0604330  43.8503350  40.4009010
  90.1676250  45.1544660  41.1622350  88.2748020  42.9742640  46.5152030
  88.6916810  42.7602750  45.6805490  88.9987840  43.2315430  47.0860650
  85.7128280  40.4194340  39.6322080  84.7857560  40.3531720  39.8610550
  85.8653100  41.3574470  39.5177320  85.6997360  36.6911340  36.6289240
  84.7601030  36.8525300  36.7141700  86.0180620  37.4097020  36.0825230
  89.7425570  41.9814640  40.1357330  89.1237990  41.6434190  39.4883630
  89.7250020  41.3374400  40.8436520  89.1852130  38.1599180  47.5523140
  88.7723310  38.9852890  47.8063130  88.4528080  37.5744220  47.3599500
  81.3184920  40.9459080  42.4141810  80.9141920  40.2336330  41.9187710
  81.4048040  40.6012320  43.3029850  81.7866620  44.6326640  44.5781020
  81.4894910  44.0272110  43.8988800  82.7366440  44.6703950  44.4670380
  80.0313540  37.7202290  46.1940850  80.5828130  37.8297630  45.4194100
  80.5457050  38.0939890  46.9096080  89.8752230  48.2058510  48.2404120
  89.3982790  49.0130700  48.0476730  89.1914020  47.5536840  48.3930330
  80.8785050  44.3708330  51.2288820  79.9813580  44.5948300  51.4762220
  80.9037920  44.4943270  50.2800220  87.9190270  41.2201450  37.1430080
  88.3583550  40.3823880  36.9967900  88.6318690  41.8530850  37.2294220
  79.7056270  41.2421650  49.8046190  79.5664040  42.1144450  50.1733590
  78.8237630  40.8994460  49.6594130  86.0285650  46.1597520  41.1111320
  86.4681560  46.9021850  40.6966710  85.9672540  46.4024090  42.0350280
  81.5036620  47.1843350  52.0131340  81.4752050  47.5886300  51.1459770
  81.3401590  46.2553710  51.8502940  91.5007410  32.4744260  35.4571120
  91.1880070  32.5671090  36.3570190  92.2619880  33.0525290  35.4068550
  78.0189550  39.8404060  39.9148460  77.8987150  40.5666150  39.3029730
  77.7090440  39.0706970  39.4376370  75.6574920  43.0119200  45.7217100
  75.7355340  43.1467970  44.7772820  76.2716600  42.3035090  45.9145220
  76.9022550  44.7119390  42.1323280  76.4950630  44.8533980  41.2776880
  77.7935560  44.4279550  41.9294490  86.7201430  48.8611300  49.0390330
  87.2346100  48.7719310  49.8412760  85.8770510  49.2071000  49.3318240
  88.6955830  49.1466640  38.4674330  88.5356970  48.8569580  39.3656160
  88.5302540  48.3706770  37.9319560  81.1744210  48.9265170  40.2445950
  80.9986690  48.0100710  40.0313750  80.3199950  49.2852460  40.4843750
  88.3981960  46.6554200  37.0272330  87.7047120  46.6531490  36.3674610
  89.1404820  46.2313520  36.5966500  87.9631890  48.2816910  41.1020820
  88.4188840  47.5006290  41.4159440  88.3024410  48.9923730  41.6462000
  75.7134440  44.0533370  48.2611560  75.8765480  43.5838730  47.4430930
  76.1786890  43.5456930  48.9260400  80.4853210  33.1839130  43.2972130
  80.0421360  33.9648670  42.9656650  81.0438200  33.5069020  44.0043070
  84.7723020  36.0507650  48.9007450  84.3102390  36.2590670  49.7127390
  84.3701130  35.2367000  48.5978120  89.7727530  37.2716600  50.0304110
  88.9221120  36.9722350  50.3513180  89.6129320  37.5158610  49.1187930
  86.8677240  38.7718350  52.1302900  87.1930650  37.9382100  51.7905130
  87.6557570  39.2946870  52.2781230  83.6012030  32.8049830  38.1777960
  82.9766210  32.8009700  38.9031270  83.5142150  31.9380790  37.7813930
  82.5229110  33.7286460  45.1561730  82.8201440  34.6349290  45.0753750
  83.0714670  33.2405240  44.5421300  80.2767430  38.3072700  41.0253380
  80.0508350  38.0909870  41.9300000  79.4959960  38.7401160  40.6799350
  87.5065190  38.3136070  39.6244030  86.9074080  39.0371870  39.4407650
  88.0544800  38.2512850  38.8420480  82.7166640  39.2058280  51.6913650
  82.6210240  38.2653010  51.5414050  83.5598620  39.4273350  51.2961720
  86.1130060  36.9499610  41.6547310  86.5059630  37.2671810  40.8416000
  86.4746910  36.0711490  41.7691830  77.8477180  35.6171950  49.8447430
  77.4540570  36.4647160  50.0520210  77.1595580  34.9798320  50.0356070
  84.4222230  35.7006920  52.9144170  83.7320550  35.5079120  53.5490260
  85.1654530  35.9841560  53.4468470  75.1494230  33.5400410  43.8777510
  74.8607280  34.1103270  44.5902490  75.8939990  33.0604860  44.2408740
  75.3364460  37.4820530  35.0880230  75.2539130  38.4251290  35.2295220
  74.9847520  37.3395440  34.2092580  86.6985200  39.5405360  45.7498090
  85.9666320  40.0492170  46.0988190  86.3009540  38.7235340  45.4486870
  83.1362590  36.2159560  44.1550580  83.1398650  35.7749510  43.3055120
  84.0313710  36.5376890  44.2622400  78.9864970  36.0986050  43.1144790
  78.6465020  36.5761280  43.8711840  78.2242290  35.6451170  42.7545890
  83.1982740  37.2171640  37.1457340  83.3195560  37.1758120  38.0943160
  82.8131250  38.0795790  36.9904070  87.1611110  34.9939040  45.1621030
  87.1783850  35.4447690  46.0062880  86.9126690  34.0944680  45.3754470
  82.2104240  39.5272780  36.5440640  81.6421140  39.0791030  35.9176550
  82.9193240  39.8865560  36.0105790  90.5881860  32.4071220  51.0007410
  90.9127630  31.6760880  51.5265390  90.6238370  32.0884860  50.0988400
  77.2873420  43.4284800  50.4207370  76.9028210  42.7878470  51.0190330
  77.5985610  44.1320920  50.9902100  83.4370560  40.2761340  45.9015990
  83.8040690  39.8019910  46.6477330  83.2475620  41.1502910  46.2424330
  76.3011050  35.0205030  42.0309460  76.0157970  34.6560700  42.8688080
  76.2389910  34.2885490  41.4172600  81.2269930  39.3169980  48.2200200
  80.9227000  40.1961960  48.4450560  82.1816390  39.3769770  48.2557640
  79.7551720  43.5230970  38.8167050  78.9813980  42.9828590  38.6565770
  80.4846350  43.0037580  38.4784810  90.5139700  42.5196330  44.6093440
  91.2338820  43.0151620  44.2189550  90.3121520  41.8414220  43.9647310
  85.9749640  33.9134290  38.7522830  85.1614250  33.4147460  38.6768140
  85.7811590  34.7532540  38.3359180  85.8958500  42.5905390  50.4962440
  85.8295810  41.6701060  50.2420030  85.2663640  42.6880830  51.2107080
  88.6898030  38.2853940  37.0484990  89.5777650  38.5971170  36.8736330
  88.6603120  37.4126190  36.6565570  79.7989120  43.1911350  42.4545860
  80.3167790  42.3879610  42.4002750  79.3473140  43.1290490  43.2962690
  84.6858620  44.4577630  37.7273160  85.0274320  45.2019860  37.2316480
  83.8571330  44.7708750  38.0897990  77.2833660  40.1572720  49.3671560
  76.9248600  40.8226570  49.9544900  76.9888220  39.3256270  49.7384180
  80.4846780  40.6156960  52.2511110  80.1846920  40.7614140  51.3538930
  81.2558020  40.0562250  52.1584500  85.8275230  45.4125960  50.2466240
  85.8419770  44.4806920  50.0285150  85.1200330  45.4985720  50.8856010
  90.9612300  39.5965780  36.5164850  90.8776020  40.0280000  35.6661290
  91.6806490  40.0564130  36.9491670  91.9899550  46.4508040  39.2446980
  91.3475710  45.7963660  39.5190700  91.6030210  46.8563130  38.4687650
  87.5686030  43.7793470  43.0918670  87.9209850  43.1821600  42.4320040
  86.6848360  43.4537700  43.2626920  83.6549310  44.5391160  40.4989080
  84.3420440  45.0860370  40.8796670  82.8681730  45.0831890  40.5338690
  75.7941710  40.1563980  35.9906160  76.6636560  40.4388780  36.2742080
  75.3032030  40.9699850  35.8754970  82.9576520  41.5437190  40.1114440
  83.4139300  42.3542440  40.3374630  82.6064730  41.2260330  40.9432930
  85.2609130  47.0543530  47.3406740  85.9051350  47.2602910  48.0180160
  85.6238570  46.2931930  46.8877590  78.8588300  31.8874840  40.5836960
  78.7302930  31.8792740  41.5321880  78.0350320  32.2257930  40.2327970
  86.5341210  45.0575880  46.0584190  87.1763440  44.3569040  46.1716360
  87.0590560  45.8374320  45.8781080  90.3796930  45.3424500  35.7823330
  90.1534510  44.6254940  36.3747970  89.9893130  45.0936940  34.9445080
  88.3078830  45.8570780  49.2620250  88.6435070  46.4437470  49.9398170
  87.3879170  45.7263490  49.4918040  76.1612960  49.3691360  36.5567790
  76.5210600  49.9680700  35.9025060  76.0205300  49.9151250  37.3302820
  75.8582230  33.6465960  50.0443660  75.1440750  33.8462880  50.6496270
  76.2777270  32.8705530  50.4158460  89.9613180  43.2596440  37.4437490
  89.6734880  43.7209130  38.2315370  90.7565350  42.7994210  37.7121710
  76.1454820  47.6346220  51.0310190  76.2545940  46.6940960  50.8905580
  75.4935380  47.9000970  50.3823920  84.1367410  45.9062110  52.4308310
  83.8164280  45.1871350  52.9754000  83.4625770  46.5817180  52.5044370
  82.1781580  46.7522560  37.3741460  82.1691680  47.4852250  36.7585970
  81.2579940  46.5054140  37.4668420  77.7788220  41.9737450  38.1188220
  77.1716170  42.7136350  38.1283520  78.2537570  42.0636810  37.2926420
  87.3521010  36.1388270  47.7945110  87.7201830  35.3183480  48.1224680
  86.4919210  36.1990160  48.2100760  90.7183040  35.0945210  38.6032670
  90.0896200  35.1990880  37.8890900  90.2234960  35.3141990  39.3926550
  85.1641180  46.8150800  36.0366650  85.2653160  46.6114790  35.1068630
  84.2642920  46.5609080  36.2414430  82.6867070  37.3731160  40.0190550
  81.9783220  37.8417500  40.4604160  82.9711550  36.7153170  40.6535740
  84.3123000  38.7927860  48.0183080  84.8108250  39.2673680  48.6834930
  84.4545950  37.8691380  48.2253110  86.7182500  34.0981820  41.4586340
  86.5950280  34.1167950  40.5095850  87.6667060  34.1460760  41.5784740
  83.8059290  49.3337120  40.7314320  84.0600790  49.2958510  39.8093690
  82.8571770  49.2070450  40.7242570  80.8902090  35.6816240  37.3941260
  81.7392620  36.1186390  37.3281450  80.5233360  35.9936500  38.2213320
  91.5189860  35.0095820  48.8611470  91.0163460  35.7501220  49.2005280
  92.3346520  35.3979820  48.5448260  89.8111870  40.2529000  42.3072830
  88.8702010  40.2679230  42.4820520  90.1255940  39.4664960  42.7533130
  79.7893510  41.9348600  35.8676790  80.5556780  41.8229960  36.4302220
  79.8668200  41.2386570  35.2153560  78.4840270  39.3673670  36.5509680
  78.5643860  38.4201180  36.6627080  79.3760020  39.6980550  36.6570340
  79.2854980  49.5169060  43.6544220  80.0217460  48.9684520  43.9252790
  79.6695900  50.3825070  43.5150210  76.1700460  45.5842630  39.5285730
  75.2440240  45.8263770  39.5191140  76.6356890  46.4116890  39.4070480
  78.2913260  48.7015130  52.8429800  79.0925990  49.0227180  53.2565200
  77.7765080  48.3410710  53.5649710  82.3957290  48.6899370  35.4769790
  83.1885900  48.9788200  35.0251580  81.8761640  48.2591540  34.7982270
  87.1277890  44.8095000  52.7905210  86.5216050  44.8326600  52.0500960
  86.8232000  44.0778040  53.3272460  88.5578260  48.5375290  51.4014620
  89.5100010  48.4533310  51.3514860  88.4106480  49.2017000  52.0748410
  91.4487460  47.9169500  36.9006530  91.1628970  47.5034640  36.0860710
  91.2507010  48.8457210  36.7807050  76.0111070  41.1888590  51.7865850
  76.5150090  40.6095870  52.3582080  75.2718490  41.4728820  52.3242220
  82.9134690  43.9102780  35.3412140  82.8085330  43.2955130  36.0673520
  82.7458910  43.3868670  34.5575150  83.0649010  42.5959580  51.3201370
  82.2994680  43.1644580  51.2356040  83.2464970  42.3035790  50.4269600
  86.1537420  42.9722810  35.9454130  85.6047520  43.4192110  36.5896870
  86.7756680  42.4672060  36.4691800  90.2072360  44.3264910  51.8776390
  90.9481830  44.6640670  51.3743850  89.4445040  44.4956970  51.3246160
  78.0434150  39.3318180  52.6815920  78.0839490  39.0332050  53.5901150
  78.8979650  39.7325790  52.5223440  81.8212540  41.9313730  37.8419430
  82.2428960  41.7653600  38.6850820  81.9463380  41.1213960  37.3474570
  79.9839960  37.9110280  50.6490410  79.4536420  37.4201230  50.0213750
  80.6528030  38.3394480  50.1148340  84.3340180  40.9551340  35.0896530
  84.8545840  40.2400360  34.7237680  84.9808580  41.5937210  35.3897040
  88.8818020  42.3779740  50.4131600  89.2959040  42.5324820  51.2622020
  87.9469020  42.5034960  50.5757380  89.3540190  39.7175900  52.4170750
  89.9360960  38.9628220  52.3291230  89.5301960  40.2483340  51.6402230
  80.4712260  34.8772650  50.7287700  80.3769130  34.2593400  50.0038570
  79.8909650  35.6038940  50.5017610  83.2373700  33.4345890  47.7615090
  82.7891000  33.4570150  46.9160640  82.6038900  33.0364910  48.3585390
  83.6433250  42.3300220  48.3827530  84.0621360  43.1732950  48.2103770
  82.7241880  42.4672260  48.1534310  85.9797150  40.0616400  49.7665370
  86.0993360  39.4657540  50.5060210  86.8391150  40.0986090  49.3466670
  88.3185050  40.6153590  48.3427880  87.7920270  41.1396210  47.7393020
  88.6616390  41.2480980  48.9737610  80.7171440  38.0046960  34.7877590
  80.5160500  37.1414320  35.1490930  80.5463490  37.9180320  33.8499190
  81.4940670  48.6353230  49.4985260  80.9561760  49.3599290  49.1793960
  81.7474630  48.1583570  48.7082600  82.7465920  36.6037750  51.0241190
  83.3365610  36.2953600  51.7119010  81.9286160  36.1317500  51.1801090
  87.5659350  36.2203560  51.2574210  86.8774870  35.5585100  51.1924200
  88.2865370  35.7741830  51.7022670  88.1959750  32.8155190  37.3164470
  88.4762040  31.9723090  37.6723890  87.4225480  33.0478300  37.8303220
  79.5154240  35.1047580  34.7755470  79.8180140  35.1115010  33.8674620
  80.2548830  34.7545440  35.2723130  84.3502880  49.8704440  49.7571910
  84.2761580  50.7739580  50.0644280  83.4481720  49.5516340  49.7293980
  82.7339170  34.0482200  35.7611670  82.3861170  33.3706190  35.1814120
  82.9351940  33.5871710  36.5755060  84.8988210  49.0362950  37.3798270
  85.7939000  49.3747920  37.4017030  84.9305840  48.3142360  36.7522550
  78.5384370  44.4090000  35.6085270  78.9759240  44.9519670  36.2642850
  79.0232100  43.5836950  35.6181610  75.7530170  47.1979030  43.0605530
  76.0833180  46.3300090  42.8284170  76.1821170  47.4037550  43.8910490
  80.3492090  45.5288040  40.7207500  80.0487630  45.4053010  41.6211410
  80.2429580  44.6696630  40.3123230  76.2420380  48.0649620  45.7987160
  75.8051370  48.2450420  46.6311310  76.8098060  48.8224240  45.6568880
  91.8782560  47.5666620  50.0864470  91.2784550  47.6259180  49.3428390
  92.0076460  46.6271600  50.2161320  76.0744810  40.5769850  42.1576040
  75.4193650  40.3081490  41.5135740  76.9122760  40.4674330  41.7078020
  90.5634200  44.2918600  48.1840630  89.7494040  44.7215760  48.4466420
  90.9708400  44.9037010  47.5709680  89.0235250  35.3711140  36.3794530
  89.4420130  35.1842120  35.5391190  88.7171310  34.5190190  36.6897460
  77.1120740  40.9622420  46.6979380  77.4793780  40.8749820  47.5775400
  76.5431560  40.1988970  46.5986240  91.9124600  39.4306800  49.7109850
  91.6810690  39.2019550  48.8107800  92.1729150  40.3506350  49.6654740
  76.6636740  37.8731510  50.6037800  75.7692790  37.8398270  50.9431510
  77.2034290  38.0718300  51.3689050  90.3512670  34.6563230  52.4889550
  91.2282850  34.6646630  52.8723550  90.3633510  33.9194070  51.8781900
  75.2882890  37.7868780  38.1001370  74.3846970  38.0498980  37.9253030
  75.7723510  38.0579950  37.3201330  91.7975940  38.5092770  43.3777570
  92.3213420  38.0155420  42.7467740  92.3835360  38.6443130  44.1225140
  91.9765660  38.5932640  46.8997120  91.0268370  38.5596180  47.0142110
  92.1578670  39.5032750  46.6646890  77.8310100  36.8434320  36.0095750
  78.5401800  36.4217540  35.5243030  77.1150040  36.9109550  35.3779100
  77.4784260  32.8973650  35.0498400  78.2012390  33.4382590  35.3679620
  77.7508780  32.6237070  34.1739940  91.2875910  37.7666120  39.3169980
  91.7835030  37.5336990  40.1018860  91.0891980  36.9277960  38.9007620
  77.1676450  32.1479840  44.9521020  77.8152640  31.5977220  44.5116180
  77.5878290  32.4022990  45.7736830  91.0628790  32.3421200  48.3090660
  91.7001010  32.9555340  48.6749850  91.2103680  32.3781860  47.3639890
  90.6210250  49.0437200  41.7108900  91.2169320  48.7221770  41.0343320
  90.8788400  48.5709020  42.5022170  76.9208450  32.3035510  47.6946340
  76.5723270  32.7599330  48.4604520  76.5896150  31.4092640  47.7768770
  78.5272820  45.4755110  51.8599530  78.4842450  45.1048020  52.7413990
  78.6583830  46.4132680  52.0001350  82.2278850  47.0314700  47.4609250
  81.9870210  47.2989260  46.5739770  83.1681490  47.2020430  47.5160110
  84.4333270  33.4947390  51.2165760  84.3722160  34.0869220  51.9661170
  85.3733650  33.3873350  51.0716020  87.0707830  33.1517450  50.8558050
  87.6848240  33.4696740  50.1939130  87.6157390  32.6666040  51.4753910
  77.5929090  31.8311710  50.9697110  78.1412080  31.6499760  50.2063220
  77.6584400  31.0405820  51.5053420  78.3660850  48.4217360  48.9797310
  77.7721170  48.2902060  49.7187350  78.3584690  47.5855500  48.5139410
  87.8115870  31.7149590  47.1827340  86.9375710  32.0484700  46.9800270
  87.7026620  31.2422770  48.0079210  88.7187850  33.9220460  48.5669060
  88.3901210  33.1072220  48.1870790  89.6670150  33.8790270  48.4434750
  91.1722460  49.6932500  45.5406630  90.7125430  50.4448310  45.1664650
  90.5434920  48.9738970  45.4821430  77.9973080  45.7875740  47.9305350
  77.2707140  45.1681030  47.8631300  78.0582230  46.1816350  47.0603430
  81.6018180  48.0020740  44.7154760  82.1183200  47.3908100  44.1903020
  82.2515560  48.5049520  45.2065770  84.3413680  48.8929230  45.5423740
  84.6291490  48.6383530  44.6656750  84.8536900  48.3406590  46.1329310
  85.5590690  32.6319430  46.1220250  84.7762480  33.1064930  46.4017010
  85.2653620  31.7274260  46.0133430  90.1111760  33.3342530  44.1669340
  90.5519850  33.2787630  43.3190940  89.8419350  34.2500540  44.2379520
  76.2803080  49.1050130  41.1402110  76.1125120  48.4720810  41.8384000
  75.4137590  49.3109530  40.7896300  76.9031100  32.9366910  38.6433970
  77.6610460  33.0495790  38.0698000  76.4408270  33.7736110  38.5977400
  83.4444910  35.0506180  41.6336280  82.6319420  34.6763070  41.2932160
  83.9486550  34.2951260  41.9357470  87.9469890  31.7148630  42.8719350
  88.5499260  32.2868840  43.3467870  87.2062880  32.2788070  42.6493250
  91.0904490  32.1170190  38.1459630  91.2855120  33.0153640  38.4127060
  90.3034360  31.8857270  38.6392580  77.8865780  47.7983360  38.5852250
  77.3613400  48.1791390  37.8814210  77.8110360  48.4234130  39.3061960
  79.2756250  33.4630960  37.1835940  79.8049010  32.6760760  37.0543890
  79.9084570  34.1422150  37.4171470  81.4694090  33.2006100  40.2381330
  80.8396830  32.4993410  40.4051460  80.9299230  33.9610230  40.0214490
  84.4086040  49.8145330  52.9091940  85.3353350  49.5789600  52.9527900
  84.3936470  50.6417330  52.4277970  81.5949650  32.4790080  52.6733820
  81.3133920  32.9823680  51.9094640  81.9769350  31.6811830  52.3075950
  80.4858750  49.7465740  37.4601500  81.2177570  49.4625020  36.9125390
  80.7452420  49.5079020  38.3500880  79.6473540  45.8630470  37.4647830
  79.0182420  46.3315570  38.0133660  79.7621370  45.0179690  37.8994020
  88.1965110  31.8943660  53.2514290  88.0830560  32.2138270  54.1465810
  89.0134850  32.2956170  52.9551570  90.9763600  49.0415190  52.7332980
  91.7688920  48.5464420  52.5258940  91.2696750  49.7205330  53.3408590
  87.1023260  39.9136130  23.6149030  87.0217310  38.9990740  23.3440740
  86.6887680  40.4103200  22.9088740  85.2341300  41.6915150  25.4958300
  84.4583400  41.2115590  25.7856870  85.8854230  41.0120800  25.3214460
  79.2507130  42.0034960  26.3734060  78.4192010  41.7483670  26.7730570
  79.8588110  42.0745730  27.1091980  89.2548730  46.0975340  24.2757430
  88.7930260  45.3262580  24.6044600  90.0674280  46.1241410  24.7809880
  79.2308390  46.0375050  26.5692080  79.5336430  45.1472790  26.3902300
  79.9751980  46.5945270  26.3414330  77.6599080  36.9636850  20.1576450
  76.7715780  37.3052820  20.0556330  77.9440270  36.7637170  19.2657280
  75.6232090  39.5642500  26.0416150  76.1948200  38.7964700  26.0419790
  75.6233630  39.8631260  25.1322760  85.4812040  48.3833350  23.8961420
  84.8623480  48.8390850  23.3255860  86.3363820  48.5384810  23.4951120
  84.6750290  44.3672340  25.5028460  84.6058570  43.4262280  25.3417590
  85.4370150  44.4573750  26.0751030  76.8656960  34.9726860  27.8285080
  76.6859800  34.0752610  28.1087840  76.4637040  35.5198730  28.5032030
  85.7055460  37.1742720  25.7297390  86.0820280  36.3014600  25.6171060
  85.6074970  37.5101420  24.8387830  79.8360470  35.5468350  21.1914830
  79.9427220  36.4472080  21.4983590  78.9252830  35.4986320  20.9009480
  89.4879580  34.6693160  22.6625730  90.3089200  34.1789730  22.7051210
  89.5213660  35.2590820  23.4157570  77.4843630  37.4687360  26.4367420
  78.1653740  37.7325730  27.0554820  77.1691680  36.6288230  26.7705430
  81.6768200  38.5154720  25.5240010  82.1846420  39.0135690  26.1645030
  82.2081440  37.7389920  25.3479370  79.9604300  33.1553280  29.7903430
  79.9622740  33.6725670  28.9849330  79.1308610  32.6783460  29.7673360
  86.3475390  43.2672590  21.2893330  85.7292660  43.7322040  20.7256050
  86.8598640  43.9600070  21.7062840  81.2107150  42.7948460  27.9676930
  80.8776530  43.4217380  28.6098000  81.3873830  43.3210340  27.1878600
  89.7241060  36.6093540  25.4353270  89.0196630  36.8978430  26.0156380
  90.0853220  37.4193650  25.0752830  79.6419630  34.8663240  27.7973880
  79.9836440  35.7105290  27.5027750  78.7035440  35.0146980  27.9139220
  80.4226250  44.7629260  29.7826110  81.0400250  45.4380340  29.5010560
  79.5619370  45.1717240  29.6913610  75.7158590  43.9529120  18.6632960
  75.3386570  44.4416220  17.9317860  75.9731660  44.6254400  19.2939490
  91.3403840  46.2268670  27.6980750  90.6567360  46.8967780  27.6897420
  91.8798130  46.4249320  26.9325610  83.3247520  32.3545510  24.1218470
  83.6322500  31.7992400  23.4053970  82.3948220  32.4889970  23.9391460
  88.8762580  48.0712800  26.4125930  88.8889740  47.6675090  25.5448190
  88.3237800  48.8460090  26.3087360  90.1708000  44.7929020  21.5016100
  90.0604330  43.8503350  21.6265520  90.1676250  45.1544660  22.3878860
  88.2748020  42.9742640  27.7408540  88.6916810  42.7602750  26.9062000
  88.9987840  43.2315430  28.3117160  85.7128280  40.4194340  20.8578590
  84.7857560  40.3531720  21.0867060  85.8653100  41.3574470  20.7433830
  85.6997360  36.6911340  17.8545750  84.7601030  36.8525300  17.9398210
  86.0180620  37.4097020  17.3081740  89.7425570  41.9814640  21.3613840
  89.1237990  41.6434190  20.7140140  89.7250020  41.3374400  22.0693030
  89.1852130  38.1599180  28.7779650  88.7723310  38.9852890  29.0319640
  88.4528080  37.5744220  28.5856010  81.3184920  40.9459080  23.6398320
  80.9141920  40.2336330  23.1444220  81.4048040  40.6012320  24.5286360
  81.7866620  44.6326640  25.8037530  81.4894910  44.0272110  25.1245310
  82.7366440  44.6703950  25.6926890  80.0313540  37.7202290  27.4197360
  80.5828130  37.8297630  26.6450610  80.5457050  38.0939890  28.1352590
  89.8752230  48.2058510  29.4660630  89.3982790  49.0130700  29.2733240
  89.1914020  47.5536840  29.6186840  80.8785050  44.3708330  32.4545330
  79.9813580  44.5948300  32.7018730  80.9037920  44.4943270  31.5056730
  87.9190270  41.2201450  18.3686590  88.3583550  40.3823880  18.2224410
  88.6318690  41.8530850  18.4550730  79.7056270  41.2421650  31.0302700
  79.5664040  42.1144450  31.3990100  78.8237630  40.8994460  30.8850640
  86.0285650  46.1597520  22.3367830  86.4681560  46.9021850  21.9223220
  85.9672540  46.4024090  23.2606790  81.5036620  47.1843350  33.2387850
  81.4752050  47.5886300  32.3716280  81.3401590  46.2553710  33.0759450
  91.5007410  32.4744260  16.6827630  91.1880070  32.5671090  17.5826700
  92.2619880  33.0525290  16.6325060  78.0189550  39.8404060  21.1404970
  77.8987150  40.5666150  20.5286240  77.7090440  39.0706970  20.6632880
  75.6574920  43.0119200  26.9473610  75.7355340  43.1467970  26.0029330
  76.2716600  42.3035090  27.1401730  76.9022550  44.7119390  23.3579790
  76.4950630  44.8533980  22.5033390  77.7935560  44.4279550  23.1551000
  86.7201430  48.8611300  30.2646840  87.2346100  48.7719310  31.0669270
  85.8770510  49.2071000  30.5574750  88.6955830  49.1466640  19.6930840
  88.5356970  48.8569580  20.5912670  88.5302540  48.3706770  19.1576070
  81.1744210  48.9265170  21.4702460  80.9986690  48.0100710  21.2570260
  80.3199950  49.2852460  21.7100260  88.3981960  46.6554200  18.2528840
  87.7047120  46.6531490  17.5931120  89.1404820  46.2313520  17.8223010
  87.9631890  48.2816910  22.3277330  88.4188840  47.5006290  22.6415950
  88.3024410  48.9923730  22.8718510  75.7134440  44.0533370  29.4868070
  75.8765480  43.5838730  28.6687440  76.1786890  43.5456930  30.1516910
  80.4853210  33.1839130  24.5228640  80.0421360  33.9648670  24.1913160
  81.0438200  33.5069020  25.2299580  84.7723020  36.0507650  30.1263960
  84.3102390  36.2590670  30.9383900  84.3701130  35.2367000  29.8234630
  89.7727530  37.2716600  31.2560620  88.9221120  36.9722350  31.5769690
  89.6129320  37.5158610  30.3444440  86.8677240  38.7718350  33.3559410
  87.1930650  37.9382100  33.0161640  87.6557570  39.2946870  33.5037740
  83.6012030  32.8049830  19.4034470  82.9766210  32.8009700  20.1287780
  83.5142150  31.9380790  19.0070440  82.5229110  33.7286460  26.3818240
  82.8201440  34.6349290  26.3010260  83.0714670  33.2405240  25.7677810
  80.2767430  38.3072700  22.2509890  80.0508350  38.0909870  23.1556510
  79.4959960  38.7401160  21.9055860  87.5065190  38.3136070  20.8500540
  86.9074080  39.0371870  20.6664160  88.0544800  38.2512850  20.0676990
  82.7166640  39.2058280  32.9170160  82.6210240  38.2653010  32.7670560
  83.5598620  39.4273350  32.5218230  86.1130060  36.9499610  22.8803820
  86.5059630  37.2671810  22.0672510  86.4746910  36.0711490  22.9948340
  77.8477180  35.6171950  31.0703940  77.4540570  36.4647160  31.2776720
  77.1595580  34.9798320  31.2612580  84.4222230  35.7006920  34.1400680
  83.7320550  35.5079120  34.7746770  85.1654530  35.9841560  34.6724980
  75.1494230  33.5400410  25.1034020  74.8607280  34.1103270  25.8159000
  75.8939990  33.0604860  25.4665250  75.3364460  37.4820530  16.3136740
  75.2539130  38.4251290  16.4551730  74.9847520  37.3395440  15.4349090
  86.6985200  39.5405360  26.9754600  85.9666320  40.0492170  27.3244700
  86.3009540  38.7235340  26.6743380  83.1362590  36.2159560  25.3807090
  83.1398650  35.7749510  24.5311630  84.0313710  36.5376890  25.4878910
  78.9864970  36.0986050  24.3401300  78.6465020  36.5761280  25.0968350
  78.2242290  35.6451170  23.9802400  83.1982740  37.2171640  18.3713850
  83.3195560  37.1758120  19.3199670  82.8131250  38.0795790  18.2160580
  87.1611110  34.9939040  26.3877540  87.1783850  35.4447690  27.2319390
  86.9126690  34.0944680  26.6010980  82.2104240  39.5272780  17.7697150
  81.6421140  39.0791030  17.1433060  82.9193240  39.8865560  17.2362300
  90.5881860  32.4071220  32.2263920  90.9127630  31.6760880  32.7521900
  90.6238370  32.0884860  31.3244910  77.2873420  43.4284800  31.6463880
  76.9028210  42.7878470  32.2446840  77.5985610  44.1320920  32.2158610
  83.4370560  40.2761340  27.1272500  83.8040690  39.8019910  27.8733840
  83.2475620  41.1502910  27.4680840  76.3011050  35.0205030  23.2565970
  76.0157970  34.6560700  24.0944590  76.2389910  34.2885490  22.6429110
  81.2269930  39.3169980  29.4456710  80.9227000  40.1961960  29.6707070
  82.1816390  39.3769770  29.4814150  79.7551720  43.5230970  20.0423560
  78.9813980  42.9828590  19.8822280  80.4846350  43.0037580  19.7041320
  90.5139700  42.5196330  25.8349950  91.2338820  43.0151620  25.4446060
  90.3121520  41.8414220  25.1903820  85.9749640  33.9134290  19.9779340
  85.1614250  33.4147460  19.9024650  85.7811590  34.7532540  19.5615690
  85.8958500  42.5905390  31.7218950  85.8295810  41.6701060  31.4676540
  85.2663640  42.6880830  32.4363590  88.6898030  38.2853940  18.2741500
  89.5777650  38.5971170  18.0992840  88.6603120  37.4126190  17.8822080
  79.7989120  43.1911350  23.6802370  80.3167790  42.3879610  23.6259260
  79.3473140  43.1290490  24.5219200  84.6858620  44.4577630  18.9529670
  85.0274320  45.2019860  18.4572990  83.8571330  44.7708750  19.3154500
  77.2833660  40.1572720  30.5928070  76.9248600  40.8226570  31.1801410
  76.9888220  39.3256270  30.9640690  80.4846780  40.6156960  33.4767620
  80.1846920  40.7614140  32.5795440  81.2558020  40.0562250  33.3841010
  85.8275230  45.4125960  31.4722750  85.8419770  44.4806920  31.2541660
  85.1200330  45.4985720  32.1112520  90.9612300  39.5965780  17.7421360
  90.8776020  40.0280000  16.8917800  91.6806490  40.0564130  18.1748180
  91.9899550  46.4508040  20.4703490  91.3475710  45.7963660  20.7447210
  91.6030210  46.8563130  19.6944160  87.5686030  43.7793470  24.3175180
  87.9209850  43.1821600  23.6576550  86.6848360  43.4537700  24.4883430
  83.6549310  44.5391160  21.7245590  84.3420440  45.0860370  22.1053180
  82.8681730  45.0831890  21.7595200  75.7941710  40.1563980  17.2162670
  76.6636560  40.4388780  17.4998590  75.3032030  40.9699850  17.1011480
  82.9576520  41.5437190  21.3370950  83.4139300  42.3542440  21.5631140
  82.6064730  41.2260330  22.1689440  85.2609130  47.0543530  28.5663250
  85.9051350  47.2602910  29.2436670  85.6238570  46.2931930  28.1134100
  78.8588300  31.8874840  21.8093470  78.7302930  31.8792740  22.7578390
  78.0350320  32.2257930  21.4584480  86.5341210  45.0575880  27.2840700
  87.1763440  44.3569040  27.3972870  87.0590560  45.8374320  27.1037590
  90.3796930  45.3424500  17.0079840  90.1534510  44.6254940  17.6004480
  89.9893130  45.0936940  16.1701590  88.3078830  45.8570780  30.4876760
  88.6435070  46.4437470  31.1654680  87.3879170  45.7263490  30.7174550
  76.1612960  49.3691360  17.7824300  76.5210600  49.9680700  17.1281570
  76.0205300  49.9151250  18.5559330  75.8582230  33.6465960  31.2700170
  75.1440750  33.8462880  31.8752780  76.2777270  32.8705530  31.6414970
  89.9613180  43.2596440  18.6694000  89.6734880  43.7209130  19.4571880
  90.7565350  42.7994210  18.9378220  76.1454820  47.6346220  32.2566700
  76.2545940  46.6940960  32.1162090  75.4935380  47.9000970  31.6080430
  84.1367410  45.9062110  33.6564820  83.8164280  45.1871350  34.2010510
  83.4625770  46.5817180  33.7300880  82.1781580  46.7522560  18.5997970
  82.1691680  47.4852250  17.9842480  81.2579940  46.5054140  18.6924930
  77.7788220  41.9737450  19.3444730  77.1716170  42.7136350  19.3540030
  78.2537570  42.0636810  18.5182930  87.3521010  36.1388270  29.0201620
  87.7201830  35.3183480  29.3481190  86.4919210  36.1990160  29.4357270
  90.7183040  35.0945210  19.8289180  90.0896200  35.1990880  19.1147410
  90.2234960  35.3141990  20.6183060  85.1641180  46.8150800  17.2623160
  85.2653160  46.6114790  16.3325140  84.2642920  46.5609080  17.4670940
  82.6867070  37.3731160  21.2447060  81.9783220  37.8417500  21.6860670
  82.9711550  36.7153170  21.8792250  84.3123000  38.7927860  29.2439590
  84.8108250  39.2673680  29.9091440  84.4545950  37.8691380  29.4509620
  86.7182500  34.0981820  22.6842850  86.5950280  34.1167950  21.7352360
  87.6667060  34.1460760  22.8041250  83.8059290  49.3337120  21.9570830
  84.0600790  49.2958510  21.0350200  82.8571770  49.2070450  21.9499080
  80.8902090  35.6816240  18.6197770  81.7392620  36.1186390  18.5537960
  80.5233360  35.9936500  19.4469830  91.5189860  35.0095820  30.0867980
  91.0163460  35.7501220  30.4261790  92.3346520  35.3979820  29.7704770
  89.8111870  40.2529000  23.5329340  88.8702010  40.2679230  23.7077030
  90.1255940  39.4664960  23.9789640  79.7893510  41.9348600  17.0933300
  80.5556780  41.8229960  17.6558730  79.8668200  41.2386570  16.4410070
  78.4840270  39.3673670  17.7766190  78.5643860  38.4201180  17.8883590
  79.3760020  39.6980550  17.8826850  79.2854980  49.5169060  24.8800730
  80.0217460  48.9684520  25.1509300  79.6695900  50.3825070  24.7406720
  76.1700460  45.5842630  20.7542240  75.2440240  45.8263770  20.7447650
  76.6356890  46.4116890  20.6326990  78.2913260  48.7015130  34.0686310
  79.0925990  49.0227180  34.4821710  77.7765080  48.3410710  34.7906220
  82.3957290  48.6899370  16.7026300  83.1885900  48.9788200  16.2508090
  81.8761640  48.2591540  16.0238780  87.1277890  44.8095000  34.0161720
  86.5216050  44.8326600  33.2757470  86.8232000  44.0778040  34.5528970
  88.5578260  48.5375290  32.6271130  89.5100010  48.4533310  32.5771370
  88.4106480  49.2017000  33.3004920  91.4487460  47.9169500  18.1263040
  91.1628970  47.5034640  17.3117220  91.2507010  48.8457210  18.0063560
  76.0111070  41.1888590  33.0122360  76.5150090  40.6095870  33.5838590
  75.2718490  41.4728820  33.5498730  82.9134690  43.9102780  16.5668650
  82.8085330  43.2955130  17.2930030  82.7458910  43.3868670  15.7831660
  83.0649010  42.5959580  32.5457880  82.2994680  43.1644580  32.4612550
  83.2464970  42.3035790  31.6526110  86.1537420  42.9722810  17.1710640
  85.6047520  43.4192110  17.8153380  86.7756680  42.4672060  17.6948310
  90.2072360  44.3264910  33.1032900  90.9481830  44.6640670  32.6000360
  89.4445040  44.4956970  32.5502670  78.0434150  39.3318180  33.9072430
  78.0839490  39.0332050  34.8157660  78.8979650  39.7325790  33.7479950
  81.8212540  41.9313730  19.0675940  82.2428960  41.7653600  19.9107330
  81.9463380  41.1213960  18.5731080  79.9839960  37.9110280  31.8746920
  79.4536420  37.4201230  31.2470260  80.6528030  38.3394480  31.3404850
  84.3340180  40.9551340  16.3153040  84.8545840  40.2400360  15.9494190
  84.9808580  41.5937210  16.6153550  88.8818020  42.3779740  31.6388110
  89.2959040  42.5324820  32.4878530  87.9469020  42.5034960  31.8013890
  89.3540190  39.7175900  33.6427260  89.9360960  38.9628220  33.5547740
  89.5301960  40.2483340  32.8658740  80.4712260  34.8772650  31.9544210
  80.3769130  34.2593400  31.2295080  79.8909650  35.6038940  31.7274120
  83.2373700  33.4345890  28.9871600  82.7891000  33.4570150  28.1417150
  82.6038900  33.0364910  29.5841900  83.6433250  42.3300220  29.6084040
  84.0621360  43.1732950  29.4360280  82.7241880  42.4672260  29.3790820
  85.9797150  40.0616400  30.9921880  86.0993360  39.4657540  31.7316720
  86.8391150  40.0986090  30.5723180  88.3185050  40.6153590  29.5684390
  87.7920270  41.1396210  28.9649530  88.6616390  41.2480980  30.1994120
  80.7171440  38.0046960  16.0134100  80.5160500  37.1414320  16.3747440
  80.5463490  37.9180320  15.0755700  81.4940670  48.6353230  30.7241770
  80.9561760  49.3599290  30.4050470  81.7474630  48.1583570  29.9339110
  82.7465920  36.6037750  32.2497700  83.3365610  36.2953600  32.9375520
  81.9286160  36.1317500  32.4057600  87.5659350  36.2203560  32.4830720
  86.8774870  35.5585100  32.4180710  88.2865370  35.7741830  32.9279180
  88.1959750  32.8155190  18.5420980  88.4762040  31.9723090  18.8980400
  87.4225480  33.0478300  19.0559730  79.5154240  35.1047580  16.0011980
  79.8180140  35.1115010  15.0931130  80.2548830  34.7545440  16.4979640
  84.3502880  49.8704440  30.9828420  84.2761580  50.7739580  31.2900790
  83.4481720  49.5516340  30.9550490  82.7339170  34.0482200  16.9868180
  82.3861170  33.3706190  16.4070630  82.9351940  33.5871710  17.8011570
  84.8988210  49.0362950  18.6054780  85.7939000  49.3747920  18.6273540
  84.9305840  48.3142360  17.9779060  78.5384370  44.4090000  16.8341780
  78.9759240  44.9519670  17.4899360  79.0232100  43.5836950  16.8438120
  75.7530170  47.1979030  24.2862040  76.0833180  46.3300090  24.0540680
  76.1821170  47.4037550  25.1167000  80.3492090  45.5288040  21.9464010
  80.0487630  45.4053010  22.8467920  80.2429580  44.6696630  21.5379740
  76.2420380  48.0649620  27.0243670  75.8051370  48.2450420  27.8567820
  76.8098060  48.8224240  26.8825390  91.8782560  47.5666620  31.3120980
  91.2784550  47.6259180  30.5684900  92.0076460  46.6271600  31.4417830
  76.0744810  40.5769850  23.3832550  75.4193650  40.3081490  22.7392250
  76.9122760  40.4674330  22.9334530  90.5634200  44.2918600  29.4097140
  89.7494040  44.7215760  29.6722930  90.9708400  44.9037010  28.7966190
  89.0235250  35.3711140  17.6051040  89.4420130  35.1842120  16.7647700
  88.7171310  34.5190190  17.9153970  77.1120740  40.9622420  27.9235890
  77.4793780  40.8749820  28.8031910  76.5431560  40.1988970  27.8242750
  91.9124600  39.4306800  30.9366360  91.6810690  39.2019550  30.0364310
  92.1729150  40.3506350  30.8911250  76.6636740  37.8731510  31.8294310
  75.7692790  37.8398270  32.1688020  77.2034290  38.0718300  32.5945560
  90.3512670  34.6563230  33.7146060  91.2282850  34.6646630  34.0980060
  90.3633510  33.9194070  33.1038410  75.2882890  37.7868780  19.3257880
  74.3846970  38.0498980  19.1509540  75.7723510  38.0579950  18.5457840
  91.7975940  38.5092770  24.6034080  92.3213420  38.0155420  23.9724250
  92.3835360  38.6443130  25.3481650  91.9765660  38.5932640  28.1253630
  91.0268370  38.5596180  28.2398620  92.1578670  39.5032750  27.8903400
  77.8310100  36.8434320  17.2352260  78.5401800  36.4217540  16.7499540
  77.1150040  36.9109550  16.6035610  77.4784260  32.8973650  16.2754910
  78.2012390  33.4382590  16.5936130  77.7508780  32.6237070  15.3996450
  91.2875910  37.7666120  20.5426490  91.7835030  37.5336990  21.3275370
  91.0891980  36.9277960  20.1264130  77.1676450  32.1479840  26.1777530
  77.8152640  31.5977220  25.7372690  77.5878290  32.4022990  26.9993340
  91.0628790  32.3421200  29.5347170  91.7001010  32.9555340  29.9006360
  91.2103680  32.3781860  28.5896400  90.6210250  49.0437200  22.9365410
  91.2169320  48.7221770  22.2599830  90.8788400  48.5709020  23.7278680
  76.9208450  32.3035510  28.9202850  76.5723270  32.7599330  29.6861030
  76.5896150  31.4092640  29.0025280  78.5272820  45.4755110  33.0856040
  78.4842450  45.1048020  33.9670500  78.6583830  46.4132680  33.2257860
  82.2278850  47.0314700  28.6865760  81.9870210  47.2989260  27.7996280
  83.1681490  47.2020430  28.7416620  84.4333270  33.4947390  32.4422270
  84.3722160  34.0869220  33.1917680  85.3733650  33.3873350  32.2972530
  87.0707830  33.1517450  32.0814560  87.6848240  33.4696740  31.4195640
  87.6157390  32.6666040  32.7010420  77.5929090  31.8311710  32.1953620
  78.1412080  31.6499760  31.4319730  77.6584400  31.0405820  32.7309930
  78.3660850  48.4217360  30.2053820  77.7721170  48.2902060  30.9443860
  78.3584690  47.5855500  29.7395920  87.8115870  31.7149590  28.4083850
  86.9375710  32.0484700  28.2056780  87.7026620  31.2422770  29.2335720
  88.7187850  33.9220460  29.7925570  88.3901210  33.1072220  29.4127300
  89.6670150  33.8790270  29.6691260  91.1722460  49.6932500  26.7663140
  90.7125430  50.4448310  26.3921160  90.5434920  48.9738970  26.7077940
  77.9973080  45.7875740  29.1561860  77.2707140  45.1681030  29.0887810
  78.0582230  46.1816350  28.2859940  81.6018180  48.0020740  25.9411270
  82.1183200  47.3908100  25.4159530  82.2515560  48.5049520  26.4322280
  84.3413680  48.8929230  26.7680250  84.6291490  48.6383530  25.8913260
  84.8536900  48.3406590  27.3585820  85.5590690  32.6319430  27.3476760
  84.7762480  33.1064930  27.6273520  85.2653620  31.7274260  27.2389940
  90.1111760  33.3342530  25.3925850  90.5519850  33.2787630  24.5447450
  89.8419350  34.2500540  25.4636030  76.2803080  49.1050130  22.3658620
  76.1125120  48.4720810  23.0640510  75.4137590  49.3109530  22.0152810
  76.9031100  32.9366910  19.8690480  77.6610460  33.0495790  19.2954510
  76.4408270  33.7736110  19.8233910  83.4444910  35.0506180  22.8592790
  82.6319420  34.6763070  22.5188670  83.9486550  34.2951260  23.1613980
  87.9469890  31.7148630  24.0975860  88.5499260  32.2868840  24.5724380
  87.2062880  32.2788070  23.8749760  91.0904490  32.1170190  19.3716140
  91.2855120  33.0153640  19.6383570  90.3034360  31.8857270  19.8649090
  77.8865780  47.7983360  19.8108760  77.3613400  48.1791390  19.1070720
  77.8110360  48.4234130  20.5318470  79.2756250  33.4630960  18.4092450
  79.8049010  32.6760760  18.2800400  79.9084570  34.1422150  18.6427980
  81.4694090  33.2006100  21.4637840  80.8396830  32.4993410  21.6307970
  80.9299230  33.9610230  21.2471000  84.4086040  49.8145330  34.1348450
  85.3353350  49.5789600  34.1784410  84.3936470  50.6417330  33.6534480
  81.5949650  32.4790080  33.8990330  81.3133920  32.9823680  33.1351150
  81.9769350  31.6811830  33.5332460  80.4858750  49.7465740  18.6858010
  81.2177570  49.4625020  18.1381900  80.7452420  49.5079020  19.5757390
  79.6473540  45.8630470  18.6904340  79.0182420  46.3315570  19.2390170
  79.7621370  45.0179690  19.1250530  88.1965110  31.8943660  34.4770800
  88.0830560  32.2138270  35.3722320  89.0134850  32.2956170  34.1808080
  90.9763600  49.0415190  33.9589490  91.7688920  48.5464420  33.7515450
  91.2696750  49.7205330  34.5665100  87.1023260  39.9136130   4.8405540
  87.0217310  38.9990740   4.5697250  86.6887680  40.4103200   4.1345250
  85.2341300  41.6915150   6.7214810  84.4583400  41.2115590   7.0113380
  85.8854230  41.0120800   6.5470970  79.2507130  42.0034960   7.5990570
  78.4192010  41.7483670   7.9987080  79.8588110  42.0745730   8.3348490
  89.2548730  46.0975340   5.5013940  88.7930260  45.3262580   5.8301110
  90.0674280  46.1241410   6.0066390  79.2308390  46.0375050   7.7948590
  79.5336430  45.1472790   7.6158810  79.9751980  46.5945270   7.5670840
  75.6232090  39.5642500   7.2672660  76.1948200  38.7964700   7.2676300
  75.6233630  39.8631260   6.3579270  85.4812040  48.3833350   5.1217930
  84.8623480  48.8390850   4.5512370  86.3363820  48.5384810   4.7207630
  84.6750290  44.3672340   6.7284970  84.6058570  43.4262280   6.5674100
  85.4370150  44.4573750   7.3007540  76.8656960  34.9726860   9.0541590
  76.6859800  34.0752610   9.3344350  76.4637040  35.5198730   9.7288540
  85.7055460  37.1742720   6.9553900  86.0820280  36.3014600   6.8427570
  85.6074970  37.5101420   6.0644340  79.8360470  35.5468350   2.4171340
  79.9427220  36.4472080   2.7240100  78.9252830  35.4986320   2.1265990
  89.4879580  34.6693160   3.8882240  90.3089200  34.1789730   3.9307720
  89.5213660  35.2590820   4.6414080  77.4843630  37.4687360   7.6623930
  78.1653740  37.7325730   8.2811330  77.1691680  36.6288230   7.9961940
  81.6768200  38.5154720   6.7496520  82.1846420  39.0135690   7.3901540
  82.2081440  37.7389920   6.5735880  79.9604300  33.1553280  11.0159940
  79.9622740  33.6725670  10.2105840  79.1308610  32.6783460  10.9929870
  86.3475390  43.2672590   2.5149840  85.7292660  43.7322040   1.9512560
  86.8598640  43.9600070   2.9319350  81.2107150  42.7948460   9.1933440
  80.8776530  43.4217380   9.8354510  81.3873830  43.3210340   8.4135110
  89.7241060  36.6093540   6.6609780  89.0196630  36.8978430   7.2412890
  90.0853220  37.4193650   6.3009340  79.6419630  34.8663240   9.0230390
  79.9836440  35.7105290   8.7284260  78.7035440  35.0146980   9.1395730
  80.4226250  44.7629260  11.0082620  81.0400250  45.4380340  10.7267070
  79.5619370  45.1717240  10.9170120  91.3403840  46.2268670   8.9237260
  90.6567360  46.8967780   8.9153930  91.8798130  46.4249320   8.1582120
  83.3247520  32.3545510   5.3474980  83.6322500  31.7992400   4.6310480
  82.3948220  32.4889970   5.1647970  88.8762580  48.0712800   7.6382440
  88.8889740  47.6675090   6.7704700  88.3237800  48.8460090   7.5343870
  90.1708000  44.7929020   2.7272610  90.0604330  43.8503350   2.8522030
  90.1676250  45.1544660   3.6135370  88.2748020  42.9742640   8.9665050
  88.6916810  42.7602750   8.1318510  88.9987840  43.2315430   9.5373670
  85.7128280  40.4194340   2.0835100  84.7857560  40.3531720   2.3123570
  85.8653100  41.3574470   1.9690340  89.7425570  41.9814640   2.5870350
  89.1237990  41.6434190   1.9396650  89.7250020  41.3374400   3.2949540
  89.1852130  38.1599180  10.0036160  88.7723310  38.9852890  10.2576150
  88.4528080  37.5744220   9.8112520  81.3184920  40.9459080   4.8654830
  80.9141920  40.2336330   4.3700730  81.4048040  40.6012320   5.7542870
  81.7866620  44.6326640   7.0294040  81.4894910  44.0272110   6.3501820
  82.7366440  44.6703950   6.9183400  80.0313540  37.7202290   8.6453870
  80.5828130  37.8297630   7.8707120  80.5457050  38.0939890   9.3609100
  89.8752230  48.2058510  10.6917140  89.3982790  49.0130700  10.4989750
  89.1914020  47.5536840  10.8443350  80.8785050  44.3708330  13.6801840
  79.9813580  44.5948300  13.9275240  80.9037920  44.4943270  12.7313240
  79.7056270  41.2421650  12.2559210  79.5664040  42.1144450  12.6246610
  78.8237630  40.8994460  12.1107150  86.0285650  46.1597520   3.5624340
  86.4681560  46.9021850   3.1479730  85.9672540  46.4024090   4.4863300
  81.5036620  47.1843350  14.4644360  81.4752050  47.5886300  13.5972790
  81.3401590  46.2553710  14.3015960  78.0189550  39.8404060   2.3661480
  77.8987150  40.5666150   1.7542750  77.7090440  39.0706970   1.8889390
  75.6574920  43.0119200   8.1730120  75.7355340  43.1467970   7.2285840
  76.2716600  42.3035090   8.3658240  76.9022550  44.7119390   4.5836300
  76.4950630  44.8533980   3.7289900  77.7935560  44.4279550   4.3807510
  86.7201430  48.8611300  11.4903350  87.2346100  48.7719310  12.2925780
  85.8770510  49.2071000  11.7831260  81.1744210  48.9265170   2.6958970
  80.9986690  48.0100710   2.4826770  80.3199950  49.2852460   2.9356770
  87.9631890  48.2816910   3.5533840  88.4188840  47.5006290   3.8672460
  88.3024410  48.9923730   4.0975020  75.7134440  44.0533370  10.7124580
  75.8765480  43.5838730   9.8943950  76.1786890  43.5456930  11.3773420
  80.4853210  33.1839130   5.7485150  80.0421360  33.9648670   5.4169670
  81.0438200  33.5069020   6.4556090  84.7723020  36.0507650  11.3520470
  84.3102390  36.2590670  12.1640410  84.3701130  35.2367000  11.0491140
  89.7727530  37.2716600  12.4817130  88.9221120  36.9722350  12.8026200
  89.6129320  37.5158610  11.5700950  86.8677240  38.7718350  14.5815920
  87.1930650  37.9382100  14.2418150  87.6557570  39.2946870  14.7294250
  82.5229110  33.7286460   7.6074750  82.8201440  34.6349290   7.5266770
  83.0714670  33.2405240   6.9934320  80.2767430  38.3072700   3.4766400
  80.0508350  38.0909870   4.3813020  79.4959960  38.7401160   3.1312370
  87.5065190  38.3136070   2.0757050  86.9074080  39.0371870   1.8920670
  88.0544800  38.2512850   1.2933500  82.7166640  39.2058280  14.1426670
  82.6210240  38.2653010  13.9927070  83.5598620  39.4273350  13.7474740
  86.1130060  36.9499610   4.1060330  86.5059630  37.2671810   3.2929020
  86.4746910  36.0711490   4.2204850  77.8477180  35.6171950  12.2960450
  77.4540570  36.4647160  12.5033230  77.1595580  34.9798320  12.4869090
  84.4222230  35.7006920  15.3657190  83.7320550  35.5079120  16.0003280
  85.1654530  35.9841560  15.8981490  75.1494230  33.5400410   6.3290530
  74.8607280  34.1103270   7.0415510  75.8939990  33.0604860   6.6921760
  86.6985200  39.5405360   8.2011110  85.9666320  40.0492170   8.5501210
  86.3009540  38.7235340   7.8999890  83.1362590  36.2159560   6.6063600
  83.1398650  35.7749510   5.7568140  84.0313710  36.5376890   6.7135420
  78.9864970  36.0986050   5.5657810  78.6465020  36.5761280   6.3224860
  78.2242290  35.6451170   5.2058910  87.1611110  34.9939040   7.6134050
  87.1783850  35.4447690   8.4575900  86.9126690  34.0944680   7.8267490
  90.5881860  32.4071220  13.4520430  90.9127630  31.6760880  13.9778410
  90.6238370  32.0884860  12.5501420  77.2873420  43.4284800  12.8720390
  76.9028210  42.7878470  13.4703350  77.5985610  44.1320920  13.4415120
  83.4370560  40.2761340   8.3529010  83.8040690  39.8019910   9.0990350
  83.2475620  41.1502910   8.6937350  76.3011050  35.0205030   4.4822480
  76.0157970  34.6560700   5.3201100  76.2389910  34.2885490   3.8685620
  81.2269930  39.3169980  10.6713220  80.9227000  40.1961960  10.8963580
  82.1816390  39.3769770  10.7070660  90.5139700  42.5196330   7.0606460
  91.2338820  43.0151620   6.6702570  90.3121520  41.8414220   6.4160330
  85.8958500  42.5905390  12.9475460  85.8295810  41.6701060  12.6933050
  85.2663640  42.6880830  13.6620100  79.7989120  43.1911350   4.9058880
  80.3167790  42.3879610   4.8515770  79.3473140  43.1290490   5.7475710
  77.2833660  40.1572720  11.8184580  76.9248600  40.8226570  12.4057920
  76.9888220  39.3256270  12.1897200  80.4846780  40.6156960  14.7024130
  80.1846920  40.7614140  13.8051950  81.2558020  40.0562250  14.6097520
  85.8275230  45.4125960  12.6979260  85.8419770  44.4806920  12.4798170
  85.1200330  45.4985720  13.3369030  87.5686030  43.7793470   5.5431690
  87.9209850  43.1821600   4.8833060  86.6848360  43.4537700   5.7139940
  83.6549310  44.5391160   2.9502100  84.3420440  45.0860370   3.3309690
  82.8681730  45.0831890   2.9851710  82.9576520  41.5437190   2.5627460
  83.4139300  42.3542440   2.7887650  82.6064730  41.2260330   3.3945950
  85.2609130  47.0543530   9.7919760  85.9051350  47.2602910  10.4693180
  85.6238570  46.2931930   9.3390610  78.8588300  31.8874840   3.0349980
  78.7302930  31.8792740   3.9834900  78.0350320  32.2257930   2.6840990
  86.5341210  45.0575880   8.5097210  87.1763440  44.3569040   8.6229380
  87.0590560  45.8374320   8.3294100  88.3078830  45.8570780  11.7133270
  88.6435070  46.4437470  12.3911190  87.3879170  45.7263490  11.9431060
  75.8582230  33.6465960  12.4956680  75.1440750  33.8462880  13.1009290
  76.2777270  32.8705530  12.8671480  76.1454820  47.6346220  13.4823210
  76.2545940  46.6940960  13.3418600  75.4935380  47.9000970  12.8336940
  84.1367410  45.9062110  14.8821330  83.8164280  45.1871350  15.4267020
  83.4625770  46.5817180  14.9557390  87.3521010  36.1388270  10.2458130
  87.7201830  35.3183480  10.5737700  86.4919210  36.1990160  10.6613780
  82.6867070  37.3731160   2.4703570  81.9783220  37.8417500   2.9117180
  82.9711550  36.7153170   3.1048760  84.3123000  38.7927860  10.4696100
  84.8108250  39.2673680  11.1347950  84.4545950  37.8691380  10.6766130
  86.7182500  34.0981820   3.9099360  86.5950280  34.1167950   2.9608870
  87.6667060  34.1460760   4.0297760  83.8059290  49.3337120   3.1827340
  84.0600790  49.2958510   2.2606710  82.8571770  49.2070450   3.1755590
  91.5189860  35.0095820  11.3124490  91.0163460  35.7501220  11.6518300
  92.3346520  35.3979820  10.9961280  89.8111870  40.2529000   4.7585850
  88.8702010  40.2679230   4.9333540  90.1255940  39.4664960   5.2046150
  79.2854980  49.5169060   6.1057240  80.0217460  48.9684520   6.3765810
  79.6695900  50.3825070   5.9663230  76.1700460  45.5842630   1.9798750
  75.2440240  45.8263770   1.9704160  76.6356890  46.4116890   1.8583500
  78.2913260  48.7015130  15.2942820  79.0925990  49.0227180  15.7078220
  77.7765080  48.3410710  16.0162730  87.1277890  44.8095000  15.2418230
  86.5216050  44.8326600  14.5013980  86.8232000  44.0778040  15.7785480
  88.5578260  48.5375290  13.8527640  89.5100010  48.4533310  13.8027880
  88.4106480  49.2017000  14.5261430  76.0111070  41.1888590  14.2378870
  76.5150090  40.6095870  14.8095100  75.2718490  41.4728820  14.7755240
  83.0649010  42.5959580  13.7714390  82.2994680  43.1644580  13.6869060
  83.2464970  42.3035790  12.8782620  90.2072360  44.3264910  14.3289410
  90.9481830  44.6640670  13.8256870  89.4445040  44.4956970  13.7759180
  78.0434150  39.3318180  15.1328940  78.0839490  39.0332050  16.0414170
  78.8979650  39.7325790  14.9736460  79.9839960  37.9110280  13.1003430
  79.4536420  37.4201230  12.4726770  80.6528030  38.3394480  12.5661360
  88.8818020  42.3779740  12.8644620  89.2959040  42.5324820  13.7135040
  87.9469020  42.5034960  13.0270400  89.3540190  39.7175900  14.8683770
  89.9360960  38.9628220  14.7804250  89.5301960  40.2483340  14.0915250
  80.4712260  34.8772650  13.1800720  80.3769130  34.2593400  12.4551590
  79.8909650  35.6038940  12.9530630  83.2373700  33.4345890  10.2128110
  82.7891000  33.4570150   9.3673660  82.6038900  33.0364910  10.8098410
  83.6433250  42.3300220  10.8340550  84.0621360  43.1732950  10.6616790
  82.7241880  42.4672260  10.6047330  85.9797150  40.0616400  12.2178390
  86.0993360  39.4657540  12.9573230  86.8391150  40.0986090  11.7979690
  88.3185050  40.6153590  10.7940900  87.7920270  41.1396210  10.1906040
  88.6616390  41.2480980  11.4250630  81.4940670  48.6353230  11.9498280
  80.9561760  49.3599290  11.6306980  81.7474630  48.1583570  11.1595620
  82.7465920  36.6037750  13.4754210  83.3365610  36.2953600  14.1632030
  81.9286160  36.1317500  13.6314110  87.5659350  36.2203560  13.7087230
  86.8774870  35.5585100  13.6437220  88.2865370  35.7741830  14.1535690
  84.3502880  49.8704440  12.2084930  84.2761580  50.7739580  12.5157300
  83.4481720  49.5516340  12.1807000  75.7530170  47.1979030   5.5118550
  76.0833180  46.3300090   5.2797190  76.1821170  47.4037550   6.3423510
  80.3492090  45.5288040   3.1720520  80.0487630  45.4053010   4.0724430
  80.2429580  44.6696630   2.7636250  76.2420380  48.0649620   8.2500180
  75.8051370  48.2450420   9.0824330  76.8098060  48.8224240   8.1081900
  91.8782560  47.5666620  12.5377490  91.2784550  47.6259180  11.7941410
  92.0076460  46.6271600  12.6674340  76.0744810  40.5769850   4.6089060
  75.4193650  40.3081490   3.9648760  76.9122760  40.4674330   4.1591040
  90.5634200  44.2918600  10.6353650  89.7494040  44.7215760  10.8979440
  90.9708400  44.9037010  10.0222700  77.1120740  40.9622420   9.1492400
  77.4793780  40.8749820  10.0288420  76.5431560  40.1988970   9.0499260
  91.9124600  39.4306800  12.1622870  91.6810690  39.2019550  11.2620820
  92.1729150  40.3506350  12.1167760  76.6636740  37.8731510  13.0550820
  75.7692790  37.8398270  13.3944530  77.2034290  38.0718300  13.8202070
  90.3512670  34.6563230  14.9402570  91.2282850  34.6646630  15.3236570
  90.3633510  33.9194070  14.3294920  91.7975940  38.5092770   5.8290590
  92.3213420  38.0155420   5.1980760  92.3835360  38.6443130   6.5738160
  91.9765660  38.5932640   9.3510140  91.0268370  38.5596180   9.4655130
  92.1578670  39.5032750   9.1159910  91.2875910  37.7666120   1.7683000
  91.7835030  37.5336990   2.5531880  91.0891980  36.9277960   1.3520640
  77.1676450  32.1479840   7.4034040  77.8152640  31.5977220   6.9629200
  77.5878290  32.4022990   8.2249850  91.0628790  32.3421200  10.7603680
  91.7001010  32.9555340  11.1262870  91.2103680  32.3781860   9.8152910
  90.6210250  49.0437200   4.1621920  91.2169320  48.7221770   3.4856340
  90.8788400  48.5709020   4.9535190  76.9208450  32.3035510  10.1459360
  76.5723270  32.7599330  10.9117540  76.5896150  31.4092640  10.2281790
  78.5272820  45.4755110  14.3112550  78.4842450  45.1048020  15.1927010
  78.6583830  46.4132680  14.4514370  82.2278850  47.0314700   9.9122270
  81.9870210  47.2989260   9.0252790  83.1681490  47.2020430   9.9673130
  84.4333270  33.4947390  13.6678780  84.3722160  34.0869220  14.4174190
  85.3733650  33.3873350  13.5229040  87.0707830  33.1517450  13.3071070
  87.6848240  33.4696740  12.6452150  87.6157390  32.6666040  13.9266930
  77.5929090  31.8311710  13.4210130  78.1412080  31.6499760  12.6576240
  77.6584400  31.0405820  13.9566440  78.3660850  48.4217360  11.4310330
  77.7721170  48.2902060  12.1700370  78.3584690  47.5855500  10.9652430
  87.8115870  31.7149590   9.6340360  86.9375710  32.0484700   9.4313290
  87.7026620  31.2422770  10.4592230  88.7187850  33.9220460  11.0182080
  88.3901210  33.1072220  10.6383810  89.6670150  33.8790270  10.8947770
  91.1722460  49.6932500   7.9919650  90.7125430  50.4448310   7.6177670
  90.5434920  48.9738970   7.9334450  77.9973080  45.7875740  10.3818370
  77.2707140  45.1681030  10.3144320  78.0582230  46.1816350   9.5116450
  81.6018180  48.0020740   7.1667780  82.1183200  47.3908100   6.6416040
  82.2515560  48.5049520   7.6578790  84.3413680  48.8929230   7.9936760
  84.6291490  48.6383530   7.1169770  84.8536900  48.3406590   8.5842330
  85.5590690  32.6319430   8.5733270  84.7762480  33.1064930   8.8530030
  85.2653620  31.7274260   8.4646450  90.1111760  33.3342530   6.6182360
  90.5519850  33.2787630   5.7703960  89.8419350  34.2500540   6.6892540
  76.2803080  49.1050130   3.5915130  76.1125120  48.4720810   4.2897020
  75.4137590  49.3109530   3.2409320  83.4444910  35.0506180   4.0849300
  82.6319420  34.6763070   3.7445180  83.9486550  34.2951260   4.3870490
  87.9469890  31.7148630   5.3232370  88.5499260  32.2868840   5.7980890
  87.2062880  32.2788070   5.1006270  81.4694090  33.2006100   2.6894350
  80.8396830  32.4993410   2.8564480  80.9299230  33.9610230   2.4727510
  84.4086040  49.8145330  15.3604960  85.3353350  49.5789600  15.4040920
  84.3936470  50.6417330  14.8790990  81.5949650  32.4790080  15.1246840
  81.3133920  32.9823680  14.3607660  81.9769350  31.6811830  14.7588970
  88.1965110  31.8943660  15.7027310  88.0830560  32.2138270  16.5978830
  89.0134850  32.2956170  15.4064590  90.9763600  49.0415190  15.1846000
  91.7688920  48.5464420  14.9771960  91.2696750  49.7205330  15.7921610
  87.1023260  21.1392640  79.9379500  87.0217310  20.2247250  79.6671210
  86.6887680  21.6359710  79.2319210  85.2341300  22.9171660  81.8188770
  84.4583400  22.4372100  82.1087340  85.8854230  22.2377310  81.6444930
  79.2507130  23.2291470  82.6964530  78.4192010  22.9740180  83.0961040
  79.8588110  23.3002240  83.4322450  89.2548730  27.3231850  80.5987900
  88.7930260  26.5519090  80.9275070  90.0674280  27.3497920  81.1040350
  79.2308390  27.2631560  82.8922550  79.5336430  26.3729300  82.7132770
  79.9751980  27.8201780  82.6644800  77.6599080  18.1893360  76.4806920
  76.7715780  18.5309330  76.3786800  77.9440270  17.9893680  75.5887750
  75.6232090  20.7899010  82.3646620  76.1948200  20.0221210  82.3650260
  75.6233630  21.0887770  81.4553230  85.4812040  29.6089860  80.2191890
  84.8623480  30.0647360  79.6486330  86.3363820  29.7641320  79.8181590
  84.6750290  25.5928850  81.8258930  84.6058570  24.6518790  81.6648060
  85.4370150  25.6830260  82.3981500  76.8656960  16.1983370  84.1515550
  76.6859800  15.3009120  84.4318310  76.4637040  16.7455240  84.8262500
  85.7055460  18.3999230  82.0527860  86.0820280  17.5271110  81.9401530
  85.6074970  18.7357930  81.1618300  79.8360470  16.7724860  77.5145300
  79.9427220  17.6728590  77.8214060  78.9252830  16.7242830  77.2239950
  89.4879580  15.8949670  78.9856200  90.3089200  15.4046240  79.0281680
  89.5213660  16.4847330  79.7388040  77.4843630  18.6943870  82.7597890
  78.1653740  18.9582240  83.3785290  77.1691680  17.8544740  83.0935900
  81.6768200  19.7411230  81.8470480  82.1846420  20.2392200  82.4875500
  82.2081440  18.9646430  81.6709840  79.9604300  14.3809790  86.1133900
  79.9622740  14.8982180  85.3079800  79.1308610  13.9039970  86.0903830
  86.3475390  24.4929100  77.6123800  85.7292660  24.9578550  77.0486520
  86.8598640  25.1856580  78.0293310  81.2107150  24.0204970  84.2907400
  80.8776530  24.6473890  84.9328470  81.3873830  24.5466850  83.5109070
  89.7241060  17.8350050  81.7583740  89.0196630  18.1234940  82.3386850
  90.0853220  18.6450160  81.3983300  79.6419630  16.0919750  84.1204350
  79.9836440  16.9361800  83.8258220  78.7035440  16.2403490  84.2369690
  80.4226250  25.9885770  86.1056580  81.0400250  26.6636850  85.8241030
  79.5619370  26.3973750  86.0144080  75.7158590  25.1785630  74.9863430
  75.3386570  25.6672730  74.2548330  75.9731660  25.8510910  75.6169960
  91.3403840  27.4525180  84.0211220  90.6567360  28.1224290  84.0127890
  91.8798130  27.6505830  83.2556080  83.3247520  13.5802020  80.4448940
  83.6322500  13.0248910  79.7284440  82.3948220  13.7146480  80.2621930
  88.8762580  29.2969310  82.7356400  88.8889740  28.8931600  81.8678660
  88.3237800  30.0716600  82.6317830  90.1708000  26.0185530  77.8246570
  90.0604330  25.0759860  77.9495990  90.1676250  26.3801170  78.7109330
  88.2748020  24.1999150  84.0639010  88.6916810  23.9859260  83.2292470
  88.9987840  24.4571940  84.6347630  85.7128280  21.6450850  77.1809060
  84.7857560  21.5788230  77.4097530  85.8653100  22.5830980  77.0664300
  85.6997360  17.9167850  74.1776220  84.7601030  18.0781810  74.2628680
  86.0180620  18.6353530  73.6312210  89.7425570  23.2071150  77.6844310
  89.1237990  22.8690700  77.0370610  89.7250020  22.5630910  78.3923500
  89.1852130  19.3855690  85.1010120  88.7723310  20.2109400  85.3550110
  88.4528080  18.8000730  84.9086480  81.3184920  22.1715590  79.9628790
  80.9141920  21.4592840  79.4674690  81.4048040  21.8268830  80.8516830
  81.7866620  25.8583150  82.1268000  81.4894910  25.2528620  81.4475780
  82.7366440  25.8960460  82.0157360  80.0313540  18.9458800  83.7427830
  80.5828130  19.0554140  82.9681080  80.5457050  19.3196400  84.4583060
  89.8752230  29.4315020  85.7891100  89.3982790  30.2387210  85.5963710
  89.1914020  28.7793350  85.9417310  87.9190270  22.4457960  74.6917060
  88.3583550  21.6080390  74.5454880  88.6318690  23.0787360  74.7781200
  86.0285650  27.3854030  78.6598300  86.4681560  28.1278360  78.2453690
  85.9672540  27.6280600  79.5837260  91.5007410  13.7000770  73.0058100
  91.1880070  13.7927600  73.9057170  92.2619880  14.2781800  72.9555530
  78.0189550  21.0660570  77.4635440  77.8987150  21.7922660  76.8516710
  77.7090440  20.2963480  76.9863350  75.6574920  24.2375710  83.2704080
  75.7355340  24.3724480  82.3259800  76.2716600  23.5291600  83.4632200
  76.9022550  25.9375900  79.6810260  76.4950630  26.0790490  78.8263860
  77.7935560  25.6536060  79.4781470  88.6955830  30.3723150  76.0161310
  88.5356970  30.0826090  76.9143140  88.5302540  29.5963280  75.4806540
  81.1744210  30.1521680  77.7932930  80.9986690  29.2357220  77.5800730
  80.3199950  30.5108970  78.0330730  88.3981960  27.8810710  74.5759310
  87.7047120  27.8788000  73.9161590  89.1404820  27.4570030  74.1453480
  87.9631890  29.5073420  78.6507800  88.4188840  28.7262800  78.9646420
  88.3024410  30.2180240  79.1948980  75.7134440  25.2789880  85.8098540
  75.8765480  24.8095240  84.9917910  76.1786890  24.7713440  86.4747380
  80.4853210  14.4095640  80.8459110  80.0421360  15.1905180  80.5143630
  81.0438200  14.7325530  81.5530050  83.6012030  14.0306340  75.7264940
  82.9766210  14.0266210  76.4518250  83.5142150  13.1637300  75.3300910
  82.5229110  14.9542970  82.7048710  82.8201440  15.8605800  82.6240730
  83.0714670  14.4661750  82.0908280  80.2767430  19.5329210  78.5740360
  80.0508350  19.3166380  79.4786980  79.4959960  19.9657670  78.2286330
  87.5065190  19.5392580  77.1731010  86.9074080  20.2628380  76.9894630
  88.0544800  19.4769360  76.3907460  86.1130060  18.1756120  79.2034290
  86.5059630  18.4928320  78.3902980  86.4746910  17.2968000  79.3178810
  75.1494230  14.7656920  81.4264490  74.8607280  15.3359780  82.1389470
  75.8939990  14.2861370  81.7895720  75.3364460  18.7077040  72.6367210
  75.2539130  19.6507800  72.7782200  74.9847520  18.5651950  71.7579560
  86.6985200  20.7661870  83.2985070  85.9666320  21.2748680  83.6475170
  86.3009540  19.9491850  82.9973850  83.1362590  17.4416070  81.7037560
  83.1398650  17.0006020  80.8542100  84.0313710  17.7633400  81.8109380
  78.9864970  17.3242560  80.6631770  78.6465020  17.8017790  81.4198820
  78.2242290  16.8707680  80.3032870  83.1982740  18.4428150  74.6944320
  83.3195560  18.4014630  75.6430140  82.8131250  19.3052300  74.5391050
  87.1611110  16.2195550  82.7108010  87.1783850  16.6704200  83.5549860
  86.9126690  15.3201190  82.9241450  82.2104240  20.7529290  74.0927620
  81.6421140  20.3047540  73.4663530  82.9193240  21.1122070  73.5592770
  83.4370560  21.5017850  83.4502970  83.8040690  21.0276420  84.1964310
  83.2475620  22.3759420  83.7911310  76.3011050  16.2461540  79.5796440
  76.0157970  15.8817210  80.4175060  76.2389910  15.5142000  78.9659580
  81.2269930  20.5426490  85.7687180  80.9227000  21.4218470  85.9937540
  82.1816390  20.6026280  85.8044620  79.7551720  24.7487480  76.3654030
  78.9813980  24.2085100  76.2052750  80.4846350  24.2294090  76.0271790
  90.5139700  23.7452840  82.1580420  91.2338820  24.2408130  81.7676530
  90.3121520  23.0670730  81.5134290  85.9749640  15.1390800  76.3009810
  85.1614250  14.6403970  76.2255120  85.7811590  15.9789050  75.8846160
  88.6898030  19.5110450  74.5971970  89.5777650  19.8227680  74.4223310
  88.6603120  18.6382700  74.2052550  79.7989120  24.4167860  80.0032840
  80.3167790  23.6136120  79.9489730  79.3473140  24.3547000  80.8449670
  84.6858620  25.6834140  75.2760140  85.0274320  26.4276370  74.7803460
  83.8571330  25.9965260  75.6384970  90.9612300  20.8222290  74.0651830
  90.8776020  21.2536510  73.2148270  91.6806490  21.2820640  74.4978650
  91.9899550  27.6764550  76.7933960  91.3475710  27.0220170  77.0677680
  91.6030210  28.0819640  76.0174630  87.5686030  25.0049980  80.6405650
  87.9209850  24.4078110  79.9807020  86.6848360  24.6794210  80.8113900
  83.6549310  25.7647670  78.0476060  84.3420440  26.3116880  78.4283650
  82.8681730  26.3088400  78.0825670  75.7941710  21.3820490  73.5393140
  76.6636560  21.6645290  73.8229060  75.3032030  22.1956360  73.4241950
  82.9576520  22.7693700  77.6601420  83.4139300  23.5798950  77.8861610
  82.6064730  22.4516840  78.4919910  85.2609130  28.2800040  84.8893720
  85.9051350  28.4859420  85.5667140  85.6238570  27.5188440  84.4364570
  78.8588300  13.1131350  78.1323940  78.7302930  13.1049250  79.0808860
  78.0350320  13.4514440  77.7814950  86.5341210  26.2832390  83.6071170
  87.1763440  25.5825550  83.7203340  87.0590560  27.0630830  83.4268060
  90.3796930  26.5681010  73.3310310  90.1534510  25.8511450  73.9234950
  89.9893130  26.3193450  72.4932060  76.1612960  30.5947870  74.1054770
  76.5210600  31.1937210  73.4512040  76.0205300  31.1407760  74.8789800
  89.9613180  24.4852950  74.9924470  89.6734880  24.9465640  75.7802350
  90.7565350  24.0250720  75.2608690  82.1781580  27.9779070  74.9228440
  82.1691680  28.7108760  74.3072950  81.2579940  27.7310650  75.0155400
  77.7788220  23.1993960  75.6675200  77.1716170  23.9392860  75.6770500
  78.2537570  23.2893320  74.8413400  87.3521010  17.3644780  85.3432090
  87.7201830  16.5439990  85.6711660  86.4919210  17.4246670  85.7587740
  90.7183040  16.3201720  76.1519650  90.0896200  16.4247390  75.4377880
  90.2234960  16.5398500  76.9413530  85.1641180  28.0407310  73.5853630
  85.2653160  27.8371300  72.6555610  84.2642920  27.7865590  73.7901410
  82.6867070  18.5987670  77.5677530  81.9783220  19.0674010  78.0091140
  82.9711550  17.9409680  78.2022720  84.3123000  20.0184370  85.5670060
  84.8108250  20.4930190  86.2321910  84.4545950  19.0947890  85.7740090
  86.7182500  15.3238330  79.0073320  86.5950280  15.3424460  78.0582830
  87.6667060  15.3717270  79.1271720  83.8059290  30.5593630  78.2801300
  84.0600790  30.5215020  77.3580670  82.8571770  30.4326960  78.2729550
  80.8902090  16.9072750  74.9428240  81.7392620  17.3442900  74.8768430
  80.5233360  17.2193010  75.7700300  91.5189860  16.2352330  86.4098450
  91.0163460  16.9757730  86.7492260  92.3346520  16.6236330  86.0935240
  89.8111870  21.4785510  79.8559810  88.8702010  21.4935740  80.0307500
  90.1255940  20.6921470  80.3020110  79.7893510  23.1605110  73.4163770
  80.5556780  23.0486470  73.9789200  79.8668200  22.4643080  72.7640540
  78.4840270  20.5930180  74.0996660  78.5643860  19.6457690  74.2114060
  79.3760020  20.9237060  74.2057320  79.2854980  30.7425570  81.2031200
  80.0217460  30.1941030  81.4739770  79.6695900  31.6081580  81.0637190
  76.1700460  26.8099140  77.0772710  75.2440240  27.0520280  77.0678120
  76.6356890  27.6373400  76.9557460  82.3957290  29.9155880  73.0256770
  83.1885900  30.2044710  72.5738560  81.8761640  29.4848050  72.3469250
  91.4487460  29.1426010  74.4493510  91.1628970  28.7291150  73.6347690
  91.2507010  30.0713720  74.3294030  82.9134690  25.1359290  72.8899120
  82.8085330  24.5211640  73.6160500  82.7458910  24.6125180  72.1062130
  86.1537420  24.1979320  73.4941110  85.6047520  24.6448620  74.1383850
  86.7756680  23.6928570  74.0178780  81.8212540  23.1570240  75.3906410
  82.2428960  22.9910110  76.2337800  81.9463380  22.3470470  74.8961550
  84.3340180  22.1807850  72.6383510  84.8545840  21.4656870  72.2724660
  84.9808580  22.8193720  72.9384020  83.2373700  14.6602400  85.3102070
  82.7891000  14.6826660  84.4647620  82.6038900  14.2621420  85.9072370
  83.6433250  23.5556730  85.9314510  84.0621360  24.3989460  85.7590750
  82.7241880  23.6928770  85.7021290  88.3185050  21.8410100  85.8914860
  87.7920270  22.3652720  85.2880000  88.6616390  22.4737490  86.5224590
  80.7171440  19.2303470  72.3364570  80.5160500  18.3670830  72.6977910
  80.5463490  19.1436830  71.3986170  88.1959750  14.0411700  74.8651450
  88.4762040  13.1979600  75.2210870  87.4225480  14.2734810  75.3790200
  79.5154240  16.3304090  72.3242450  79.8180140  16.3371520  71.4161600
  80.2548830  15.9801950  72.8210110  82.7339170  15.2738710  73.3098650
  82.3861170  14.5962700  72.7301100  82.9351940  14.8128220  74.1242040
  84.8988210  30.2619460  74.9285250  85.7939000  30.6004430  74.9504010
  84.9305840  29.5398870  74.3009530  78.5384370  25.6346510  73.1572250
  78.9759240  26.1776180  73.8129830  79.0232100  24.8093460  73.1668590
  75.7530170  28.4235540  80.6092510  76.0833180  27.5556600  80.3771150
  76.1821170  28.6294060  81.4397470  80.3492090  26.7544550  78.2694480
  80.0487630  26.6309520  79.1698390  80.2429580  25.8953140  77.8610210
  76.2420380  29.2906130  83.3474140  75.8051370  29.4706930  84.1798290
  76.8098060  30.0480750  83.2055860  76.0744810  21.8026360  79.7063020
  75.4193650  21.5338000  79.0622720  76.9122760  21.6930840  79.2565000
  90.5634200  25.5175110  85.7327610  89.7494040  25.9472270  85.9953400
  90.9708400  26.1293520  85.1196660  89.0235250  16.5967650  73.9281510
  89.4420130  16.4098630  73.0878170  88.7171310  15.7446700  74.2384440
  77.1120740  22.1878930  84.2466360  77.4793780  22.1006330  85.1262380
  76.5431560  21.4245480  84.1473220  75.2882890  19.0125290  75.6488350
  74.3846970  19.2755490  75.4740010  75.7723510  19.2836460  74.8688310
  91.7975940  19.7349280  80.9264550  92.3213420  19.2411930  80.2954720
  92.3835360  19.8699640  81.6712120  91.9765660  19.8189150  84.4484100
  91.0268370  19.7852690  84.5629090  92.1578670  20.7289260  84.2133870
  77.8310100  18.0690830  73.5582730  78.5401800  17.6474050  73.0730010
  77.1150040  18.1366060  72.9266080  77.4784260  14.1230160  72.5985380
  78.2012390  14.6639100  72.9166600  77.7508780  13.8493580  71.7226920
  91.2875910  18.9922630  76.8656960  91.7835030  18.7593500  77.6505840
  91.0891980  18.1534470  76.4494600  77.1676450  13.3736350  82.5008000
  77.8152640  12.8233730  82.0603160  77.5878290  13.6279500  83.3223810
  91.0628790  13.5677710  85.8577640  91.7001010  14.1811850  86.2236830
  91.2103680  13.6038370  84.9126870  90.6210250  30.2693710  79.2595880
  91.2169320  29.9478280  78.5830300  90.8788400  29.7965530  80.0509150
  76.9208450  13.5292020  85.2433320  76.5723270  13.9855840  86.0091500
  76.5896150  12.6349150  85.3255750  82.2278850  28.2571210  85.0096230
  81.9870210  28.5245770  84.1226750  83.1681490  28.4276940  85.0647090
  87.8115870  12.9406100  84.7314320  86.9375710  13.2741210  84.5287250
  87.7026620  12.4679280  85.5566190  88.7187850  15.1476970  86.1156040
  88.3901210  14.3328730  85.7357770  89.6670150  15.1046780  85.9921730
  91.1722460  30.9189010  83.0893610  90.7125430  31.6704820  82.7151630
  90.5434920  30.1995480  83.0308410  77.9973080  27.0132250  85.4792330
  77.2707140  26.3937540  85.4118280  78.0582230  27.4072860  84.6090410
  81.6018180  29.2277250  82.2641740  82.1183200  28.6164610  81.7390000
  82.2515560  29.7306030  82.7552750  84.3413680  30.1185740  83.0910720
  84.6291490  29.8640040  82.2143730  84.8536900  29.5663100  83.6816290
  85.5590690  13.8575940  83.6707230  84.7762480  14.3321440  83.9503990
  85.2653620  12.9530770  83.5620410  90.1111760  14.5599040  81.7156320
  90.5519850  14.5044140  80.8677920  89.8419350  15.4757050  81.7866500
  76.2803080  30.3306640  78.6889090  76.1125120  29.6977320  79.3870980
  75.4137590  30.5366040  78.3383280  76.9031100  14.1623420  76.1920950
  77.6610460  14.2752300  75.6184980  76.4408270  14.9992620  76.1464380
  83.4444910  16.2762690  79.1823260  82.6319420  15.9019580  78.8419140
  83.9486550  15.5207770  79.4844450  87.9469890  12.9405140  80.4206330
  88.5499260  13.5125350  80.8954850  87.2062880  13.5044580  80.1980230
  91.0904490  13.3426700  75.6946610  91.2855120  14.2410150  75.9614040
  90.3034360  13.1113780  76.1879560  77.8865780  29.0239870  76.1339230
  77.3613400  29.4047900  75.4301190  77.8110360  29.6490640  76.8548940
  79.2756250  14.6887470  74.7322920  79.8049010  13.9017270  74.6030870
  79.9084570  15.3678660  74.9658450  81.4694090  14.4262610  77.7868310
  80.8396830  13.7249920  77.9538440  80.9299230  15.1866740  77.5701470
  80.4858750  30.9722250  75.0088480  81.2177570  30.6881530  74.4612370
  80.7452420  30.7335530  75.8987860  79.6473540  27.0886980  75.0134810
  79.0182420  27.5572080  75.5620640  79.7621370  26.2436200  75.4481000
  87.1023260  21.1392640  61.1636010  87.0217310  20.2247250  60.8927720
  86.6887680  21.6359710  60.4575720  85.2341300  22.9171660  63.0445280
  84.4583400  22.4372100  63.3343850  85.8854230  22.2377310  62.8701440
  79.2507130  23.2291470  63.9221040  78.4192010  22.9740180  64.3217550
  79.8588110  23.3002240  64.6578960  89.2548730  27.3231850  61.8244410
  88.7930260  26.5519090  62.1531580  90.0674280  27.3497920  62.3296860
  79.2308390  27.2631560  64.1179060  79.5336430  26.3729300  63.9389280
  79.9751980  27.8201780  63.8901310  77.6599080  18.1893360  57.7063430
  76.7715780  18.5309330  57.6043310  77.9440270  17.9893680  56.8144260
  75.6232090  20.7899010  63.5903130  76.1948200  20.0221210  63.5906770
  75.6233630  21.0887770  62.6809740  85.4812040  29.6089860  61.4448400
  84.8623480  30.0647360  60.8742840  86.3363820  29.7641320  61.0438100
  84.6750290  25.5928850  63.0515440  84.6058570  24.6518790  62.8904570
  85.4370150  25.6830260  63.6238010  76.8656960  16.1983370  65.3772060
  76.6859800  15.3009120  65.6574820  76.4637040  16.7455240  66.0519010
  85.7055460  18.3999230  63.2784370  86.0820280  17.5271110  63.1658040
  85.6074970  18.7357930  62.3874810  79.8360470  16.7724860  58.7401810
  79.9427220  17.6728590  59.0470570  78.9252830  16.7242830  58.4496460
  89.4879580  15.8949670  60.2112710  90.3089200  15.4046240  60.2538190
  89.5213660  16.4847330  60.9644550  77.4843630  18.6943870  63.9854400
  78.1653740  18.9582240  64.6041800  77.1691680  17.8544740  64.3192410
  81.6768200  19.7411230  63.0726990  82.1846420  20.2392200  63.7132010
  82.2081440  18.9646430  62.8966350  79.9604300  14.3809790  67.3390410
  79.9622740  14.8982180  66.5336310  79.1308610  13.9039970  67.3160340
  86.3475390  24.4929100  58.8380310  85.7292660  24.9578550  58.2743030
  86.8598640  25.1856580  59.2549820  81.2107150  24.0204970  65.5163910
  80.8776530  24.6473890  66.1584980  81.3873830  24.5466850  64.7365580
  89.7241060  17.8350050  62.9840250  89.0196630  18.1234940  63.5643360
  90.0853220  18.6450160  62.6239810  79.6419630  16.0919750  65.3460860
  79.9836440  16.9361800  65.0514730  78.7035440  16.2403490  65.4626200
  80.4226250  25.9885770  67.3313090  81.0400250  26.6636850  67.0497540
  79.5619370  26.3973750  67.2400590  75.7158590  25.1785630  56.2119940
  75.3386570  25.6672730  55.4804840  75.9731660  25.8510910  56.8426470
  91.3403840  27.4525180  65.2467730  90.6567360  28.1224290  65.2384400
  91.8798130  27.6505830  64.4812590  83.3247520  13.5802020  61.6705450
  83.6322500  13.0248910  60.9540950  82.3948220  13.7146480  61.4878440
  88.8762580  29.2969310  63.9612910  88.8889740  28.8931600  63.0935170
  88.3237800  30.0716600  63.8574340  90.1708000  26.0185530  59.0503080
  90.0604330  25.0759860  59.1752500  90.1676250  26.3801170  59.9365840
  88.2748020  24.1999150  65.2895520  88.6916810  23.9859260  64.4548980
  88.9987840  24.4571940  65.8604140  85.7128280  21.6450850  58.4065570
  84.7857560  21.5788230  58.6354040  85.8653100  22.5830980  58.2920810
  85.6997360  17.9167850  55.4032730  84.7601030  18.0781810  55.4885190
  86.0180620  18.6353530  54.8568720  89.7425570  23.2071150  58.9100820
  89.1237990  22.8690700  58.2627120  89.7250020  22.5630910  59.6180010
  89.1852130  19.3855690  66.3266630  88.7723310  20.2109400  66.5806620
  88.4528080  18.8000730  66.1342990  81.3184920  22.1715590  61.1885300
  80.9141920  21.4592840  60.6931200  81.4048040  21.8268830  62.0773340
  81.7866620  25.8583150  63.3524510  81.4894910  25.2528620  62.6732290
  82.7366440  25.8960460  63.2413870  80.0313540  18.9458800  64.9684340
  80.5828130  19.0554140  64.1937590  80.5457050  19.3196400  65.6839570
  89.8752230  29.4315020  67.0147610  89.3982790  30.2387210  66.8220220
  89.1914020  28.7793350  67.1673820  80.8785050  25.5964840  70.0032310
  79.9813580  25.8204810  70.2505710  80.9037920  25.7199780  69.0543710
  87.9190270  22.4457960  55.9173570  88.3583550  21.6080390  55.7711390
  88.6318690  23.0787360  56.0037710  79.7056270  22.4678160  68.5789680
  79.5664040  23.3400960  68.9477080  78.8237630  22.1250970  68.4337620
  86.0285650  27.3854030  59.8854810  86.4681560  28.1278360  59.4710200
  85.9672540  27.6280600  60.8093770  81.5036620  28.4099860  70.7874830
  81.4752050  28.8142810  69.9203260  81.3401590  27.4810220  70.6246430
  91.5007410  13.7000770  54.2314610  91.1880070  13.7927600  55.1313680
  92.2619880  14.2781800  54.1812040  78.0189550  21.0660570  58.6891950
  77.8987150  21.7922660  58.0773220  77.7090440  20.2963480  58.2119860
  75.6574920  24.2375710  64.4960590  75.7355340  24.3724480  63.5516310
  76.2716600  23.5291600  64.6888710  76.9022550  25.9375900  60.9066770
  76.4950630  26.0790490  60.0520370  77.7935560  25.6536060  60.7037980
  86.7201430  30.0867810  67.8133820  87.2346100  29.9975820  68.6156250
  85.8770510  30.4327510  68.1061730  88.6955830  30.3723150  57.2417820
  88.5356970  30.0826090  58.1399650  88.5302540  29.5963280  56.7063050
  81.1744210  30.1521680  59.0189440  80.9986690  29.2357220  58.8057240
  80.3199950  30.5108970  59.2587240  88.3981960  27.8810710  55.8015820
  87.7047120  27.8788000  55.1418100  89.1404820  27.4570030  55.3709990
  87.9631890  29.5073420  59.8764310  88.4188840  28.7262800  60.1902930
  88.3024410  30.2180240  60.4205490  75.7134440  25.2789880  67.0355050
  75.8765480  24.8095240  66.2174420  76.1786890  24.7713440  67.7003890
  80.4853210  14.4095640  62.0715620  80.0421360  15.1905180  61.7400140
  81.0438200  14.7325530  62.7786560  84.7723020  17.2764160  67.6750940
  84.3102390  17.4847180  68.4870880  84.3701130  16.4623510  67.3721610
  89.7727530  18.4973110  68.8047600  88.9221120  18.1978860  69.1256670
  89.6129320  18.7415120  67.8931420  86.8677240  19.9974860  70.9046390
  87.1930650  19.1638610  70.5648620  87.6557570  20.5203380  71.0524720
  83.6012030  14.0306340  56.9521450  82.9766210  14.0266210  57.6774760
  83.5142150  13.1637300  56.5557420  82.5229110  14.9542970  63.9305220
  82.8201440  15.8605800  63.8497240  83.0714670  14.4661750  63.3164790
  80.2767430  19.5329210  59.7996870  80.0508350  19.3166380  60.7043490
  79.4959960  19.9657670  59.4542840  87.5065190  19.5392580  58.3987520
  86.9074080  20.2628380  58.2151140  88.0544800  19.4769360  57.6163970
  82.7166640  20.4314790  70.4657140  82.6210240  19.4909520  70.3157540
  83.5598620  20.6529860  70.0705210  86.1130060  18.1756120  60.4290800
  86.5059630  18.4928320  59.6159490  86.4746910  17.2968000  60.5435320
  77.8477180  16.8428460  68.6190920  77.4540570  17.6903670  68.8263700
  77.1595580  16.2054830  68.8099560  84.4222230  16.9263430  71.6887660
  83.7320550  16.7335630  72.3233750  85.1654530  17.2098070  72.2211960
  75.1494230  14.7656920  62.6521000  74.8607280  15.3359780  63.3645980
  75.8939990  14.2861370  63.0152230  75.3364460  18.7077040  53.8623720
  75.2539130  19.6507800  54.0038710  74.9847520  18.5651950  52.9836070
  86.6985200  20.7661870  64.5241580  85.9666320  21.2748680  64.8731680
  86.3009540  19.9491850  64.2230360  83.1362590  17.4416070  62.9294070
  83.1398650  17.0006020  62.0798610  84.0313710  17.7633400  63.0365890
  78.9864970  17.3242560  61.8888280  78.6465020  17.8017790  62.6455330
  78.2242290  16.8707680  61.5289380  83.1982740  18.4428150  55.9200830
  83.3195560  18.4014630  56.8686650  82.8131250  19.3052300  55.7647560
  87.1611110  16.2195550  63.9364520  87.1783850  16.6704200  64.7806370
  86.9126690  15.3201190  64.1497960  82.2104240  20.7529290  55.3184130
  81.6421140  20.3047540  54.6920040  82.9193240  21.1122070  54.7849280
  90.5881860  13.6327730  69.7750900  90.9127630  12.9017390  70.3008880
  90.6238370  13.3141370  68.8731890  77.2873420  24.6541310  69.1950860
  76.9028210  24.0134980  69.7933820  77.5985610  25.3577430  69.7645590
  83.4370560  21.5017850  64.6759480  83.8040690  21.0276420  65.4220820
  83.2475620  22.3759420  65.0167820  76.3011050  16.2461540  60.8052950
  76.0157970  15.8817210  61.6431570  76.2389910  15.5142000  60.1916090
  81.2269930  20.5426490  66.9943690  80.9227000  21.4218470  67.2194050
  82.1816390  20.6026280  67.0301130  79.7551720  24.7487480  57.5910540
  78.9813980  24.2085100  57.4309260  80.4846350  24.2294090  57.2528300
  90.5139700  23.7452840  63.3836930  91.2338820  24.2408130  62.9933040
  90.3121520  23.0670730  62.7390800  85.9749640  15.1390800  57.5266320
  85.1614250  14.6403970  57.4511630  85.7811590  15.9789050  57.1102670
  85.8958500  23.8161900  69.2705930  85.8295810  22.8957570  69.0163520
  85.2663640  23.9137340  69.9850570  88.6898030  19.5110450  55.8228480
  89.5777650  19.8227680  55.6479820  88.6603120  18.6382700  55.4309060
  79.7989120  24.4167860  61.2289350  80.3167790  23.6136120  61.1746240
  79.3473140  24.3547000  62.0706180  84.6858620  25.6834140  56.5016650
  85.0274320  26.4276370  56.0059970  83.8571330  25.9965260  56.8641480
  77.2833660  21.3829230  68.1415050  76.9248600  22.0483080  68.7288390
  76.9888220  20.5512780  68.5127670  80.4846780  21.8413470  71.0254600
  80.1846920  21.9870650  70.1282420  81.2558020  21.2818760  70.9327990
  85.8275230  26.6382470  69.0209730  85.8419770  25.7063430  68.8028640
  85.1200330  26.7242230  69.6599500  90.9612300  20.8222290  55.2908340
  90.8776020  21.2536510  54.4404780  91.6806490  21.2820640  55.7235160
  91.9899550  27.6764550  58.0190470  91.3475710  27.0220170  58.2934190
  91.6030210  28.0819640  57.2431140  87.5686030  25.0049980  61.8662160
  87.9209850  24.4078110  61.2063530  86.6848360  24.6794210  62.0370410
  83.6549310  25.7647670  59.2732570  84.3420440  26.3116880  59.6540160
  82.8681730  26.3088400  59.3082180  75.7941710  21.3820490  54.7649650
  76.6636560  21.6645290  55.0485570  75.3032030  22.1956360  54.6498460
  82.9576520  22.7693700  58.8857930  83.4139300  23.5798950  59.1118120
  82.6064730  22.4516840  59.7176420  85.2609130  28.2800040  66.1150230
  85.9051350  28.4859420  66.7923650  85.6238570  27.5188440  65.6621080
  78.8588300  13.1131350  59.3580450  78.7302930  13.1049250  60.3065370
  78.0350320  13.4514440  59.0071460  86.5341210  26.2832390  64.8327680
  87.1763440  25.5825550  64.9459850  87.0590560  27.0630830  64.6524570
  90.3796930  26.5681010  54.5566820  90.1534510  25.8511450  55.1491460
  89.9893130  26.3193450  53.7188570  88.3078830  27.0827290  68.0363740
  88.6435070  27.6693980  68.7141660  87.3879170  26.9520000  68.2661530
  76.1612960  30.5947870  55.3311280  76.5210600  31.1937210  54.6768550
  76.0205300  31.1407760  56.1046310  75.8582230  14.8722470  68.8187150
  75.1440750  15.0719390  69.4239760  76.2777270  14.0962040  69.1901950
  89.9613180  24.4852950  56.2180980  89.6734880  24.9465640  57.0058860
  90.7565350  24.0250720  56.4865200  76.1454820  28.8602730  69.8053680
  76.2545940  27.9197470  69.6649070  75.4935380  29.1257480  69.1567410
  84.1367410  27.1318620  71.2051800  83.8164280  26.4127860  71.7497490
  83.4625770  27.8073690  71.2787860  82.1781580  27.9779070  56.1484950
  82.1691680  28.7108760  55.5329460  81.2579940  27.7310650  56.2411910
  77.7788220  23.1993960  56.8931710  77.1716170  23.9392860  56.9027010
  78.2537570  23.2893320  56.0669910  87.3521010  17.3644780  66.5688600
  87.7201830  16.5439990  66.8968170  86.4919210  17.4246670  66.9844250
  90.7183040  16.3201720  57.3776160  90.0896200  16.4247390  56.6634390
  90.2234960  16.5398500  58.1670040  85.1641180  28.0407310  54.8110140
  85.2653160  27.8371300  53.8812120  84.2642920  27.7865590  55.0157920
  82.6867070  18.5987670  58.7934040  81.9783220  19.0674010  59.2347650
  82.9711550  17.9409680  59.4279230  84.3123000  20.0184370  66.7926570
  84.8108250  20.4930190  67.4578420  84.4545950  19.0947890  66.9996600
  86.7182500  15.3238330  60.2329830  86.5950280  15.3424460  59.2839340
  87.6667060  15.3717270  60.3528230  83.8059290  30.5593630  59.5057810
  84.0600790  30.5215020  58.5837180  82.8571770  30.4326960  59.4986060
  80.8902090  16.9072750  56.1684750  81.7392620  17.3442900  56.1024940
  80.5233360  17.2193010  56.9956810  91.5189860  16.2352330  67.6354960
  91.0163460  16.9757730  67.9748770  92.3346520  16.6236330  67.3191750
  89.8111870  21.4785510  61.0816320  88.8702010  21.4935740  61.2564010
  90.1255940  20.6921470  61.5276620  79.7893510  23.1605110  54.6420280
  80.5556780  23.0486470  55.2045710  79.8668200  22.4643080  53.9897050
  78.4840270  20.5930180  55.3253170  78.5643860  19.6457690  55.4370570
  79.3760020  20.9237060  55.4313830  79.2854980  30.7425570  62.4287710
  80.0217460  30.1941030  62.6996280  79.6695900  31.6081580  62.2893700
  76.1700460  26.8099140  58.3029220  75.2440240  27.0520280  58.2934630
  76.6356890  27.6373400  58.1813970  78.2913260  29.9271640  71.6173290
  79.0925990  30.2483690  72.0308690  77.7765080  29.5667220  72.3393200
  82.3957290  29.9155880  54.2513280  83.1885900  30.2044710  53.7995070
  81.8761640  29.4848050  53.5725760  87.1277890  26.0351510  71.5648700
  86.5216050  26.0583110  70.8244450  86.8232000  25.3034550  72.1015950
  88.5578260  29.7631800  70.1758110  89.5100010  29.6789820  70.1258350
  88.4106480  30.4273510  70.8491900  91.4487460  29.1426010  55.6750020
  91.1628970  28.7291150  54.8604200  91.2507010  30.0713720  55.5550540
  76.0111070  22.4145100  70.5609340  76.5150090  21.8352380  71.1325570
  75.2718490  22.6985330  71.0985710  82.9134690  25.1359290  54.1155630
  82.8085330  24.5211640  54.8417010  82.7458910  24.6125180  53.3318640
  83.0649010  23.8216090  70.0944860  82.2994680  24.3901090  70.0099530
  83.2464970  23.5292300  69.2013090  86.1537420  24.1979320  54.7197620
  85.6047520  24.6448620  55.3640360  86.7756680  23.6928570  55.2435290
  90.2072360  25.5521420  70.6519880  90.9481830  25.8897180  70.1487340
  89.4445040  25.7213480  70.0989650  78.0434150  20.5574690  71.4559410
  78.0839490  20.2588560  72.3644640  78.8979650  20.9582300  71.2966930
  81.8212540  23.1570240  56.6162920  82.2428960  22.9910110  57.4594310
  81.9463380  22.3470470  56.1218060  79.9839960  19.1366790  69.4233900
  79.4536420  18.6457740  68.7957240  80.6528030  19.5650990  68.8891830
  84.3340180  22.1807850  53.8640020  84.8545840  21.4656870  53.4981170
  84.9808580  22.8193720  54.1640530  88.8818020  23.6036250  69.1875090
  89.2959040  23.7581330  70.0365510  87.9469020  23.7291470  69.3500870
  89.3540190  20.9432410  71.1914240  89.9360960  20.1884730  71.1034720
  89.5301960  21.4739850  70.4145720  80.4712260  16.1029160  69.5031190
  80.3769130  15.4849910  68.7782060  79.8909650  16.8295450  69.2761100
  83.2373700  14.6602400  66.5358580  82.7891000  14.6826660  65.6904130
  82.6038900  14.2621420  67.1328880  83.6433250  23.5556730  67.1571020
  84.0621360  24.3989460  66.9847260  82.7241880  23.6928770  66.9277800
  85.9797150  21.2872910  68.5408860  86.0993360  20.6914050  69.2803700
  86.8391150  21.3242600  68.1210160  88.3185050  21.8410100  67.1171370
  87.7920270  22.3652720  66.5136510  88.6616390  22.4737490  67.7481100
  80.7171440  19.2303470  53.5621080  80.5160500  18.3670830  53.9234420
  80.5463490  19.1436830  52.6242680  81.4940670  29.8609740  68.2728750
  80.9561760  30.5855800  67.9537450  81.7474630  29.3840080  67.4826090
  82.7465920  17.8294260  69.7984680  83.3365610  17.5210110  70.4862500
  81.9286160  17.3574010  69.9544580  87.5659350  17.4460070  70.0317700
  86.8774870  16.7841610  69.9667690  88.2865370  16.9998340  70.4766160
  88.1959750  14.0411700  56.0907960  88.4762040  13.1979600  56.4467380
  87.4225480  14.2734810  56.6046710  79.5154240  16.3304090  53.5498960
  79.8180140  16.3371520  52.6418110  80.2548830  15.9801950  54.0466620
  84.3502880  31.0960950  68.5315400  84.2761580  31.9996090  68.8387770
  83.4481720  30.7772850  68.5037470  82.7339170  15.2738710  54.5355160
  82.3861170  14.5962700  53.9557610  82.9351940  14.8128220  55.3498550
  84.8988210  30.2619460  56.1541760  85.7939000  30.6004430  56.1760520
  84.9305840  29.5398870  55.5266040  78.5384370  25.6346510  54.3828760
  78.9759240  26.1776180  55.0386340  79.0232100  24.8093460  54.3925100
  75.7530170  28.4235540  61.8349020  76.0833180  27.5556600  61.6027660
  76.1821170  28.6294060  62.6653980  80.3492090  26.7544550  59.4950990
  80.0487630  26.6309520  60.3954900  80.2429580  25.8953140  59.0866720
  76.2420380  29.2906130  64.5730650  75.8051370  29.4706930  65.4054800
  76.8098060  30.0480750  64.4312370  91.8782560  28.7923130  68.8607960
  91.2784550  28.8515690  68.1171880  92.0076460  27.8528110  68.9904810
  76.0744810  21.8026360  60.9319530  75.4193650  21.5338000  60.2879230
  76.9122760  21.6930840  60.4821510  90.5634200  25.5175110  66.9584120
  89.7494040  25.9472270  67.2209910  90.9708400  26.1293520  66.3453170
  89.0235250  16.5967650  55.1538020  89.4420130  16.4098630  54.3134680
  88.7171310  15.7446700  55.4640950  77.1120740  22.1878930  65.4722870
  77.4793780  22.1006330  66.3518890  76.5431560  21.4245480  65.3729730
  91.9124600  20.6563310  68.4853340  91.6810690  20.4276060  67.5851290
  92.1729150  21.5762860  68.4398230  76.6636740  19.0988020  69.3781290
  75.7692790  19.0654780  69.7175000  77.2034290  19.2974810  70.1432540
  90.3512670  15.8819740  71.2633040  91.2282850  15.8903140  71.6467040
  90.3633510  15.1450580  70.6525390  75.2882890  19.0125290  56.8744860
  74.3846970  19.2755490  56.6996520  75.7723510  19.2836460  56.0944820
  91.7975940  19.7349280  62.1521060  92.3213420  19.2411930  61.5211230
  92.3835360  19.8699640  62.8968630  91.9765660  19.8189150  65.6740610
  91.0268370  19.7852690  65.7885600  92.1578670  20.7289260  65.4390380
  77.8310100  18.0690830  54.7839240  78.5401800  17.6474050  54.2986520
  77.1150040  18.1366060  54.1522590  77.4784260  14.1230160  53.8241890
  78.2012390  14.6639100  54.1423110  77.7508780  13.8493580  52.9483430
  91.2875910  18.9922630  58.0913470  91.7835030  18.7593500  58.8762350
  91.0891980  18.1534470  57.6751110  77.1676450  13.3736350  63.7264510
  77.8152640  12.8233730  63.2859670  77.5878290  13.6279500  64.5480320
  91.0628790  13.5677710  67.0834150  91.7001010  14.1811850  67.4493340
  91.2103680  13.6038370  66.1383380  90.6210250  30.2693710  60.4852390
  91.2169320  29.9478280  59.8086810  90.8788400  29.7965530  61.2765660
  76.9208450  13.5292020  66.4689830  76.5723270  13.9855840  67.2348010
  76.5896150  12.6349150  66.5512260  78.5272820  26.7011620  70.6343020
  78.4842450  26.3304530  71.5157480  78.6583830  27.6389190  70.7744840
  82.2278850  28.2571210  66.2352740  81.9870210  28.5245770  65.3483260
  83.1681490  28.4276940  66.2903600  84.4333270  14.7203900  69.9909250
  84.3722160  15.3125730  70.7404660  85.3733650  14.6129860  69.8459510
  87.0707830  14.3773960  69.6301540  87.6848240  14.6953250  68.9682620
  87.6157390  13.8922550  70.2497400  77.5929090  13.0568220  69.7440600
  78.1412080  12.8756270  68.9806710  77.6584400  12.2662330  70.2796910
  78.3660850  29.6473870  67.7540800  77.7721170  29.5158570  68.4930840
  78.3584690  28.8112010  67.2882900  87.8115870  12.9406100  65.9570830
  86.9375710  13.2741210  65.7543760  87.7026620  12.4679280  66.7822700
  88.7187850  15.1476970  67.3412550  88.3901210  14.3328730  66.9614280
  89.6670150  15.1046780  67.2178240  91.1722460  30.9189010  64.3150120
  90.7125430  31.6704820  63.9408140  90.5434920  30.1995480  64.2564920
  77.9973080  27.0132250  66.7048840  77.2707140  26.3937540  66.6374790
  78.0582230  27.4072860  65.8346920  81.6018180  29.2277250  63.4898250
  82.1183200  28.6164610  62.9646510  82.2515560  29.7306030  63.9809260
  84.3413680  30.1185740  64.3167230  84.6291490  29.8640040  63.4400240
  84.8536900  29.5663100  64.9072800  85.5590690  13.8575940  64.8963740
  84.7762480  14.3321440  65.1760500  85.2653620  12.9530770  64.7876920
  90.1111760  14.5599040  62.9412830  90.5519850  14.5044140  62.0934430
  89.8419350  15.4757050  63.0123010  76.2803080  30.3306640  59.9145600
  76.1125120  29.6977320  60.6127490  75.4137590  30.5366040  59.5639790
  76.9031100  14.1623420  57.4177460  77.6610460  14.2752300  56.8441490
  76.4408270  14.9992620  57.3720890  83.4444910  16.2762690  60.4079770
  82.6319420  15.9019580  60.0675650  83.9486550  15.5207770  60.7100960
  87.9469890  12.9405140  61.6462840  88.5499260  13.5125350  62.1211360
  87.2062880  13.5044580  61.4236740  91.0904490  13.3426700  56.9203120
  91.2855120  14.2410150  57.1870550  90.3034360  13.1113780  57.4136070
  77.8865780  29.0239870  57.3595740  77.3613400  29.4047900  56.6557700
  77.8110360  29.6490640  58.0805450  79.2756250  14.6887470  55.9579430
  79.8049010  13.9017270  55.8287380  79.9084570  15.3678660  56.1914960
  81.4694090  14.4262610  59.0124820  80.8396830  13.7249920  59.1794950
  80.9299230  15.1866740  58.7957980  84.4086040  31.0401840  71.6835430
  85.3353350  30.8046110  71.7271390  84.3936470  31.8673840  71.2021460
  81.5949650  13.7046590  71.4477310  81.3133920  14.2080190  70.6838130
  81.9769350  12.9068340  71.0819440  80.4858750  30.9722250  56.2344990
  81.2177570  30.6881530  55.6868880  80.7452420  30.7335530  57.1244370
  79.6473540  27.0886980  56.2391320  79.0182420  27.5572080  56.7877150
  79.7621370  26.2436200  56.6737510  88.1965110  13.1200170  72.0257780
  88.0830560  13.4394780  72.9209300  89.0134850  13.5212680  71.7295060
  90.9763600  30.2671700  71.5076470  91.7688920  29.7720930  71.3002430
  91.2696750  30.9461840  72.1152080  87.1023260  21.1392640  42.3892520
  87.0217310  20.2247250  42.1184230  86.6887680  21.6359710  41.6832230
  85.2341300  22.9171660  44.2701790  84.4583400  22.4372100  44.5600360
  85.8854230  22.2377310  44.0957950  79.2507130  23.2291470  45.1477550
  78.4192010  22.9740180  45.5474060  79.8588110  23.3002240  45.8835470
  89.2548730  27.3231850  43.0500920  88.7930260  26.5519090  43.3788090
  90.0674280  27.3497920  43.5553370  79.2308390  27.2631560  45.3435570
  79.5336430  26.3729300  45.1645790  79.9751980  27.8201780  45.1157820
  77.6599080  18.1893360  38.9319940  76.7715780  18.5309330  38.8299820
  77.9440270  17.9893680  38.0400770  75.6232090  20.7899010  44.8159640
  76.1948200  20.0221210  44.8163280  75.6233630  21.0887770  43.9066250
  85.4812040  29.6089860  42.6704910  84.8623480  30.0647360  42.0999350
  86.3363820  29.7641320  42.2694610  84.6750290  25.5928850  44.2771950
  84.6058570  24.6518790  44.1161080  85.4370150  25.6830260  44.8494520
  76.8656960  16.1983370  46.6028570  76.6859800  15.3009120  46.8831330
  76.4637040  16.7455240  47.2775520  85.7055460  18.3999230  44.5040880
  86.0820280  17.5271110  44.3914550  85.6074970  18.7357930  43.6131320
  79.8360470  16.7724860  39.9658320  79.9427220  17.6728590  40.2727080
  78.9252830  16.7242830  39.6752970  89.4879580  15.8949670  41.4369220
  90.3089200  15.4046240  41.4794700  89.5213660  16.4847330  42.1901060
  77.4843630  18.6943870  45.2110910  78.1653740  18.9582240  45.8298310
  77.1691680  17.8544740  45.5448920  81.6768200  19.7411230  44.2983500
  82.1846420  20.2392200  44.9388520  82.2081440  18.9646430  44.1222860
  79.9604300  14.3809790  48.5646920  79.9622740  14.8982180  47.7592820
  79.1308610  13.9039970  48.5416850  86.3475390  24.4929100  40.0636820
  85.7292660  24.9578550  39.4999540  86.8598640  25.1856580  40.4806330
  81.2107150  24.0204970  46.7420420  80.8776530  24.6473890  47.3841490
  81.3873830  24.5466850  45.9622090  89.7241060  17.8350050  44.2096760
  89.0196630  18.1234940  44.7899870  90.0853220  18.6450160  43.8496320
  79.6419630  16.0919750  46.5717370  79.9836440  16.9361800  46.2771240
  78.7035440  16.2403490  46.6882710  80.4226250  25.9885770  48.5569600
  81.0400250  26.6636850  48.2754050  79.5619370  26.3973750  48.4657100
  75.7158590  25.1785630  37.4376450  75.3386570  25.6672730  36.7061350
  75.9731660  25.8510910  38.0682980  91.3403840  27.4525180  46.4724240
  90.6567360  28.1224290  46.4640910  91.8798130  27.6505830  45.7069100
  83.3247520  13.5802020  42.8961960  83.6322500  13.0248910  42.1797460
  82.3948220  13.7146480  42.7134950  88.8762580  29.2969310  45.1869420
  88.8889740  28.8931600  44.3191680  88.3237800  30.0716600  45.0830850
  90.1708000  26.0185530  40.2759590  90.0604330  25.0759860  40.4009010
  90.1676250  26.3801170  41.1622350  88.2748020  24.1999150  46.5152030
  88.6916810  23.9859260  45.6805490  88.9987840  24.4571940  47.0860650
  85.7128280  21.6450850  39.6322080  84.7857560  21.5788230  39.8610550
  85.8653100  22.5830980  39.5177320  85.6997360  17.9167850  36.6289240
  84.7601030  18.0781810  36.7141700  86.0180620  18.6353530  36.0825230
  89.7425570  23.2071150  40.1357330  89.1237990  22.8690700  39.4883630
  89.7250020  22.5630910  40.8436520  89.1852130  19.3855690  47.5523140
  88.7723310  20.2109400  47.8063130  88.4528080  18.8000730  47.3599500
  81.3184920  22.1715590  42.4141810  80.9141920  21.4592840  41.9187710
  81.4048040  21.8268830  43.3029850  81.7866620  25.8583150  44.5781020
  81.4894910  25.2528620  43.8988800  82.7366440  25.8960460  44.4670380
  80.0313540  18.9458800  46.1940850  80.5828130  19.0554140  45.4194100
  80.5457050  19.3196400  46.9096080  89.8752230  29.4315020  48.2404120
  89.3982790  30.2387210  48.0476730  89.1914020  28.7793350  48.3930330
  80.8785050  25.5964840  51.2288820  79.9813580  25.8204810  51.4762220
  80.9037920  25.7199780  50.2800220  87.9190270  22.4457960  37.1430080
  88.3583550  21.6080390  36.9967900  88.6318690  23.0787360  37.2294220
  79.7056270  22.4678160  49.8046190  79.5664040  23.3400960  50.1733590
  78.8237630  22.1250970  49.6594130  86.0285650  27.3854030  41.1111320
  86.4681560  28.1278360  40.6966710  85.9672540  27.6280600  42.0350280
  81.5036620  28.4099860  52.0131340  81.4752050  28.8142810  51.1459770
  81.3401590  27.4810220  51.8502940  91.5007410  13.7000770  35.4571120
  91.1880070  13.7927600  36.3570190  92.2619880  14.2781800  35.4068550
  78.0189550  21.0660570  39.9148460  77.8987150  21.7922660  39.3029730
  77.7090440  20.2963480  39.4376370  75.6574920  24.2375710  45.7217100
  75.7355340  24.3724480  44.7772820  76.2716600  23.5291600  45.9145220
  76.9022550  25.9375900  42.1323280  76.4950630  26.0790490  41.2776880
  77.7935560  25.6536060  41.9294490  86.7201430  30.0867810  49.0390330
  87.2346100  29.9975820  49.8412760  85.8770510  30.4327510  49.3318240
  88.6955830  30.3723150  38.4674330  88.5356970  30.0826090  39.3656160
  88.5302540  29.5963280  37.9319560  81.1744210  30.1521680  40.2445950
  80.9986690  29.2357220  40.0313750  80.3199950  30.5108970  40.4843750
  88.3981960  27.8810710  37.0272330  87.7047120  27.8788000  36.3674610
  89.1404820  27.4570030  36.5966500  87.9631890  29.5073420  41.1020820
  88.4188840  28.7262800  41.4159440  88.3024410  30.2180240  41.6462000
  75.7134440  25.2789880  48.2611560  75.8765480  24.8095240  47.4430930
  76.1786890  24.7713440  48.9260400  80.4853210  14.4095640  43.2972130
  80.0421360  15.1905180  42.9656650  81.0438200  14.7325530  44.0043070
  84.7723020  17.2764160  48.9007450  84.3102390  17.4847180  49.7127390
  84.3701130  16.4623510  48.5978120  89.7727530  18.4973110  50.0304110
  88.9221120  18.1978860  50.3513180  89.6129320  18.7415120  49.1187930
  86.8677240  19.9974860  52.1302900  87.1930650  19.1638610  51.7905130
  87.6557570  20.5203380  52.2781230  83.6012030  14.0306340  38.1777960
  82.9766210  14.0266210  38.9031270  83.5142150  13.1637300  37.7813930
  82.5229110  14.9542970  45.1561730  82.8201440  15.8605800  45.0753750
  83.0714670  14.4661750  44.5421300  80.2767430  19.5329210  41.0253380
  80.0508350  19.3166380  41.9300000  79.4959960  19.9657670  40.6799350
  87.5065190  19.5392580  39.6244030  86.9074080  20.2628380  39.4407650
  88.0544800  19.4769360  38.8420480  82.7166640  20.4314790  51.6913650
  82.6210240  19.4909520  51.5414050  83.5598620  20.6529860  51.2961720
  86.1130060  18.1756120  41.6547310  86.5059630  18.4928320  40.8416000
  86.4746910  17.2968000  41.7691830  77.8477180  16.8428460  49.8447430
  77.4540570  17.6903670  50.0520210  77.1595580  16.2054830  50.0356070
  84.4222230  16.9263430  52.9144170  83.7320550  16.7335630  53.5490260
  85.1654530  17.2098070  53.4468470  75.1494230  14.7656920  43.8777510
  74.8607280  15.3359780  44.5902490  75.8939990  14.2861370  44.2408740
  75.3364460  18.7077040  35.0880230  75.2539130  19.6507800  35.2295220
  74.9847520  18.5651950  34.2092580  86.6985200  20.7661870  45.7498090
  85.9666320  21.2748680  46.0988190  86.3009540  19.9491850  45.4486870
  83.1362590  17.4416070  44.1550580  83.1398650  17.0006020  43.3055120
  84.0313710  17.7633400  44.2622400  78.9864970  17.3242560  43.1144790
  78.6465020  17.8017790  43.8711840  78.2242290  16.8707680  42.7545890
  83.1982740  18.4428150  37.1457340  83.3195560  18.4014630  38.0943160
  82.8131250  19.3052300  36.9904070  87.1611110  16.2195550  45.1621030
  87.1783850  16.6704200  46.0062880  86.9126690  15.3201190  45.3754470
  82.2104240  20.7529290  36.5440640  81.6421140  20.3047540  35.9176550
  82.9193240  21.1122070  36.0105790  90.5881860  13.6327730  51.0007410
  90.9127630  12.9017390  51.5265390  90.6238370  13.3141370  50.0988400
  77.2873420  24.6541310  50.4207370  76.9028210  24.0134980  51.0190330
  77.5985610  25.3577430  50.9902100  83.4370560  21.5017850  45.9015990
  83.8040690  21.0276420  46.6477330  83.2475620  22.3759420  46.2424330
  76.3011050  16.2461540  42.0309460  76.0157970  15.8817210  42.8688080
  76.2389910  15.5142000  41.4172600  81.2269930  20.5426490  48.2200200
  80.9227000  21.4218470  48.4450560  82.1816390  20.6026280  48.2557640
  79.7551720  24.7487480  38.8167050  78.9813980  24.2085100  38.6565770
  80.4846350  24.2294090  38.4784810  90.5139700  23.7452840  44.6093440
  91.2338820  24.2408130  44.2189550  90.3121520  23.0670730  43.9647310
  85.9749640  15.1390800  38.7522830  85.1614250  14.6403970  38.6768140
  85.7811590  15.9789050  38.3359180  85.8958500  23.8161900  50.4962440
  85.8295810  22.8957570  50.2420030  85.2663640  23.9137340  51.2107080
  88.6898030  19.5110450  37.0484990  89.5777650  19.8227680  36.8736330
  88.6603120  18.6382700  36.6565570  79.7989120  24.4167860  42.4545860
  80.3167790  23.6136120  42.4002750  79.3473140  24.3547000  43.2962690
  84.6858620  25.6834140  37.7273160  85.0274320  26.4276370  37.2316480
  83.8571330  25.9965260  38.0897990  77.2833660  21.3829230  49.3671560
  76.9248600  22.0483080  49.9544900  76.9888220  20.5512780  49.7384180
  80.4846780  21.8413470  52.2511110  80.1846920  21.9870650  51.3538930
  81.2558020  21.2818760  52.1584500  85.8275230  26.6382470  50.2466240
  85.8419770  25.7063430  50.0285150  85.1200330  26.7242230  50.8856010
  90.9612300  20.8222290  36.5164850  90.8776020  21.2536510  35.6661290
  91.6806490  21.2820640  36.9491670  91.9899550  27.6764550  39.2446980
  91.3475710  27.0220170  39.5190700  91.6030210  28.0819640  38.4687650
  87.5686030  25.0049980  43.0918670  87.9209850  24.4078110  42.4320040
  86.6848360  24.6794210  43.2626920  83.6549310  25.7647670  40.4989080
  84.3420440  26.3116880  40.8796670  82.8681730  26.3088400  40.5338690
  75.7941710  21.3820490  35.9906160  76.6636560  21.6645290  36.2742080
  75.3032030  22.1956360  35.8754970  82.9576520  22.7693700  40.1114440
  83.4139300  23.5798950  40.3374630  82.6064730  22.4516840  40.9432930
  85.2609130  28.2800040  47.3406740  85.9051350  28.4859420  48.0180160
  85.6238570  27.5188440  46.8877590  78.8588300  13.1131350  40.5836960
  78.7302930  13.1049250  41.5321880  78.0350320  13.4514440  40.2327970
  86.5341210  26.2832390  46.0584190  87.1763440  25.5825550  46.1716360
  87.0590560  27.0630830  45.8781080  90.3796930  26.5681010  35.7823330
  90.1534510  25.8511450  36.3747970  89.9893130  26.3193450  34.9445080
  88.3078830  27.0827290  49.2620250  88.6435070  27.6693980  49.9398170
  87.3879170  26.9520000  49.4918040  76.1612960  30.5947870  36.5567790
  76.5210600  31.1937210  35.9025060  76.0205300  31.1407760  37.3302820
  75.8582230  14.8722470  50.0443660  75.1440750  15.0719390  50.6496270
  76.2777270  14.0962040  50.4158460  89.9613180  24.4852950  37.4437490
  89.6734880  24.9465640  38.2315370  90.7565350  24.0250720  37.7121710
  76.1454820  28.8602730  51.0310190  76.2545940  27.9197470  50.8905580
  75.4935380  29.1257480  50.3823920  84.1367410  27.1318620  52.4308310
  83.8164280  26.4127860  52.9754000  83.4625770  27.8073690  52.5044370
  82.1781580  27.9779070  37.3741460  82.1691680  28.7108760  36.7585970
  81.2579940  27.7310650  37.4668420  77.7788220  23.1993960  38.1188220
  77.1716170  23.9392860  38.1283520  78.2537570  23.2893320  37.2926420
  87.3521010  17.3644780  47.7945110  87.7201830  16.5439990  48.1224680
  86.4919210  17.4246670  48.2100760  90.7183040  16.3201720  38.6032670
  90.0896200  16.4247390  37.8890900  90.2234960  16.5398500  39.3926550
  85.1641180  28.0407310  36.0366650  85.2653160  27.8371300  35.1068630
  84.2642920  27.7865590  36.2414430  82.6867070  18.5987670  40.0190550
  81.9783220  19.0674010  40.4604160  82.9711550  17.9409680  40.6535740
  84.3123000  20.0184370  48.0183080  84.8108250  20.4930190  48.6834930
  84.4545950  19.0947890  48.2253110  86.7182500  15.3238330  41.4586340
  86.5950280  15.3424460  40.5095850  87.6667060  15.3717270  41.5784740
  83.8059290  30.5593630  40.7314320  84.0600790  30.5215020  39.8093690
  82.8571770  30.4326960  40.7242570  80.8902090  16.9072750  37.3941260
  81.7392620  17.3442900  37.3281450  80.5233360  17.2193010  38.2213320
  91.5189860  16.2352330  48.8611470  91.0163460  16.9757730  49.2005280
  92.3346520  16.6236330  48.5448260  89.8111870  21.4785510  42.3072830
  88.8702010  21.4935740  42.4820520  90.1255940  20.6921470  42.7533130
  79.7893510  23.1605110  35.8676790  80.5556780  23.0486470  36.4302220
  79.8668200  22.4643080  35.2153560  78.4840270  20.5930180  36.5509680
  78.5643860  19.6457690  36.6627080  79.3760020  20.9237060  36.6570340
  79.2854980  30.7425570  43.6544220  80.0217460  30.1941030  43.9252790
  79.6695900  31.6081580  43.5150210  76.1700460  26.8099140  39.5285730
  75.2440240  27.0520280  39.5191140  76.6356890  27.6373400  39.4070480
  78.2913260  29.9271640  52.8429800  79.0925990  30.2483690  53.2565200
  77.7765080  29.5667220  53.5649710  82.3957290  29.9155880  35.4769790
  83.1885900  30.2044710  35.0251580  81.8761640  29.4848050  34.7982270
  87.1277890  26.0351510  52.7905210  86.5216050  26.0583110  52.0500960
  86.8232000  25.3034550  53.3272460  88.5578260  29.7631800  51.4014620
  89.5100010  29.6789820  51.3514860  88.4106480  30.4273510  52.0748410
  91.4487460  29.1426010  36.9006530  91.1628970  28.7291150  36.0860710
  91.2507010  30.0713720  36.7807050  76.0111070  22.4145100  51.7865850
  76.5150090  21.8352380  52.3582080  75.2718490  22.6985330  52.3242220
  82.9134690  25.1359290  35.3412140  82.8085330  24.5211640  36.0673520
  82.7458910  24.6125180  34.5575150  83.0649010  23.8216090  51.3201370
  82.2994680  24.3901090  51.2356040  83.2464970  23.5292300  50.4269600
  86.1537420  24.1979320  35.9454130  85.6047520  24.6448620  36.5896870
  86.7756680  23.6928570  36.4691800  90.2072360  25.5521420  51.8776390
  90.9481830  25.8897180  51.3743850  89.4445040  25.7213480  51.3246160
  78.0434150  20.5574690  52.6815920  78.0839490  20.2588560  53.5901150
  78.8979650  20.9582300  52.5223440  81.8212540  23.1570240  37.8419430
  82.2428960  22.9910110  38.6850820  81.9463380  22.3470470  37.3474570
  79.9839960  19.1366790  50.6490410  79.4536420  18.6457740  50.0213750
  80.6528030  19.5650990  50.1148340  84.3340180  22.1807850  35.0896530
  84.8545840  21.4656870  34.7237680  84.9808580  22.8193720  35.3897040
  88.8818020  23.6036250  50.4131600  89.2959040  23.7581330  51.2622020
  87.9469020  23.7291470  50.5757380  89.3540190  20.9432410  52.4170750
  89.9360960  20.1884730  52.3291230  89.5301960  21.4739850  51.6402230
  80.4712260  16.1029160  50.7287700  80.3769130  15.4849910  50.0038570
  79.8909650  16.8295450  50.5017610  83.2373700  14.6602400  47.7615090
  82.7891000  14.6826660  46.9160640  82.6038900  14.2621420  48.3585390
  83.6433250  23.5556730  48.3827530  84.0621360  24.3989460  48.2103770
  82.7241880  23.6928770  48.1534310  85.9797150  21.2872910  49.7665370
  86.0993360  20.6914050  50.5060210  86.8391150  21.3242600  49.3466670
  88.3185050  21.8410100  48.3427880  87.7920270  22.3652720  47.7393020
  88.6616390  22.4737490  48.9737610  80.7171440  19.2303470  34.7877590
  80.5160500  18.3670830  35.1490930  80.5463490  19.1436830  33.8499190
  81.4940670  29.8609740  49.4985260  80.9561760  30.5855800  49.1793960
  81.7474630  29.3840080  48.7082600  82.7465920  17.8294260  51.0241190
  83.3365610  17.5210110  51.7119010  81.9286160  17.3574010  51.1801090
  87.5659350  17.4460070  51.2574210  86.8774870  16.7841610  51.1924200
  88.2865370  16.9998340  51.7022670  88.1959750  14.0411700  37.3164470
  88.4762040  13.1979600  37.6723890  87.4225480  14.2734810  37.8303220
  79.5154240  16.3304090  34.7755470  79.8180140  16.3371520  33.8674620
  80.2548830  15.9801950  35.2723130  84.3502880  31.0960950  49.7571910
  84.2761580  31.9996090  50.0644280  83.4481720  30.7772850  49.7293980
  82.7339170  15.2738710  35.7611670  82.3861170  14.5962700  35.1814120
  82.9351940  14.8128220  36.5755060  84.8988210  30.2619460  37.3798270
  85.7939000  30.6004430  37.4017030  84.9305840  29.5398870  36.7522550
  78.5384370  25.6346510  35.6085270  78.9759240  26.1776180  36.2642850
  79.0232100  24.8093460  35.6181610  75.7530170  28.4235540  43.0605530
  76.0833180  27.5556600  42.8284170  76.1821170  28.6294060  43.8910490
  80.3492090  26.7544550  40.7207500  80.0487630  26.6309520  41.6211410
  80.2429580  25.8953140  40.3123230  76.2420380  29.2906130  45.7987160
  75.8051370  29.4706930  46.6311310  76.8098060  30.0480750  45.6568880
  91.8782560  28.7923130  50.0864470  91.2784550  28.8515690  49.3428390
  92.0076460  27.8528110  50.2161320  76.0744810  21.8026360  42.1576040
  75.4193650  21.5338000  41.5135740  76.9122760  21.6930840  41.7078020
  90.5634200  25.5175110  48.1840630  89.7494040  25.9472270  48.4466420
  90.9708400  26.1293520  47.5709680  89.0235250  16.5967650  36.3794530
  89.4420130  16.4098630  35.5391190  88.7171310  15.7446700  36.6897460
  77.1120740  22.1878930  46.6979380  77.4793780  22.1006330  47.5775400
  76.5431560  21.4245480  46.5986240  91.9124600  20.6563310  49.7109850
  91.6810690  20.4276060  48.8107800  92.1729150  21.5762860  49.6654740
  76.6636740  19.0988020  50.6037800  75.7692790  19.0654780  50.9431510
  77.2034290  19.2974810  51.3689050  90.3512670  15.8819740  52.4889550
  91.2282850  15.8903140  52.8723550  90.3633510  15.1450580  51.8781900
  75.2882890  19.0125290  38.1001370  74.3846970  19.2755490  37.9253030
  75.7723510  19.2836460  37.3201330  91.7975940  19.7349280  43.3777570
  92.3213420  19.2411930  42.7467740  92.3835360  19.8699640  44.1225140
  91.9765660  19.8189150  46.8997120  91.0268370  19.7852690  47.0142110
  92.1578670  20.7289260  46.6646890  77.8310100  18.0690830  36.0095750
  78.5401800  17.6474050  35.5243030  77.1150040  18.1366060  35.3779100
  77.4784260  14.1230160  35.0498400  78.2012390  14.6639100  35.3679620
  77.7508780  13.8493580  34.1739940  91.2875910  18.9922630  39.3169980
  91.7835030  18.7593500  40.1018860  91.0891980  18.1534470  38.9007620
  77.1676450  13.3736350  44.9521020  77.8152640  12.8233730  44.5116180
  77.5878290  13.6279500  45.7736830  91.0628790  13.5677710  48.3090660
  91.7001010  14.1811850  48.6749850  91.2103680  13.6038370  47.3639890
  90.6210250  30.2693710  41.7108900  91.2169320  29.9478280  41.0343320
  90.8788400  29.7965530  42.5022170  76.9208450  13.5292020  47.6946340
  76.5723270  13.9855840  48.4604520  76.5896150  12.6349150  47.7768770
  78.5272820  26.7011620  51.8599530  78.4842450  26.3304530  52.7413990
  78.6583830  27.6389190  52.0001350  82.2278850  28.2571210  47.4609250
  81.9870210  28.5245770  46.5739770  83.1681490  28.4276940  47.5160110
  84.4333270  14.7203900  51.2165760  84.3722160  15.3125730  51.9661170
  85.3733650  14.6129860  51.0716020  87.0707830  14.3773960  50.8558050
  87.6848240  14.6953250  50.1939130  87.6157390  13.8922550  51.4753910
  77.5929090  13.0568220  50.9697110  78.1412080  12.8756270  50.2063220
  77.6584400  12.2662330  51.5053420  78.3660850  29.6473870  48.9797310
  77.7721170  29.5158570  49.7187350  78.3584690  28.8112010  48.5139410
  87.8115870  12.9406100  47.1827340  86.9375710  13.2741210  46.9800270
  87.7026620  12.4679280  48.0079210  88.7187850  15.1476970  48.5669060
  88.3901210  14.3328730  48.1870790  89.6670150  15.1046780  48.4434750
  91.1722460  30.9189010  45.5406630  90.7125430  31.6704820  45.1664650
  90.5434920  30.1995480  45.4821430  77.9973080  27.0132250  47.9305350
  77.2707140  26.3937540  47.8631300  78.0582230  27.4072860  47.0603430
  81.6018180  29.2277250  44.7154760  82.1183200  28.6164610  44.1903020
  82.2515560  29.7306030  45.2065770  84.3413680  30.1185740  45.5423740
  84.6291490  29.8640040  44.6656750  84.8536900  29.5663100  46.1329310
  85.5590690  13.8575940  46.1220250  84.7762480  14.3321440  46.4017010
  85.2653620  12.9530770  46.0133430  90.1111760  14.5599040  44.1669340
  90.5519850  14.5044140  43.3190940  89.8419350  15.4757050  44.2379520
  76.2803080  30.3306640  41.1402110  76.1125120  29.6977320  41.8384000
  75.4137590  30.5366040  40.7896300  76.9031100  14.1623420  38.6433970
  77.6610460  14.2752300  38.0698000  76.4408270  14.9992620  38.5977400
  83.4444910  16.2762690  41.6336280  82.6319420  15.9019580  41.2932160
  83.9486550  15.5207770  41.9357470  87.9469890  12.9405140  42.8719350
  88.5499260  13.5125350  43.3467870  87.2062880  13.5044580  42.6493250
  91.0904490  13.3426700  38.1459630  91.2855120  14.2410150  38.4127060
  90.3034360  13.1113780  38.6392580  77.8865780  29.0239870  38.5852250
  77.3613400  29.4047900  37.8814210  77.8110360  29.6490640  39.3061960
  79.2756250  14.6887470  37.1835940  79.8049010  13.9017270  37.0543890
  79.9084570  15.3678660  37.4171470  81.4694090  14.4262610  40.2381330
  80.8396830  13.7249920  40.4051460  80.9299230  15.1866740  40.0214490
  84.4086040  31.0401840  52.9091940  85.3353350  30.8046110  52.9527900
  84.3936470  31.8673840  52.4277970  81.5949650  13.7046590  52.6733820
  81.3133920  14.2080190  51.9094640  81.9769350  12.9068340  52.3075950
  80.4858750  30.9722250  37.4601500  81.2177570  30.6881530  36.9125390
  80.7452420  30.7335530  38.3500880  79.6473540  27.0886980  37.4647830
  79.0182420  27.5572080  38.0133660  79.7621370  26.2436200  37.8994020
  88.1965110  13.1200170  53.2514290  88.0830560  13.4394780  54.1465810
  89.0134850  13.5212680  52.9551570  90.9763600  30.2671700  52.7332980
  91.7688920  29.7720930  52.5258940  91.2696750  30.9461840  53.3408590
  87.1023260  21.1392640  23.6149030  87.0217310  20.2247250  23.3440740
  86.6887680  21.6359710  22.9088740  85.2341300  22.9171660  25.4958300
  84.4583400  22.4372100  25.7856870  85.8854230  22.2377310  25.3214460
  79.2507130  23.2291470  26.3734060  78.4192010  22.9740180  26.7730570
  79.8588110  23.3002240  27.1091980  89.2548730  27.3231850  24.2757430
  88.7930260  26.5519090  24.6044600  90.0674280  27.3497920  24.7809880
  79.2308390  27.2631560  26.5692080  79.5336430  26.3729300  26.3902300
  79.9751980  27.8201780  26.3414330  77.6599080  18.1893360  20.1576450
  76.7715780  18.5309330  20.0556330  77.9440270  17.9893680  19.2657280
  75.6232090  20.7899010  26.0416150  76.1948200  20.0221210  26.0419790
  75.6233630  21.0887770  25.1322760  85.4812040  29.6089860  23.8961420
  84.8623480  30.0647360  23.3255860  86.3363820  29.7641320  23.4951120
  84.6750290  25.5928850  25.5028460  84.6058570  24.6518790  25.3417590
  85.4370150  25.6830260  26.0751030  76.8656960  16.1983370  27.8285080
  76.6859800  15.3009120  28.1087840  76.4637040  16.7455240  28.5032030
  85.7055460  18.3999230  25.7297390  86.0820280  17.5271110  25.6171060
  85.6074970  18.7357930  24.8387830  79.8360470  16.7724860  21.1914830
  79.9427220  17.6728590  21.4983590  78.9252830  16.7242830  20.9009480
  89.4879580  15.8949670  22.6625730  90.3089200  15.4046240  22.7051210
  89.5213660  16.4847330  23.4157570  77.4843630  18.6943870  26.4367420
  78.1653740  18.9582240  27.0554820  77.1691680  17.8544740  26.7705430
  81.6768200  19.7411230  25.5240010  82.1846420  20.2392200  26.1645030
  82.2081440  18.9646430  25.3479370  79.9604300  14.3809790  29.7903430
  79.9622740  14.8982180  28.9849330  79.1308610  13.9039970  29.7673360
  86.3475390  24.4929100  21.2893330  85.7292660  24.9578550  20.7256050
  86.8598640  25.1856580  21.7062840  81.2107150  24.0204970  27.9676930
  80.8776530  24.6473890  28.6098000  81.3873830  24.5466850  27.1878600
  89.7241060  17.8350050  25.4353270  89.0196630  18.1234940  26.0156380
  90.0853220  18.6450160  25.0752830  79.6419630  16.0919750  27.7973880
  79.9836440  16.9361800  27.5027750  78.7035440  16.2403490  27.9139220
  80.4226250  25.9885770  29.7826110  81.0400250  26.6636850  29.5010560
  79.5619370  26.3973750  29.6913610  75.7158590  25.1785630  18.6632960
  75.3386570  25.6672730  17.9317860  75.9731660  25.8510910  19.2939490
  91.3403840  27.4525180  27.6980750  90.6567360  28.1224290  27.6897420
  91.8798130  27.6505830  26.9325610  83.3247520  13.5802020  24.1218470
  83.6322500  13.0248910  23.4053970  82.3948220  13.7146480  23.9391460
  88.8762580  29.2969310  26.4125930  88.8889740  28.8931600  25.5448190
  88.3237800  30.0716600  26.3087360  90.1708000  26.0185530  21.5016100
  90.0604330  25.0759860  21.6265520  90.1676250  26.3801170  22.3878860
  88.2748020  24.1999150  27.7408540  88.6916810  23.9859260  26.9062000
  88.9987840  24.4571940  28.3117160  85.7128280  21.6450850  20.8578590
  84.7857560  21.5788230  21.0867060  85.8653100  22.5830980  20.7433830
  85.6997360  17.9167850  17.8545750  84.7601030  18.0781810  17.9398210
  86.0180620  18.6353530  17.3081740  89.7425570  23.2071150  21.3613840
  89.1237990  22.8690700  20.7140140  89.7250020  22.5630910  22.0693030
  89.1852130  19.3855690  28.7779650  88.7723310  20.2109400  29.0319640
  88.4528080  18.8000730  28.5856010  81.3184920  22.1715590  23.6398320
  80.9141920  21.4592840  23.1444220  81.4048040  21.8268830  24.5286360
  81.7866620  25.8583150  25.8037530  81.4894910  25.2528620  25.1245310
  82.7366440  25.8960460  25.6926890  80.0313540  18.9458800  27.4197360
  80.5828130  19.0554140  26.6450610  80.5457050  19.3196400  28.1352590
  89.8752230  29.4315020  29.4660630  89.3982790  30.2387210  29.2733240
  89.1914020  28.7793350  29.6186840  80.8785050  25.5964840  32.4545330
  79.9813580  25.8204810  32.7018730  80.9037920  25.7199780  31.5056730
  87.9190270  22.4457960  18.3686590  88.3583550  21.6080390  18.2224410
  88.6318690  23.0787360  18.4550730  79.7056270  22.4678160  31.0302700
  79.5664040  23.3400960  31.3990100  78.8237630  22.1250970  30.8850640
  86.0285650  27.3854030  22.3367830  86.4681560  28.1278360  21.9223220
  85.9672540  27.6280600  23.2606790  81.5036620  28.4099860  33.2387850
  81.4752050  28.8142810  32.3716280  81.3401590  27.4810220  33.0759450
  91.5007410  13.7000770  16.6827630  91.1880070  13.7927600  17.5826700
  92.2619880  14.2781800  16.6325060  78.0189550  21.0660570  21.1404970
  77.8987150  21.7922660  20.5286240  77.7090440  20.2963480  20.6632880
  75.6574920  24.2375710  26.9473610  75.7355340  24.3724480  26.0029330
  76.2716600  23.5291600  27.1401730  76.9022550  25.9375900  23.3579790
  76.4950630  26.0790490  22.5033390  77.7935560  25.6536060  23.1551000
  86.7201430  30.0867810  30.2646840  87.2346100  29.9975820  31.0669270
  85.8770510  30.4327510  30.5574750  88.6955830  30.3723150  19.6930840
  88.5356970  30.0826090  20.5912670  88.5302540  29.5963280  19.1576070
  81.1744210  30.1521680  21.4702460  80.9986690  29.2357220  21.2570260
  80.3199950  30.5108970  21.7100260  88.3981960  27.8810710  18.2528840
  87.7047120  27.8788000  17.5931120  89.1404820  27.4570030  17.8223010
  87.9631890  29.5073420  22.3277330  88.4188840  28.7262800  22.6415950
  88.3024410  30.2180240  22.8718510  75.7134440  25.2789880  29.4868070
  75.8765480  24.8095240  28.6687440  76.1786890  24.7713440  30.1516910
  80.4853210  14.4095640  24.5228640  80.0421360  15.1905180  24.1913160
  81.0438200  14.7325530  25.2299580  84.7723020  17.2764160  30.1263960
  84.3102390  17.4847180  30.9383900  84.3701130  16.4623510  29.8234630
  89.7727530  18.4973110  31.2560620  88.9221120  18.1978860  31.5769690
  89.6129320  18.7415120  30.3444440  86.8677240  19.9974860  33.3559410
  87.1930650  19.1638610  33.0161640  87.6557570  20.5203380  33.5037740
  83.6012030  14.0306340  19.4034470  82.9766210  14.0266210  20.1287780
  83.5142150  13.1637300  19.0070440  82.5229110  14.9542970  26.3818240
  82.8201440  15.8605800  26.3010260  83.0714670  14.4661750  25.7677810
  80.2767430  19.5329210  22.2509890  80.0508350  19.3166380  23.1556510
  79.4959960  19.9657670  21.9055860  87.5065190  19.5392580  20.8500540
  86.9074080  20.2628380  20.6664160  88.0544800  19.4769360  20.0676990
  82.7166640  20.4314790  32.9170160  82.6210240  19.4909520  32.7670560
  83.5598620  20.6529860  32.5218230  86.1130060  18.1756120  22.8803820
  86.5059630  18.4928320  22.0672510  86.4746910  17.2968000  22.9948340
  77.8477180  16.8428460  31.0703940  77.4540570  17.6903670  31.2776720
  77.1595580  16.2054830  31.2612580  84.4222230  16.9263430  34.1400680
  83.7320550  16.7335630  34.7746770  85.1654530  17.2098070  34.6724980
  75.1494230  14.7656920  25.1034020  74.8607280  15.3359780  25.8159000
  75.8939990  14.2861370  25.4665250  75.3364460  18.7077040  16.3136740
  75.2539130  19.6507800  16.4551730  74.9847520  18.5651950  15.4349090
  86.6985200  20.7661870  26.9754600  85.9666320  21.2748680  27.3244700
  86.3009540  19.9491850  26.6743380  83.1362590  17.4416070  25.3807090
  83.1398650  17.0006020  24.5311630  84.0313710  17.7633400  25.4878910
  78.9864970  17.3242560  24.3401300  78.6465020  17.8017790  25.0968350
  78.2242290  16.8707680  23.9802400  83.1982740  18.4428150  18.3713850
  83.3195560  18.4014630  19.3199670  82.8131250  19.3052300  18.2160580
  87.1611110  16.2195550  26.3877540  87.1783850  16.6704200  27.2319390
  86.9126690  15.3201190  26.6010980  82.2104240  20.7529290  17.7697150
  81.6421140  20.3047540  17.1433060  82.9193240  21.1122070  17.2362300
  90.5881860  13.6327730  32.2263920  90.9127630  12.9017390  32.7521900
  90.6238370  13.3141370  31.3244910  77.2873420  24.6541310  31.6463880
  76.9028210  24.0134980  32.2446840  77.5985610  25.3577430  32.2158610
  83.4370560  21.5017850  27.1272500  83.8040690  21.0276420  27.8733840
  83.2475620  22.3759420  27.4680840  76.3011050  16.2461540  23.2565970
  76.0157970  15.8817210  24.0944590  76.2389910  15.5142000  22.6429110
  81.2269930  20.5426490  29.4456710  80.9227000  21.4218470  29.6707070
  82.1816390  20.6026280  29.4814150  79.7551720  24.7487480  20.0423560
  78.9813980  24.2085100  19.8822280  80.4846350  24.2294090  19.7041320
  90.5139700  23.7452840  25.8349950  91.2338820  24.2408130  25.4446060
  90.3121520  23.0670730  25.1903820  85.9749640  15.1390800  19.9779340
  85.1614250  14.6403970  19.9024650  85.7811590  15.9789050  19.5615690
  85.8958500  23.8161900  31.7218950  85.8295810  22.8957570  31.4676540
  85.2663640  23.9137340  32.4363590  88.6898030  19.5110450  18.2741500
  89.5777650  19.8227680  18.0992840  88.6603120  18.6382700  17.8822080
  79.7989120  24.4167860  23.6802370  80.3167790  23.6136120  23.6259260
  79.3473140  24.3547000  24.5219200  84.6858620  25.6834140  18.9529670
  85.0274320  26.4276370  18.4572990  83.8571330  25.9965260  19.3154500
  77.2833660  21.3829230  30.5928070  76.9248600  22.0483080  31.1801410
  76.9888220  20.5512780  30.9640690  80.4846780  21.8413470  33.4767620
  80.1846920  21.9870650  32.5795440  81.2558020  21.2818760  33.3841010
  85.8275230  26.6382470  31.4722750  85.8419770  25.7063430  31.2541660
  85.1200330  26.7242230  32.1112520  90.9612300  20.8222290  17.7421360
  90.8776020  21.2536510  16.8917800  91.6806490  21.2820640  18.1748180
  91.9899550  27.6764550  20.4703490  91.3475710  27.0220170  20.7447210
  91.6030210  28.0819640  19.6944160  87.5686030  25.0049980  24.3175180
  87.9209850  24.4078110  23.6576550  86.6848360  24.6794210  24.4883430
  83.6549310  25.7647670  21.7245590  84.3420440  26.3116880  22.1053180
  82.8681730  26.3088400  21.7595200  75.7941710  21.3820490  17.2162670
  76.6636560  21.6645290  17.4998590  75.3032030  22.1956360  17.1011480
  82.9576520  22.7693700  21.3370950  83.4139300  23.5798950  21.5631140
  82.6064730  22.4516840  22.1689440  85.2609130  28.2800040  28.5663250
  85.9051350  28.4859420  29.2436670  85.6238570  27.5188440  28.1134100
  78.8588300  13.1131350  21.8093470  78.7302930  13.1049250  22.7578390
  78.0350320  13.4514440  21.4584480  86.5341210  26.2832390  27.2840700
  87.1763440  25.5825550  27.3972870  87.0590560  27.0630830  27.1037590
  90.3796930  26.5681010  17.0079840  90.1534510  25.8511450  17.6004480
  89.9893130  26.3193450  16.1701590  88.3078830  27.0827290  30.4876760
  88.6435070  27.6693980  31.1654680  87.3879170  26.9520000  30.7174550
  76.1612960  30.5947870  17.7824300  76.5210600  31.1937210  17.1281570
  76.0205300  31.1407760  18.5559330  75.8582230  14.8722470  31.2700170
  75.1440750  15.0719390  31.8752780  76.2777270  14.0962040  31.6414970
  89.9613180  24.4852950  18.6694000  89.6734880  24.9465640  19.4571880
  90.7565350  24.0250720  18.9378220  76.1454820  28.8602730  32.2566700
  76.2545940  27.9197470  32.1162090  75.4935380  29.1257480  31.6080430
  84.1367410  27.1318620  33.6564820  83.8164280  26.4127860  34.2010510
  83.4625770  27.8073690  33.7300880  82.1781580  27.9779070  18.5997970
  82.1691680  28.7108760  17.9842480  81.2579940  27.7310650  18.6924930
  77.7788220  23.1993960  19.3444730  77.1716170  23.9392860  19.3540030
  78.2537570  23.2893320  18.5182930  87.3521010  17.3644780  29.0201620
  87.7201830  16.5439990  29.3481190  86.4919210  17.4246670  29.4357270
  90.7183040  16.3201720  19.8289180  90.0896200  16.4247390  19.1147410
  90.2234960  16.5398500  20.6183060  85.1641180  28.0407310  17.2623160
  85.2653160  27.8371300  16.3325140  84.2642920  27.7865590  17.4670940
  82.6867070  18.5987670  21.2447060  81.9783220  19.0674010  21.6860670
  82.9711550  17.9409680  21.8792250  84.3123000  20.0184370  29.2439590
  84.8108250  20.4930190  29.9091440  84.4545950  19.0947890  29.4509620
  86.7182500  15.3238330  22.6842850  86.5950280  15.3424460  21.7352360
  87.6667060  15.3717270  22.8041250  83.8059290  30.5593630  21.9570830
  84.0600790  30.5215020  21.0350200  82.8571770  30.4326960  21.9499080
  80.8902090  16.9072750  18.6197770  81.7392620  17.3442900  18.5537960
  80.5233360  17.2193010  19.4469830  91.5189860  16.2352330  30.0867980
  91.0163460  16.9757730  30.4261790  92.3346520  16.6236330  29.7704770
  89.8111870  21.4785510  23.5329340  88.8702010  21.4935740  23.7077030
  90.1255940  20.6921470  23.9789640  79.7893510  23.1605110  17.0933300
  80.5556780  23.0486470  17.6558730  79.8668200  22.4643080  16.4410070
  78.4840270  20.5930180  17.7766190  78.5643860  19.6457690  17.8883590
  79.3760020  20.9237060  17.8826850  79.2854980  30.7425570  24.8800730
  80.0217460  30.1941030  25.1509300  79.6695900  31.6081580  24.7406720
  76.1700460  26.8099140  20.7542240  75.2440240  27.0520280  20.7447650
  76.6356890  27.6373400  20.6326990  78.2913260  29.9271640  34.0686310
  79.0925990  30.2483690  34.4821710  77.7765080  29.5667220  34.7906220
  82.3957290  29.9155880  16.7026300  83.1885900  30.2044710  16.2508090
  81.8761640  29.4848050  16.0238780  87.1277890  26.0351510  34.0161720
  86.5216050  26.0583110  33.2757470  86.8232000  25.3034550  34.5528970
  88.5578260  29.7631800  32.6271130  89.5100010  29.6789820  32.5771370
  88.4106480  30.4273510  33.3004920  91.4487460  29.1426010  18.1263040
  91.1628970  28.7291150  17.3117220  91.2507010  30.0713720  18.0063560
  76.0111070  22.4145100  33.0122360  76.5150090  21.8352380  33.5838590
  75.2718490  22.6985330  33.5498730  82.9134690  25.1359290  16.5668650
  82.8085330  24.5211640  17.2930030  82.7458910  24.6125180  15.7831660
  83.0649010  23.8216090  32.5457880  82.2994680  24.3901090  32.4612550
  83.2464970  23.5292300  31.6526110  86.1537420  24.1979320  17.1710640
  85.6047520  24.6448620  17.8153380  86.7756680  23.6928570  17.6948310
  90.2072360  25.5521420  33.1032900  90.9481830  25.8897180  32.6000360
  89.4445040  25.7213480  32.5502670  78.0434150  20.5574690  33.9072430
  78.0839490  20.2588560  34.8157660  78.8979650  20.9582300  33.7479950
  81.8212540  23.1570240  19.0675940  82.2428960  22.9910110  19.9107330
  81.9463380  22.3470470  18.5731080  79.9839960  19.1366790  31.8746920
  79.4536420  18.6457740  31.2470260  80.6528030  19.5650990  31.3404850
  84.3340180  22.1807850  16.3153040  84.8545840  21.4656870  15.9494190
  84.9808580  22.8193720  16.6153550  88.8818020  23.6036250  31.6388110
  89.2959040  23.7581330  32.4878530  87.9469020  23.7291470  31.8013890
  89.3540190  20.9432410  33.6427260  89.9360960  20.1884730  33.5547740
  89.5301960  21.4739850  32.8658740  80.4712260  16.1029160  31.9544210
  80.3769130  15.4849910  31.2295080  79.8909650  16.8295450  31.7274120
  83.2373700  14.6602400  28.9871600  82.7891000  14.6826660  28.1417150
  82.6038900  14.2621420  29.5841900  83.6433250  23.5556730  29.6084040
  84.0621360  24.3989460  29.4360280  82.7241880  23.6928770  29.3790820
  85.9797150  21.2872910  30.9921880  86.0993360  20.6914050  31.7316720
  86.8391150  21.3242600  30.5723180  88.3185050  21.8410100  29.5684390
  87.7920270  22.3652720  28.9649530  88.6616390  22.4737490  30.1994120
  80.7171440  19.2303470  16.0134100  80.5160500  18.3670830  16.3747440
  80.5463490  19.1436830  15.0755700  81.4940670  29.8609740  30.7241770
  80.9561760  30.5855800  30.4050470  81.7474630  29.3840080  29.9339110
  82.7465920  17.8294260  32.2497700  83.3365610  17.5210110  32.9375520
  81.9286160  17.3574010  32.4057600  87.5659350  17.4460070  32.4830720
  86.8774870  16.7841610  32.4180710  88.2865370  16.9998340  32.9279180
  88.1959750  14.0411700  18.5420980  88.4762040  13.1979600  18.8980400
  87.4225480  14.2734810  19.0559730  79.5154240  16.3304090  16.0011980
  79.8180140  16.3371520  15.0931130  80.2548830  15.9801950  16.4979640
  84.3502880  31.0960950  30.9828420  84.2761580  31.9996090  31.2900790
  83.4481720  30.7772850  30.9550490  82.7339170  15.2738710  16.9868180
  82.3861170  14.5962700  16.4070630  82.9351940  14.8128220  17.8011570
  84.8988210  30.2619460  18.6054780  85.7939000  30.6004430  18.6273540
  84.9305840  29.5398870  17.9779060  78.5384370  25.6346510  16.8341780
  78.9759240  26.1776180  17.4899360  79.0232100  24.8093460  16.8438120
  75.7530170  28.4235540  24.2862040  76.0833180  27.5556600  24.0540680
  76.1821170  28.6294060  25.1167000  80.3492090  26.7544550  21.9464010
  80.0487630  26.6309520  22.8467920  80.2429580  25.8953140  21.5379740
  76.2420380  29.2906130  27.0243670  75.8051370  29.4706930  27.8567820
  76.8098060  30.0480750  26.8825390  91.8782560  28.7923130  31.3120980
  91.2784550  28.8515690  30.5684900  92.0076460  27.8528110  31.4417830
  76.0744810  21.8026360  23.3832550  75.4193650  21.5338000  22.7392250
  76.9122760  21.6930840  22.9334530  90.5634200  25.5175110  29.4097140
  89.7494040  25.9472270  29.6722930  90.9708400  26.1293520  28.7966190
  89.0235250  16.5967650  17.6051040  89.4420130  16.4098630  16.7647700
  88.7171310  15.7446700  17.9153970  77.1120740  22.1878930  27.9235890
  77.4793780  22.1006330  28.8031910  76.5431560  21.4245480  27.8242750
  91.9124600  20.6563310  30.9366360  91.6810690  20.4276060  30.0364310
  92.1729150  21.5762860  30.8911250  76.6636740  19.0988020  31.8294310
  75.7692790  19.0654780  32.1688020  77.2034290  19.2974810  32.5945560
  90.3512670  15.8819740  33.7146060  91.2282850  15.8903140  34.0980060
  90.3633510  15.1450580  33.1038410  75.2882890  19.0125290  19.3257880
  74.3846970  19.2755490  19.1509540  75.7723510  19.2836460  18.5457840
  91.7975940  19.7349280  24.6034080  92.3213420  19.2411930  23.9724250
  92.3835360  19.8699640  25.3481650  91.9765660  19.8189150  28.1253630
  91.0268370  19.7852690  28.2398620  92.1578670  20.7289260  27.8903400
  77.8310100  18.0690830  17.2352260  78.5401800  17.6474050  16.7499540
  77.1150040  18.1366060  16.6035610  77.4784260  14.1230160  16.2754910
  78.2012390  14.6639100  16.5936130  77.7508780  13.8493580  15.3996450
  91.2875910  18.9922630  20.5426490  91.7835030  18.7593500  21.3275370
  91.0891980  18.1534470  20.1264130  77.1676450  13.3736350  26.1777530
  77.8152640  12.8233730  25.7372690  77.5878290  13.6279500  26.9993340
  91.0628790  13.5677710  29.5347170  91.7001010  14.1811850  29.9006360
  91.2103680  13.6038370  28.5896400  90.6210250  30.2693710  22.9365410
  91.2169320  29.9478280  22.2599830  90.8788400  29.7965530  23.7278680
  76.9208450  13.5292020  28.9202850  76.5723270  13.9855840  29.6861030
  76.5896150  12.6349150  29.0025280  78.5272820  26.7011620  33.0856040
  78.4842450  26.3304530  33.9670500  78.6583830  27.6389190  33.2257860
  82.2278850  28.2571210  28.6865760  81.9870210  28.5245770  27.7996280
  83.1681490  28.4276940  28.7416620  84.4333270  14.7203900  32.4422270
  84.3722160  15.3125730  33.1917680  85.3733650  14.6129860  32.2972530
  87.0707830  14.3773960  32.0814560  87.6848240  14.6953250  31.4195640
  87.6157390  13.8922550  32.7010420  77.5929090  13.0568220  32.1953620
  78.1412080  12.8756270  31.4319730  77.6584400  12.2662330  32.7309930
  78.3660850  29.6473870  30.2053820  77.7721170  29.5158570  30.9443860
  78.3584690  28.8112010  29.7395920  87.8115870  12.9406100  28.4083850
  86.9375710  13.2741210  28.2056780  87.7026620  12.4679280  29.2335720
  88.7187850  15.1476970  29.7925570  88.3901210  14.3328730  29.4127300
  89.6670150  15.1046780  29.6691260  91.1722460  30.9189010  26.7663140
  90.7125430  31.6704820  26.3921160  90.5434920  30.1995480  26.7077940
  77.9973080  27.0132250  29.1561860  77.2707140  26.3937540  29.0887810
  78.0582230  27.4072860  28.2859940  81.6018180  29.2277250  25.9411270
  82.1183200  28.6164610  25.4159530  82.2515560  29.7306030  26.4322280
  84.3413680  30.1185740  26.7680250  84.6291490  29.8640040  25.8913260
  84.8536900  29.5663100  27.3585820  85.5590690  13.8575940  27.3476760
  84.7762480  14.3321440  27.6273520  85.2653620  12.9530770  27.2389940
  90.1111760  14.5599040  25.3925850  90.5519850  14.5044140  24.5447450
  89.8419350  15.4757050  25.4636030  76.2803080  30.3306640  22.3658620
  76.1125120  29.6977320  23.0640510  75.4137590  30.5366040  22.0152810
  76.9031100  14.1623420  19.8690480  77.6610460  14.2752300  19.2954510
  76.4408270  14.9992620  19.8233910  83.4444910  16.2762690  22.8592790
  82.6319420  15.9019580  22.5188670  83.9486550  15.5207770  23.1613980
  87.9469890  12.9405140  24.0975860  88.5499260  13.5125350  24.5724380
  87.2062880  13.5044580  23.8749760  91.0904490  13.3426700  19.3716140
  91.2855120  14.2410150  19.6383570  90.3034360  13.1113780  19.8649090
  77.8865780  29.0239870  19.8108760  77.3613400  29.4047900  19.1070720
  77.8110360  29.6490640  20.5318470  79.2756250  14.6887470  18.4092450
  79.8049010  13.9017270  18.2800400  79.9084570  15.3678660  18.6427980
  81.4694090  14.4262610  21.4637840  80.8396830  13.7249920  21.6307970
  80.9299230  15.1866740  21.2471000  84.4086040  31.0401840  34.1348450
  85.3353350  30.8046110  34.1784410  84.3936470  31.8673840  33.6534480
  81.5949650  13.7046590  33.8990330  81.3133920  14.2080190  33.1351150
  81.9769350  12.9068340  33.5332460  80.4858750  30.9722250  18.6858010
  81.2177570  30.6881530  18.1381900  80.7452420  30.7335530  19.5757390
  79.6473540  27.0886980  18.6904340  79.0182420  27.5572080  19.2390170
  79.7621370  26.2436200  19.1250530  88.1965110  13.1200170  34.4770800
  88.0830560  13.4394780  35.3722320  89.0134850  13.5212680  34.1808080
  90.9763600  30.2671700  33.9589490  91.7688920  29.7720930  33.7515450
  91.2696750  30.9461840  34.5665100  87.1023260  21.1392640   4.8405540
  87.0217310  20.2247250   4.5697250  86.6887680  21.6359710   4.1345250
  85.2341300  22.9171660   6.7214810  84.4583400  22.4372100   7.0113380
  85.8854230  22.2377310   6.5470970  79.2507130  23.2291470   7.5990570
  78.4192010  22.9740180   7.9987080  79.8588110  23.3002240   8.3348490
  89.2548730  27.3231850   5.5013940  88.7930260  26.5519090   5.8301110
  90.0674280  27.3497920   6.0066390  79.2308390  27.2631560   7.7948590
  79.5336430  26.3729300   7.6158810  79.9751980  27.8201780   7.5670840
  75.6232090  20.7899010   7.2672660  76.1948200  20.0221210   7.2676300
  75.6233630  21.0887770   6.3579270  85.4812040  29.6089860   5.1217930
  84.8623480  30.0647360   4.5512370  86.3363820  29.7641320   4.7207630
  84.6750290  25.5928850   6.7284970  84.6058570  24.6518790   6.5674100
  85.4370150  25.6830260   7.3007540  76.8656960  16.1983370   9.0541590
  76.6859800  15.3009120   9.3344350  76.4637040  16.7455240   9.7288540
  85.7055460  18.3999230   6.9553900  86.0820280  17.5271110   6.8427570
  85.6074970  18.7357930   6.0644340  79.8360470  16.7724860   2.4171340
  79.9427220  17.6728590   2.7240100  78.9252830  16.7242830   2.1265990
  89.4879580  15.8949670   3.8882240  90.3089200  15.4046240   3.9307720
  89.5213660  16.4847330   4.6414080  77.4843630  18.6943870   7.6623930
  78.1653740  18.9582240   8.2811330  77.1691680  17.8544740   7.9961940
  81.6768200  19.7411230   6.7496520  82.1846420  20.2392200   7.3901540
  82.2081440  18.9646430   6.5735880  79.9604300  14.3809790  11.0159940
  79.9622740  14.8982180  10.2105840  79.1308610  13.9039970  10.9929870
  86.3475390  24.4929100   2.5149840  85.7292660  24.9578550   1.9512560
  86.8598640  25.1856580   2.9319350  81.2107150  24.0204970   9.1933440
  80.8776530  24.6473890   9.8354510  81.3873830  24.5466850   8.4135110
  89.7241060  17.8350050   6.6609780  89.0196630  18.1234940   7.2412890
  90.0853220  18.6450160   6.3009340  79.6419630  16.0919750   9.0230390
  79.9836440  16.9361800   8.7284260  78.7035440  16.2403490   9.1395730
  80.4226250  25.9885770  11.0082620  81.0400250  26.6636850  10.7267070
  79.5619370  26.3973750  10.9170120  91.3403840  27.4525180   8.9237260
  90.6567360  28.1224290   8.9153930  91.8798130  27.6505830   8.1582120
  83.3247520  13.5802020   5.3474980  83.6322500  13.0248910   4.6310480
  82.3948220  13.7146480   5.1647970  88.8762580  29.2969310   7.6382440
  88.8889740  28.8931600   6.7704700  88.3237800  30.0716600   7.5343870
  90.1708000  26.0185530   2.7272610  90.0604330  25.0759860   2.8522030
  90.1676250  26.3801170   3.6135370  88.2748020  24.1999150   8.9665050
  88.6916810  23.9859260   8.1318510  88.9987840  24.4571940   9.5373670
  85.7128280  21.6450850   2.0835100  84.7857560  21.5788230   2.3123570
  85.8653100  22.5830980   1.9690340  89.7425570  23.2071150   2.5870350
  89.1237990  22.8690700   1.9396650  89.7250020  22.5630910   3.2949540
  89.1852130  19.3855690  10.0036160  88.7723310  20.2109400  10.2576150
  88.4528080  18.8000730   9.8112520  81.3184920  22.1715590   4.8654830
  80.9141920  21.4592840   4.3700730  81.4048040  21.8268830   5.7542870
  81.7866620  25.8583150   7.0294040  81.4894910  25.2528620   6.3501820
  82.7366440  25.8960460   6.9183400  80.0313540  18.9458800   8.6453870
  80.5828130  19.0554140   7.8707120  80.5457050  19.3196400   9.3609100
  89.8752230  29.4315020  10.6917140  89.3982790  30.2387210  10.4989750
  89.1914020  28.7793350  10.8443350  80.8785050  25.5964840  13.6801840
  79.9813580  25.8204810  13.9275240  80.9037920  25.7199780  12.7313240
  79.7056270  22.4678160  12.2559210  79.5664040  23.3400960  12.6246610
  78.8237630  22.1250970  12.1107150  86.0285650  27.3854030   3.5624340
  86.4681560  28.1278360   3.1479730  85.9672540  27.6280600   4.4863300
  81.5036620  28.4099860  14.4644360  81.4752050  28.8142810  13.5972790
  81.3401590  27.4810220  14.3015960  78.0189550  21.0660570   2.3661480
  77.8987150  21.7922660   1.7542750  77.7090440  20.2963480   1.8889390
  75.6574920  24.2375710   8.1730120  75.7355340  24.3724480   7.2285840
  76.2716600  23.5291600   8.3658240  76.9022550  25.9375900   4.5836300
  76.4950630  26.0790490   3.7289900  77.7935560  25.6536060   4.3807510
  86.7201430  30.0867810  11.4903350  87.2346100  29.9975820  12.2925780
  85.8770510  30.4327510  11.7831260  81.1744210  30.1521680   2.6958970
  80.9986690  29.2357220   2.4826770  80.3199950  30.5108970   2.9356770
  87.9631890  29.5073420   3.5533840  88.4188840  28.7262800   3.8672460
  88.3024410  30.2180240   4.0975020  75.7134440  25.2789880  10.7124580
  75.8765480  24.8095240   9.8943950  76.1786890  24.7713440  11.3773420
  80.4853210  14.4095640   5.7485150  80.0421360  15.1905180   5.4169670
  81.0438200  14.7325530   6.4556090  84.7723020  17.2764160  11.3520470
  84.3102390  17.4847180  12.1640410  84.3701130  16.4623510  11.0491140
  89.7727530  18.4973110  12.4817130  88.9221120  18.1978860  12.8026200
  89.6129320  18.7415120  11.5700950  86.8677240  19.9974860  14.5815920
  87.1930650  19.1638610  14.2418150  87.6557570  20.5203380  14.7294250
  82.5229110  14.9542970   7.6074750  82.8201440  15.8605800   7.5266770
  83.0714670  14.4661750   6.9934320  80.2767430  19.5329210   3.4766400
  80.0508350  19.3166380   4.3813020  79.4959960  19.9657670   3.1312370
  87.5065190  19.5392580   2.0757050  86.9074080  20.2628380   1.8920670
  88.0544800  19.4769360   1.2933500  82.7166640  20.4314790  14.1426670
  82.6210240  19.4909520  13.9927070  83.5598620  20.6529860  13.7474740
  86.1130060  18.1756120   4.1060330  86.5059630  18.4928320   3.2929020
  86.4746910  17.2968000   4.2204850  77.8477180  16.8428460  12.2960450
  77.4540570  17.6903670  12.5033230  77.1595580  16.2054830  12.4869090
  84.4222230  16.9263430  15.3657190  83.7320550  16.7335630  16.0003280
  85.1654530  17.2098070  15.8981490  75.1494230  14.7656920   6.3290530
  74.8607280  15.3359780   7.0415510  75.8939990  14.2861370   6.6921760
  86.6985200  20.7661870   8.2011110  85.9666320  21.2748680   8.5501210
  86.3009540  19.9491850   7.8999890  83.1362590  17.4416070   6.6063600
  83.1398650  17.0006020   5.7568140  84.0313710  17.7633400   6.7135420
  78.9864970  17.3242560   5.5657810  78.6465020  17.8017790   6.3224860
  78.2242290  16.8707680   5.2058910  87.1611110  16.2195550   7.6134050
  87.1783850  16.6704200   8.4575900  86.9126690  15.3201190   7.8267490
  90.5881860  13.6327730  13.4520430  90.9127630  12.9017390  13.9778410
  90.6238370  13.3141370  12.5501420  77.2873420  24.6541310  12.8720390
  76.9028210  24.0134980  13.4703350  77.5985610  25.3577430  13.4415120
  83.4370560  21.5017850   8.3529010  83.8040690  21.0276420   9.0990350
  83.2475620  22.3759420   8.6937350  76.3011050  16.2461540   4.4822480
  76.0157970  15.8817210   5.3201100  76.2389910  15.5142000   3.8685620
  81.2269930  20.5426490  10.6713220  80.9227000  21.4218470  10.8963580
  82.1816390  20.6026280  10.7070660  90.5139700  23.7452840   7.0606460
  91.2338820  24.2408130   6.6702570  90.3121520  23.0670730   6.4160330
  85.8958500  23.8161900  12.9475460  85.8295810  22.8957570  12.6933050
  85.2663640  23.9137340  13.6620100  79.7989120  24.4167860   4.9058880
  80.3167790  23.6136120   4.8515770  79.3473140  24.3547000   5.7475710
  77.2833660  21.3829230  11.8184580  76.9248600  22.0483080  12.4057920
  76.9888220  20.5512780  12.1897200  80.4846780  21.8413470  14.7024130
  80.1846920  21.9870650  13.8051950  81.2558020  21.2818760  14.6097520
  85.8275230  26.6382470  12.6979260  85.8419770  25.7063430  12.4798170
  85.1200330  26.7242230  13.3369030  87.5686030  25.0049980   5.5431690
  87.9209850  24.4078110   4.8833060  86.6848360  24.6794210   5.7139940
  83.6549310  25.7647670   2.9502100  84.3420440  26.3116880   3.3309690
  82.8681730  26.3088400   2.9851710  82.9576520  22.7693700   2.5627460
  83.4139300  23.5798950   2.7887650  82.6064730  22.4516840   3.3945950
  85.2609130  28.2800040   9.7919760  85.9051350  28.4859420  10.4693180
  85.6238570  27.5188440   9.3390610  78.8588300  13.1131350   3.0349980
  78.7302930  13.1049250   3.9834900  78.0350320  13.4514440   2.6840990
  86.5341210  26.2832390   8.5097210  87.1763440  25.5825550   8.6229380
  87.0590560  27.0630830   8.3294100  88.3078830  27.0827290  11.7133270
  88.6435070  27.6693980  12.3911190  87.3879170  26.9520000  11.9431060
  75.8582230  14.8722470  12.4956680  75.1440750  15.0719390  13.1009290
  76.2777270  14.0962040  12.8671480  76.1454820  28.8602730  13.4823210
  76.2545940  27.9197470  13.3418600  75.4935380  29.1257480  12.8336940
  84.1367410  27.1318620  14.8821330  83.8164280  26.4127860  15.4267020
  83.4625770  27.8073690  14.9557390  87.3521010  17.3644780  10.2458130
  87.7201830  16.5439990  10.5737700  86.4919210  17.4246670  10.6613780
  82.6867070  18.5987670   2.4703570  81.9783220  19.0674010   2.9117180
  82.9711550  17.9409680   3.1048760  84.3123000  20.0184370  10.4696100
  84.8108250  20.4930190  11.1347950  84.4545950  19.0947890  10.6766130
  86.7182500  15.3238330   3.9099360  86.5950280  15.3424460   2.9608870
  87.6667060  15.3717270   4.0297760  83.8059290  30.5593630   3.1827340
  84.0600790  30.5215020   2.2606710  82.8571770  30.4326960   3.1755590
  91.5189860  16.2352330  11.3124490  91.0163460  16.9757730  11.6518300
  92.3346520  16.6236330  10.9961280  89.8111870  21.4785510   4.7585850
  88.8702010  21.4935740   4.9333540  90.1255940  20.6921470   5.2046150
  79.2854980  30.7425570   6.1057240  80.0217460  30.1941030   6.3765810
  79.6695900  31.6081580   5.9663230  76.1700460  26.8099140   1.9798750
  75.2440240  27.0520280   1.9704160  76.6356890  27.6373400   1.8583500
  78.2913260  29.9271640  15.2942820  79.0925990  30.2483690  15.7078220
  77.7765080  29.5667220  16.0162730  87.1277890  26.0351510  15.2418230
  86.5216050  26.0583110  14.5013980  86.8232000  25.3034550  15.7785480
  88.5578260  29.7631800  13.8527640  89.5100010  29.6789820  13.8027880
  88.4106480  30.4273510  14.5261430  76.0111070  22.4145100  14.2378870
  76.5150090  21.8352380  14.8095100  75.2718490  22.6985330  14.7755240
  83.0649010  23.8216090  13.7714390  82.2994680  24.3901090  13.6869060
  83.2464970  23.5292300  12.8782620  90.2072360  25.5521420  14.3289410
  90.9481830  25.8897180  13.8256870  89.4445040  25.7213480  13.7759180
  78.0434150  20.5574690  15.1328940  78.0839490  20.2588560  16.0414170
  78.8979650  20.9582300  14.9736460  79.9839960  19.1366790  13.1003430
  79.4536420  18.6457740  12.4726770  80.6528030  19.5650990  12.5661360
  88.8818020  23.6036250  12.8644620  89.2959040  23.7581330  13.7135040
  87.9469020  23.7291470  13.0270400  89.3540190  20.9432410  14.8683770
  89.9360960  20.1884730  14.7804250  89.5301960  21.4739850  14.0915250
  80.4712260  16.1029160  13.1800720  80.3769130  15.4849910  12.4551590
  79.8909650  16.8295450  12.9530630  83.2373700  14.6602400  10.2128110
  82.7891000  14.6826660   9.3673660  82.6038900  14.2621420  10.8098410
  83.6433250  23.5556730  10.8340550  84.0621360  24.3989460  10.6616790
  82.7241880  23.6928770  10.6047330  85.9797150  21.2872910  12.2178390
  86.0993360  20.6914050  12.9573230  86.8391150  21.3242600  11.7979690
  88.3185050  21.8410100  10.7940900  87.7920270  22.3652720  10.1906040
  88.6616390  22.4737490  11.4250630  81.4940670  29.8609740  11.9498280
  80.9561760  30.5855800  11.6306980  81.7474630  29.3840080  11.1595620
  82.7465920  17.8294260  13.4754210  83.3365610  17.5210110  14.1632030
  81.9286160  17.3574010  13.6314110  87.5659350  17.4460070  13.7087230
  86.8774870  16.7841610  13.6437220  88.2865370  16.9998340  14.1535690
  84.3502880  31.0960950  12.2084930  84.2761580  31.9996090  12.5157300
  83.4481720  30.7772850  12.1807000  75.7530170  28.4235540   5.5118550
  76.0833180  27.5556600   5.2797190  76.1821170  28.6294060   6.3423510
  80.3492090  26.7544550   3.1720520  80.0487630  26.6309520   4.0724430
  80.2429580  25.8953140   2.7636250  76.2420380  29.2906130   8.2500180
  75.8051370  29.4706930   9.0824330  76.8098060  30.0480750   8.1081900
  91.8782560  28.7923130  12.5377490  91.2784550  28.8515690  11.7941410
  92.0076460  27.8528110  12.6674340  76.0744810  21.8026360   4.6089060
  75.4193650  21.5338000   3.9648760  76.9122760  21.6930840   4.1591040
  90.5634200  25.5175110  10.6353650  89.7494040  25.9472270  10.8979440
  90.9708400  26.1293520  10.0222700  77.1120740  22.1878930   9.1492400
  77.4793780  22.1006330  10.0288420  76.5431560  21.4245480   9.0499260
  91.9124600  20.6563310  12.1622870  91.6810690  20.4276060  11.2620820
  92.1729150  21.5762860  12.1167760  76.6636740  19.0988020  13.0550820
  75.7692790  19.0654780  13.3944530  77.2034290  19.2974810  13.8202070
  90.3512670  15.8819740  14.9402570  91.2282850  15.8903140  15.3236570
  90.3633510  15.1450580  14.3294920  91.7975940  19.7349280   5.8290590
  92.3213420  19.2411930   5.1980760  92.3835360  19.8699640   6.5738160
  91.9765660  19.8189150   9.3510140  91.0268370  19.7852690   9.4655130
  92.1578670  20.7289260   9.1159910  91.2875910  18.9922630   1.7683000
  91.7835030  18.7593500   2.5531880  91.0891980  18.1534470   1.3520640
  77.1676450  13.3736350   7.4034040  77.8152640  12.8233730   6.9629200
  77.5878290  13.6279500   8.2249850  91.0628790  13.5677710  10.7603680
  91.7001010  14.1811850  11.1262870  91.2103680  13.6038370   9.8152910
  90.6210250  30.2693710   4.1621920  91.2169320  29.9478280   3.4856340
  90.8788400  29.7965530   4.9535190  76.9208450  13.5292020  10.1459360
  76.5723270  13.9855840  10.9117540  76.5896150  12.6349150  10.2281790
  78.5272820  26.7011620  14.3112550  78.4842450  26.3304530  15.1927010
  78.6583830  27.6389190  14.4514370  82.2278850  28.2571210   9.9122270
  81.9870210  28.5245770   9.0252790  83.1681490  28.4276940   9.9673130
  84.4333270  14.7203900  13.6678780  84.3722160  15.3125730  14.4174190
  85.3733650  14.6129860  13.5229040  87.0707830  14.3773960  13.3071070
  87.6848240  14.6953250  12.6452150  87.6157390  13.8922550  13.9266930
  77.5929090  13.0568220  13.4210130  78.1412080  12.8756270  12.6576240
  77.6584400  12.2662330  13.9566440  78.3660850  29.6473870  11.4310330
  77.7721170  29.5158570  12.1700370  78.3584690  28.8112010  10.9652430
  87.8115870  12.9406100   9.6340360  86.9375710  13.2741210   9.4313290
  87.7026620  12.4679280  10.4592230  88.7187850  15.1476970  11.0182080
  88.3901210  14.3328730  10.6383810  89.6670150  15.1046780  10.8947770
  91.1722460  30.9189010   7.9919650  90.7125430  31.6704820   7.6177670
  90.5434920  30.1995480   7.9334450  77.9973080  27.0132250  10.3818370
  77.2707140  26.3937540  10.3144320  78.0582230  27.4072860   9.5116450
  81.6018180  29.2277250   7.1667780  82.1183200  28.6164610   6.6416040
  82.2515560  29.7306030   7.6578790  84.3413680  30.1185740   7.9936760
  84.6291490  29.8640040   7.1169770  84.8536900  29.5663100   8.5842330
  85.5590690  13.8575940   8.5733270  84.7762480  14.3321440   8.8530030
  85.2653620  12.9530770   8.4646450  90.1111760  14.5599040   6.6182360
  90.5519850  14.5044140   5.7703960  89.8419350  15.4757050   6.6892540
  76.2803080  30.3306640   3.5915130  76.1125120  29.6977320   4.2897020
  75.4137590  30.5366040   3.2409320  83.4444910  16.2762690   4.0849300
  82.6319420  15.9019580   3.7445180  83.9486550  15.5207770   4.3870490
  87.9469890  12.9405140   5.3232370  88.5499260  13.5125350   5.7980890
  87.2062880  13.5044580   5.1006270  81.4694090  14.4262610   2.6894350
  80.8396830  13.7249920   2.8564480  80.9299230  15.1866740   2.4727510
  84.4086040  31.0401840  15.3604960  85.3353350  30.8046110  15.4040920
  84.3936470  31.8673840  14.8790990  81.5949650  13.7046590  15.1246840
  81.3133920  14.2080190  14.3607660  81.9769350  12.9068340  14.7588970
  88.1965110  13.1200170  15.7027310  88.0830560  13.4394780  16.5978830
  89.0134850  13.5212680  15.4064590  90.9763600  30.2671700  15.1846000
  91.7688920  29.7720930  14.9771960  91.2696750  30.9461840  15.7921610
  85.2341300   4.1428170  81.8188770  84.4583400   3.6628610  82.1087340
  85.8854230   3.4633820  81.6444930  79.2507130   4.4547980  82.6964530
  78.4192010   4.1996690  83.0961040  79.8588110   4.5258750  83.4322450
  89.2548730   8.5488360  80.5987900  88.7930260   7.7775600  80.9275070
  90.0674280   8.5754430  81.1040350  79.2308390   8.4888070  82.8922550
  79.5336430   7.5985810  82.7132770  79.9751980   9.0458290  82.6644800
  85.4812040  10.8346370  80.2191890  84.8623480  11.2903870  79.6486330
  86.3363820  10.9897830  79.8181590  84.6750290   6.8185360  81.8258930
  84.6058570   5.8775300  81.6648060  85.4370150   6.9086770  82.3981500
  86.3475390   5.7185610  77.6123800  85.7292660   6.1835060  77.0486520
  86.8598640   6.4113090  78.0293310  81.2107150   5.2461480  84.2907400
  80.8776530   5.8730400  84.9328470  81.3873830   5.7723360  83.5109070
  80.4226250   7.2142280  86.1056580  81.0400250   7.8893360  85.8241030
  79.5619370   7.6230260  86.0144080  75.7158590   6.4042140  74.9863430
  75.3386570   6.8929240  74.2548330  75.9731660   7.0767420  75.6169960
  91.3403840   8.6781690  84.0211220  90.6567360   9.3480800  84.0127890
  91.8798130   8.8762340  83.2556080  88.8762580  10.5225820  82.7356400
  88.8889740  10.1188110  81.8678660  88.3237800  11.2973110  82.6317830
  90.1708000   7.2442040  77.8246570  90.0604330   6.3016370  77.9495990
  90.1676250   7.6057680  78.7109330  88.2748020   5.4255660  84.0639010
  88.6916810   5.2115770  83.2292470  88.9987840   5.6828450  84.6347630
  85.7128280   2.8707360  77.1809060  84.7857560   2.8044740  77.4097530
  85.8653100   3.8087490  77.0664300  89.7425570   4.4327660  77.6844310
  89.1237990   4.0947210  77.0370610  89.7250020   3.7887420  78.3923500
  81.3184920   3.3972100  79.9628790  80.9141920   2.6849350  79.4674690
  81.4048040   3.0525340  80.8516830  81.7866620   7.0839660  82.1268000
  81.4894910   6.4785130  81.4475780  82.7366440   7.1216970  82.0157360
  89.8752230  10.6571530  85.7891100  89.3982790  11.4643720  85.5963710
  89.1914020  10.0049860  85.9417310  87.9190270   3.6714470  74.6917060
  88.3583550   2.8336900  74.5454880  88.6318690   4.3043870  74.7781200
  86.0285650   8.6110540  78.6598300  86.4681560   9.3534870  78.2453690
  85.9672540   8.8537110  79.5837260  78.0189550   2.2917080  77.4635440
  77.8987150   3.0179170  76.8516710  77.7090440   1.5219990  76.9863350
  75.6574920   5.4632220  83.2704080  75.7355340   5.5980990  82.3259800
  76.2716600   4.7548110  83.4632200  76.9022550   7.1632410  79.6810260
  76.4950630   7.3047000  78.8263860  77.7935560   6.8792570  79.4781470
  88.6955830  11.5979660  76.0161310  88.5356970  11.3082600  76.9143140
  88.5302540  10.8219790  75.4806540  81.1744210  11.3778190  77.7932930
  80.9986690  10.4613730  77.5800730  80.3199950  11.7365480  78.0330730
  88.3981960   9.1067220  74.5759310  87.7047120   9.1044510  73.9161590
  89.1404820   8.6826540  74.1453480  87.9631890  10.7329930  78.6507800
  88.4188840   9.9519310  78.9646420  88.3024410  11.4436750  79.1948980
  75.7134440   6.5046390  85.8098540  75.8765480   6.0351750  84.9917910
  76.1786890   5.9969950  86.4747380  82.2104240   1.9785800  74.0927620
  81.6421140   1.5304050  73.4663530  82.9193240   2.3378580  73.5592770
  83.4370560   2.7274360  83.4502970  83.8040690   2.2532930  84.1964310
  83.2475620   3.6015930  83.7911310  81.2269930   1.7683000  85.7687180
  80.9227000   2.6474980  85.9937540  82.1816390   1.8282790  85.8044620
  79.7551720   5.9743990  76.3654030  78.9813980   5.4341610  76.2052750
  80.4846350   5.4550600  76.0271790  90.5139700   4.9709350  82.1580420
  91.2338820   5.4664640  81.7676530  90.3121520   4.2927240  81.5134290
  79.7989120   5.6424370  80.0032840  80.3167790   4.8392630  79.9489730
  79.3473140   5.5803510  80.8449670  84.6858620   6.9090650  75.2760140
  85.0274320   7.6532880  74.7803460  83.8571330   7.2221770  75.6384970
  90.9612300   2.0478800  74.0651830  90.8776020   2.4793020  73.2148270
  91.6806490   2.5077150  74.4978650  91.9899550   8.9021060  76.7933960
  91.3475710   8.2476680  77.0677680  91.6030210   9.3076150  76.0174630
  87.5686030   6.2306490  80.6405650  87.9209850   5.6334620  79.9807020
  86.6848360   5.9050720  80.8113900  83.6549310   6.9904180  78.0476060
  84.3420440   7.5373390  78.4283650  82.8681730   7.5344910  78.0825670
  75.7941710   2.6077000  73.5393140  76.6636560   2.8901800  73.8229060
  75.3032030   3.4212870  73.4241950  82.9576520   3.9950210  77.6601420
  83.4139300   4.8055460  77.8861610  82.6064730   3.6773350  78.4919910
  85.2609130   9.5056550  84.8893720  85.9051350   9.7115930  85.5667140
  85.6238570   8.7444950  84.4364570  86.5341210   7.5088900  83.6071170
  87.1763440   6.8082060  83.7203340  87.0590560   8.2887340  83.4268060
  90.3796930   7.7937520  73.3310310  90.1534510   7.0767960  73.9234950
  89.9893130   7.5449960  72.4932060  76.1612960  11.8204380  74.1054770
  76.5210600  12.4193720  73.4512040  76.0205300  12.3664270  74.8789800
  89.9613180   5.7109460  74.9924470  89.6734880   6.1722150  75.7802350
  90.7565350   5.2507230  75.2608690  82.1781580   9.2035580  74.9228440
  82.1691680   9.9365270  74.3072950  81.2579940   8.9567160  75.0155400
  77.7788220   4.4250470  75.6675200  77.1716170   5.1649370  75.6770500
  78.2537570   4.5149830  74.8413400  85.1641180   9.2663820  73.5853630
  85.2653160   9.0627810  72.6555610  84.2642920   9.0122100  73.7901410
  83.8059290  11.7850140  78.2801300  84.0600790  11.7471530  77.3580670
  82.8571770  11.6583470  78.2729550  89.8111870   2.7042020  79.8559810
  88.8702010   2.7192250  80.0307500  90.1255940   1.9177980  80.3020110
  79.7893510   4.3861620  73.4163770  80.5556780   4.2742980  73.9789200
  79.8668200   3.6899590  72.7640540  79.2854980  11.9682080  81.2031200
  80.0217460  11.4197540  81.4739770  79.6695900  12.8338090  81.0637190
  76.1700460   8.0355650  77.0772710  75.2440240   8.2776790  77.0678120
  76.6356890   8.8629910  76.9557460  82.3957290  11.1412390  73.0256770
  83.1885900  11.4301220  72.5738560  81.8761640  10.7104560  72.3469250
  91.4487460  10.3682520  74.4493510  91.1628970   9.9547660  73.6347690
  91.2507010  11.2970230  74.3294030  82.9134690   6.3615800  72.8899120
  82.8085330   5.7468150  73.6160500  82.7458910   5.8381690  72.1062130
  86.1537420   5.4235830  73.4941110  85.6047520   5.8705130  74.1383850
  86.7756680   4.9185080  74.0178780  81.8212540   4.3826750  75.3906410
  82.2428960   4.2166620  76.2337800  81.9463380   3.5726980  74.8961550
  84.3340180   3.4064360  72.6383510  84.8545840   2.6913380  72.2724660
  84.9808580   4.0450230  72.9384020  83.6433250   4.7813240  85.9314510
  84.0621360   5.6245970  85.7590750  82.7241880   4.9185280  85.7021290
  88.3185050   3.0666610  85.8914860  87.7920270   3.5909230  85.2880000
  88.6616390   3.6994000  86.5224590  84.8988210  11.4875970  74.9285250
  85.7939000  11.8260940  74.9504010  84.9305840  10.7655380  74.3009530
  78.5384370   6.8603020  73.1572250  78.9759240   7.4032690  73.8129830
  79.0232100   6.0349970  73.1668590  75.7530170   9.6492050  80.6092510
  76.0833180   8.7813110  80.3771150  76.1821170   9.8550570  81.4397470
  80.3492090   7.9801060  78.2694480  80.0487630   7.8566030  79.1698390
  80.2429580   7.1209650  77.8610210  76.2420380  10.5162640  83.3474140
  75.8051370  10.6963440  84.1798290  76.8098060  11.2737260  83.2055860
  76.0744810   3.0282870  79.7063020  75.4193650   2.7594510  79.0622720
  76.9122760   2.9187350  79.2565000  90.5634200   6.7431620  85.7327610
  89.7494040   7.1728780  85.9953400  90.9708400   7.3550030  85.1196660
  77.1120740   3.4135440  84.2466360  77.4793780   3.3262840  85.1262380
  76.5431560   2.6501990  84.1473220  90.6210250  11.4950220  79.2595880
  91.2169320  11.1734790  78.5830300  90.8788400  11.0222040  80.0509150
  82.2278850   9.4827720  85.0096230  81.9870210   9.7502280  84.1226750
  83.1681490   9.6533450  85.0647090  91.1722460  12.1445520  83.0893610
  90.7125430  12.8961330  82.7151630  90.5434920  11.4251990  83.0308410
  77.9973080   8.2388760  85.4792330  77.2707140   7.6194050  85.4118280
  78.0582230   8.6329370  84.6090410  81.6018180  10.4533760  82.2641740
  82.1183200   9.8421120  81.7390000  82.2515560  10.9562540  82.7552750
  84.3413680  11.3442250  83.0910720  84.6291490  11.0896550  82.2143730
  84.8536900  10.7919610  83.6816290  76.2803080  11.5563150  78.6889090
  76.1125120  10.9233830  79.3870980  75.4137590  11.7622550  78.3383280
  77.8865780  10.2496380  76.1339230  77.3613400  10.6304410  75.4301190
  77.8110360  10.8747150  76.8548940  80.4858750  12.1978760  75.0088480
  81.2177570  11.9138040  74.4612370  80.7452420  11.9592040  75.8987860
  79.6473540   8.3143490  75.0134810  79.0182420   8.7828590  75.5620640
  79.7621370   7.4692710  75.4481000  85.2341300   4.1428170  63.0445280
  84.4583400   3.6628610  63.3343850  85.8854230   3.4633820  62.8701440
  79.2507130   4.4547980  63.9221040  78.4192010   4.1996690  64.3217550
  79.8588110   4.5258750  64.6578960  89.2548730   8.5488360  61.8244410
  88.7930260   7.7775600  62.1531580  90.0674280   8.5754430  62.3296860
  79.2308390   8.4888070  64.1179060  79.5336430   7.5985810  63.9389280
  79.9751980   9.0458290  63.8901310  85.4812040  10.8346370  61.4448400
  84.8623480  11.2903870  60.8742840  86.3363820  10.9897830  61.0438100
  84.6750290   6.8185360  63.0515440  84.6058570   5.8775300  62.8904570
  85.4370150   6.9086770  63.6238010  86.3475390   5.7185610  58.8380310
  85.7292660   6.1835060  58.2743030  86.8598640   6.4113090  59.2549820
  81.2107150   5.2461480  65.5163910  80.8776530   5.8730400  66.1584980
  81.3873830   5.7723360  64.7365580  80.4226250   7.2142280  67.3313090
  81.0400250   7.8893360  67.0497540  79.5619370   7.6230260  67.2400590
  75.7158590   6.4042140  56.2119940  75.3386570   6.8929240  55.4804840
  75.9731660   7.0767420  56.8426470  91.3403840   8.6781690  65.2467730
  90.6567360   9.3480800  65.2384400  91.8798130   8.8762340  64.4812590
  88.8762580  10.5225820  63.9612910  88.8889740  10.1188110  63.0935170
  88.3237800  11.2973110  63.8574340  90.1708000   7.2442040  59.0503080
  90.0604330   6.3016370  59.1752500  90.1676250   7.6057680  59.9365840
  88.2748020   5.4255660  65.2895520  88.6916810   5.2115770  64.4548980
  88.9987840   5.6828450  65.8604140  85.7128280   2.8707360  58.4065570
  84.7857560   2.8044740  58.6354040  85.8653100   3.8087490  58.2920810
  89.7425570   4.4327660  58.9100820  89.1237990   4.0947210  58.2627120
  89.7250020   3.7887420  59.6180010  81.3184920   3.3972100  61.1885300
  80.9141920   2.6849350  60.6931200  81.4048040   3.0525340  62.0773340
  81.7866620   7.0839660  63.3524510  81.4894910   6.4785130  62.6732290
  82.7366440   7.1216970  63.2413870  89.8752230  10.6571530  67.0147610
  89.3982790  11.4643720  66.8220220  89.1914020  10.0049860  67.1673820
  80.8785050   6.8221350  70.0032310  79.9813580   7.0461320  70.2505710
  80.9037920   6.9456290  69.0543710  87.9190270   3.6714470  55.9173570
  88.3583550   2.8336900  55.7711390  88.6318690   4.3043870  56.0037710
  79.7056270   3.6934670  68.5789680  79.5664040   4.5657470  68.9477080
  78.8237630   3.3507480  68.4337620  86.0285650   8.6110540  59.8854810
  86.4681560   9.3534870  59.4710200  85.9672540   8.8537110  60.8093770
  81.5036620   9.6356370  70.7874830  81.4752050  10.0399320  69.9203260
  81.3401590   8.7066730  70.6246430  78.0189550   2.2917080  58.6891950
  77.8987150   3.0179170  58.0773220  77.7090440   1.5219990  58.2119860
  75.6574920   5.4632220  64.4960590  75.7355340   5.5980990  63.5516310
  76.2716600   4.7548110  64.6888710  76.9022550   7.1632410  60.9066770
  76.4950630   7.3047000  60.0520370  77.7935560   6.8792570  60.7037980
  86.7201430  11.3124320  67.8133820  87.2346100  11.2232330  68.6156250
  85.8770510  11.6584020  68.1061730  88.6955830  11.5979660  57.2417820
  88.5356970  11.3082600  58.1399650  88.5302540  10.8219790  56.7063050
  81.1744210  11.3778190  59.0189440  80.9986690  10.4613730  58.8057240
  80.3199950  11.7365480  59.2587240  88.3981960   9.1067220  55.8015820
  87.7047120   9.1044510  55.1418100  89.1404820   8.6826540  55.3709990
  87.9631890  10.7329930  59.8764310  88.4188840   9.9519310  60.1902930
  88.3024410  11.4436750  60.4205490  75.7134440   6.5046390  67.0355050
  75.8765480   6.0351750  66.2174420  76.1786890   5.9969950  67.7003890
  82.2104240   1.9785800  55.3184130  81.6421140   1.5304050  54.6920040
  82.9193240   2.3378580  54.7849280  77.2873420   5.8797820  69.1950860
  76.9028210   5.2391490  69.7933820  77.5985610   6.5833940  69.7645590
  83.4370560   2.7274360  64.6759480  83.8040690   2.2532930  65.4220820
  83.2475620   3.6015930  65.0167820  81.2269930   1.7683000  66.9943690
  80.9227000   2.6474980  67.2194050  82.1816390   1.8282790  67.0301130
  79.7551720   5.9743990  57.5910540  78.9813980   5.4341610  57.4309260
  80.4846350   5.4550600  57.2528300  90.5139700   4.9709350  63.3836930
  91.2338820   5.4664640  62.9933040  90.3121520   4.2927240  62.7390800
  85.8958500   5.0418410  69.2705930  85.8295810   4.1214080  69.0163520
  85.2663640   5.1393850  69.9850570  79.7989120   5.6424370  61.2289350
  80.3167790   4.8392630  61.1746240  79.3473140   5.5803510  62.0706180
  84.6858620   6.9090650  56.5016650  85.0274320   7.6532880  56.0059970
  83.8571330   7.2221770  56.8641480  77.2833660   2.6085740  68.1415050
  76.9248600   3.2739590  68.7288390  76.9888220   1.7769290  68.5127670
  80.4846780   3.0669980  71.0254600  80.1846920   3.2127160  70.1282420
  81.2558020   2.5075270  70.9327990  85.8275230   7.8638980  69.0209730
  85.8419770   6.9319940  68.8028640  85.1200330   7.9498740  69.6599500
  90.9612300   2.0478800  55.2908340  90.8776020   2.4793020  54.4404780
  91.6806490   2.5077150  55.7235160  91.9899550   8.9021060  58.0190470
  91.3475710   8.2476680  58.2934190  91.6030210   9.3076150  57.2431140
  87.5686030   6.2306490  61.8662160  87.9209850   5.6334620  61.2063530
  86.6848360   5.9050720  62.0370410  83.6549310   6.9904180  59.2732570
  84.3420440   7.5373390  59.6540160  82.8681730   7.5344910  59.3082180
  75.7941710   2.6077000  54.7649650  76.6636560   2.8901800  55.0485570
  75.3032030   3.4212870  54.6498460  82.9576520   3.9950210  58.8857930
  83.4139300   4.8055460  59.1118120  82.6064730   3.6773350  59.7176420
  85.2609130   9.5056550  66.1150230  85.9051350   9.7115930  66.7923650
  85.6238570   8.7444950  65.6621080  86.5341210   7.5088900  64.8327680
  87.1763440   6.8082060  64.9459850  87.0590560   8.2887340  64.6524570
  90.3796930   7.7937520  54.5566820  90.1534510   7.0767960  55.1491460
  89.9893130   7.5449960  53.7188570  88.3078830   8.3083800  68.0363740
  88.6435070   8.8950490  68.7141660  87.3879170   8.1776510  68.2661530
  76.1612960  11.8204380  55.3311280  76.5210600  12.4193720  54.6768550
  76.0205300  12.3664270  56.1046310  89.9613180   5.7109460  56.2180980
  89.6734880   6.1722150  57.0058860  90.7565350   5.2507230  56.4865200
  76.1454820  10.0859240  69.8053680  76.2545940   9.1453980  69.6649070
  75.4935380  10.3513990  69.1567410  84.1367410   8.3575130  71.2051800
  83.8164280   7.6384370  71.7497490  83.4625770   9.0330200  71.2787860
  82.1781580   9.2035580  56.1484950  82.1691680   9.9365270  55.5329460
  81.2579940   8.9567160  56.2411910  77.7788220   4.4250470  56.8931710
  77.1716170   5.1649370  56.9027010  78.2537570   4.5149830  56.0669910
  85.1641180   9.2663820  54.8110140  85.2653160   9.0627810  53.8812120
  84.2642920   9.0122100  55.0157920  83.8059290  11.7850140  59.5057810
  84.0600790  11.7471530  58.5837180  82.8571770  11.6583470  59.4986060
  89.8111870   2.7042020  61.0816320  88.8702010   2.7192250  61.2564010
  90.1255940   1.9177980  61.5276620  79.7893510   4.3861620  54.6420280
  80.5556780   4.2742980  55.2045710  79.8668200   3.6899590  53.9897050
  79.2854980  11.9682080  62.4287710  80.0217460  11.4197540  62.6996280
  79.6695900  12.8338090  62.2893700  76.1700460   8.0355650  58.3029220
  75.2440240   8.2776790  58.2934630  76.6356890   8.8629910  58.1813970
  78.2913260  11.1528150  71.6173290  79.0925990  11.4740200  72.0308690
  77.7765080  10.7923730  72.3393200  82.3957290  11.1412390  54.2513280
  83.1885900  11.4301220  53.7995070  81.8761640  10.7104560  53.5725760
  87.1277890   7.2608020  71.5648700  86.5216050   7.2839620  70.8244450
  86.8232000   6.5291060  72.1015950  88.5578260  10.9888310  70.1758110
  89.5100010  10.9046330  70.1258350  88.4106480  11.6530020  70.8491900
  91.4487460  10.3682520  55.6750020  91.1628970   9.9547660  54.8604200
  91.2507010  11.2970230  55.5550540  76.0111070   3.6401610  70.5609340
  76.5150090   3.0608890  71.1325570  75.2718490   3.9241840  71.0985710
  82.9134690   6.3615800  54.1155630  82.8085330   5.7468150  54.8417010
  82.7458910   5.8381690  53.3318640  83.0649010   5.0472600  70.0944860
  82.2994680   5.6157600  70.0099530  83.2464970   4.7548810  69.2013090
  86.1537420   5.4235830  54.7197620  85.6047520   5.8705130  55.3640360
  86.7756680   4.9185080  55.2435290  90.2072360   6.7777930  70.6519880
  90.9481830   7.1153690  70.1487340  89.4445040   6.9469990  70.0989650
  78.0434150   1.7831200  71.4559410  78.0839490   1.4845070  72.3644640
  78.8979650   2.1838810  71.2966930  81.8212540   4.3826750  56.6162920
  82.2428960   4.2166620  57.4594310  81.9463380   3.5726980  56.1218060
  84.3340180   3.4064360  53.8640020  84.8545840   2.6913380  53.4981170
  84.9808580   4.0450230  54.1640530  88.8818020   4.8292760  69.1875090
  89.2959040   4.9837840  70.0365510  87.9469020   4.9547980  69.3500870
  83.6433250   4.7813240  67.1571020  84.0621360   5.6245970  66.9847260
  82.7241880   4.9185280  66.9277800  85.9797150   2.5129420  68.5408860
  86.0993360   1.9170560  69.2803700  86.8391150   2.5499110  68.1210160
  88.3185050   3.0666610  67.1171370  87.7920270   3.5909230  66.5136510
  88.6616390   3.6994000  67.7481100  81.4940670  11.0866250  68.2728750
  80.9561760  11.8112310  67.9537450  81.7474630  10.6096590  67.4826090
  84.3502880  12.3217460  68.5315400  84.2761580  13.2252600  68.8387770
  83.4481720  12.0029360  68.5037470  84.8988210  11.4875970  56.1541760
  85.7939000  11.8260940  56.1760520  84.9305840  10.7655380  55.5266040
  78.5384370   6.8603020  54.3828760  78.9759240   7.4032690  55.0386340
  79.0232100   6.0349970  54.3925100  75.7530170   9.6492050  61.8349020
  76.0833180   8.7813110  61.6027660  76.1821170   9.8550570  62.6653980
  80.3492090   7.9801060  59.4950990  80.0487630   7.8566030  60.3954900
  80.2429580   7.1209650  59.0866720  76.2420380  10.5162640  64.5730650
  75.8051370  10.6963440  65.4054800  76.8098060  11.2737260  64.4312370
  91.8782560  10.0179640  68.8607960  91.2784550  10.0772200  68.1171880
  92.0076460   9.0784620  68.9904810  76.0744810   3.0282870  60.9319530
  75.4193650   2.7594510  60.2879230  76.9122760   2.9187350  60.4821510
  90.5634200   6.7431620  66.9584120  89.7494040   7.1728780  67.2209910
  90.9708400   7.3550030  66.3453170  77.1120740   3.4135440  65.4722870
  77.4793780   3.3262840  66.3518890  76.5431560   2.6501990  65.3729730
  91.9124600   1.8819820  68.4853340  91.6810690   1.6532570  67.5851290
  92.1729150   2.8019370  68.4398230  90.6210250  11.4950220  60.4852390
  91.2169320  11.1734790  59.8086810  90.8788400  11.0222040  61.2765660
  78.5272820   7.9268130  70.6343020  78.4842450   7.5561040  71.5157480
  78.6583830   8.8645700  70.7744840  82.2278850   9.4827720  66.2352740
  81.9870210   9.7502280  65.3483260  83.1681490   9.6533450  66.2903600
  78.3660850  10.8730380  67.7540800  77.7721170  10.7415080  68.4930840
  78.3584690  10.0368520  67.2882900  91.1722460  12.1445520  64.3150120
  90.7125430  12.8961330  63.9408140  90.5434920  11.4251990  64.2564920
  77.9973080   8.2388760  66.7048840  77.2707140   7.6194050  66.6374790
  78.0582230   8.6329370  65.8346920  81.6018180  10.4533760  63.4898250
  82.1183200   9.8421120  62.9646510  82.2515560  10.9562540  63.9809260
  84.3413680  11.3442250  64.3167230  84.6291490  11.0896550  63.4400240
  84.8536900  10.7919610  64.9072800  76.2803080  11.5563150  59.9145600
  76.1125120  10.9233830  60.6127490  75.4137590  11.7622550  59.5639790
  77.8865780  10.2496380  57.3595740  77.3613400  10.6304410  56.6557700
  77.8110360  10.8747150  58.0805450  84.4086040  12.2658350  71.6835430
  85.3353350  12.0302620  71.7271390  84.3936470  13.0930350  71.2021460
  80.4858750  12.1978760  56.2344990  81.2177570  11.9138040  55.6868880
  80.7452420  11.9592040  57.1244370  79.6473540   8.3143490  56.2391320
  79.0182420   8.7828590  56.7877150  79.7621370   7.4692710  56.6737510
  90.9763600  11.4928210  71.5076470  91.7688920  10.9977440  71.3002430
  91.2696750  12.1718350  72.1152080  85.2341300   4.1428170  44.2701790
  84.4583400   3.6628610  44.5600360  85.8854230   3.4633820  44.0957950
  79.2507130   4.4547980  45.1477550  78.4192010   4.1996690  45.5474060
  79.8588110   4.5258750  45.8835470  89.2548730   8.5488360  43.0500920
  88.7930260   7.7775600  43.3788090  90.0674280   8.5754430  43.5553370
  79.2308390   8.4888070  45.3435570  79.5336430   7.5985810  45.1645790
  79.9751980   9.0458290  45.1157820  85.4812040  10.8346370  42.6704910
  84.8623480  11.2903870  42.0999350  86.3363820  10.9897830  42.2694610
  84.6750290   6.8185360  44.2771950  84.6058570   5.8775300  44.1161080
  85.4370150   6.9086770  44.8494520  86.3475390   5.7185610  40.0636820
  85.7292660   6.1835060  39.4999540  86.8598640   6.4113090  40.4806330
  81.2107150   5.2461480  46.7420420  80.8776530   5.8730400  47.3841490
  81.3873830   5.7723360  45.9622090  80.4226250   7.2142280  48.5569600
  81.0400250   7.8893360  48.2754050  79.5619370   7.6230260  48.4657100
  75.7158590   6.4042140  37.4376450  75.3386570   6.8929240  36.7061350
  75.9731660   7.0767420  38.0682980  91.3403840   8.6781690  46.4724240
  90.6567360   9.3480800  46.4640910  91.8798130   8.8762340  45.7069100
  88.8762580  10.5225820  45.1869420  88.8889740  10.1188110  44.3191680
  88.3237800  11.2973110  45.0830850  90.1708000   7.2442040  40.2759590
  90.0604330   6.3016370  40.4009010  90.1676250   7.6057680  41.1622350
  88.2748020   5.4255660  46.5152030  88.6916810   5.2115770  45.6805490
  88.9987840   5.6828450  47.0860650  85.7128280   2.8707360  39.6322080
  84.7857560   2.8044740  39.8610550  85.8653100   3.8087490  39.5177320
  89.7425570   4.4327660  40.1357330  89.1237990   4.0947210  39.4883630
  89.7250020   3.7887420  40.8436520  81.3184920   3.3972100  42.4141810
  80.9141920   2.6849350  41.9187710  81.4048040   3.0525340  43.3029850
  81.7866620   7.0839660  44.5781020  81.4894910   6.4785130  43.8988800
  82.7366440   7.1216970  44.4670380  89.8752230  10.6571530  48.2404120
  89.3982790  11.4643720  48.0476730  89.1914020  10.0049860  48.3930330
  80.8785050   6.8221350  51.2288820  79.9813580   7.0461320  51.4762220
  80.9037920   6.9456290  50.2800220  87.9190270   3.6714470  37.1430080
  88.3583550   2.8336900  36.9967900  88.6318690   4.3043870  37.2294220
  79.7056270   3.6934670  49.8046190  79.5664040   4.5657470  50.1733590
  78.8237630   3.3507480  49.6594130  86.0285650   8.6110540  41.1111320
  86.4681560   9.3534870  40.6966710  85.9672540   8.8537110  42.0350280
  81.5036620   9.6356370  52.0131340  81.4752050  10.0399320  51.1459770
  81.3401590   8.7066730  51.8502940  78.0189550   2.2917080  39.9148460
  77.8987150   3.0179170  39.3029730  77.7090440   1.5219990  39.4376370
  75.6574920   5.4632220  45.7217100  75.7355340   5.5980990  44.7772820
  76.2716600   4.7548110  45.9145220  76.9022550   7.1632410  42.1323280
  76.4950630   7.3047000  41.2776880  77.7935560   6.8792570  41.9294490
  86.7201430  11.3124320  49.0390330  87.2346100  11.2232330  49.8412760
  85.8770510  11.6584020  49.3318240  88.6955830  11.5979660  38.4674330
  88.5356970  11.3082600  39.3656160  88.5302540  10.8219790  37.9319560
  81.1744210  11.3778190  40.2445950  80.9986690  10.4613730  40.0313750
  80.3199950  11.7365480  40.4843750  88.3981960   9.1067220  37.0272330
  87.7047120   9.1044510  36.3674610  89.1404820   8.6826540  36.5966500
  87.9631890  10.7329930  41.1020820  88.4188840   9.9519310  41.4159440
  88.3024410  11.4436750  41.6462000  75.7134440   6.5046390  48.2611560
  75.8765480   6.0351750  47.4430930  76.1786890   5.9969950  48.9260400
  82.2104240   1.9785800  36.5440640  81.6421140   1.5304050  35.9176550
  82.9193240   2.3378580  36.0105790  77.2873420   5.8797820  50.4207370
  76.9028210   5.2391490  51.0190330  77.5985610   6.5833940  50.9902100
  83.4370560   2.7274360  45.9015990  83.8040690   2.2532930  46.6477330
  83.2475620   3.6015930  46.2424330  81.2269930   1.7683000  48.2200200
  80.9227000   2.6474980  48.4450560  82.1816390   1.8282790  48.2557640
  79.7551720   5.9743990  38.8167050  78.9813980   5.4341610  38.6565770
  80.4846350   5.4550600  38.4784810  90.5139700   4.9709350  44.6093440
  91.2338820   5.4664640  44.2189550  90.3121520   4.2927240  43.9647310
  85.8958500   5.0418410  50.4962440  85.8295810   4.1214080  50.2420030
  85.2663640   5.1393850  51.2107080  79.7989120   5.6424370  42.4545860
  80.3167790   4.8392630  42.4002750  79.3473140   5.5803510  43.2962690
  84.6858620   6.9090650  37.7273160  85.0274320   7.6532880  37.2316480
  83.8571330   7.2221770  38.0897990  77.2833660   2.6085740  49.3671560
  76.9248600   3.2739590  49.9544900  76.9888220   1.7769290  49.7384180
  80.4846780   3.0669980  52.2511110  80.1846920   3.2127160  51.3538930
  81.2558020   2.5075270  52.1584500  85.8275230   7.8638980  50.2466240
  85.8419770   6.9319940  50.0285150  85.1200330   7.9498740  50.8856010
  90.9612300   2.0478800  36.5164850  90.8776020   2.4793020  35.6661290
  91.6806490   2.5077150  36.9491670  91.9899550   8.9021060  39.2446980
  91.3475710   8.2476680  39.5190700  91.6030210   9.3076150  38.4687650
  87.5686030   6.2306490  43.0918670  87.9209850   5.6334620  42.4320040
  86.6848360   5.9050720  43.2626920  83.6549310   6.9904180  40.4989080
  84.3420440   7.5373390  40.8796670  82.8681730   7.5344910  40.5338690
  75.7941710   2.6077000  35.9906160  76.6636560   2.8901800  36.2742080
  75.3032030   3.4212870  35.8754970  82.9576520   3.9950210  40.1114440
  83.4139300   4.8055460  40.3374630  82.6064730   3.6773350  40.9432930
  85.2609130   9.5056550  47.3406740  85.9051350   9.7115930  48.0180160
  85.6238570   8.7444950  46.8877590  86.5341210   7.5088900  46.0584190
  87.1763440   6.8082060  46.1716360  87.0590560   8.2887340  45.8781080
  90.3796930   7.7937520  35.7823330  90.1534510   7.0767960  36.3747970
  89.9893130   7.5449960  34.9445080  88.3078830   8.3083800  49.2620250
  88.6435070   8.8950490  49.9398170  87.3879170   8.1776510  49.4918040
  76.1612960  11.8204380  36.5567790  76.5210600  12.4193720  35.9025060
  76.0205300  12.3664270  37.3302820  89.9613180   5.7109460  37.4437490
  89.6734880   6.1722150  38.2315370  90.7565350   5.2507230  37.7121710
  76.1454820  10.0859240  51.0310190  76.2545940   9.1453980  50.8905580
  75.4935380  10.3513990  50.3823920  84.1367410   8.3575130  52.4308310
  83.8164280   7.6384370  52.9754000  83.4625770   9.0330200  52.5044370
  82.1781580   9.2035580  37.3741460  82.1691680   9.9365270  36.7585970
  81.2579940   8.9567160  37.4668420  77.7788220   4.4250470  38.1188220
  77.1716170   5.1649370  38.1283520  78.2537570   4.5149830  37.2926420
  85.1641180   9.2663820  36.0366650  85.2653160   9.0627810  35.1068630
  84.2642920   9.0122100  36.2414430  83.8059290  11.7850140  40.7314320
  84.0600790  11.7471530  39.8093690  82.8571770  11.6583470  40.7242570
  89.8111870   2.7042020  42.3072830  88.8702010   2.7192250  42.4820520
  90.1255940   1.9177980  42.7533130  79.7893510   4.3861620  35.8676790
  80.5556780   4.2742980  36.4302220  79.8668200   3.6899590  35.2153560
  79.2854980  11.9682080  43.6544220  80.0217460  11.4197540  43.9252790
  79.6695900  12.8338090  43.5150210  76.1700460   8.0355650  39.5285730
  75.2440240   8.2776790  39.5191140  76.6356890   8.8629910  39.4070480
  78.2913260  11.1528150  52.8429800  79.0925990  11.4740200  53.2565200
  77.7765080  10.7923730  53.5649710  82.3957290  11.1412390  35.4769790
  83.1885900  11.4301220  35.0251580  81.8761640  10.7104560  34.7982270
  87.1277890   7.2608020  52.7905210  86.5216050   7.2839620  52.0500960
  86.8232000   6.5291060  53.3272460  88.5578260  10.9888310  51.4014620
  89.5100010  10.9046330  51.3514860  88.4106480  11.6530020  52.0748410
  91.4487460  10.3682520  36.9006530  91.1628970   9.9547660  36.0860710
  91.2507010  11.2970230  36.7807050  76.0111070   3.6401610  51.7865850
  76.5150090   3.0608890  52.3582080  75.2718490   3.9241840  52.3242220
  82.9134690   6.3615800  35.3412140  82.8085330   5.7468150  36.0673520
  82.7458910   5.8381690  34.5575150  83.0649010   5.0472600  51.3201370
  82.2994680   5.6157600  51.2356040  83.2464970   4.7548810  50.4269600
  86.1537420   5.4235830  35.9454130  85.6047520   5.8705130  36.5896870
  86.7756680   4.9185080  36.4691800  90.2072360   6.7777930  51.8776390
  90.9481830   7.1153690  51.3743850  89.4445040   6.9469990  51.3246160
  78.0434150   1.7831200  52.6815920  78.0839490   1.4845070  53.5901150
  78.8979650   2.1838810  52.5223440  81.8212540   4.3826750  37.8419430
  82.2428960   4.2166620  38.6850820  81.9463380   3.5726980  37.3474570
  84.3340180   3.4064360  35.0896530  84.8545840   2.6913380  34.7237680
  84.9808580   4.0450230  35.3897040  88.8818020   4.8292760  50.4131600
  89.2959040   4.9837840  51.2622020  87.9469020   4.9547980  50.5757380
  83.6433250   4.7813240  48.3827530  84.0621360   5.6245970  48.2103770
  82.7241880   4.9185280  48.1534310  85.9797150   2.5129420  49.7665370
  86.0993360   1.9170560  50.5060210  86.8391150   2.5499110  49.3466670
  88.3185050   3.0666610  48.3427880  87.7920270   3.5909230  47.7393020
  88.6616390   3.6994000  48.9737610  81.4940670  11.0866250  49.4985260
  80.9561760  11.8112310  49.1793960  81.7474630  10.6096590  48.7082600
  84.3502880  12.3217460  49.7571910  84.2761580  13.2252600  50.0644280
  83.4481720  12.0029360  49.7293980  84.8988210  11.4875970  37.3798270
  85.7939000  11.8260940  37.4017030  84.9305840  10.7655380  36.7522550
  78.5384370   6.8603020  35.6085270  78.9759240   7.4032690  36.2642850
  79.0232100   6.0349970  35.6181610  75.7530170   9.6492050  43.0605530
  76.0833180   8.7813110  42.8284170  76.1821170   9.8550570  43.8910490
  80.3492090   7.9801060  40.7207500  80.0487630   7.8566030  41.6211410
  80.2429580   7.1209650  40.3123230  76.2420380  10.5162640  45.7987160
  75.8051370  10.6963440  46.6311310  76.8098060  11.2737260  45.6568880
  91.8782560  10.0179640  50.0864470  91.2784550  10.0772200  49.3428390
  92.0076460   9.0784620  50.2161320  76.0744810   3.0282870  42.1576040
  75.4193650   2.7594510  41.5135740  76.9122760   2.9187350  41.7078020
  90.5634200   6.7431620  48.1840630  89.7494040   7.1728780  48.4466420
  90.9708400   7.3550030  47.5709680  77.1120740   3.4135440  46.6979380
  77.4793780   3.3262840  47.5775400  76.5431560   2.6501990  46.5986240
  91.9124600   1.8819820  49.7109850  91.6810690   1.6532570  48.8107800
  92.1729150   2.8019370  49.6654740  90.6210250  11.4950220  41.7108900
  91.2169320  11.1734790  41.0343320  90.8788400  11.0222040  42.5022170
  78.5272820   7.9268130  51.8599530  78.4842450   7.5561040  52.7413990
  78.6583830   8.8645700  52.0001350  82.2278850   9.4827720  47.4609250
  81.9870210   9.7502280  46.5739770  83.1681490   9.6533450  47.5160110
  78.3660850  10.8730380  48.9797310  77.7721170  10.7415080  49.7187350
  78.3584690  10.0368520  48.5139410  91.1722460  12.1445520  45.5406630
  90.7125430  12.8961330  45.1664650  90.5434920  11.4251990  45.4821430
  77.9973080   8.2388760  47.9305350  77.2707140   7.6194050  47.8631300
  78.0582230   8.6329370  47.0603430  81.6018180  10.4533760  44.7154760
  82.1183200   9.8421120  44.1903020  82.2515560  10.9562540  45.2065770
  84.3413680  11.3442250  45.5423740  84.6291490  11.0896550  44.6656750
  84.8536900  10.7919610  46.1329310  76.2803080  11.5563150  41.1402110
  76.1125120  10.9233830  41.8384000  75.4137590  11.7622550  40.7896300
  77.8865780  10.2496380  38.5852250  77.3613400  10.6304410  37.8814210
  77.8110360  10.8747150  39.3061960  84.4086040  12.2658350  52.9091940
  85.3353350  12.0302620  52.9527900  84.3936470  13.0930350  52.4277970
  80.4858750  12.1978760  37.4601500  81.2177570  11.9138040  36.9125390
  80.7452420  11.9592040  38.3500880  79.6473540   8.3143490  37.4647830
  79.0182420   8.7828590  38.0133660  79.7621370   7.4692710  37.8994020
  90.9763600  11.4928210  52.7332980  91.7688920  10.9977440  52.5258940
  91.2696750  12.1718350  53.3408590  85.2341300   4.1428170  25.4958300
  84.4583400   3.6628610  25.7856870  85.8854230   3.4633820  25.3214460
  79.2507130   4.4547980  26.3734060  78.4192010   4.1996690  26.7730570
  79.8588110   4.5258750  27.1091980  89.2548730   8.5488360  24.2757430
  88.7930260   7.7775600  24.6044600  90.0674280   8.5754430  24.7809880
  79.2308390   8.4888070  26.5692080  79.5336430   7.5985810  26.3902300
  79.9751980   9.0458290  26.3414330  85.4812040  10.8346370  23.8961420
  84.8623480  11.2903870  23.3255860  86.3363820  10.9897830  23.4951120
  84.6750290   6.8185360  25.5028460  84.6058570   5.8775300  25.3417590
  85.4370150   6.9086770  26.0751030  86.3475390   5.7185610  21.2893330
  85.7292660   6.1835060  20.7256050  86.8598640   6.4113090  21.7062840
  81.2107150   5.2461480  27.9676930  80.8776530   5.8730400  28.6098000
  81.3873830   5.7723360  27.1878600  80.4226250   7.2142280  29.7826110
  81.0400250   7.8893360  29.5010560  79.5619370   7.6230260  29.6913610
  75.7158590   6.4042140  18.6632960  75.3386570   6.8929240  17.9317860
  75.9731660   7.0767420  19.2939490  91.3403840   8.6781690  27.6980750
  90.6567360   9.3480800  27.6897420  91.8798130   8.8762340  26.9325610
  88.8762580  10.5225820  26.4125930  88.8889740  10.1188110  25.5448190
  88.3237800  11.2973110  26.3087360  90.1708000   7.2442040  21.5016100
  90.0604330   6.3016370  21.6265520  90.1676250   7.6057680  22.3878860
  88.2748020   5.4255660  27.7408540  88.6916810   5.2115770  26.9062000
  88.9987840   5.6828450  28.3117160  85.7128280   2.8707360  20.8578590
  84.7857560   2.8044740  21.0867060  85.8653100   3.8087490  20.7433830
  89.7425570   4.4327660  21.3613840  89.1237990   4.0947210  20.7140140
  89.7250020   3.7887420  22.0693030  81.3184920   3.3972100  23.6398320
  80.9141920   2.6849350  23.1444220  81.4048040   3.0525340  24.5286360
  81.7866620   7.0839660  25.8037530  81.4894910   6.4785130  25.1245310
  82.7366440   7.1216970  25.6926890  89.8752230  10.6571530  29.4660630
  89.3982790  11.4643720  29.2733240  89.1914020  10.0049860  29.6186840
  80.8785050   6.8221350  32.4545330  79.9813580   7.0461320  32.7018730
  80.9037920   6.9456290  31.5056730  87.9190270   3.6714470  18.3686590
  88.3583550   2.8336900  18.2224410  88.6318690   4.3043870  18.4550730
  79.7056270   3.6934670  31.0302700  79.5664040   4.5657470  31.3990100
  78.8237630   3.3507480  30.8850640  86.0285650   8.6110540  22.3367830
  86.4681560   9.3534870  21.9223220  85.9672540   8.8537110  23.2606790
  81.5036620   9.6356370  33.2387850  81.4752050  10.0399320  32.3716280
  81.3401590   8.7066730  33.0759450  78.0189550   2.2917080  21.1404970
  77.8987150   3.0179170  20.5286240  77.7090440   1.5219990  20.6632880
  75.6574920   5.4632220  26.9473610  75.7355340   5.5980990  26.0029330
  76.2716600   4.7548110  27.1401730  76.9022550   7.1632410  23.3579790
  76.4950630   7.3047000  22.5033390  77.7935560   6.8792570  23.1551000
  86.7201430  11.3124320  30.2646840  87.2346100  11.2232330  31.0669270
  85.8770510  11.6584020  30.5574750  88.6955830  11.5979660  19.6930840
  88.5356970  11.3082600  20.5912670  88.5302540  10.8219790  19.1576070
  81.1744210  11.3778190  21.4702460  80.9986690  10.4613730  21.2570260
  80.3199950  11.7365480  21.7100260  88.3981960   9.1067220  18.2528840
  87.7047120   9.1044510  17.5931120  89.1404820   8.6826540  17.8223010
  87.9631890  10.7329930  22.3277330  88.4188840   9.9519310  22.6415950
  88.3024410  11.4436750  22.8718510  75.7134440   6.5046390  29.4868070
  75.8765480   6.0351750  28.6687440  76.1786890   5.9969950  30.1516910
  82.2104240   1.9785800  17.7697150  81.6421140   1.5304050  17.1433060
  82.9193240   2.3378580  17.2362300  77.2873420   5.8797820  31.6463880
  76.9028210   5.2391490  32.2446840  77.5985610   6.5833940  32.2158610
  83.4370560   2.7274360  27.1272500  83.8040690   2.2532930  27.8733840
  83.2475620   3.6015930  27.4680840  81.2269930   1.7683000  29.4456710
  80.9227000   2.6474980  29.6707070  82.1816390   1.8282790  29.4814150
  79.7551720   5.9743990  20.0423560  78.9813980   5.4341610  19.8822280
  80.4846350   5.4550600  19.7041320  90.5139700   4.9709350  25.8349950
  91.2338820   5.4664640  25.4446060  90.3121520   4.2927240  25.1903820
  85.8958500   5.0418410  31.7218950  85.8295810   4.1214080  31.4676540
  85.2663640   5.1393850  32.4363590  79.7989120   5.6424370  23.6802370
  80.3167790   4.8392630  23.6259260  79.3473140   5.5803510  24.5219200
  84.6858620   6.9090650  18.9529670  85.0274320   7.6532880  18.4572990
  83.8571330   7.2221770  19.3154500  77.2833660   2.6085740  30.5928070
  76.9248600   3.2739590  31.1801410  76.9888220   1.7769290  30.9640690
  80.4846780   3.0669980  33.4767620  80.1846920   3.2127160  32.5795440
  81.2558020   2.5075270  33.3841010  85.8275230   7.8638980  31.4722750
  85.8419770   6.9319940  31.2541660  85.1200330   7.9498740  32.1112520
  90.9612300   2.0478800  17.7421360  90.8776020   2.4793020  16.8917800
  91.6806490   2.5077150  18.1748180  91.9899550   8.9021060  20.4703490
  91.3475710   8.2476680  20.7447210  91.6030210   9.3076150  19.6944160
  87.5686030   6.2306490  24.3175180  87.9209850   5.6334620  23.6576550
  86.6848360   5.9050720  24.4883430  83.6549310   6.9904180  21.7245590
  84.3420440   7.5373390  22.1053180  82.8681730   7.5344910  21.7595200
  75.7941710   2.6077000  17.2162670  76.6636560   2.8901800  17.4998590
  75.3032030   3.4212870  17.1011480  82.9576520   3.9950210  21.3370950
  83.4139300   4.8055460  21.5631140  82.6064730   3.6773350  22.1689440
  85.2609130   9.5056550  28.5663250  85.9051350   9.7115930  29.2436670
  85.6238570   8.7444950  28.1134100  86.5341210   7.5088900  27.2840700
  87.1763440   6.8082060  27.3972870  87.0590560   8.2887340  27.1037590
  90.3796930   7.7937520  17.0079840  90.1534510   7.0767960  17.6004480
  89.9893130   7.5449960  16.1701590  88.3078830   8.3083800  30.4876760
  88.6435070   8.8950490  31.1654680  87.3879170   8.1776510  30.7174550
  76.1612960  11.8204380  17.7824300  76.5210600  12.4193720  17.1281570
  76.0205300  12.3664270  18.5559330  89.9613180   5.7109460  18.6694000
  89.6734880   6.1722150  19.4571880  90.7565350   5.2507230  18.9378220
  76.1454820  10.0859240  32.2566700  76.2545940   9.1453980  32.1162090
  75.4935380  10.3513990  31.6080430  84.1367410   8.3575130  33.6564820
  83.8164280   7.6384370  34.2010510  83.4625770   9.0330200  33.7300880
  82.1781580   9.2035580  18.5997970  82.1691680   9.9365270  17.9842480
  81.2579940   8.9567160  18.6924930  77.7788220   4.4250470  19.3444730
  77.1716170   5.1649370  19.3540030  78.2537570   4.5149830  18.5182930
  85.1641180   9.2663820  17.2623160  85.2653160   9.0627810  16.3325140
  84.2642920   9.0122100  17.4670940  83.8059290  11.7850140  21.9570830
  84.0600790  11.7471530  21.0350200  82.8571770  11.6583470  21.9499080
  89.8111870   2.7042020  23.5329340  88.8702010   2.7192250  23.7077030
  90.1255940   1.9177980  23.9789640  79.7893510   4.3861620  17.0933300
  80.5556780   4.2742980  17.6558730  79.8668200   3.6899590  16.4410070
  79.2854980  11.9682080  24.8800730  80.0217460  11.4197540  25.1509300
  79.6695900  12.8338090  24.7406720  76.1700460   8.0355650  20.7542240
  75.2440240   8.2776790  20.7447650  76.6356890   8.8629910  20.6326990
  78.2913260  11.1528150  34.0686310  79.0925990  11.4740200  34.4821710
  77.7765080  10.7923730  34.7906220  82.3957290  11.1412390  16.7026300
  83.1885900  11.4301220  16.2508090  81.8761640  10.7104560  16.0238780
  87.1277890   7.2608020  34.0161720  86.5216050   7.2839620  33.2757470
  86.8232000   6.5291060  34.5528970  88.5578260  10.9888310  32.6271130
  89.5100010  10.9046330  32.5771370  88.4106480  11.6530020  33.3004920
  91.4487460  10.3682520  18.1263040  91.1628970   9.9547660  17.3117220
  91.2507010  11.2970230  18.0063560  76.0111070   3.6401610  33.0122360
  76.5150090   3.0608890  33.5838590  75.2718490   3.9241840  33.5498730
  82.9134690   6.3615800  16.5668650  82.8085330   5.7468150  17.2930030
  82.7458910   5.8381690  15.7831660  83.0649010   5.0472600  32.5457880
  82.2994680   5.6157600  32.4612550  83.2464970   4.7548810  31.6526110
  86.1537420   5.4235830  17.1710640  85.6047520   5.8705130  17.8153380
  86.7756680   4.9185080  17.6948310  90.2072360   6.7777930  33.1032900
  90.9481830   7.1153690  32.6000360  89.4445040   6.9469990  32.5502670
  78.0434150   1.7831200  33.9072430  78.0839490   1.4845070  34.8157660
  78.8979650   2.1838810  33.7479950  81.8212540   4.3826750  19.0675940
  82.2428960   4.2166620  19.9107330  81.9463380   3.5726980  18.5731080
  84.3340180   3.4064360  16.3153040  84.8545840   2.6913380  15.9494190
  84.9808580   4.0450230  16.6153550  88.8818020   4.8292760  31.6388110
  89.2959040   4.9837840  32.4878530  87.9469020   4.9547980  31.8013890
  83.6433250   4.7813240  29.6084040  84.0621360   5.6245970  29.4360280
  82.7241880   4.9185280  29.3790820  85.9797150   2.5129420  30.9921880
  86.0993360   1.9170560  31.7316720  86.8391150   2.5499110  30.5723180
  88.3185050   3.0666610  29.5684390  87.7920270   3.5909230  28.9649530
  88.6616390   3.6994000  30.1994120  81.4940670  11.0866250  30.7241770
  80.9561760  11.8112310  30.4050470  81.7474630  10.6096590  29.9339110
  84.3502880  12.3217460  30.9828420  84.2761580  13.2252600  31.2900790
  83.4481720  12.0029360  30.9550490  84.8988210  11.4875970  18.6054780
  85.7939000  11.8260940  18.6273540  84.9305840  10.7655380  17.9779060
  78.5384370   6.8603020  16.8341780  78.9759240   7.4032690  17.4899360
  79.0232100   6.0349970  16.8438120  75.7530170   9.6492050  24.2862040
  76.0833180   8.7813110  24.0540680  76.1821170   9.8550570  25.1167000
  80.3492090   7.9801060  21.9464010  80.0487630   7.8566030  22.8467920
  80.2429580   7.1209650  21.5379740  76.2420380  10.5162640  27.0243670
  75.8051370  10.6963440  27.8567820  76.8098060  11.2737260  26.8825390
  91.8782560  10.0179640  31.3120980  91.2784550  10.0772200  30.5684900
  92.0076460   9.0784620  31.4417830  76.0744810   3.0282870  23.3832550
  75.4193650   2.7594510  22.7392250  76.9122760   2.9187350  22.9334530
  90.5634200   6.7431620  29.4097140  89.7494040   7.1728780  29.6722930
  90.9708400   7.3550030  28.7966190  77.1120740   3.4135440  27.9235890
  77.4793780   3.3262840  28.8031910  76.5431560   2.6501990  27.8242750
  91.9124600   1.8819820  30.9366360  91.6810690   1.6532570  30.0364310
  92.1729150   2.8019370  30.8911250  90.6210250  11.4950220  22.9365410
  91.2169320  11.1734790  22.2599830  90.8788400  11.0222040  23.7278680
  78.5272820   7.9268130  33.0856040  78.4842450   7.5561040  33.9670500
  78.6583830   8.8645700  33.2257860  82.2278850   9.4827720  28.6865760
  81.9870210   9.7502280  27.7996280  83.1681490   9.6533450  28.7416620
  78.3660850  10.8730380  30.2053820  77.7721170  10.7415080  30.9443860
  78.3584690  10.0368520  29.7395920  91.1722460  12.1445520  26.7663140
  90.7125430  12.8961330  26.3921160  90.5434920  11.4251990  26.7077940
  77.9973080   8.2388760  29.1561860  77.2707140   7.6194050  29.0887810
  78.0582230   8.6329370  28.2859940  81.6018180  10.4533760  25.9411270
  82.1183200   9.8421120  25.4159530  82.2515560  10.9562540  26.4322280
  84.3413680  11.3442250  26.7680250  84.6291490  11.0896550  25.8913260
  84.8536900  10.7919610  27.3585820  76.2803080  11.5563150  22.3658620
  76.1125120  10.9233830  23.0640510  75.4137590  11.7622550  22.0152810
  77.8865780  10.2496380  19.8108760  77.3613400  10.6304410  19.1070720
  77.8110360  10.8747150  20.5318470  84.4086040  12.2658350  34.1348450
  85.3353350  12.0302620  34.1784410  84.3936470  13.0930350  33.6534480
  80.4858750  12.1978760  18.6858010  81.2177570  11.9138040  18.1381900
  80.7452420  11.9592040  19.5757390  79.6473540   8.3143490  18.6904340
  79.0182420   8.7828590  19.2390170  79.7621370   7.4692710  19.1250530
  90.9763600  11.4928210  33.9589490  91.7688920  10.9977440  33.7515450
  91.2696750  12.1718350  34.5665100  85.2341300   4.1428170   6.7214810
  84.4583400   3.6628610   7.0113380  85.8854230   3.4633820   6.5470970
  79.2507130   4.4547980   7.5990570  78.4192010   4.1996690   7.9987080
  79.8588110   4.5258750   8.3348490  89.2548730   8.5488360   5.5013940
  88.7930260   7.7775600   5.8301110  90.0674280   8.5754430   6.0066390
  79.2308390   8.4888070   7.7948590  79.5336430   7.5985810   7.6158810
  79.9751980   9.0458290   7.5670840  85.4812040  10.8346370   5.1217930
  84.8623480  11.2903870   4.5512370  86.3363820  10.9897830   4.7207630
  84.6750290   6.8185360   6.7284970  84.6058570   5.8775300   6.5674100
  85.4370150   6.9086770   7.3007540  86.3475390   5.7185610   2.5149840
  85.7292660   6.1835060   1.9512560  86.8598640   6.4113090   2.9319350
  81.2107150   5.2461480   9.1933440  80.8776530   5.8730400   9.8354510
  81.3873830   5.7723360   8.4135110  80.4226250   7.2142280  11.0082620
  81.0400250   7.8893360  10.7267070  79.5619370   7.6230260  10.9170120
  91.3403840   8.6781690   8.9237260  90.6567360   9.3480800   8.9153930
  91.8798130   8.8762340   8.1582120  88.8762580  10.5225820   7.6382440
  88.8889740  10.1188110   6.7704700  88.3237800  11.2973110   7.5343870
  90.1708000   7.2442040   2.7272610  90.0604330   6.3016370   2.8522030
  90.1676250   7.6057680   3.6135370  88.2748020   5.4255660   8.9665050
  88.6916810   5.2115770   8.1318510  88.9987840   5.6828450   9.5373670
  85.7128280   2.8707360   2.0835100  84.7857560   2.8044740   2.3123570
  85.8653100   3.8087490   1.9690340  89.7425570   4.4327660   2.5870350
  89.1237990   4.0947210   1.9396650  89.7250020   3.7887420   3.2949540
  81.3184920   3.3972100   4.8654830  80.9141920   2.6849350   4.3700730
  81.4048040   3.0525340   5.7542870  81.7866620   7.0839660   7.0294040
  81.4894910   6.4785130   6.3501820  82.7366440   7.1216970   6.9183400
  89.8752230  10.6571530  10.6917140  89.3982790  11.4643720  10.4989750
  89.1914020  10.0049860  10.8443350  80.8785050   6.8221350  13.6801840
  79.9813580   7.0461320  13.9275240  80.9037920   6.9456290  12.7313240
  79.7056270   3.6934670  12.2559210  79.5664040   4.5657470  12.6246610
  78.8237630   3.3507480  12.1107150  86.0285650   8.6110540   3.5624340
  86.4681560   9.3534870   3.1479730  85.9672540   8.8537110   4.4863300
  81.5036620   9.6356370  14.4644360  81.4752050  10.0399320  13.5972790
  81.3401590   8.7066730  14.3015960  78.0189550   2.2917080   2.3661480
  77.8987150   3.0179170   1.7542750  77.7090440   1.5219990   1.8889390
  75.6574920   5.4632220   8.1730120  75.7355340   5.5980990   7.2285840
  76.2716600   4.7548110   8.3658240  76.9022550   7.1632410   4.5836300
  76.4950630   7.3047000   3.7289900  77.7935560   6.8792570   4.3807510
  86.7201430  11.3124320  11.4903350  87.2346100  11.2232330  12.2925780
  85.8770510  11.6584020  11.7831260  81.1744210  11.3778190   2.6958970
  80.9986690  10.4613730   2.4826770  80.3199950  11.7365480   2.9356770
  87.9631890  10.7329930   3.5533840  88.4188840   9.9519310   3.8672460
  88.3024410  11.4436750   4.0975020  75.7134440   6.5046390  10.7124580
  75.8765480   6.0351750   9.8943950  76.1786890   5.9969950  11.3773420
  77.2873420   5.8797820  12.8720390  76.9028210   5.2391490  13.4703350
  77.5985610   6.5833940  13.4415120  83.4370560   2.7274360   8.3529010
  83.8040690   2.2532930   9.0990350  83.2475620   3.6015930   8.6937350
  81.2269930   1.7683000  10.6713220  80.9227000   2.6474980  10.8963580
  82.1816390   1.8282790  10.7070660  90.5139700   4.9709350   7.0606460
  91.2338820   5.4664640   6.6702570  90.3121520   4.2927240   6.4160330
  85.8958500   5.0418410  12.9475460  85.8295810   4.1214080  12.6933050
  85.2663640   5.1393850  13.6620100  79.7989120   5.6424370   4.9058880
  80.3167790   4.8392630   4.8515770  79.3473140   5.5803510   5.7475710
  77.2833660   2.6085740  11.8184580  76.9248600   3.2739590  12.4057920
  76.9888220   1.7769290  12.1897200  80.4846780   3.0669980  14.7024130
  80.1846920   3.2127160  13.8051950  81.2558020   2.5075270  14.6097520
  85.8275230   7.8638980  12.6979260  85.8419770   6.9319940  12.4798170
  85.1200330   7.9498740  13.3369030  87.5686030   6.2306490   5.5431690
  87.9209850   5.6334620   4.8833060  86.6848360   5.9050720   5.7139940
  83.6549310   6.9904180   2.9502100  84.3420440   7.5373390   3.3309690
  82.8681730   7.5344910   2.9851710  82.9576520   3.9950210   2.5627460
  83.4139300   4.8055460   2.7887650  82.6064730   3.6773350   3.3945950
  85.2609130   9.5056550   9.7919760  85.9051350   9.7115930  10.4693180
  85.6238570   8.7444950   9.3390610  86.5341210   7.5088900   8.5097210
  87.1763440   6.8082060   8.6229380  87.0590560   8.2887340   8.3294100
  88.3078830   8.3083800  11.7133270  88.6435070   8.8950490  12.3911190
  87.3879170   8.1776510  11.9431060  76.1454820  10.0859240  13.4823210
  76.2545940   9.1453980  13.3418600  75.4935380  10.3513990  12.8336940
  84.1367410   8.3575130  14.8821330  83.8164280   7.6384370  15.4267020
  83.4625770   9.0330200  14.9557390  83.8059290  11.7850140   3.1827340
  84.0600790  11.7471530   2.2606710  82.8571770  11.6583470   3.1755590
  89.8111870   2.7042020   4.7585850  88.8702010   2.7192250   4.9333540
  90.1255940   1.9177980   5.2046150  79.2854980  11.9682080   6.1057240
  80.0217460  11.4197540   6.3765810  79.6695900  12.8338090   5.9663230
  76.1700460   8.0355650   1.9798750  75.2440240   8.2776790   1.9704160
  76.6356890   8.8629910   1.8583500  78.2913260  11.1528150  15.2942820
  79.0925990  11.4740200  15.7078220  77.7765080  10.7923730  16.0162730
  87.1277890   7.2608020  15.2418230  86.5216050   7.2839620  14.5013980
  86.8232000   6.5291060  15.7785480  88.5578260  10.9888310  13.8527640
  89.5100010  10.9046330  13.8027880  88.4106480  11.6530020  14.5261430
  76.0111070   3.6401610  14.2378870  76.5150090   3.0608890  14.8095100
  75.2718490   3.9241840  14.7755240  83.0649010   5.0472600  13.7714390
  82.2994680   5.6157600  13.6869060  83.2464970   4.7548810  12.8782620
  90.2072360   6.7777930  14.3289410  90.9481830   7.1153690  13.8256870
  89.4445040   6.9469990  13.7759180  78.0434150   1.7831200  15.1328940
  78.0839490   1.4845070  16.0414170  78.8979650   2.1838810  14.9736460
  88.8818020   4.8292760  12.8644620  89.2959040   4.9837840  13.7135040
  87.9469020   4.9547980  13.0270400  83.6433250   4.7813240  10.8340550
  84.0621360   5.6245970  10.6616790  82.7241880   4.9185280  10.6047330
  85.9797150   2.5129420  12.2178390  86.0993360   1.9170560  12.9573230
  86.8391150   2.5499110  11.7979690  88.3185050   3.0666610  10.7940900
  87.7920270   3.5909230  10.1906040  88.6616390   3.6994000  11.4250630
  81.4940670  11.0866250  11.9498280  80.9561760  11.8112310  11.6306980
  81.7474630  10.6096590  11.1595620  84.3502880  12.3217460  12.2084930
  84.2761580  13.2252600  12.5157300  83.4481720  12.0029360  12.1807000
  75.7530170   9.6492050   5.5118550  76.0833180   8.7813110   5.2797190
  76.1821170   9.8550570   6.3423510  80.3492090   7.9801060   3.1720520
  80.0487630   7.8566030   4.0724430  80.2429580   7.1209650   2.7636250
  76.2420380  10.5162640   8.2500180  75.8051370  10.6963440   9.0824330
  76.8098060  11.2737260   8.1081900  91.8782560  10.0179640  12.5377490
  91.2784550  10.0772200  11.7941410  92.0076460   9.0784620  12.6674340
  76.0744810   3.0282870   4.6089060  75.4193650   2.7594510   3.9648760
  76.9122760   2.9187350   4.1591040  90.5634200   6.7431620  10.6353650
  89.7494040   7.1728780  10.8979440  90.9708400   7.3550030  10.0222700
  77.1120740   3.4135440   9.1492400  77.4793780   3.3262840  10.0288420
  76.5431560   2.6501990   9.0499260  91.9124600   1.8819820  12.1622870
  91.6810690   1.6532570  11.2620820  92.1729150   2.8019370  12.1167760
  90.6210250  11.4950220   4.1621920  91.2169320  11.1734790   3.4856340
  90.8788400  11.0222040   4.9535190  78.5272820   7.9268130  14.3112550
  78.4842450   7.5561040  15.1927010  78.6583830   8.8645700  14.4514370
  82.2278850   9.4827720   9.9122270  81.9870210   9.7502280   9.0252790
  83.1681490   9.6533450   9.9673130  78.3660850  10.8730380  11.4310330
  77.7721170  10.7415080  12.1700370  78.3584690  10.0368520  10.9652430
  91.1722460  12.1445520   7.9919650  90.7125430  12.8961330   7.6177670
  90.5434920  11.4251990   7.9334450  77.9973080   8.2388760  10.3818370
  77.2707140   7.6194050  10.3144320  78.0582230   8.6329370   9.5116450
  81.6018180  10.4533760   7.1667780  82.1183200   9.8421120   6.6416040
  82.2515560  10.9562540   7.6578790  84.3413680  11.3442250   7.9936760
  84.6291490  11.0896550   7.1169770  84.8536900  10.7919610   8.5842330
  76.2803080  11.5563150   3.5915130  76.1125120  10.9233830   4.2897020
  75.4137590  11.7622550   3.2409320  84.4086040  12.2658350  15.3604960
  85.3353350  12.0302620  15.4040920  84.3936470  13.0930350  14.8790990
  90.9763600  11.4928210  15.1846000  91.7688920  10.9977440  14.9771960
  91.2696750  12.1718350  15.7921610  68.3279770  96.2366600  79.9379500
  68.2473820  95.3221210  79.6671210  67.9144190  96.7333670  79.2319210
  66.4597810  98.0145620  81.8188770  65.6839910  97.5346060  82.1087340
  67.1110740  97.3351270  81.6444930  60.4763640  98.3265430  82.6964530
  59.6448520  98.0714140  83.0961040  61.0844620  98.3976200  83.4322450
  58.8855590  93.2867320  76.4806920  57.9972290  93.6283290  76.3786800
  59.1696780  93.0867640  75.5887750  56.8488600  95.8872970  82.3646620
  57.4204710  95.1195170  82.3650260  56.8490140  96.1861730  81.4553230
  58.0913470  91.2957330  84.1515550  57.9116310  90.3983080  84.4318310
  57.6893550  91.8429200  84.8262500  66.9311970  93.4973190  82.0527860
  67.3076790  92.6245070  81.9401530  66.8331480  93.8331890  81.1618300
  61.0616980  91.8698820  77.5145300  61.1683730  92.7702550  77.8214060
  60.1509340  91.8216790  77.2239950  70.7136090  90.9923630  78.9856200
  71.5345710  90.5020200  79.0281680  70.7470170  91.5821290  79.7388040
  58.7100140  93.7917830  82.7597890  59.3910250  94.0556200  83.3785290
  58.3948190  92.9518700  83.0935900  62.9024710  94.8385190  81.8470480
  63.4102930  95.3366160  82.4875500  63.4337950  94.0620390  81.6709840
  75.0035640  93.0090380  85.5499830  74.2987810  93.3972090  85.0314940
  75.2693560  93.7040670  86.1520760  61.1860810  89.4783750  86.1133900
  61.1879250  89.9956140  85.3079800  60.3565120  89.0013930  86.0903830
  70.9497570  92.9324010  81.7583740  70.2453140  93.2208900  82.3386850
  71.3109730  93.7424120  81.3983300  60.8676140  91.1893710  84.1204350
  61.2092950  92.0335760  83.8258220  59.9291950  91.3377450  84.2369690
  74.0184490  92.3778800  82.1492950  73.0709400  92.4117780  82.2808380
  74.3434480  93.1917750  82.5342310  64.5504030  88.6775980  80.4448940
  64.8579010  88.1222870  79.7284440  63.6204730  88.8120440  80.2621930
  66.9384790  96.7424810  77.1809060  66.0114070  96.6762190  77.4097530
  67.0909610  97.6804940  77.0664300  66.9253870  93.0141810  74.1776220
  65.9857540  93.1755770  74.2628680  67.2437130  93.7327490  73.6312210
  73.4466630  97.6960330  84.1555250  72.6185260  97.7653420  83.6805380
  74.0417110  98.2814640  83.6871080  70.9682080  98.3045110  77.6844310
  70.3494500  97.9664660  77.0370610  70.9506530  97.6604870  78.3923500
  70.4108640  94.4829650  85.1010120  69.9979820  95.3083360  85.3550110
  69.6784590  93.8974690  84.9086480  62.5441430  97.2689550  79.9628790
  62.1398430  96.5566800  79.4674690  62.6304550  96.9242790  80.8516830
  61.2570050  94.0432760  83.7427830  61.8084640  94.1528100  82.9681080
  61.7713560  94.4170360  84.4583060  69.1446780  97.5431920  74.6917060
  69.5840060  96.7054350  74.5454880  69.8575200  98.1761320  74.7781200
  72.7263920  88.7974730  73.0058100  72.4136580  88.8901560  73.9057170
  73.4876390  89.3755760  72.9555530  59.2446060  96.1634530  77.4635440
  59.1243660  96.8896620  76.8516710  58.9346950  95.3937440  76.9863350
  61.7109720  89.5069600  80.8459110  61.2677870  90.2879140  80.5143630
  62.2694710  89.8299490  81.5530050  64.8268540  89.1280300  75.7264940
  64.2022720  89.1240170  76.4518250  64.7398660  88.2611260  75.3300910
  63.7485620  90.0516930  82.7048710  64.0457950  90.9579760  82.6240730
  64.2971180  89.5635710  82.0908280  61.5023940  94.6303170  78.5740360
  61.2764860  94.4140340  79.4786980  60.7216470  95.0631630  78.2286330
  68.7321700  94.6366540  77.1731010  68.1330590  95.3602340  76.9894630
  69.2801310  94.5743320  76.3907460  67.3386570  93.2730080  79.2034290
  67.7316140  93.5902280  78.3902980  67.7003420  92.3941960  79.3178810
  56.3750740  89.8630880  81.4264490  56.0863790  90.4333740  82.1389470
  57.1196500  89.3835330  81.7895720  56.5620970  93.8051000  72.6367210
  56.4795640  94.7481760  72.7782200  56.2104030  93.6625910  71.7579560
  67.9241710  95.8635830  83.2985070  67.1922830  96.3722640  83.6475170
  67.5266050  95.0465810  82.9973850  64.3619100  92.5390030  81.7037560
  64.3655160  92.0979980  80.8542100  65.2570220  92.8607360  81.8109380
  60.2121480  92.4216520  80.6631770  59.8721530  92.8991750  81.4198820
  59.4498800  91.9681640  80.3032870  64.4239250  93.5402110  74.6944320
  64.5452070  93.4988590  75.6430140  64.0387760  94.4026260  74.5391050
  68.3867620  91.3169510  82.7108010  68.4040360  91.7678160  83.5549860
  68.1383200  90.4175150  82.9241450  63.4360750  95.8503250  74.0927620
  62.8677650  95.4021500  73.4663530  64.1449750  96.2096030  73.5592770
  64.6627070  96.5991810  83.4502970  65.0297200  96.1250380  84.1964310
  64.4732130  97.4733380  83.7911310  57.5267560  91.3435500  79.5796440
  57.2414480  90.9791170  80.4175060  57.4646420  90.6115960  78.9659580
  62.4526440  95.6400450  85.7687180  62.1483510  96.5192430  85.9937540
  63.4072900  95.7000240  85.8044620  67.2006150  90.2364760  76.3009810
  66.3870760  89.7377930  76.2255120  67.0068100  91.0763010  75.8846160
  69.9154540  94.6084410  74.5971970  70.8034160  94.9201640  74.4223310
  69.8859630  93.7356660  74.2052550  72.1868810  95.9196250  74.0651830
  72.1032530  96.3510470  73.2148270  72.9063000  96.3794600  74.4978650
  57.0198220  96.4794450  73.5393140  57.8893070  96.7619250  73.8229060
  56.5288540  97.2930320  73.4241950  64.1833030  97.8667660  77.6601420
  64.6395810  98.6772910  77.8861610  63.8321240  97.5490800  78.4919910
  60.0844810  88.2105310  78.1323940  59.9559440  88.2023210  79.0808860
  59.2606830  88.5488400  77.7814950  68.5777520  92.4618740  85.3432090
  68.9458340  91.6413950  85.6711660  67.7175720  92.5220630  85.7587740
  71.9439550  91.4175680  76.1519650  71.3152710  91.5221350  75.4377880
  71.4491470  91.6372460  76.9413530  63.9123580  93.6961630  77.5677530
  63.2039730  94.1647970  78.0091140  64.1968060  93.0383640  78.2022720
  65.5379510  95.1158330  85.5670060  66.0364760  95.5904150  86.2321910
  65.6802460  94.1921850  85.7740090  67.9439010  90.4212290  79.0073320
  67.8206790  90.4398420  78.0582830  68.8923570  90.4691230  79.1271720
  62.1158600  92.0046710  74.9428240  62.9649130  92.4416860  74.8768430
  61.7489870  92.3166970  75.7700300  72.7446370  91.3326290  86.4098450
  72.2419970  92.0731690  86.7492260  73.5603030  91.7210290  86.0935240
  71.0368380  96.5759470  79.8559810  70.0958520  96.5909700  80.0307500
  71.3512450  95.7895430  80.3020110  61.0150020  98.2579070  73.4163770
  61.7813290  98.1460430  73.9789200  61.0924710  97.5617040  72.7640540
  59.7096780  95.6904140  74.0996660  59.7900370  94.7431650  74.2114060
  60.6016530  96.0211020  74.2057320  63.0469050  98.2544200  75.3906410
  63.4685470  98.0884070  76.2337800  63.1719890  97.4444430  74.8961550
  65.5596690  97.2781810  72.6383510  66.0802350  96.5630830  72.2724660
  66.2065090  97.9167680  72.9384020  64.4630210  89.7576360  85.3102070
  64.0147510  89.7800620  84.4647620  63.8295410  89.3595380  85.9072370
  69.5441560  96.9384060  85.8914860  69.0176780  97.4626680  85.2880000
  69.8872900  97.5711450  86.5224590  61.9427950  94.3277430  72.3364570
  61.7417010  93.4644790  72.6977910  61.7720000  94.2410790  71.3986170
  69.4216260  89.1385660  74.8651450  69.7018550  88.2953560  75.2210870
  68.6481990  89.3708770  75.3790200  60.7410750  91.4278050  72.3242450
  61.0436650  91.4345480  71.4161600  61.4805340  91.0775910  72.8210110
  63.9595680  90.3712670  73.3098650  63.6117680  89.6936660  72.7301100
  64.1608450  89.9102180  74.1242040  57.3001320  96.9000320  79.7063020
  56.6450160  96.6311960  79.0622720  58.1379270  96.7904800  79.2565000
  70.2491760  91.6941610  73.9281510  70.6676640  91.5072590  73.0878170
  69.9427820  90.8420660  74.2384440  73.7481490  96.6065750  77.6257310
  73.3725090  95.8393680  77.1938600  73.0184610  96.9888450  78.1132240
  58.3377250  97.2852890  84.2466360  58.7050290  97.1980290  85.1262380
  57.7688070  96.5219440  84.1473220  56.5139400  94.1099250  75.6488350
  55.6103480  94.3729450  75.4740010  56.9980020  94.3810420  74.8688310
  73.0232450  94.8323240  80.9264550  73.5469930  94.3385890  80.2954720
  73.6091870  94.9673600  81.6712120  73.2022170  94.9163110  84.4484100
  72.2524880  94.8826650  84.5629090  73.3835180  95.8263220  84.2133870
  59.0566610  93.1664790  73.5582730  59.7658310  92.7448010  73.0730010
  58.3406550  93.2340020  72.9266080  58.7040770  89.2204120  72.5985380
  59.4268900  89.7613060  72.9166600  58.9765290  88.9467540  71.7226920
  72.5132420  94.0896590  76.8656960  73.0091540  93.8567460  77.6505840
  72.3148490  93.2508430  76.4494600  58.3932960  88.4710310  82.5008000
  59.0409150  87.9207690  82.0603160  58.8134800  88.7253460  83.3223810
  73.9419580  92.7257540  79.3994640  73.8318860  92.5713580  80.3376910
  74.7027170  92.1978480  79.1570050  72.2885300  88.6651670  85.8577640
  72.9257520  89.2785810  86.2236830  72.4360190  88.7012330  84.9126870
  74.8309850  90.5565460  72.6400780  75.7559160  90.4246640  72.4319070
  74.8085640  90.6358280  73.5937230  74.9048340  91.3276120  75.2657490
  74.1099840  91.2621240  75.7950400  75.1091620  92.2626760  75.2542840
  58.1464960  88.6265980  85.2433320  57.7979780  89.0829800  86.0091500
  57.8152660  87.7323110  85.3255750  69.0372380  88.0380060  84.7314320
  68.1632220  88.3715170  84.5287250  68.9283130  87.5653240  85.5566190
  69.9444360  90.2450930  86.1156040  69.6157720  89.4302690  85.7357770
  70.8926660  90.2020740  85.9921730  66.7847200  88.9549900  83.6707230
  66.0018990  89.4295400  83.9503990  66.4910130  88.0504730  83.5620410
  71.3368270  89.6573000  81.7156320  71.7776360  89.6018100  80.8677920
  71.0675860  90.5731010  81.7866500  73.2006840  89.2888240  79.7265140
  73.1395240  88.3449460  79.5796160  73.9798870  89.3968330  80.2718600
  58.1287610  89.2597380  76.1920950  58.8866970  89.3726260  75.6184980
  57.6664780  90.0966580  76.1464380  64.6701420  91.3736650  79.1823260
  63.8575930  90.9993540  78.8419140  65.1743060  90.6181730  79.4844450
  69.1726400  88.0379100  80.4206330  69.7755770  88.6099310  80.8954850
  68.4319390  88.6018540  80.1980230  72.3161000  88.4400660  75.6946610
  72.5111630  89.3384110  75.9614040  71.5290870  88.2087740  76.1879560
  60.5012760  89.7861430  74.7322920  61.0305520  88.9991230  74.6030870
  61.1341080  90.4652620  74.9658450  62.6950600  89.5236570  77.7868310
  62.0653340  88.8223880  77.9538440  62.1555740  90.2840700  77.5701470
  68.3279770  96.2366600  61.1636010  68.2473820  95.3221210  60.8927720
  67.9144190  96.7333670  60.4575720  66.4597810  98.0145620  63.0445280
  65.6839910  97.5346060  63.3343850  67.1110740  97.3351270  62.8701440
  60.4763640  98.3265430  63.9221040  59.6448520  98.0714140  64.3217550
  61.0844620  98.3976200  64.6578960  58.8855590  93.2867320  57.7063430
  57.9972290  93.6283290  57.6043310  59.1696780  93.0867640  56.8144260
  56.8488600  95.8872970  63.5903130  57.4204710  95.1195170  63.5906770
  56.8490140  96.1861730  62.6809740  58.0913470  91.2957330  65.3772060
  57.9116310  90.3983080  65.6574820  57.6893550  91.8429200  66.0519010
  66.9311970  93.4973190  63.2784370  67.3076790  92.6245070  63.1658040
  66.8331480  93.8331890  62.3874810  61.0616980  91.8698820  58.7401810
  61.1683730  92.7702550  59.0470570  60.1509340  91.8216790  58.4496460
  70.7136090  90.9923630  60.2112710  71.5345710  90.5020200  60.2538190
  70.7470170  91.5821290  60.9644550  58.7100140  93.7917830  63.9854400
  59.3910250  94.0556200  64.6041800  58.3948190  92.9518700  64.3192410
  62.9024710  94.8385190  63.0726990  63.4102930  95.3366160  63.7132010
  63.4337950  94.0620390  62.8966350  75.0035640  93.0090380  66.7756340
  74.2987810  93.3972090  66.2571450  75.2693560  93.7040670  67.3777270
  61.1860810  89.4783750  67.3390410  61.1879250  89.9956140  66.5336310
  60.3565120  89.0013930  67.3160340  70.9497570  92.9324010  62.9840250
  70.2453140  93.2208900  63.5643360  71.3109730  93.7424120  62.6239810
  60.8676140  91.1893710  65.3460860  61.2092950  92.0335760  65.0514730
  59.9291950  91.3377450  65.4626200  74.0184490  92.3778800  63.3749460
  73.0709400  92.4117780  63.5064890  74.3434480  93.1917750  63.7598820
  64.5504030  88.6775980  61.6705450  64.8579010  88.1222870  60.9540950
  63.6204730  88.8120440  61.4878440  66.9384790  96.7424810  58.4065570
  66.0114070  96.6762190  58.6354040  67.0909610  97.6804940  58.2920810
  66.9253870  93.0141810  55.4032730  65.9857540  93.1755770  55.4885190
  67.2437130  93.7327490  54.8568720  73.4466630  97.6960330  65.3811760
  72.6185260  97.7653420  64.9061890  74.0417110  98.2814640  64.9127590
  70.9682080  98.3045110  58.9100820  70.3494500  97.9664660  58.2627120
  70.9506530  97.6604870  59.6180010  70.4108640  94.4829650  66.3266630
  69.9979820  95.3083360  66.5806620  69.6784590  93.8974690  66.1342990
  62.5441430  97.2689550  61.1885300  62.1398430  96.5566800  60.6931200
  62.6304550  96.9242790  62.0773340  61.2570050  94.0432760  64.9684340
  61.8084640  94.1528100  64.1937590  61.7713560  94.4170360  65.6839570
  69.1446780  97.5431920  55.9173570  69.5840060  96.7054350  55.7711390
  69.8575200  98.1761320  56.0037710  60.9312780  97.5652120  68.5789680
  60.7920550  98.4374920  68.9477080  60.0494140  97.2224930  68.4337620
  72.7263920  88.7974730  54.2314610  72.4136580  88.8901560  55.1313680
  73.4876390  89.3755760  54.1812040  59.2446060  96.1634530  58.6891950
  59.1243660  96.8896620  58.0773220  58.9346950  95.3937440  58.2119860
  73.9365210  93.5346230  70.2088750  73.3209480  94.0425900  69.6804210
  73.6161630  92.6344560  70.1514690  61.7109720  89.5069600  62.0715620
  61.2677870  90.2879140  61.7400140  62.2694710  89.8299490  62.7786560
  65.9979530  92.3738120  67.6750940  65.5358900  92.5821140  68.4870880
  65.5957640  91.5597470  67.3721610  70.9984040  93.5947070  68.8047600
  70.1477630  93.2952820  69.1256670  70.8385830  93.8389080  67.8931420
  68.0933750  95.0948820  70.9046390  68.4187160  94.2612570  70.5648620
  68.8814080  95.6177340  71.0524720  64.8268540  89.1280300  56.9521450
  64.2022720  89.1240170  57.6774760  64.7398660  88.2611260  56.5557420
  63.7485620  90.0516930  63.9305220  64.0457950  90.9579760  63.8497240
  64.2971180  89.5635710  63.3164790  61.5023940  94.6303170  59.7996870
  61.2764860  94.4140340  60.7043490  60.7216470  95.0631630  59.4542840
  68.7321700  94.6366540  58.3987520  68.1330590  95.3602340  58.2151140
  69.2801310  94.5743320  57.6163970  63.9423150  95.5288750  70.4657140
  63.8466750  94.5883480  70.3157540  64.7855130  95.7503820  70.0705210
  67.3386570  93.2730080  60.4290800  67.7316140  93.5902280  59.6159490
  67.7003420  92.3941960  60.5435320  59.0733690  91.9402420  68.6190920
  58.6797080  92.7877630  68.8263700  58.3852090  91.3028790  68.8099560
  65.6478740  92.0237390  71.6887660  64.9577060  91.8309590  72.3233750
  66.3911040  92.3072030  72.2211960  56.3750740  89.8630880  62.6521000
  56.0863790  90.4333740  63.3645980  57.1196500  89.3835330  63.0152230
  56.5620970  93.8051000  53.8623720  56.4795640  94.7481760  54.0038710
  56.2104030  93.6625910  52.9836070  67.9241710  95.8635830  64.5241580
  67.1922830  96.3722640  64.8731680  67.5266050  95.0465810  64.2230360
  64.3619100  92.5390030  62.9294070  64.3655160  92.0979980  62.0798610
  65.2570220  92.8607360  63.0365890  60.2121480  92.4216520  61.8888280
  59.8721530  92.8991750  62.6455330  59.4498800  91.9681640  61.5289380
  64.4239250  93.5402110  55.9200830  64.5452070  93.4988590  56.8686650
  64.0387760  94.4026260  55.7647560  68.3867620  91.3169510  63.9364520
  68.4040360  91.7678160  64.7806370  68.1383200  90.4175150  64.1497960
  63.4360750  95.8503250  55.3184130  62.8677650  95.4021500  54.6920040
  64.1449750  96.2096030  54.7849280  71.8138370  88.7301690  69.7750900
  72.1384140  87.9991350  70.3008880  71.8494880  88.4115330  68.8731890
  64.6627070  96.5991810  64.6759480  65.0297200  96.1250380  65.4220820
  64.4732130  97.4733380  65.0167820  57.5267560  91.3435500  60.8052950
  57.2414480  90.9791170  61.6431570  57.4646420  90.6115960  60.1916090
  62.4526440  95.6400450  66.9943690  62.1483510  96.5192430  67.2194050
  63.4072900  95.7000240  67.0301130  67.2006150  90.2364760  57.5266320
  66.3870760  89.7377930  57.4511630  67.0068100  91.0763010  57.1102670
  69.9154540  94.6084410  55.8228480  70.8034160  94.9201640  55.6479820
  69.8859630  93.7356660  55.4309060  58.5090170  96.4803190  68.1415050
  58.1505110  97.1457040  68.7288390  58.2144730  95.6486740  68.5127670
  61.7103290  96.9387430  71.0254600  61.4103430  97.0844610  70.1282420
  62.4814530  96.3792720  70.9327990  72.1868810  95.9196250  55.2908340
  72.1032530  96.3510470  54.4404780  72.9063000  96.3794600  55.7235160
  57.0198220  96.4794450  54.7649650  57.8893070  96.7619250  55.0485570
  56.5288540  97.2930320  54.6498460  64.1833030  97.8667660  58.8857930
  64.6395810  98.6772910  59.1118120  63.8321240  97.5490800  59.7176420
  60.0844810  88.2105310  59.3580450  59.9559440  88.2023210  60.3065370
  59.2606830  88.5488400  59.0071460  57.0838740  89.9696430  68.8187150
  56.3697260  90.1693350  69.4239760  57.5033780  89.1936000  69.1901950
  68.5777520  92.4618740  66.5688600  68.9458340  91.6413950  66.8968170
  67.7175720  92.5220630  66.9844250  71.9439550  91.4175680  57.3776160
  71.3152710  91.5221350  56.6634390  71.4491470  91.6372460  58.1670040
  63.9123580  93.6961630  58.7934040  63.2039730  94.1647970  59.2347650
  64.1968060  93.0383640  59.4279230  65.5379510  95.1158330  66.7926570
  66.0364760  95.5904150  67.4578420  65.6802460  94.1921850  66.9996600
  67.9439010  90.4212290  60.2329830  67.8206790  90.4398420  59.2839340
  68.8923570  90.4691230  60.3528230  62.1158600  92.0046710  56.1684750
  62.9649130  92.4416860  56.1024940  61.7489870  92.3166970  56.9956810
  72.7446370  91.3326290  67.6354960  72.2419970  92.0731690  67.9748770
  73.5603030  91.7210290  67.3191750  71.0368380  96.5759470  61.0816320
  70.0958520  96.5909700  61.2564010  71.3512450  95.7895430  61.5276620
  61.0150020  98.2579070  54.6420280  61.7813290  98.1460430  55.2045710
  61.0924710  97.5617040  53.9897050  59.7096780  95.6904140  55.3253170
  59.7900370  94.7431650  55.4370570  60.6016530  96.0211020  55.4313830
  57.2367580  97.5119060  70.5609340  57.7406600  96.9326340  71.1325570
  56.4975000  97.7959290  71.0985710  59.2690660  95.6548650  71.4559410
  59.3096000  95.3562520  72.3644640  60.1236160  96.0556260  71.2966930
  63.0469050  98.2544200  56.6162920  63.4685470  98.0884070  57.4594310
  63.1719890  97.4444430  56.1218060  61.2096470  94.2340750  69.4233900
  60.6792930  93.7431700  68.7957240  61.8784540  94.6624950  68.8891830
  65.5596690  97.2781810  53.8640020  66.0802350  96.5630830  53.4981170
  66.2065090  97.9167680  54.1640530  70.5796700  96.0406370  71.1914240
  71.1617470  95.2858690  71.1034720  70.7558470  96.5713810  70.4145720
  61.6968770  91.2003120  69.5031190  61.6025640  90.5823870  68.7782060
  61.1166160  91.9269410  69.2761100  64.4630210  89.7576360  66.5358580
  64.0147510  89.7800620  65.6904130  63.8295410  89.3595380  67.1328880
  67.2053660  96.3846870  68.5408860  67.3249870  95.7888010  69.2803700
  68.0647660  96.4216560  68.1210160  69.5441560  96.9384060  67.1171370
  69.0176780  97.4626680  66.5136510  69.8872900  97.5711450  67.7481100
  61.9427950  94.3277430  53.5621080  61.7417010  93.4644790  53.9234420
  61.7720000  94.2410790  52.6242680  63.9722430  92.9268220  69.7984680
  64.5622120  92.6184070  70.4862500  63.1542670  92.4547970  69.9544580
  68.7915860  92.5434030  70.0317700  68.1031380  91.8815570  69.9667690
  69.5121880  92.0972300  70.4766160  69.4216260  89.1385660  56.0907960
  69.7018550  88.2953560  56.4467380  68.6481990  89.3708770  56.6046710
  60.7410750  91.4278050  53.5498960  61.0436650  91.4345480  52.6418110
  61.4805340  91.0775910  54.0466620  63.9595680  90.3712670  54.5355160
  63.6117680  89.6936660  53.9557610  64.1608450  89.9102180  55.3498550
  57.3001320  96.9000320  60.9319530  56.6450160  96.6311960  60.2879230
  58.1379270  96.7904800  60.4821510  70.2491760  91.6941610  55.1538020
  70.6676640  91.5072590  54.3134680  69.9427820  90.8420660  55.4640950
  73.7481490  96.6065750  58.8513820  73.3725090  95.8393680  58.4195110
  73.0184610  96.9888450  59.3388750  58.3377250  97.2852890  65.4722870
  58.7050290  97.1980290  66.3518890  57.7688070  96.5219440  65.3729730
  73.1381110  95.7537270  68.4853340  72.9067200  95.5250020  67.5851290
  73.3985660  96.6736820  68.4398230  57.8893250  94.1961980  69.3781290
  56.9949300  94.1628740  69.7175000  58.4290800  94.3948770  70.1432540
  71.5769180  90.9793700  71.2633040  72.4539360  90.9877100  71.6467040
  71.5890020  90.2424540  70.6525390  56.5139400  94.1099250  56.8744860
  55.6103480  94.3729450  56.6996520  56.9980020  94.3810420  56.0944820
  73.0232450  94.8323240  62.1521060  73.5469930  94.3385890  61.5211230
  73.6091870  94.9673600  62.8968630  73.2022170  94.9163110  65.6740610
  72.2524880  94.8826650  65.7885600  73.3835180  95.8263220  65.4390380
  59.0566610  93.1664790  54.7839240  59.7658310  92.7448010  54.2986520
  58.3406550  93.2340020  54.1522590  58.7040770  89.2204120  53.8241890
  59.4268900  89.7613060  54.1423110  58.9765290  88.9467540  52.9483430
  72.5132420  94.0896590  58.0913470  73.0091540  93.8567460  58.8762350
  72.3148490  93.2508430  57.6751110  58.3932960  88.4710310  63.7264510
  59.0409150  87.9207690  63.2859670  58.8134800  88.7253460  64.5480320
  73.9419580  92.7257540  60.6251150  73.8318860  92.5713580  61.5633420
  74.7027170  92.1978480  60.3826560  72.2885300  88.6651670  67.0834150
  72.9257520  89.2785810  67.4493340  72.4360190  88.7012330  66.1383380
  74.8309850  90.5565460  53.8657290  75.7559160  90.4246640  53.6575580
  74.8085640  90.6358280  54.8193740  74.9048340  91.3276120  56.4914000
  74.1099840  91.2621240  57.0206910  75.1091620  92.2626760  56.4799350
  58.1464960  88.6265980  66.4689830  57.7979780  89.0829800  67.2348010
  57.8152660  87.7323110  66.5512260  65.6589780  89.8177860  69.9909250
  65.5978670  90.4099690  70.7404660  66.5990160  89.7103820  69.8459510
  68.2964340  89.4747920  69.6301540  68.9104750  89.7927210  68.9682620
  68.8413900  88.9896510  70.2497400  58.8185600  88.1542180  69.7440600
  59.3668590  87.9730230  68.9806710  58.8840910  87.3636290  70.2796910
  69.0372380  88.0380060  65.9570830  68.1632220  88.3715170  65.7543760
  68.9283130  87.5653240  66.7822700  69.9444360  90.2450930  67.3412550
  69.6157720  89.4302690  66.9614280  70.8926660  90.2020740  67.2178240
  66.7847200  88.9549900  64.8963740  66.0018990  89.4295400  65.1760500
  66.4910130  88.0504730  64.7876920  71.3368270  89.6573000  62.9412830
  71.7776360  89.6018100  62.0934430  71.0675860  90.5731010  63.0123010
  73.2006840  89.2888240  60.9521650  73.1395240  88.3449460  60.8052670
  73.9798870  89.3968330  61.4975110  58.1287610  89.2597380  57.4177460
  58.8866970  89.3726260  56.8441490  57.6664780  90.0966580  57.3720890
  64.6701420  91.3736650  60.4079770  63.8575930  90.9993540  60.0675650
  65.1743060  90.6181730  60.7100960  69.1726400  88.0379100  61.6462840
  69.7755770  88.6099310  62.1211360  68.4319390  88.6018540  61.4236740
  72.3161000  88.4400660  56.9203120  72.5111630  89.3384110  57.1870550
  71.5290870  88.2087740  57.4136070  60.5012760  89.7861430  55.9579430
  61.0305520  88.9991230  55.8287380  61.1341080  90.4652620  56.1914960
  62.6950600  89.5236570  59.0124820  62.0653340  88.8223880  59.1794950
  62.1555740  90.2840700  58.7957980  62.8206160  88.8020550  71.4477310
  62.5390430  89.3054150  70.6838130  63.2025860  88.0042300  71.0819440
  69.4221620  88.2174130  72.0257780  69.3087070  88.5368740  72.9209300
  70.2391360  88.6186640  71.7295060  68.3279770  96.2366600  42.3892520
  68.2473820  95.3221210  42.1184230  67.9144190  96.7333670  41.6832230
  66.4597810  98.0145620  44.2701790  65.6839910  97.5346060  44.5600360
  67.1110740  97.3351270  44.0957950  60.4763640  98.3265430  45.1477550
  59.6448520  98.0714140  45.5474060  61.0844620  98.3976200  45.8835470
  58.8855590  93.2867320  38.9319940  57.9972290  93.6283290  38.8299820
  59.1696780  93.0867640  38.0400770  56.8488600  95.8872970  44.8159640
  57.4204710  95.1195170  44.8163280  56.8490140  96.1861730  43.9066250
  58.0913470  91.2957330  46.6028570  57.9116310  90.3983080  46.8831330
  57.6893550  91.8429200  47.2775520  66.9311970  93.4973190  44.5040880
  67.3076790  92.6245070  44.3914550  66.8331480  93.8331890  43.6131320
  61.0616980  91.8698820  39.9658320  61.1683730  92.7702550  40.2727080
  60.1509340  91.8216790  39.6752970  70.7136090  90.9923630  41.4369220
  71.5345710  90.5020200  41.4794700  70.7470170  91.5821290  42.1901060
  58.7100140  93.7917830  45.2110910  59.3910250  94.0556200  45.8298310
  58.3948190  92.9518700  45.5448920  62.9024710  94.8385190  44.2983500
  63.4102930  95.3366160  44.9388520  63.4337950  94.0620390  44.1222860
  75.0035640  93.0090380  48.0012850  74.2987810  93.3972090  47.4827960
  75.2693560  93.7040670  48.6033780  61.1860810  89.4783750  48.5646920
  61.1879250  89.9956140  47.7592820  60.3565120  89.0013930  48.5416850
  70.9497570  92.9324010  44.2096760  70.2453140  93.2208900  44.7899870
  71.3109730  93.7424120  43.8496320  60.8676140  91.1893710  46.5717370
  61.2092950  92.0335760  46.2771240  59.9291950  91.3377450  46.6882710
  74.0184490  92.3778800  44.6005970  73.0709400  92.4117780  44.7321400
  74.3434480  93.1917750  44.9855330  64.5504030  88.6775980  42.8961960
  64.8579010  88.1222870  42.1797460  63.6204730  88.8120440  42.7134950
  66.9384790  96.7424810  39.6322080  66.0114070  96.6762190  39.8610550
  67.0909610  97.6804940  39.5177320  66.9253870  93.0141810  36.6289240
  65.9857540  93.1755770  36.7141700  67.2437130  93.7327490  36.0825230
  73.4466630  97.6960330  46.6068270  72.6185260  97.7653420  46.1318400
  74.0417110  98.2814640  46.1384100  70.9682080  98.3045110  40.1357330
  70.3494500  97.9664660  39.4883630  70.9506530  97.6604870  40.8436520
  70.4108640  94.4829650  47.5523140  69.9979820  95.3083360  47.8063130
  69.6784590  93.8974690  47.3599500  62.5441430  97.2689550  42.4141810
  62.1398430  96.5566800  41.9187710  62.6304550  96.9242790  43.3029850
  61.2570050  94.0432760  46.1940850  61.8084640  94.1528100  45.4194100
  61.7713560  94.4170360  46.9096080  69.1446780  97.5431920  37.1430080
  69.5840060  96.7054350  36.9967900  69.8575200  98.1761320  37.2294220
  60.9312780  97.5652120  49.8046190  60.7920550  98.4374920  50.1733590
  60.0494140  97.2224930  49.6594130  72.7263920  88.7974730  35.4571120
  72.4136580  88.8901560  36.3570190  73.4876390  89.3755760  35.4068550
  59.2446060  96.1634530  39.9148460  59.1243660  96.8896620  39.3029730
  58.9346950  95.3937440  39.4376370  73.9365210  93.5346230  51.4345260
  73.3209480  94.0425900  50.9060720  73.6161630  92.6344560  51.3771200
  61.7109720  89.5069600  43.2972130  61.2677870  90.2879140  42.9656650
  62.2694710  89.8299490  44.0043070  65.9979530  92.3738120  48.9007450
  65.5358900  92.5821140  49.7127390  65.5957640  91.5597470  48.5978120
  70.9984040  93.5947070  50.0304110  70.1477630  93.2952820  50.3513180
  70.8385830  93.8389080  49.1187930  68.0933750  95.0948820  52.1302900
  68.4187160  94.2612570  51.7905130  68.8814080  95.6177340  52.2781230
  64.8268540  89.1280300  38.1777960  64.2022720  89.1240170  38.9031270
  64.7398660  88.2611260  37.7813930  63.7485620  90.0516930  45.1561730
  64.0457950  90.9579760  45.0753750  64.2971180  89.5635710  44.5421300
  61.5023940  94.6303170  41.0253380  61.2764860  94.4140340  41.9300000
  60.7216470  95.0631630  40.6799350  68.7321700  94.6366540  39.6244030
  68.1330590  95.3602340  39.4407650  69.2801310  94.5743320  38.8420480
  63.9423150  95.5288750  51.6913650  63.8466750  94.5883480  51.5414050
  64.7855130  95.7503820  51.2961720  67.3386570  93.2730080  41.6547310
  67.7316140  93.5902280  40.8416000  67.7003420  92.3941960  41.7691830
  59.0733690  91.9402420  49.8447430  58.6797080  92.7877630  50.0520210
  58.3852090  91.3028790  50.0356070  65.6478740  92.0237390  52.9144170
  64.9577060  91.8309590  53.5490260  66.3911040  92.3072030  53.4468470
  56.3750740  89.8630880  43.8777510  56.0863790  90.4333740  44.5902490
  57.1196500  89.3835330  44.2408740  56.5620970  93.8051000  35.0880230
  56.4795640  94.7481760  35.2295220  56.2104030  93.6625910  34.2092580
  67.9241710  95.8635830  45.7498090  67.1922830  96.3722640  46.0988190
  67.5266050  95.0465810  45.4486870  64.3619100  92.5390030  44.1550580
  64.3655160  92.0979980  43.3055120  65.2570220  92.8607360  44.2622400
  60.2121480  92.4216520  43.1144790  59.8721530  92.8991750  43.8711840
  59.4498800  91.9681640  42.7545890  64.4239250  93.5402110  37.1457340
  64.5452070  93.4988590  38.0943160  64.0387760  94.4026260  36.9904070
  68.3867620  91.3169510  45.1621030  68.4040360  91.7678160  46.0062880
  68.1383200  90.4175150  45.3754470  63.4360750  95.8503250  36.5440640
  62.8677650  95.4021500  35.9176550  64.1449750  96.2096030  36.0105790
  71.8138370  88.7301690  51.0007410  72.1384140  87.9991350  51.5265390
  71.8494880  88.4115330  50.0988400  64.6627070  96.5991810  45.9015990
  65.0297200  96.1250380  46.6477330  64.4732130  97.4733380  46.2424330
  57.5267560  91.3435500  42.0309460  57.2414480  90.9791170  42.8688080
  57.4646420  90.6115960  41.4172600  62.4526440  95.6400450  48.2200200
  62.1483510  96.5192430  48.4450560  63.4072900  95.7000240  48.2557640
  67.2006150  90.2364760  38.7522830  66.3870760  89.7377930  38.6768140
  67.0068100  91.0763010  38.3359180  69.9154540  94.6084410  37.0484990
  70.8034160  94.9201640  36.8736330  69.8859630  93.7356660  36.6565570
  58.5090170  96.4803190  49.3671560  58.1505110  97.1457040  49.9544900
  58.2144730  95.6486740  49.7384180  61.7103290  96.9387430  52.2511110
  61.4103430  97.0844610  51.3538930  62.4814530  96.3792720  52.1584500
  72.1868810  95.9196250  36.5164850  72.1032530  96.3510470  35.6661290
  72.9063000  96.3794600  36.9491670  57.0198220  96.4794450  35.9906160
  57.8893070  96.7619250  36.2742080  56.5288540  97.2930320  35.8754970
  64.1833030  97.8667660  40.1114440  64.6395810  98.6772910  40.3374630
  63.8321240  97.5490800  40.9432930  60.0844810  88.2105310  40.5836960
  59.9559440  88.2023210  41.5321880  59.2606830  88.5488400  40.2327970
  57.0838740  89.9696430  50.0443660  56.3697260  90.1693350  50.6496270
  57.5033780  89.1936000  50.4158460  68.5777520  92.4618740  47.7945110
  68.9458340  91.6413950  48.1224680  67.7175720  92.5220630  48.2100760
  71.9439550  91.4175680  38.6032670  71.3152710  91.5221350  37.8890900
  71.4491470  91.6372460  39.3926550  63.9123580  93.6961630  40.0190550
  63.2039730  94.1647970  40.4604160  64.1968060  93.0383640  40.6535740
  65.5379510  95.1158330  48.0183080  66.0364760  95.5904150  48.6834930
  65.6802460  94.1921850  48.2253110  67.9439010  90.4212290  41.4586340
  67.8206790  90.4398420  40.5095850  68.8923570  90.4691230  41.5784740
  62.1158600  92.0046710  37.3941260  62.9649130  92.4416860  37.3281450
  61.7489870  92.3166970  38.2213320  72.7446370  91.3326290  48.8611470
  72.2419970  92.0731690  49.2005280  73.5603030  91.7210290  48.5448260
  71.0368380  96.5759470  42.3072830  70.0958520  96.5909700  42.4820520
  71.3512450  95.7895430  42.7533130  61.0150020  98.2579070  35.8676790
  61.7813290  98.1460430  36.4302220  61.0924710  97.5617040  35.2153560
  59.7096780  95.6904140  36.5509680  59.7900370  94.7431650  36.6627080
  60.6016530  96.0211020  36.6570340  57.2367580  97.5119060  51.7865850
  57.7406600  96.9326340  52.3582080  56.4975000  97.7959290  52.3242220
  59.2690660  95.6548650  52.6815920  59.3096000  95.3562520  53.5901150
  60.1236160  96.0556260  52.5223440  63.0469050  98.2544200  37.8419430
  63.4685470  98.0884070  38.6850820  63.1719890  97.4444430  37.3474570
  61.2096470  94.2340750  50.6490410  60.6792930  93.7431700  50.0213750
  61.8784540  94.6624950  50.1148340  65.5596690  97.2781810  35.0896530
  66.0802350  96.5630830  34.7237680  66.2065090  97.9167680  35.3897040
  70.5796700  96.0406370  52.4170750  71.1617470  95.2858690  52.3291230
  70.7558470  96.5713810  51.6402230  61.6968770  91.2003120  50.7287700
  61.6025640  90.5823870  50.0038570  61.1166160  91.9269410  50.5017610
  64.4630210  89.7576360  47.7615090  64.0147510  89.7800620  46.9160640
  63.8295410  89.3595380  48.3585390  67.2053660  96.3846870  49.7665370
  67.3249870  95.7888010  50.5060210  68.0647660  96.4216560  49.3466670
  69.5441560  96.9384060  48.3427880  69.0176780  97.4626680  47.7393020
  69.8872900  97.5711450  48.9737610  61.9427950  94.3277430  34.7877590
  61.7417010  93.4644790  35.1490930  61.7720000  94.2410790  33.8499190
  63.9722430  92.9268220  51.0241190  64.5622120  92.6184070  51.7119010
  63.1542670  92.4547970  51.1801090  68.7915860  92.5434030  51.2574210
  68.1031380  91.8815570  51.1924200  69.5121880  92.0972300  51.7022670
  69.4216260  89.1385660  37.3164470  69.7018550  88.2953560  37.6723890
  68.6481990  89.3708770  37.8303220  60.7410750  91.4278050  34.7755470
  61.0436650  91.4345480  33.8674620  61.4805340  91.0775910  35.2723130
  63.9595680  90.3712670  35.7611670  63.6117680  89.6936660  35.1814120
  64.1608450  89.9102180  36.5755060  57.3001320  96.9000320  42.1576040
  56.6450160  96.6311960  41.5135740  58.1379270  96.7904800  41.7078020
  70.2491760  91.6941610  36.3794530  70.6676640  91.5072590  35.5391190
  69.9427820  90.8420660  36.6897460  73.7481490  96.6065750  40.0770330
  73.3725090  95.8393680  39.6451620  73.0184610  96.9888450  40.5645260
  58.3377250  97.2852890  46.6979380  58.7050290  97.1980290  47.5775400
  57.7688070  96.5219440  46.5986240  73.1381110  95.7537270  49.7109850
  72.9067200  95.5250020  48.8107800  73.3985660  96.6736820  49.6654740
  57.8893250  94.1961980  50.6037800  56.9949300  94.1628740  50.9431510
  58.4290800  94.3948770  51.3689050  71.5769180  90.9793700  52.4889550
  72.4539360  90.9877100  52.8723550  71.5890020  90.2424540  51.8781900
  56.5139400  94.1099250  38.1001370  55.6103480  94.3729450  37.9253030
  56.9980020  94.3810420  37.3201330  73.0232450  94.8323240  43.3777570
  73.5469930  94.3385890  42.7467740  73.6091870  94.9673600  44.1225140
  73.2022170  94.9163110  46.8997120  72.2524880  94.8826650  47.0142110
  73.3835180  95.8263220  46.6646890  59.0566610  93.1664790  36.0095750
  59.7658310  92.7448010  35.5243030  58.3406550  93.2340020  35.3779100
  58.7040770  89.2204120  35.0498400  59.4268900  89.7613060  35.3679620
  58.9765290  88.9467540  34.1739940  72.5132420  94.0896590  39.3169980
  73.0091540  93.8567460  40.1018860  72.3148490  93.2508430  38.9007620
  58.3932960  88.4710310  44.9521020  59.0409150  87.9207690  44.5116180
  58.8134800  88.7253460  45.7736830  73.9419580  92.7257540  41.8507660
  73.8318860  92.5713580  42.7889930  74.7027170  92.1978480  41.6083070
  72.2885300  88.6651670  48.3090660  72.9257520  89.2785810  48.6749850
  72.4360190  88.7012330  47.3639890  74.8309850  90.5565460  35.0913800
  75.7559160  90.4246640  34.8832090  74.8085640  90.6358280  36.0450250
  74.9048340  91.3276120  37.7170510  74.1099840  91.2621240  38.2463420
  75.1091620  92.2626760  37.7055860  58.1464960  88.6265980  47.6946340
  57.7979780  89.0829800  48.4604520  57.8152660  87.7323110  47.7768770
  65.6589780  89.8177860  51.2165760  65.5978670  90.4099690  51.9661170
  66.5990160  89.7103820  51.0716020  68.2964340  89.4747920  50.8558050
  68.9104750  89.7927210  50.1939130  68.8413900  88.9896510  51.4753910
  58.8185600  88.1542180  50.9697110  59.3668590  87.9730230  50.2063220
  58.8840910  87.3636290  51.5053420  69.0372380  88.0380060  47.1827340
  68.1632220  88.3715170  46.9800270  68.9283130  87.5653240  48.0079210
  69.9444360  90.2450930  48.5669060  69.6157720  89.4302690  48.1870790
  70.8926660  90.2020740  48.4434750  66.7847200  88.9549900  46.1220250
  66.0018990  89.4295400  46.4017010  66.4910130  88.0504730  46.0133430
  71.3368270  89.6573000  44.1669340  71.7776360  89.6018100  43.3190940
  71.0675860  90.5731010  44.2379520  73.2006840  89.2888240  42.1778160
  73.1395240  88.3449460  42.0309180  73.9798870  89.3968330  42.7231620
  58.1287610  89.2597380  38.6433970  58.8866970  89.3726260  38.0698000
  57.6664780  90.0966580  38.5977400  64.6701420  91.3736650  41.6336280
  63.8575930  90.9993540  41.2932160  65.1743060  90.6181730  41.9357470
  69.1726400  88.0379100  42.8719350  69.7755770  88.6099310  43.3467870
  68.4319390  88.6018540  42.6493250  72.3161000  88.4400660  38.1459630
  72.5111630  89.3384110  38.4127060  71.5290870  88.2087740  38.6392580
  60.5012760  89.7861430  37.1835940  61.0305520  88.9991230  37.0543890
  61.1341080  90.4652620  37.4171470  62.6950600  89.5236570  40.2381330
  62.0653340  88.8223880  40.4051460  62.1555740  90.2840700  40.0214490
  62.8206160  88.8020550  52.6733820  62.5390430  89.3054150  51.9094640
  63.2025860  88.0042300  52.3075950  69.4221620  88.2174130  53.2514290
  69.3087070  88.5368740  54.1465810  70.2391360  88.6186640  52.9551570
  68.3279770  96.2366600  23.6149030  68.2473820  95.3221210  23.3440740
  67.9144190  96.7333670  22.9088740  66.4597810  98.0145620  25.4958300
  65.6839910  97.5346060  25.7856870  67.1110740  97.3351270  25.3214460
  60.4763640  98.3265430  26.3734060  59.6448520  98.0714140  26.7730570
  61.0844620  98.3976200  27.1091980  58.8855590  93.2867320  20.1576450
  57.9972290  93.6283290  20.0556330  59.1696780  93.0867640  19.2657280
  56.8488600  95.8872970  26.0416150  57.4204710  95.1195170  26.0419790
  56.8490140  96.1861730  25.1322760  58.0913470  91.2957330  27.8285080
  57.9116310  90.3983080  28.1087840  57.6893550  91.8429200  28.5032030
  66.9311970  93.4973190  25.7297390  67.3076790  92.6245070  25.6171060
  66.8331480  93.8331890  24.8387830  61.0616980  91.8698820  21.1914830
  61.1683730  92.7702550  21.4983590  60.1509340  91.8216790  20.9009480
  70.7136090  90.9923630  22.6625730  71.5345710  90.5020200  22.7051210
  70.7470170  91.5821290  23.4157570  58.7100140  93.7917830  26.4367420
  59.3910250  94.0556200  27.0554820  58.3948190  92.9518700  26.7705430
  62.9024710  94.8385190  25.5240010  63.4102930  95.3366160  26.1645030
  63.4337950  94.0620390  25.3479370  75.0035640  93.0090380  29.2269360
  74.2987810  93.3972090  28.7084470  75.2693560  93.7040670  29.8290290
  61.1860810  89.4783750  29.7903430  61.1879250  89.9956140  28.9849330
  60.3565120  89.0013930  29.7673360  70.9497570  92.9324010  25.4353270
  70.2453140  93.2208900  26.0156380  71.3109730  93.7424120  25.0752830
  60.8676140  91.1893710  27.7973880  61.2092950  92.0335760  27.5027750
  59.9291950  91.3377450  27.9139220  74.0184490  92.3778800  25.8262480
  73.0709400  92.4117780  25.9577910  74.3434480  93.1917750  26.2111840
  64.5504030  88.6775980  24.1218470  64.8579010  88.1222870  23.4053970
  63.6204730  88.8120440  23.9391460  66.9384790  96.7424810  20.8578590
  66.0114070  96.6762190  21.0867060  67.0909610  97.6804940  20.7433830
  66.9253870  93.0141810  17.8545750  65.9857540  93.1755770  17.9398210
  67.2437130  93.7327490  17.3081740  73.4466630  97.6960330  27.8324780
  72.6185260  97.7653420  27.3574910  74.0417110  98.2814640  27.3640610
  70.9682080  98.3045110  21.3613840  70.3494500  97.9664660  20.7140140
  70.9506530  97.6604870  22.0693030  70.4108640  94.4829650  28.7779650
  69.9979820  95.3083360  29.0319640  69.6784590  93.8974690  28.5856010
  62.5441430  97.2689550  23.6398320  62.1398430  96.5566800  23.1444220
  62.6304550  96.9242790  24.5286360  61.2570050  94.0432760  27.4197360
  61.8084640  94.1528100  26.6450610  61.7713560  94.4170360  28.1352590
  69.1446780  97.5431920  18.3686590  69.5840060  96.7054350  18.2224410
  69.8575200  98.1761320  18.4550730  60.9312780  97.5652120  31.0302700
  60.7920550  98.4374920  31.3990100  60.0494140  97.2224930  30.8850640
  72.7263920  88.7974730  16.6827630  72.4136580  88.8901560  17.5826700
  73.4876390  89.3755760  16.6325060  59.2446060  96.1634530  21.1404970
  59.1243660  96.8896620  20.5286240  58.9346950  95.3937440  20.6632880
  73.9365210  93.5346230  32.6601770  73.3209480  94.0425900  32.1317230
  73.6161630  92.6344560  32.6027710  61.7109720  89.5069600  24.5228640
  61.2677870  90.2879140  24.1913160  62.2694710  89.8299490  25.2299580
  65.9979530  92.3738120  30.1263960  65.5358900  92.5821140  30.9383900
  65.5957640  91.5597470  29.8234630  70.9984040  93.5947070  31.2560620
  70.1477630  93.2952820  31.5769690  70.8385830  93.8389080  30.3444440
  68.0933750  95.0948820  33.3559410  68.4187160  94.2612570  33.0161640
  68.8814080  95.6177340  33.5037740  64.8268540  89.1280300  19.4034470
  64.2022720  89.1240170  20.1287780  64.7398660  88.2611260  19.0070440
  63.7485620  90.0516930  26.3818240  64.0457950  90.9579760  26.3010260
  64.2971180  89.5635710  25.7677810  61.5023940  94.6303170  22.2509890
  61.2764860  94.4140340  23.1556510  60.7216470  95.0631630  21.9055860
  68.7321700  94.6366540  20.8500540  68.1330590  95.3602340  20.6664160
  69.2801310  94.5743320  20.0676990  63.9423150  95.5288750  32.9170160
  63.8466750  94.5883480  32.7670560  64.7855130  95.7503820  32.5218230
  67.3386570  93.2730080  22.8803820  67.7316140  93.5902280  22.0672510
  67.7003420  92.3941960  22.9948340  59.0733690  91.9402420  31.0703940
  58.6797080  92.7877630  31.2776720  58.3852090  91.3028790  31.2612580
  65.6478740  92.0237390  34.1400680  64.9577060  91.8309590  34.7746770
  66.3911040  92.3072030  34.6724980  56.3750740  89.8630880  25.1034020
  56.0863790  90.4333740  25.8159000  57.1196500  89.3835330  25.4665250
  56.5620970  93.8051000  16.3136740  56.4795640  94.7481760  16.4551730
  56.2104030  93.6625910  15.4349090  67.9241710  95.8635830  26.9754600
  67.1922830  96.3722640  27.3244700  67.5266050  95.0465810  26.6743380
  64.3619100  92.5390030  25.3807090  64.3655160  92.0979980  24.5311630
  65.2570220  92.8607360  25.4878910  60.2121480  92.4216520  24.3401300
  59.8721530  92.8991750  25.0968350  59.4498800  91.9681640  23.9802400
  64.4239250  93.5402110  18.3713850  64.5452070  93.4988590  19.3199670
  64.0387760  94.4026260  18.2160580  68.3867620  91.3169510  26.3877540
  68.4040360  91.7678160  27.2319390  68.1383200  90.4175150  26.6010980
  63.4360750  95.8503250  17.7697150  62.8677650  95.4021500  17.1433060
  64.1449750  96.2096030  17.2362300  71.8138370  88.7301690  32.2263920
  72.1384140  87.9991350  32.7521900  71.8494880  88.4115330  31.3244910
  64.6627070  96.5991810  27.1272500  65.0297200  96.1250380  27.8733840
  64.4732130  97.4733380  27.4680840  57.5267560  91.3435500  23.2565970
  57.2414480  90.9791170  24.0944590  57.4646420  90.6115960  22.6429110
  62.4526440  95.6400450  29.4456710  62.1483510  96.5192430  29.6707070
  63.4072900  95.7000240  29.4814150  67.2006150  90.2364760  19.9779340
  66.3870760  89.7377930  19.9024650  67.0068100  91.0763010  19.5615690
  69.9154540  94.6084410  18.2741500  70.8034160  94.9201640  18.0992840
  69.8859630  93.7356660  17.8822080  58.5090170  96.4803190  30.5928070
  58.1505110  97.1457040  31.1801410  58.2144730  95.6486740  30.9640690
  61.7103290  96.9387430  33.4767620  61.4103430  97.0844610  32.5795440
  62.4814530  96.3792720  33.3841010  72.1868810  95.9196250  17.7421360
  72.1032530  96.3510470  16.8917800  72.9063000  96.3794600  18.1748180
  57.0198220  96.4794450  17.2162670  57.8893070  96.7619250  17.4998590
  56.5288540  97.2930320  17.1011480  64.1833030  97.8667660  21.3370950
  64.6395810  98.6772910  21.5631140  63.8321240  97.5490800  22.1689440
  60.0844810  88.2105310  21.8093470  59.9559440  88.2023210  22.7578390
  59.2606830  88.5488400  21.4584480  57.0838740  89.9696430  31.2700170
  56.3697260  90.1693350  31.8752780  57.5033780  89.1936000  31.6414970
  68.5777520  92.4618740  29.0201620  68.9458340  91.6413950  29.3481190
  67.7175720  92.5220630  29.4357270  71.9439550  91.4175680  19.8289180
  71.3152710  91.5221350  19.1147410  71.4491470  91.6372460  20.6183060
  63.9123580  93.6961630  21.2447060  63.2039730  94.1647970  21.6860670
  64.1968060  93.0383640  21.8792250  65.5379510  95.1158330  29.2439590
  66.0364760  95.5904150  29.9091440  65.6802460  94.1921850  29.4509620
  67.9439010  90.4212290  22.6842850  67.8206790  90.4398420  21.7352360
  68.8923570  90.4691230  22.8041250  62.1158600  92.0046710  18.6197770
  62.9649130  92.4416860  18.5537960  61.7489870  92.3166970  19.4469830
  72.7446370  91.3326290  30.0867980  72.2419970  92.0731690  30.4261790
  73.5603030  91.7210290  29.7704770  71.0368380  96.5759470  23.5329340
  70.0958520  96.5909700  23.7077030  71.3512450  95.7895430  23.9789640
  61.0150020  98.2579070  17.0933300  61.7813290  98.1460430  17.6558730
  61.0924710  97.5617040  16.4410070  59.7096780  95.6904140  17.7766190
  59.7900370  94.7431650  17.8883590  60.6016530  96.0211020  17.8826850
  57.2367580  97.5119060  33.0122360  57.7406600  96.9326340  33.5838590
  56.4975000  97.7959290  33.5498730  59.2690660  95.6548650  33.9072430
  59.3096000  95.3562520  34.8157660  60.1236160  96.0556260  33.7479950
  63.0469050  98.2544200  19.0675940  63.4685470  98.0884070  19.9107330
  63.1719890  97.4444430  18.5731080  61.2096470  94.2340750  31.8746920
  60.6792930  93.7431700  31.2470260  61.8784540  94.6624950  31.3404850
  65.5596690  97.2781810  16.3153040  66.0802350  96.5630830  15.9494190
  66.2065090  97.9167680  16.6153550  70.5796700  96.0406370  33.6427260
  71.1617470  95.2858690  33.5547740  70.7558470  96.5713810  32.8658740
  61.6968770  91.2003120  31.9544210  61.6025640  90.5823870  31.2295080
  61.1166160  91.9269410  31.7274120  64.4630210  89.7576360  28.9871600
  64.0147510  89.7800620  28.1417150  63.8295410  89.3595380  29.5841900
  67.2053660  96.3846870  30.9921880  67.3249870  95.7888010  31.7316720
  68.0647660  96.4216560  30.5723180  69.5441560  96.9384060  29.5684390
  69.0176780  97.4626680  28.9649530  69.8872900  97.5711450  30.1994120
  61.9427950  94.3277430  16.0134100  61.7417010  93.4644790  16.3747440
  61.7720000  94.2410790  15.0755700  63.9722430  92.9268220  32.2497700
  64.5622120  92.6184070  32.9375520  63.1542670  92.4547970  32.4057600
  68.7915860  92.5434030  32.4830720  68.1031380  91.8815570  32.4180710
  69.5121880  92.0972300  32.9279180  69.4216260  89.1385660  18.5420980
  69.7018550  88.2953560  18.8980400  68.6481990  89.3708770  19.0559730
  60.7410750  91.4278050  16.0011980  61.0436650  91.4345480  15.0931130
  61.4805340  91.0775910  16.4979640  63.9595680  90.3712670  16.9868180
  63.6117680  89.6936660  16.4070630  64.1608450  89.9102180  17.8011570
  57.3001320  96.9000320  23.3832550  56.6450160  96.6311960  22.7392250
  58.1379270  96.7904800  22.9334530  70.2491760  91.6941610  17.6051040
  70.6676640  91.5072590  16.7647700  69.9427820  90.8420660  17.9153970
  73.7481490  96.6065750  21.3026840  73.3725090  95.8393680  20.8708130
  73.0184610  96.9888450  21.7901770  58.3377250  97.2852890  27.9235890
  58.7050290  97.1980290  28.8031910  57.7688070  96.5219440  27.8242750
  73.1381110  95.7537270  30.9366360  72.9067200  95.5250020  30.0364310
  73.3985660  96.6736820  30.8911250  57.8893250  94.1961980  31.8294310
  56.9949300  94.1628740  32.1688020  58.4290800  94.3948770  32.5945560
  71.5769180  90.9793700  33.7146060  72.4539360  90.9877100  34.0980060
  71.5890020  90.2424540  33.1038410  56.5139400  94.1099250  19.3257880
  55.6103480  94.3729450  19.1509540  56.9980020  94.3810420  18.5457840
  73.0232450  94.8323240  24.6034080  73.5469930  94.3385890  23.9724250
  73.6091870  94.9673600  25.3481650  73.2022170  94.9163110  28.1253630
  72.2524880  94.8826650  28.2398620  73.3835180  95.8263220  27.8903400
  59.0566610  93.1664790  17.2352260  59.7658310  92.7448010  16.7499540
  58.3406550  93.2340020  16.6035610  58.7040770  89.2204120  16.2754910
  59.4268900  89.7613060  16.5936130  58.9765290  88.9467540  15.3996450
  72.5132420  94.0896590  20.5426490  73.0091540  93.8567460  21.3275370
  72.3148490  93.2508430  20.1264130  58.3932960  88.4710310  26.1777530
  59.0409150  87.9207690  25.7372690  58.8134800  88.7253460  26.9993340
  73.9419580  92.7257540  23.0764170  73.8318860  92.5713580  24.0146440
  74.7027170  92.1978480  22.8339580  72.2885300  88.6651670  29.5347170
  72.9257520  89.2785810  29.9006360  72.4360190  88.7012330  28.5896400
  74.8309850  90.5565460  16.3170310  75.7559160  90.4246640  16.1088600
  74.8085640  90.6358280  17.2706760  74.9048340  91.3276120  18.9427020
  74.1099840  91.2621240  19.4719930  75.1091620  92.2626760  18.9312370
  58.1464960  88.6265980  28.9202850  57.7979780  89.0829800  29.6861030
  57.8152660  87.7323110  29.0025280  65.6589780  89.8177860  32.4422270
  65.5978670  90.4099690  33.1917680  66.5990160  89.7103820  32.2972530
  68.2964340  89.4747920  32.0814560  68.9104750  89.7927210  31.4195640
  68.8413900  88.9896510  32.7010420  58.8185600  88.1542180  32.1953620
  59.3668590  87.9730230  31.4319730  58.8840910  87.3636290  32.7309930
  69.0372380  88.0380060  28.4083850  68.1632220  88.3715170  28.2056780
  68.9283130  87.5653240  29.2335720  69.9444360  90.2450930  29.7925570
  69.6157720  89.4302690  29.4127300  70.8926660  90.2020740  29.6691260
  66.7847200  88.9549900  27.3476760  66.0018990  89.4295400  27.6273520
  66.4910130  88.0504730  27.2389940  71.3368270  89.6573000  25.3925850
  71.7776360  89.6018100  24.5447450  71.0675860  90.5731010  25.4636030
  73.2006840  89.2888240  23.4034670  73.1395240  88.3449460  23.2565690
  73.9798870  89.3968330  23.9488130  58.1287610  89.2597380  19.8690480
  58.8866970  89.3726260  19.2954510  57.6664780  90.0966580  19.8233910
  64.6701420  91.3736650  22.8592790  63.8575930  90.9993540  22.5188670
  65.1743060  90.6181730  23.1613980  69.1726400  88.0379100  24.0975860
  69.7755770  88.6099310  24.5724380  68.4319390  88.6018540  23.8749760
  72.3161000  88.4400660  19.3716140  72.5111630  89.3384110  19.6383570
  71.5290870  88.2087740  19.8649090  60.5012760  89.7861430  18.4092450
  61.0305520  88.9991230  18.2800400  61.1341080  90.4652620  18.6427980
  62.6950600  89.5236570  21.4637840  62.0653340  88.8223880  21.6307970
  62.1555740  90.2840700  21.2471000  62.8206160  88.8020550  33.8990330
  62.5390430  89.3054150  33.1351150  63.2025860  88.0042300  33.5332460
  69.4221620  88.2174130  34.4770800  69.3087070  88.5368740  35.3722320
  70.2391360  88.6186640  34.1808080  68.3279770  96.2366600   4.8405540
  68.2473820  95.3221210   4.5697250  67.9144190  96.7333670   4.1345250
  66.4597810  98.0145620   6.7214810  65.6839910  97.5346060   7.0113380
  67.1110740  97.3351270   6.5470970  60.4763640  98.3265430   7.5990570
  59.6448520  98.0714140   7.9987080  61.0844620  98.3976200   8.3348490
  56.8488600  95.8872970   7.2672660  57.4204710  95.1195170   7.2676300
  56.8490140  96.1861730   6.3579270  58.0913470  91.2957330   9.0541590
  57.9116310  90.3983080   9.3344350  57.6893550  91.8429200   9.7288540
  66.9311970  93.4973190   6.9553900  67.3076790  92.6245070   6.8427570
  66.8331480  93.8331890   6.0644340  61.0616980  91.8698820   2.4171340
  61.1683730  92.7702550   2.7240100  60.1509340  91.8216790   2.1265990
  70.7136090  90.9923630   3.8882240  71.5345710  90.5020200   3.9307720
  70.7470170  91.5821290   4.6414080  58.7100140  93.7917830   7.6623930
  59.3910250  94.0556200   8.2811330  58.3948190  92.9518700   7.9961940
  62.9024710  94.8385190   6.7496520  63.4102930  95.3366160   7.3901540
  63.4337950  94.0620390   6.5735880  75.0035640  93.0090380  10.4525870
  74.2987810  93.3972090   9.9340980  75.2693560  93.7040670  11.0546800
  61.1860810  89.4783750  11.0159940  61.1879250  89.9956140  10.2105840
  60.3565120  89.0013930  10.9929870  70.9497570  92.9324010   6.6609780
  70.2453140  93.2208900   7.2412890  71.3109730  93.7424120   6.3009340
  60.8676140  91.1893710   9.0230390  61.2092950  92.0335760   8.7284260
  59.9291950  91.3377450   9.1395730  74.0184490  92.3778800   7.0518990
  73.0709400  92.4117780   7.1834420  74.3434480  93.1917750   7.4368350
  64.5504030  88.6775980   5.3474980  64.8579010  88.1222870   4.6310480
  63.6204730  88.8120440   5.1647970  66.9384790  96.7424810   2.0835100
  66.0114070  96.6762190   2.3123570  67.0909610  97.6804940   1.9690340
  73.4466630  97.6960330   9.0581290  72.6185260  97.7653420   8.5831420
  74.0417110  98.2814640   8.5897120  70.9682080  98.3045110   2.5870350
  70.3494500  97.9664660   1.9396650  70.9506530  97.6604870   3.2949540
  70.4108640  94.4829650  10.0036160  69.9979820  95.3083360  10.2576150
  69.6784590  93.8974690   9.8112520  62.5441430  97.2689550   4.8654830
  62.1398430  96.5566800   4.3700730  62.6304550  96.9242790   5.7542870
  61.2570050  94.0432760   8.6453870  61.8084640  94.1528100   7.8707120
  61.7713560  94.4170360   9.3609100  60.9312780  97.5652120  12.2559210
  60.7920550  98.4374920  12.6246610  60.0494140  97.2224930  12.1107150
  59.2446060  96.1634530   2.3661480  59.1243660  96.8896620   1.7542750
  58.9346950  95.3937440   1.8889390  73.9365210  93.5346230  13.8858280
  73.3209480  94.0425900  13.3573740  73.6161630  92.6344560  13.8284220
  61.7109720  89.5069600   5.7485150  61.2677870  90.2879140   5.4169670
  62.2694710  89.8299490   6.4556090  65.9979530  92.3738120  11.3520470
  65.5358900  92.5821140  12.1640410  65.5957640  91.5597470  11.0491140
  70.9984040  93.5947070  12.4817130  70.1477630  93.2952820  12.8026200
  70.8385830  93.8389080  11.5700950  68.0933750  95.0948820  14.5815920
  68.4187160  94.2612570  14.2418150  68.8814080  95.6177340  14.7294250
  63.7485620  90.0516930   7.6074750  64.0457950  90.9579760   7.5266770
  64.2971180  89.5635710   6.9934320  61.5023940  94.6303170   3.4766400
  61.2764860  94.4140340   4.3813020  60.7216470  95.0631630   3.1312370
  68.7321700  94.6366540   2.0757050  68.1330590  95.3602340   1.8920670
  69.2801310  94.5743320   1.2933500  63.9423150  95.5288750  14.1426670
  63.8466750  94.5883480  13.9927070  64.7855130  95.7503820  13.7474740
  67.3386570  93.2730080   4.1060330  67.7316140  93.5902280   3.2929020
  67.7003420  92.3941960   4.2204850  59.0733690  91.9402420  12.2960450
  58.6797080  92.7877630  12.5033230  58.3852090  91.3028790  12.4869090
  65.6478740  92.0237390  15.3657190  64.9577060  91.8309590  16.0003280
  66.3911040  92.3072030  15.8981490  56.3750740  89.8630880   6.3290530
  56.0863790  90.4333740   7.0415510  57.1196500  89.3835330   6.6921760
  67.9241710  95.8635830   8.2011110  67.1922830  96.3722640   8.5501210
  67.5266050  95.0465810   7.8999890  64.3619100  92.5390030   6.6063600
  64.3655160  92.0979980   5.7568140  65.2570220  92.8607360   6.7135420
  60.2121480  92.4216520   5.5657810  59.8721530  92.8991750   6.3224860
  59.4498800  91.9681640   5.2058910  68.3867620  91.3169510   7.6134050
  68.4040360  91.7678160   8.4575900  68.1383200  90.4175150   7.8267490
  71.8138370  88.7301690  13.4520430  72.1384140  87.9991350  13.9778410
  71.8494880  88.4115330  12.5501420  64.6627070  96.5991810   8.3529010
  65.0297200  96.1250380   9.0990350  64.4732130  97.4733380   8.6937350
  57.5267560  91.3435500   4.4822480  57.2414480  90.9791170   5.3201100
  57.4646420  90.6115960   3.8685620  62.4526440  95.6400450  10.6713220
  62.1483510  96.5192430  10.8963580  63.4072900  95.7000240  10.7070660
  58.5090170  96.4803190  11.8184580  58.1505110  97.1457040  12.4057920
  58.2144730  95.6486740  12.1897200  61.7103290  96.9387430  14.7024130
  61.4103430  97.0844610  13.8051950  62.4814530  96.3792720  14.6097520
  64.1833030  97.8667660   2.5627460  64.6395810  98.6772910   2.7887650
  63.8321240  97.5490800   3.3945950  60.0844810  88.2105310   3.0349980
  59.9559440  88.2023210   3.9834900  59.2606830  88.5488400   2.6840990
  57.0838740  89.9696430  12.4956680  56.3697260  90.1693350  13.1009290
  57.5033780  89.1936000  12.8671480  68.5777520  92.4618740  10.2458130
  68.9458340  91.6413950  10.5737700  67.7175720  92.5220630  10.6613780
  63.9123580  93.6961630   2.4703570  63.2039730  94.1647970   2.9117180
  64.1968060  93.0383640   3.1048760  65.5379510  95.1158330  10.4696100
  66.0364760  95.5904150  11.1347950  65.6802460  94.1921850  10.6766130
  67.9439010  90.4212290   3.9099360  67.8206790  90.4398420   2.9608870
  68.8923570  90.4691230   4.0297760  72.7446370  91.3326290  11.3124490
  72.2419970  92.0731690  11.6518300  73.5603030  91.7210290  10.9961280
  71.0368380  96.5759470   4.7585850  70.0958520  96.5909700   4.9333540
  71.3512450  95.7895430   5.2046150  57.2367580  97.5119060  14.2378870
  57.7406600  96.9326340  14.8095100  56.4975000  97.7959290  14.7755240
  59.2690660  95.6548650  15.1328940  59.3096000  95.3562520  16.0414170
  60.1236160  96.0556260  14.9736460  61.2096470  94.2340750  13.1003430
  60.6792930  93.7431700  12.4726770  61.8784540  94.6624950  12.5661360
  70.5796700  96.0406370  14.8683770  71.1617470  95.2858690  14.7804250
  70.7558470  96.5713810  14.0915250  61.6968770  91.2003120  13.1800720
  61.6025640  90.5823870  12.4551590  61.1166160  91.9269410  12.9530630
  64.4630210  89.7576360  10.2128110  64.0147510  89.7800620   9.3673660
  63.8295410  89.3595380  10.8098410  67.2053660  96.3846870  12.2178390
  67.3249870  95.7888010  12.9573230  68.0647660  96.4216560  11.7979690
  69.5441560  96.9384060  10.7940900  69.0176780  97.4626680  10.1906040
  69.8872900  97.5711450  11.4250630  63.9722430  92.9268220  13.4754210
  64.5622120  92.6184070  14.1632030  63.1542670  92.4547970  13.6314110
  68.7915860  92.5434030  13.7087230  68.1031380  91.8815570  13.6437220
  69.5121880  92.0972300  14.1535690  57.3001320  96.9000320   4.6089060
  56.6450160  96.6311960   3.9648760  58.1379270  96.7904800   4.1591040
  73.7481490  96.6065750   2.5283350  73.3725090  95.8393680   2.0964640
  73.0184610  96.9888450   3.0158280  58.3377250  97.2852890   9.1492400
  58.7050290  97.1980290  10.0288420  57.7688070  96.5219440   9.0499260
  73.1381110  95.7537270  12.1622870  72.9067200  95.5250020  11.2620820
  73.3985660  96.6736820  12.1167760  57.8893250  94.1961980  13.0550820
  56.9949300  94.1628740  13.3944530  58.4290800  94.3948770  13.8202070
  71.5769180  90.9793700  14.9402570  72.4539360  90.9877100  15.3236570
  71.5890020  90.2424540  14.3294920  73.0232450  94.8323240   5.8290590
  73.5469930  94.3385890   5.1980760  73.6091870  94.9673600   6.5738160
  73.2022170  94.9163110   9.3510140  72.2524880  94.8826650   9.4655130
  73.3835180  95.8263220   9.1159910  72.5132420  94.0896590   1.7683000
  73.0091540  93.8567460   2.5531880  72.3148490  93.2508430   1.3520640
  58.3932960  88.4710310   7.4034040  59.0409150  87.9207690   6.9629200
  58.8134800  88.7253460   8.2249850  73.9419580  92.7257540   4.3020680
  73.8318860  92.5713580   5.2402950  74.7027170  92.1978480   4.0596090
  72.2885300  88.6651670  10.7603680  72.9257520  89.2785810  11.1262870
  72.4360190  88.7012330   9.8152910  58.1464960  88.6265980  10.1459360
  57.7979780  89.0829800  10.9117540  57.8152660  87.7323110  10.2281790
  65.6589780  89.8177860  13.6678780  65.5978670  90.4099690  14.4174190
  66.5990160  89.7103820  13.5229040  68.2964340  89.4747920  13.3071070
  68.9104750  89.7927210  12.6452150  68.8413900  88.9896510  13.9266930
  58.8185600  88.1542180  13.4210130  59.3668590  87.9730230  12.6576240
  58.8840910  87.3636290  13.9566440  69.0372380  88.0380060   9.6340360
  68.1632220  88.3715170   9.4313290  68.9283130  87.5653240  10.4592230
  69.9444360  90.2450930  11.0182080  69.6157720  89.4302690  10.6383810
  70.8926660  90.2020740  10.8947770  66.7847200  88.9549900   8.5733270
  66.0018990  89.4295400   8.8530030  66.4910130  88.0504730   8.4646450
  71.3368270  89.6573000   6.6182360  71.7776360  89.6018100   5.7703960
  71.0675860  90.5731010   6.6892540  73.2006840  89.2888240   4.6291180
  73.1395240  88.3449460   4.4822200  73.9798870  89.3968330   5.1744640
  64.6701420  91.3736650   4.0849300  63.8575930  90.9993540   3.7445180
  65.1743060  90.6181730   4.3870490  69.1726400  88.0379100   5.3232370
  69.7755770  88.6099310   5.7980890  68.4319390  88.6018540   5.1006270
  62.6950600  89.5236570   2.6894350  62.0653340  88.8223880   2.8564480
  62.1555740  90.2840700   2.4727510  62.8206160  88.8020550  15.1246840
  62.5390430  89.3054150  14.3607660  63.2025860  88.0042300  14.7588970
  69.4221620  88.2174130  15.7027310  69.3087070  88.5368740  16.5978830
  70.2391360  88.6186640  15.4064590  68.3279770  77.4623110  79.9379500
  68.2473820  76.5477720  79.6671210  67.9144190  77.9590180  79.2319210
  66.4597810  79.2402130  81.8188770  65.6839910  78.7602570  82.1087340
  67.1110740  78.5607780  81.6444930  60.4763640  79.5521940  82.6964530
  59.6448520  79.2970650  83.0961040  61.0844620  79.6232710  83.4322450
  70.4805240  83.6462320  80.5987900  70.0186770  82.8749560  80.9275070
  71.2930790  83.6728390  81.1040350  60.4564900  83.5862030  82.8922550
  60.7592940  82.6959770  82.7132770  61.2008490  84.1432250  82.6644800
  58.8855590  74.5123830  76.4806920  57.9972290  74.8539800  76.3786800
  59.1696780  74.3124150  75.5887750  56.8488600  77.1129480  82.3646620
  57.4204710  76.3451680  82.3650260  56.8490140  77.4118240  81.4553230
  66.7068550  85.9320330  80.2191890  66.0879990  86.3877830  79.6486330
  67.5620330  86.0871790  79.8181590  65.9006800  81.9159320  81.8258930
  65.8315080  80.9749260  81.6648060  66.6626660  82.0060730  82.3981500
  58.0913470  72.5213840  84.1515550  57.9116310  71.6239590  84.4318310
  57.6893550  73.0685710  84.8262500  66.9311970  74.7229700  82.0527860
  67.3076790  73.8501580  81.9401530  66.8331480  75.0588400  81.1618300
  61.0616980  73.0955330  77.5145300  61.1683730  73.9959060  77.8214060
  60.1509340  73.0473300  77.2239950  70.7136090  72.2180140  78.9856200
  71.5345710  71.7276710  79.0281680  70.7470170  72.8077800  79.7388040
  58.7100140  75.0174340  82.7597890  59.3910250  75.2812710  83.3785290
  58.3948190  74.1775210  83.0935900  62.9024710  76.0641700  81.8470480
  63.4102930  76.5622670  82.4875500  63.4337950  75.2876900  81.6709840
  75.0035640  74.2346890  85.5499830  74.2987810  74.6228600  85.0314940
  75.2693560  74.9297180  86.1520760  61.1860810  70.7040260  86.1133900
  61.1879250  71.2212650  85.3079800  60.3565120  70.2270440  86.0903830
  67.5731900  80.8159570  77.6123800  66.9549170  81.2809020  77.0486520
  68.0855150  81.5087050  78.0293310  62.4363660  80.3435440  84.2907400
  62.1033040  80.9704360  84.9328470  62.6130340  80.8697320  83.5109070
  70.9497570  74.1580520  81.7583740  70.2453140  74.4465410  82.3386850
  71.3109730  74.9680630  81.3983300  60.8676140  72.4150220  84.1204350
  61.2092950  73.2592270  83.8258220  59.9291950  72.5633960  84.2369690
  61.6482760  82.3116240  86.1056580  62.2656760  82.9867320  85.8241030
  60.7875880  82.7204220  86.0144080  56.9415100  81.5016100  74.9863430
  56.5643080  81.9903200  74.2548330  57.1988170  82.1741380  75.6169960
  72.5660350  83.7755650  84.0211220  71.8823870  84.4454760  84.0127890
  73.1054640  83.9736300  83.2556080  74.0184490  73.6035310  82.1492950
  73.0709400  73.6374290  82.2808380  74.3434480  74.4174260  82.5342310
  64.5504030  69.9032490  80.4448940  64.8579010  69.3479380  79.7284440
  63.6204730  70.0376950  80.2621930  70.1019090  85.6199780  82.7356400
  70.1146250  85.2162070  81.8678660  69.5494310  86.3947070  82.6317830
  71.3964510  82.3416000  77.8246570  71.2860840  81.3990330  77.9495990
  71.3932760  82.7031640  78.7109330  69.5004530  80.5229620  84.0639010
  69.9173320  80.3089730  83.2292470  70.2244350  80.7802410  84.6347630
  66.9384790  77.9681320  77.1809060  66.0114070  77.9018700  77.4097530
  67.0909610  78.9061450  77.0664300  66.9253870  74.2398320  74.1776220
  65.9857540  74.4012280  74.2628680  67.2437130  74.9584000  73.6312210
  73.4466630  78.9216840  84.1555250  72.6185260  78.9909930  83.6805380
  74.0417110  79.5071150  83.6871080  70.9682080  79.5301620  77.6844310
  70.3494500  79.1921170  77.0370610  70.9506530  78.8861380  78.3923500
  70.4108640  75.7086160  85.1010120  69.9979820  76.5339870  85.3550110
  69.6784590  75.1231200  84.9086480  62.5441430  78.4946060  79.9628790
  62.1398430  77.7823310  79.4674690  62.6304550  78.1499300  80.8516830
  63.0123130  82.1813620  82.1268000  62.7151420  81.5759090  81.4475780
  63.9622950  82.2190930  82.0157360  61.2570050  75.2689270  83.7427830
  61.8084640  75.3784610  82.9681080  61.7713560  75.6426870  84.4583060
  71.1008740  85.7545490  85.7891100  70.6239300  86.5617680  85.5963710
  70.4170530  85.1023820  85.9417310  69.1446780  78.7688430  74.6917060
  69.5840060  77.9310860  74.5454880  69.8575200  79.4017830  74.7781200
  67.2542160  83.7084500  78.6598300  67.6938070  84.4508830  78.2453690
  67.1929050  83.9511070  79.5837260  72.7263920  70.0231240  73.0058100
  72.4136580  70.1158070  73.9057170  73.4876390  70.6012270  72.9555530
  59.2446060  77.3891040  77.4635440  59.1243660  78.1153130  76.8516710
  58.9346950  76.6193950  76.9863350  56.8831430  80.5606180  83.2704080
  56.9611850  80.6954950  82.3259800  57.4973110  79.8522070  83.4632200
  58.1279060  82.2606370  79.6810260  57.7207140  82.4020960  78.8263860
  59.0192070  81.9766530  79.4781470  69.9212340  86.6953620  76.0161310
  69.7613480  86.4056560  76.9143140  69.7559050  85.9193750  75.4806540
  62.4000720  86.4752150  77.7932930  62.2243200  85.5587690  77.5800730
  61.5456460  86.8339440  78.0330730  69.6238470  84.2041180  74.5759310
  68.9303630  84.2018470  73.9161590  70.3661330  83.7800500  74.1453480
  69.1888400  85.8303890  78.6507800  69.6445350  85.0493270  78.9646420
  69.5280920  86.5410710  79.1948980  56.9390950  81.6020350  85.8098540
  57.1021990  81.1325710  84.9917910  57.4043400  81.0943910  86.4747380
  61.7109720  70.7326110  80.8459110  61.2677870  71.5135650  80.5143630
  62.2694710  71.0556000  81.5530050  64.8268540  70.3536810  75.7264940
  64.2022720  70.3496680  76.4518250  64.7398660  69.4867770  75.3300910
  63.7485620  71.2773440  82.7048710  64.0457950  72.1836270  82.6240730
  64.2971180  70.7892220  82.0908280  61.5023940  75.8559680  78.5740360
  61.2764860  75.6396850  79.4786980  60.7216470  76.2888140  78.2286330
  68.7321700  75.8623050  77.1731010  68.1330590  76.5858850  76.9894630
  69.2801310  75.7999830  76.3907460  67.3386570  74.4986590  79.2034290
  67.7316140  74.8158790  78.3902980  67.7003420  73.6198470  79.3178810
  56.3750740  71.0887390  81.4264490  56.0863790  71.6590250  82.1389470
  57.1196500  70.6091840  81.7895720  56.5620970  75.0307510  72.6367210
  56.4795640  75.9738270  72.7782200  56.2104030  74.8882420  71.7579560
  67.9241710  77.0892340  83.2985070  67.1922830  77.5979150  83.6475170
  67.5266050  76.2722320  82.9973850  64.3619100  73.7646540  81.7037560
  64.3655160  73.3236490  80.8542100  65.2570220  74.0863870  81.8109380
  60.2121480  73.6473030  80.6631770  59.8721530  74.1248260  81.4198820
  59.4498800  73.1938150  80.3032870  64.4239250  74.7658620  74.6944320
  64.5452070  74.7245100  75.6430140  64.0387760  75.6282770  74.5391050
  68.3867620  72.5426020  82.7108010  68.4040360  72.9934670  83.5549860
  68.1383200  71.6431660  82.9241450  63.4360750  77.0759760  74.0927620
  62.8677650  76.6278010  73.4663530  64.1449750  77.4352540  73.5592770
  64.6627070  77.8248320  83.4502970  65.0297200  77.3506890  84.1964310
  64.4732130  78.6989890  83.7911310  57.5267560  72.5692010  79.5796440
  57.2414480  72.2047680  80.4175060  57.4646420  71.8372470  78.9659580
  62.4526440  76.8656960  85.7687180  62.1483510  77.7448940  85.9937540
  63.4072900  76.9256750  85.8044620  60.9808230  81.0717950  76.3654030
  60.2070490  80.5315570  76.2052750  61.7102860  80.5524560  76.0271790
  71.7396210  80.0683310  82.1580420  72.4595330  80.5638600  81.7676530
  71.5378030  79.3901200  81.5134290  67.2006150  71.4621270  76.3009810
  66.3870760  70.9634440  76.2255120  67.0068100  72.3019520  75.8846160
  69.9154540  75.8340920  74.5971970  70.8034160  76.1458150  74.4223310
  69.8859630  74.9613170  74.2052550  61.0245630  80.7398330  80.0032840
  61.5424300  79.9366590  79.9489730  60.5729650  80.6777470  80.8449670
  65.9115130  82.0064610  75.2760140  66.2530830  82.7506840  74.7803460
  65.0827840  82.3195730  75.6384970  72.1868810  77.1452760  74.0651830
  72.1032530  77.5766980  73.2148270  72.9063000  77.6051110  74.4978650
  73.2156060  83.9995020  76.7933960  72.5732220  83.3450640  77.0677680
  72.8286720  84.4050110  76.0174630  68.7942540  81.3280450  80.6405650
  69.1466360  80.7308580  79.9807020  67.9104870  81.0024680  80.8113900
  64.8805820  82.0878140  78.0476060  65.5676950  82.6347350  78.4283650
  64.0938240  82.6318870  78.0825670  57.0198220  77.7050960  73.5393140
  57.8893070  77.9875760  73.8229060  56.5288540  78.5186830  73.4241950
  64.1833030  79.0924170  77.6601420  64.6395810  79.9029420  77.8861610
  63.8321240  78.7747310  78.4919910  66.4865640  84.6030510  84.8893720
  67.1307860  84.8089890  85.5667140  66.8495080  83.8418910  84.4364570
  60.0844810  69.4361820  78.1323940  59.9559440  69.4279720  79.0808860
  59.2606830  69.7744910  77.7814950  67.7597720  82.6062860  83.6071170
  68.4019950  81.9056020  83.7203340  68.2847070  83.3861300  83.4268060
  71.6053440  82.8911480  73.3310310  71.3791020  82.1741920  73.9234950
  71.2149640  82.6423920  72.4932060  57.3869470  86.9178340  74.1054770
  57.7467110  87.5167680  73.4512040  57.2461810  87.4638230  74.8789800
  71.1869690  80.8083420  74.9924470  70.8991390  81.2696110  75.7802350
  71.9821860  80.3481190  75.2608690  63.4038090  84.3009540  74.9228440
  63.3948190  85.0339230  74.3072950  62.4836450  84.0541120  75.0155400
  59.0044730  79.5224430  75.6675200  58.3972680  80.2623330  75.6770500
  59.4794080  79.6123790  74.8413400  68.5777520  73.6875250  85.3432090
  68.9458340  72.8670460  85.6711660  67.7175720  73.7477140  85.7587740
  71.9439550  72.6432190  76.1519650  71.3152710  72.7477860  75.4377880
  71.4491470  72.8628970  76.9413530  66.3897690  84.3637780  73.5853630
  66.4909670  84.1601770  72.6555610  65.4899430  84.1096060  73.7901410
  63.9123580  74.9218140  77.5677530  63.2039730  75.3904480  78.0091140
  64.1968060  74.2640150  78.2022720  65.5379510  76.3414840  85.5670060
  66.0364760  76.8160660  86.2321910  65.6802460  75.4178360  85.7740090
  67.9439010  71.6468800  79.0073320  67.8206790  71.6654930  78.0582830
  68.8923570  71.6947740  79.1271720  65.0315800  86.8824100  78.2801300
  65.2857300  86.8445490  77.3580670  64.0828280  86.7557430  78.2729550
  62.1158600  73.2303220  74.9428240  62.9649130  73.6673370  74.8768430
  61.7489870  73.5423480  75.7700300  72.7446370  72.5582800  86.4098450
  72.2419970  73.2988200  86.7492260  73.5603030  72.9466800  86.0935240
  71.0368380  77.8015980  79.8559810  70.0958520  77.8166210  80.0307500
  71.3512450  77.0151940  80.3020110  61.0150020  79.4835580  73.4163770
  61.7813290  79.3716940  73.9789200  61.0924710  78.7873550  72.7640540
  59.7096780  76.9160650  74.0996660  59.7900370  75.9688160  74.2114060
  60.6016530  77.2467530  74.2057320  73.0393960  84.9724830  81.5314070
  73.1641380  85.7956000  82.0037880  73.9059520  84.7615560  81.1838220
  60.5111490  87.0656040  81.2031200  61.2473970  86.5171500  81.4739770
  60.8952410  87.9312050  81.0637190  57.3956970  83.1329610  77.0772710
  56.4696750  83.3750750  77.0678120  57.8613400  83.9603870  76.9557460
  63.6213800  86.2386350  73.0256770  64.4142410  86.5275180  72.5738560
  63.1018150  85.8078520  72.3469250  72.6743970  85.4656480  74.4493510
  72.3885480  85.0521620  73.6347690  72.4763520  86.3944190  74.3294030
  64.1391200  81.4589760  72.8899120  64.0341840  80.8442110  73.6160500
  63.9715420  80.9355650  72.1062130  67.3793930  80.5209790  73.4941110
  66.8304030  80.9679090  74.1383850  68.0013190  80.0159040  74.0178780
  63.0469050  79.4800710  75.3906410  63.4685470  79.3140580  76.2337800
  63.1719890  78.6700940  74.8961550  65.5596690  78.5038320  72.6383510
  66.0802350  77.7887340  72.2724660  66.2065090  79.1424190  72.9384020
  64.4630210  70.9832870  85.3102070  64.0147510  71.0057130  84.4647620
  63.8295410  70.5851890  85.9072370  64.8689760  79.8787200  85.9314510
  65.2877870  80.7219930  85.7590750  63.9498390  80.0159240  85.7021290
  69.5441560  78.1640570  85.8914860  69.0176780  78.6883190  85.2880000
  69.8872900  78.7967960  86.5224590  61.9427950  75.5533940  72.3364570
  61.7417010  74.6901300  72.6977910  61.7720000  75.4667300  71.3986170
  69.4216260  70.3642170  74.8651450  69.7018550  69.5210070  75.2210870
  68.6481990  70.5965280  75.3790200  60.7410750  72.6534560  72.3242450
  61.0436650  72.6601990  71.4161600  61.4805340  72.3032420  72.8210110
  63.9595680  71.5969180  73.3098650  63.6117680  70.9193170  72.7301100
  64.1608450  71.1358690  74.1242040  66.1244720  86.5849930  74.9285250
  67.0195510  86.9234900  74.9504010  66.1562350  85.8629340  74.3009530
  59.7640880  81.9576980  73.1572250  60.2015750  82.5006650  73.8129830
  60.2488610  81.1323930  73.1668590  56.9786680  84.7466010  80.6092510
  57.3089690  83.8787070  80.3771150  57.4077680  84.9524530  81.4397470
  61.5748600  83.0775020  78.2694480  61.2744140  82.9539990  79.1698390
  61.4686090  82.2183610  77.8610210  57.4676890  85.6136600  83.3474140
  57.0307880  85.7937400  84.1798290  58.0354570  86.3711220  83.2055860
  74.3440520  82.8571420  72.9721160  73.5133480  82.9248070  73.4428390
  74.5212350  83.7475540  72.6688020  73.7996980  79.6018900  75.4755360
  74.5615890  80.1715550  75.5815050  73.8151350  79.0346100  76.2463670
  57.3001320  78.1256830  79.7063020  56.6450160  77.8568470  79.0622720
  58.1379270  78.0161310  79.2565000  74.8056950  80.4569000  80.3197290
  75.1765780  79.6736320  79.9133260  75.4458880  81.1458100  80.1414590
  71.7890710  81.8405580  85.7327610  70.9750550  82.2702740  85.9953400
  72.1964910  82.4523990  85.1196660  73.8516150  79.8953270  72.6327880
  74.1264990  80.8032150  72.5047100  73.6626890  79.8315800  73.5689870
  70.2491760  72.9198120  73.9281510  70.6676640  72.7329100  73.0878170
  69.9427820  72.0677170  74.2384440  73.7481490  77.8322260  77.6257310
  73.3725090  77.0650190  77.1938600  73.0184610  78.2144960  78.1132240
  58.3377250  78.5109400  84.2466360  58.7050290  78.4236800  85.1262380
  57.7688070  77.7475950  84.1473220  56.5139400  75.3355760  75.6488350
  55.6103480  75.5985960  75.4740010  56.9980020  75.6066930  74.8688310
  73.0232450  76.0579750  80.9264550  73.5469930  75.5642400  80.2954720
  73.6091870  76.1930110  81.6712120  73.2022170  76.1419620  84.4484100
  72.2524880  76.1083160  84.5629090  73.3835180  77.0519730  84.2133870
  59.0566610  74.3921300  73.5582730  59.7658310  73.9704520  73.0730010
  58.3406550  74.4596530  72.9266080  58.7040770  70.4460630  72.5985380
  59.4268900  70.9869570  72.9166600  58.9765290  70.1724050  71.7226920
  72.5132420  75.3153100  76.8656960  73.0091540  75.0823970  77.6505840
  72.3148490  74.4764940  76.4494600  58.3932960  69.6966820  82.5008000
  59.0409150  69.1464200  82.0603160  58.8134800  69.9509970  83.3223810
  73.9419580  73.9514050  79.3994640  73.8318860  73.7970090  80.3376910
  74.7027170  73.4234990  79.1570050  72.2885300  69.8908180  85.8577640
  72.9257520  70.5042320  86.2236830  72.4360190  69.9268840  84.9126870
  74.8309850  71.7821970  72.6400780  75.7559160  71.6503150  72.4319070
  74.8085640  71.8614790  73.5937230  74.9048340  72.5532630  75.2657490
  74.1099840  72.4877750  75.7950400  75.1091620  73.4883270  75.2542840
  71.8466760  86.5924180  79.2595880  72.4425830  86.2708750  78.5830300
  72.1044910  86.1196000  80.0509150  58.1464960  69.8522490  85.2433320
  57.7979780  70.3086310  86.0091500  57.8152660  68.9579620  85.3255750
  63.4535360  84.5801680  85.0096230  63.2126720  84.8476240  84.1226750
  64.3938000  84.7507410  85.0647090  74.7139520  86.5996060  85.8106870
  74.2197800  86.9964930  85.0934000  74.1052810  85.9745270  86.2044150
  69.0372380  69.2636570  84.7314320  68.1632220  69.5971680  84.5287250
  68.9283130  68.7909750  85.5566190  69.9444360  71.4707440  86.1156040
  69.6157720  70.6559200  85.7357770  70.8926660  71.4277250  85.9921730
  72.3978970  87.2419480  83.0893610  71.9381940  87.9935290  82.7151630
  71.7691430  86.5225950  83.0308410  59.2229590  83.3362720  85.4792330
  58.4963650  82.7168010  85.4118280  59.2838740  83.7303330  84.6090410
  62.8274690  85.5507720  82.2641740  63.3439710  84.9395080  81.7390000
  63.4772070  86.0536500  82.7552750  65.5670190  86.4416210  83.0910720
  65.8548000  86.1870510  82.2143730  66.0793410  85.8893570  83.6816290
  66.7847200  70.1806410  83.6707230  66.0018990  70.6551910  83.9503990
  66.4910130  69.2761240  83.5620410  71.3368270  70.8829510  81.7156320
  71.7776360  70.8274610  80.8677920  71.0675860  71.7987520  81.7866500
  73.2006840  70.5144750  79.7265140  73.1395240  69.5705970  79.5796160
  73.9798870  70.6224840  80.2718600  57.5059590  86.6537110  78.6889090
  57.3381630  86.0207790  79.3870980  56.6394100  86.8596510  78.3383280
  58.1287610  70.4853890  76.1920950  58.8866970  70.5982770  75.6184980
  57.6664780  71.3223090  76.1464380  64.6701420  72.5993160  79.1823260
  63.8575930  72.2250050  78.8419140  65.1743060  71.8438240  79.4844450
  69.1726400  69.2635610  80.4206330  69.7755770  69.8355820  80.8954850
  68.4319390  69.8275050  80.1980230  72.3161000  69.6657170  75.6946610
  72.5111630  70.5640620  75.9614040  71.5290870  69.4344250  76.1879560
  59.1122290  85.3470340  76.1339230  58.5869910  85.7278370  75.4301190
  59.0366870  85.9721110  76.8548940  60.5012760  71.0117940  74.7322920
  61.0305520  70.2247740  74.6030870  61.1341080  71.6909130  74.9658450
  62.6950600  70.7493080  77.7868310  62.0653340  70.0480390  77.9538440
  62.1555740  71.5097210  77.5701470  73.8687610  86.9057880  77.4553170
  74.0439800  86.2195620  76.8114090  73.1709180  87.4304930  77.0629840
  61.7115260  87.2952720  75.0088480  62.4434080  87.0112000  74.4612370
  61.9708930  87.0566000  75.8987860  60.8730050  83.4117450  75.0134810
  60.2438930  83.8802550  75.5620640  60.9877880  82.5666670  75.4481000
  68.3279770  77.4623110  61.1636010  68.2473820  76.5477720  60.8927720
  67.9144190  77.9590180  60.4575720  66.4597810  79.2402130  63.0445280
  65.6839910  78.7602570  63.3343850  67.1110740  78.5607780  62.8701440
  60.4763640  79.5521940  63.9221040  59.6448520  79.2970650  64.3217550
  61.0844620  79.6232710  64.6578960  70.4805240  83.6462320  61.8244410
  70.0186770  82.8749560  62.1531580  71.2930790  83.6728390  62.3296860
  60.4564900  83.5862030  64.1179060  60.7592940  82.6959770  63.9389280
  61.2008490  84.1432250  63.8901310  66.7068550  85.9320330  61.4448400
  66.0879990  86.3877830  60.8742840  67.5620330  86.0871790  61.0438100
  65.9006800  81.9159320  63.0515440  65.8315080  80.9749260  62.8904570
  66.6626660  82.0060730  63.6238010  70.7136090  72.2180140  60.2112710
  71.5345710  71.7276710  60.2538190  70.7470170  72.8077800  60.9644550
  75.0035640  74.2346890  66.7756340  74.2987810  74.6228600  66.2571450
  75.2693560  74.9297180  67.3777270  61.1860810  70.7040260  67.3390410
  61.1879250  71.2212650  66.5336310  60.3565120  70.2270440  67.3160340
  67.5731900  80.8159570  58.8380310  66.9549170  81.2809020  58.2743030
  68.0855150  81.5087050  59.2549820  62.4363660  80.3435440  65.5163910
  62.1033040  80.9704360  66.1584980  62.6130340  80.8697320  64.7365580
  70.9497570  74.1580520  62.9840250  70.2453140  74.4465410  63.5643360
  71.3109730  74.9680630  62.6239810  61.6482760  82.3116240  67.3313090
  62.2656760  82.9867320  67.0497540  60.7875880  82.7204220  67.2400590
  56.9415100  81.5016100  56.2119940  56.5643080  81.9903200  55.4804840
  57.1988170  82.1741380  56.8426470  72.5660350  83.7755650  65.2467730
  71.8823870  84.4454760  65.2384400  73.1054640  83.9736300  64.4812590
  74.0184490  73.6035310  63.3749460  73.0709400  73.6374290  63.5064890
  74.3434480  74.4174260  63.7598820  70.1019090  85.6199780  63.9612910
  70.1146250  85.2162070  63.0935170  69.5494310  86.3947070  63.8574340
  71.3964510  82.3416000  59.0503080  71.2860840  81.3990330  59.1752500
  71.3932760  82.7031640  59.9365840  69.5004530  80.5229620  65.2895520
  69.9173320  80.3089730  64.4548980  70.2244350  80.7802410  65.8604140
  66.9384790  77.9681320  58.4065570  66.0114070  77.9018700  58.6354040
  67.0909610  78.9061450  58.2920810  73.4466630  78.9216840  65.3811760
  72.6185260  78.9909930  64.9061890  74.0417110  79.5071150  64.9127590
  70.9682080  79.5301620  58.9100820  70.3494500  79.1921170  58.2627120
  70.9506530  78.8861380  59.6180010  70.4108640  75.7086160  66.3266630
  69.9979820  76.5339870  66.5806620  69.6784590  75.1231200  66.1342990
  63.0123130  82.1813620  63.3524510  62.7151420  81.5759090  62.6732290
  63.9622950  82.2190930  63.2413870  71.1008740  85.7545490  67.0147610
  70.6239300  86.5617680  66.8220220  70.4170530  85.1023820  67.1673820
  62.1041560  81.9195310  70.0032310  61.2070090  82.1435280  70.2505710
  62.1294430  82.0430250  69.0543710  69.1446780  78.7688430  55.9173570
  69.5840060  77.9310860  55.7711390  69.8575200  79.4017830  56.0037710
  60.9312780  78.7908630  68.5789680  60.7920550  79.6631430  68.9477080
  60.0494140  78.4481440  68.4337620  67.2542160  83.7084500  59.8854810
  67.6938070  84.4508830  59.4710200  67.1929050  83.9511070  60.8093770
  62.7293130  84.7330330  70.7874830  62.7008560  85.1373280  69.9203260
  62.5658100  83.8040690  70.6246430  74.6807950  85.5157430  72.0839000
  75.1567670  85.9940320  72.7628080  75.3015110  85.4474920  71.3584500
  56.8831430  80.5606180  64.4960590  56.9611850  80.6954950  63.5516310
  57.4973110  79.8522070  64.6888710  58.1279060  82.2606370  60.9066770
  57.7207140  82.4020960  60.0520370  59.0192070  81.9766530  60.7037980
  74.0841200  82.7070280  69.2439010  74.2104260  82.4682160  68.3256190
  74.1262580  81.8754820  69.7161090  67.9457940  86.4098280  67.8133820
  68.4602610  86.3206290  68.6156250  67.1027020  86.7557980  68.1061730
  69.9212340  86.6953620  57.2417820  69.7613480  86.4056560  58.1399650
  69.7559050  85.9193750  56.7063050  62.4000720  86.4752150  59.0189440
  62.2243200  85.5587690  58.8057240  61.5456460  86.8339440  59.2587240
  69.6238470  84.2041180  55.8015820  68.9303630  84.2018470  55.1418100
  70.3661330  83.7800500  55.3709990  69.1888400  85.8303890  59.8764310
  69.6445350  85.0493270  60.1902930  69.5280920  86.5410710  60.4205490
  73.9365210  74.7602740  70.2088750  73.3209480  75.2682410  69.6804210
  73.6161630  73.8601070  70.1514690  56.9390950  81.6020350  67.0355050
  57.1021990  81.1325710  66.2174420  57.4043400  81.0943910  67.7003890
  65.9979530  73.5994630  67.6750940  65.5358900  73.8077650  68.4870880
  65.5957640  72.7853980  67.3721610  70.9984040  74.8203580  68.8047600
  70.1477630  74.5209330  69.1256670  70.8385830  75.0645590  67.8931420
  68.0933750  76.3205330  70.9046390  68.4187160  75.4869080  70.5648620
  68.8814080  76.8433850  71.0524720  68.7321700  75.8623050  58.3987520
  68.1330590  76.5858850  58.2151140  69.2801310  75.7999830  57.6163970
  63.9423150  76.7545260  70.4657140  63.8466750  75.8139990  70.3157540
  64.7855130  76.9760330  70.0705210  59.0733690  73.1658930  68.6190920
  58.6797080  74.0134140  68.8263700  58.3852090  72.5285300  68.8099560
  65.6478740  73.2493900  71.6887660  64.9577060  73.0566100  72.3233750
  66.3911040  73.5328540  72.2211960  67.9241710  77.0892340  64.5241580
  67.1922830  77.5979150  64.8731680  67.5266050  76.2722320  64.2230360
  71.8138370  69.9558200  69.7750900  72.1384140  69.2247860  70.3008880
  71.8494880  69.6371840  68.8731890  58.5129930  80.9771780  69.1950860
  58.1284720  80.3365450  69.7933820  58.8242120  81.6807900  69.7645590
  64.6627070  77.8248320  64.6759480  65.0297200  77.3506890  65.4220820
  64.4732130  78.6989890  65.0167820  62.4526440  76.8656960  66.9943690
  62.1483510  77.7448940  67.2194050  63.4072900  76.9256750  67.0301130
  60.9808230  81.0717950  57.5910540  60.2070490  80.5315570  57.4309260
  61.7102860  80.5524560  57.2528300  71.7396210  80.0683310  63.3836930
  72.4595330  80.5638600  62.9933040  71.5378030  79.3901200  62.7390800
  67.1215010  80.1392370  69.2705930  67.0552320  79.2188040  69.0163520
  66.4920150  80.2367810  69.9850570  69.9154540  75.8340920  55.8228480
  70.8034160  76.1458150  55.6479820  69.8859630  74.9613170  55.4309060
  61.0245630  80.7398330  61.2289350  61.5424300  79.9366590  61.1746240
  60.5729650  80.6777470  62.0706180  65.9115130  82.0064610  56.5016650
  66.2530830  82.7506840  56.0059970  65.0827840  82.3195730  56.8641480
  58.5090170  77.7059700  68.1415050  58.1505110  78.3713550  68.7288390
  58.2144730  76.8743250  68.5127670  61.7103290  78.1643940  71.0254600
  61.4103430  78.3101120  70.1282420  62.4814530  77.6049230  70.9327990
  67.0531740  82.9612940  69.0209730  67.0676280  82.0293900  68.8028640
  66.3456840  83.0472700  69.6599500  72.1868810  77.1452760  55.2908340
  72.1032530  77.5766980  54.4404780  72.9063000  77.6051110  55.7235160
  73.2642950  79.6020280  68.3678310  72.5391140  80.1949060  68.1707700
  73.7918410  79.5943820  67.5691680  73.2156060  83.9995020  58.0190470
  72.5732220  83.3450640  58.2934190  72.8286720  84.4050110  57.2431140
  68.7942540  81.3280450  61.8662160  69.1466360  80.7308580  61.2063530
  67.9104870  81.0024680  62.0370410  64.8805820  82.0878140  59.2732570
  65.5676950  82.6347350  59.6540160  64.0938240  82.6318870  59.3082180
  64.1833030  79.0924170  58.8857930  64.6395810  79.9029420  59.1118120
  63.8321240  78.7747310  59.7176420  66.4865640  84.6030510  66.1150230
  67.1307860  84.8089890  66.7923650  66.8495080  83.8418910  65.6621080
  67.7597720  82.6062860  64.8327680  68.4019950  81.9056020  64.9459850
  68.2847070  83.3861300  64.6524570  71.6053440  82.8911480  54.5566820
  71.3791020  82.1741920  55.1491460  71.2149640  82.6423920  53.7188570
  69.5335340  83.4057760  68.0363740  69.8691580  83.9924450  68.7141660
  68.6135680  83.2750470  68.2661530  57.3869470  86.9178340  55.3311280
  57.7467110  87.5167680  54.6768550  57.2461810  87.4638230  56.1046310
  57.0838740  71.1952940  68.8187150  56.3697260  71.3949860  69.4239760
  57.5033780  70.4192510  69.1901950  71.1869690  80.8083420  56.2180980
  70.8991390  81.2696110  57.0058860  71.9821860  80.3481190  56.4865200
  57.3711330  85.1833200  69.8053680  57.4802450  84.2427940  69.6649070
  56.7191890  85.4487950  69.1567410  65.3623920  83.4549090  71.2051800
  65.0420790  82.7358330  71.7497490  64.6882280  84.1304160  71.2787860
  63.4038090  84.3009540  56.1484950  63.3948190  85.0339230  55.5329460
  62.4836450  84.0541120  56.2411910  59.0044730  79.5224430  56.8931710
  58.3972680  80.2623330  56.9027010  59.4794080  79.6123790  56.0669910
  68.5777520  73.6875250  66.5688600  68.9458340  72.8670460  66.8968170
  67.7175720  73.7477140  66.9844250  71.9439550  72.6432190  57.3776160
  71.3152710  72.7477860  56.6634390  71.4491470  72.8628970  58.1670040
  66.3897690  84.3637780  54.8110140  66.4909670  84.1601770  53.8812120
  65.4899430  84.1096060  55.0157920  65.5379510  76.3414840  66.7926570
  66.0364760  76.8160660  67.4578420  65.6802460  75.4178360  66.9996600
  65.0315800  86.8824100  59.5057810  65.2857300  86.8445490  58.5837180
  64.0828280  86.7557430  59.4986060  72.7446370  72.5582800  67.6354960
  72.2419970  73.2988200  67.9748770  73.5603030  72.9466800  67.3191750
  71.0368380  77.8015980  61.0816320  70.0958520  77.8166210  61.2564010
  71.3512450  77.0151940  61.5276620  61.0150020  79.4835580  54.6420280
  61.7813290  79.3716940  55.2045710  61.0924710  78.7873550  53.9897050
  73.0393960  84.9724830  62.7570580  73.1641380  85.7956000  63.2294390
  73.9059520  84.7615560  62.4094730  60.5111490  87.0656040  62.4287710
  61.2473970  86.5171500  62.6996280  60.8952410  87.9312050  62.2893700
  57.3956970  83.1329610  58.3029220  56.4696750  83.3750750  58.2934630
  57.8613400  83.9603870  58.1813970  59.5169770  86.2502110  71.6173290
  60.3182500  86.5714160  72.0308690  59.0021590  85.8897690  72.3393200
  63.6213800  86.2386350  54.2513280  64.4142410  86.5275180  53.7995070
  63.1018150  85.8078520  53.5725760  68.3534400  82.3581980  71.5648700
  67.7472560  82.3813580  70.8244450  68.0488510  81.6265020  72.1015950
  69.7834770  86.0862270  70.1758110  70.7356520  86.0020290  70.1258350
  69.6362990  86.7503980  70.8491900  72.6743970  85.4656480  55.6750020
  72.3885480  85.0521620  54.8604200  72.4763520  86.3944190  55.5550540
  57.2367580  78.7375570  70.5609340  57.7406600  78.1582850  71.1325570
  56.4975000  79.0215800  71.0985710  64.1391200  81.4589760  54.1155630
  64.0341840  80.8442110  54.8417010  63.9715420  80.9355650  53.3318640
  64.2905520  80.1446560  70.0944860  63.5251190  80.7131560  70.0099530
  64.4721480  79.8522770  69.2013090  67.3793930  80.5209790  54.7197620
  66.8304030  80.9679090  55.3640360  68.0013190  80.0159040  55.2435290
  71.4328870  81.8751890  70.6519880  72.1738340  82.2127650  70.1487340
  70.6701550  82.0443950  70.0989650  59.2690660  76.8805160  71.4559410
  59.3096000  76.5819030  72.3644640  60.1236160  77.2812770  71.2966930
  63.0469050  79.4800710  56.6162920  63.4685470  79.3140580  57.4594310
  63.1719890  78.6700940  56.1218060  61.2096470  75.4597260  69.4233900
  60.6792930  74.9688210  68.7957240  61.8784540  75.8881460  68.8891830
  65.5596690  78.5038320  53.8640020  66.0802350  77.7887340  53.4981170
  66.2065090  79.1424190  54.1640530  70.1074530  79.9266720  69.1875090
  70.5215550  80.0811800  70.0365510  69.1725530  80.0521940  69.3500870
  70.5796700  77.2662880  71.1914240  71.1617470  76.5115200  71.1034720
  70.7558470  77.7970320  70.4145720  61.6968770  72.4259630  69.5031190
  61.6025640  71.8080380  68.7782060  61.1166160  73.1525920  69.2761100
  64.4630210  70.9832870  66.5358580  64.0147510  71.0057130  65.6904130
  63.8295410  70.5851890  67.1328880  64.8689760  79.8787200  67.1571020
  65.2877870  80.7219930  66.9847260  63.9498390  80.0159240  66.9277800
  67.2053660  77.6103380  68.5408860  67.3249870  77.0144520  69.2803700
  68.0647660  77.6473070  68.1210160  69.5441560  78.1640570  67.1171370
  69.0176780  78.6883190  66.5136510  69.8872900  78.7967960  67.7481100
  62.7197180  86.1840210  68.2728750  62.1818270  86.9086270  67.9537450
  62.9731140  85.7070550  67.4826090  63.9722430  74.1524730  69.7984680
  64.5622120  73.8440580  70.4862500  63.1542670  73.6804480  69.9544580
  68.7915860  73.7690540  70.0317700  68.1031380  73.1072080  69.9667690
  69.5121880  73.3228810  70.4766160  65.5759390  87.4191420  68.5315400
  65.5018090  88.3226560  68.8387770  64.6738230  87.1003320  68.5037470
  66.1244720  86.5849930  56.1541760  67.0195510  86.9234900  56.1760520
  66.1562350  85.8629340  55.5266040  59.7640880  81.9576980  54.3828760
  60.2015750  82.5006650  55.0386340  60.2488610  81.1323930  54.3925100
  56.9786680  84.7466010  61.8349020  57.3089690  83.8787070  61.6027660
  57.4077680  84.9524530  62.6653980  61.5748600  83.0775020  59.4950990
  61.2744140  82.9539990  60.3954900  61.4686090  82.2183610  59.0866720
  57.4676890  85.6136600  64.5730650  57.0307880  85.7937400  65.4054800
  58.0354570  86.3711220  64.4312370  73.1039070  85.1153600  68.8607960
  72.5041060  85.1746160  68.1171880  73.2332970  84.1758580  68.9904810
  74.3440520  82.8571420  54.1977670  73.5133480  82.9248070  54.6684900
  74.5212350  83.7475540  53.8944530  73.7996980  79.6018900  56.7011870
  74.5615890  80.1715550  56.8071560  73.8151350  79.0346100  57.4720180
  74.8056950  80.4569000  61.5453800  75.1765780  79.6736320  61.1389770
  75.4458880  81.1458100  61.3671100  71.7890710  81.8405580  66.9584120
  70.9750550  82.2702740  67.2209910  72.1964910  82.4523990  66.3453170
  73.8516150  79.8953270  53.8584390  74.1264990  80.8032150  53.7303610
  73.6626890  79.8315800  54.7946380  70.2491760  72.9198120  55.1538020
  70.6676640  72.7329100  54.3134680  69.9427820  72.0677170  55.4640950
  73.7481490  77.8322260  58.8513820  73.3725090  77.0650190  58.4195110
  73.0184610  78.2144960  59.3388750  58.3377250  78.5109400  65.4722870
  58.7050290  78.4236800  66.3518890  57.7688070  77.7475950  65.3729730
  73.1381110  76.9793780  68.4853340  72.9067200  76.7506530  67.5851290
  73.3985660  77.8993330  68.4398230  57.8893250  75.4218490  69.3781290
  56.9949300  75.3885250  69.7175000  58.4290800  75.6205280  70.1432540
  71.5769180  72.2050210  71.2633040  72.4539360  72.2133610  71.6467040
  71.5890020  71.4681050  70.6525390  73.0232450  76.0579750  62.1521060
  73.5469930  75.5642400  61.5211230  73.6091870  76.1930110  62.8968630
  73.2022170  76.1419620  65.6740610  72.2524880  76.1083160  65.7885600
  73.3835180  77.0519730  65.4390380  72.5132420  75.3153100  58.0913470
  73.0091540  75.0823970  58.8762350  72.3148490  74.4764940  57.6751110
  73.9419580  73.9514050  60.6251150  73.8318860  73.7970090  61.5633420
  74.7027170  73.4234990  60.3826560  72.2885300  69.8908180  67.0834150
  72.9257520  70.5042320  67.4493340  72.4360190  69.9268840  66.1383380
  74.8309850  71.7821970  53.8657290  75.7559160  71.6503150  53.6575580
  74.8085640  71.8614790  54.8193740  74.9048340  72.5532630  56.4914000
  74.1099840  72.4877750  57.0206910  75.1091620  73.4883270  56.4799350
  71.8466760  86.5924180  60.4852390  72.4425830  86.2708750  59.8086810
  72.1044910  86.1196000  61.2765660  58.1464960  69.8522490  66.4689830
  57.7979780  70.3086310  67.2348010  57.8152660  68.9579620  66.5512260
  59.7529330  83.0242090  70.6343020  59.7098960  82.6535000  71.5157480
  59.8840340  83.9619660  70.7744840  63.4535360  84.5801680  66.2352740
  63.2126720  84.8476240  65.3483260  64.3938000  84.7507410  66.2903600
  65.6589780  71.0434370  69.9909250  65.5978670  71.6356200  70.7404660
  66.5990160  70.9360330  69.8459510  68.2964340  70.7004430  69.6301540
  68.9104750  71.0183720  68.9682620  68.8413900  70.2153020  70.2497400
  74.7139520  86.5996060  67.0363380  74.2197800  86.9964930  66.3190510
  74.1052810  85.9745270  67.4300660  58.8185600  69.3798690  69.7440600
  59.3668590  69.1986740  68.9806710  58.8840910  68.5892800  70.2796910
  59.5917360  85.9704340  67.7540800  58.9977680  85.8389040  68.4930840
  59.5841200  85.1342480  67.2882900  69.0372380  69.2636570  65.9570830
  68.1632220  69.5971680  65.7543760  68.9283130  68.7909750  66.7822700
  69.9444360  71.4707440  67.3412550  69.6157720  70.6559200  66.9614280
  70.8926660  71.4277250  67.2178240  72.3978970  87.2419480  64.3150120
  71.9381940  87.9935290  63.9408140  71.7691430  86.5225950  64.2564920
  59.2229590  83.3362720  66.7048840  58.4963650  82.7168010  66.6374790
  59.2838740  83.7303330  65.8346920  62.8274690  85.5507720  63.4898250
  63.3439710  84.9395080  62.9646510  63.4772070  86.0536500  63.9809260
  65.5670190  86.4416210  64.3167230  65.8548000  86.1870510  63.4400240
  66.0793410  85.8893570  64.9072800  57.5059590  86.6537110  59.9145600
  57.3381630  86.0207790  60.6127490  56.6394100  86.8596510  59.5639790
  59.1122290  85.3470340  57.3595740  58.5869910  85.7278370  56.6557700
  59.0366870  85.9721110  58.0805450  65.6342550  87.3632310  71.6835430
  66.5609860  87.1276580  71.7271390  65.6192980  88.1904310  71.2021460
  73.8687610  86.9057880  58.6809680  74.0439800  86.2195620  58.0370600
  73.1709180  87.4304930  58.2886350  62.8206160  70.0277060  71.4477310
  62.5390430  70.5310660  70.6838130  63.2025860  69.2298810  71.0819440
  61.7115260  87.2952720  56.2344990  62.4434080  87.0112000  55.6868880
  61.9708930  87.0566000  57.1244370  60.8730050  83.4117450  56.2391320
  60.2438930  83.8802550  56.7877150  60.9877880  82.5666670  56.6737510
  69.4221620  69.4430640  72.0257780  69.3087070  69.7625250  72.9209300
  70.2391360  69.8443150  71.7295060  72.2020110  86.5902170  71.5076470
  72.9945430  86.0951400  71.3002430  72.4953260  87.2692310  72.1152080
  68.3279770  77.4623110  42.3892520  68.2473820  76.5477720  42.1184230
  67.9144190  77.9590180  41.6832230  66.4597810  79.2402130  44.2701790
  65.6839910  78.7602570  44.5600360  67.1110740  78.5607780  44.0957950
  60.4763640  79.5521940  45.1477550  59.6448520  79.2970650  45.5474060
  61.0844620  79.6232710  45.8835470  70.4805240  83.6462320  43.0500920
  70.0186770  82.8749560  43.3788090  71.2930790  83.6728390  43.5553370
  60.4564900  83.5862030  45.3435570  60.7592940  82.6959770  45.1645790
  61.2008490  84.1432250  45.1157820  66.7068550  85.9320330  42.6704910
  66.0879990  86.3877830  42.0999350  67.5620330  86.0871790  42.2694610
  65.9006800  81.9159320  44.2771950  65.8315080  80.9749260  44.1161080
  66.6626660  82.0060730  44.8494520  70.7136090  72.2180140  41.4369220
  71.5345710  71.7276710  41.4794700  70.7470170  72.8077800  42.1901060
  75.0035640  74.2346890  48.0012850  74.2987810  74.6228600  47.4827960
  75.2693560  74.9297180  48.6033780  67.5731900  80.8159570  40.0636820
  66.9549170  81.2809020  39.4999540  68.0855150  81.5087050  40.4806330
  62.4363660  80.3435440  46.7420420  62.1033040  80.9704360  47.3841490
  62.6130340  80.8697320  45.9622090  70.9497570  74.1580520  44.2096760
  70.2453140  74.4465410  44.7899870  71.3109730  74.9680630  43.8496320
  61.6482760  82.3116240  48.5569600  62.2656760  82.9867320  48.2754050
  60.7875880  82.7204220  48.4657100  56.9415100  81.5016100  37.4376450
  56.5643080  81.9903200  36.7061350  57.1988170  82.1741380  38.0682980
  72.5660350  83.7755650  46.4724240  71.8823870  84.4454760  46.4640910
  73.1054640  83.9736300  45.7069100  74.0184490  73.6035310  44.6005970
  73.0709400  73.6374290  44.7321400  74.3434480  74.4174260  44.9855330
  70.1019090  85.6199780  45.1869420  70.1146250  85.2162070  44.3191680
  69.5494310  86.3947070  45.0830850  71.3964510  82.3416000  40.2759590
  71.2860840  81.3990330  40.4009010  71.3932760  82.7031640  41.1622350
  69.5004530  80.5229620  46.5152030  69.9173320  80.3089730  45.6805490
  70.2244350  80.7802410  47.0860650  66.9384790  77.9681320  39.6322080
  66.0114070  77.9018700  39.8610550  67.0909610  78.9061450  39.5177320
  73.4466630  78.9216840  46.6068270  72.6185260  78.9909930  46.1318400
  74.0417110  79.5071150  46.1384100  70.9682080  79.5301620  40.1357330
  70.3494500  79.1921170  39.4883630  70.9506530  78.8861380  40.8436520
  70.4108640  75.7086160  47.5523140  69.9979820  76.5339870  47.8063130
  69.6784590  75.1231200  47.3599500  63.0123130  82.1813620  44.5781020
  62.7151420  81.5759090  43.8988800  63.9622950  82.2190930  44.4670380
  71.1008740  85.7545490  48.2404120  70.6239300  86.5617680  48.0476730
  70.4170530  85.1023820  48.3930330  62.1041560  81.9195310  51.2288820
  61.2070090  82.1435280  51.4762220  62.1294430  82.0430250  50.2800220
  69.1446780  78.7688430  37.1430080  69.5840060  77.9310860  36.9967900
  69.8575200  79.4017830  37.2294220  60.9312780  78.7908630  49.8046190
  60.7920550  79.6631430  50.1733590  60.0494140  78.4481440  49.6594130
  67.2542160  83.7084500  41.1111320  67.6938070  84.4508830  40.6966710
  67.1929050  83.9511070  42.0350280  62.7293130  84.7330330  52.0131340
  62.7008560  85.1373280  51.1459770  62.5658100  83.8040690  51.8502940
  72.7263920  70.0231240  35.4571120  72.4136580  70.1158070  36.3570190
  73.4876390  70.6012270  35.4068550  74.6807950  85.5157430  53.3095510
  75.1567670  85.9940320  53.9884590  75.3015110  85.4474920  52.5841010
  56.8831430  80.5606180  45.7217100  56.9611850  80.6954950  44.7772820
  57.4973110  79.8522070  45.9145220  58.1279060  82.2606370  42.1323280
  57.7207140  82.4020960  41.2776880  59.0192070  81.9766530  41.9294490
  74.0841200  82.7070280  50.4695520  74.2104260  82.4682160  49.5512700
  74.1262580  81.8754820  50.9417600  67.9457940  86.4098280  49.0390330
  68.4602610  86.3206290  49.8412760  67.1027020  86.7557980  49.3318240
  69.9212340  86.6953620  38.4674330  69.7613480  86.4056560  39.3656160
  69.7559050  85.9193750  37.9319560  62.4000720  86.4752150  40.2445950
  62.2243200  85.5587690  40.0313750  61.5456460  86.8339440  40.4843750
  69.6238470  84.2041180  37.0272330  68.9303630  84.2018470  36.3674610
  70.3661330  83.7800500  36.5966500  69.1888400  85.8303890  41.1020820
  69.6445350  85.0493270  41.4159440  69.5280920  86.5410710  41.6462000
  73.9365210  74.7602740  51.4345260  73.3209480  75.2682410  50.9060720
  73.6161630  73.8601070  51.3771200  56.9390950  81.6020350  48.2611560
  57.1021990  81.1325710  47.4430930  57.4043400  81.0943910  48.9260400
  70.9984040  74.8203580  50.0304110  70.1477630  74.5209330  50.3513180
  70.8385830  75.0645590  49.1187930  68.0933750  76.3205330  52.1302900
  68.4187160  75.4869080  51.7905130  68.8814080  76.8433850  52.2781230
  68.7321700  75.8623050  39.6244030  68.1330590  76.5858850  39.4407650
  69.2801310  75.7999830  38.8420480  67.9241710  77.0892340  45.7498090
  67.1922830  77.5979150  46.0988190  67.5266050  76.2722320  45.4486870
  58.5129930  80.9771780  50.4207370  58.1284720  80.3365450  51.0190330
  58.8242120  81.6807900  50.9902100  60.9808230  81.0717950  38.8167050
  60.2070490  80.5315570  38.6565770  61.7102860  80.5524560  38.4784810
  71.7396210  80.0683310  44.6093440  72.4595330  80.5638600  44.2189550
  71.5378030  79.3901200  43.9647310  67.1215010  80.1392370  50.4962440
  67.0552320  79.2188040  50.2420030  66.4920150  80.2367810  51.2107080
  69.9154540  75.8340920  37.0484990  70.8034160  76.1458150  36.8736330
  69.8859630  74.9613170  36.6565570  61.0245630  80.7398330  42.4545860
  61.5424300  79.9366590  42.4002750  60.5729650  80.6777470  43.2962690
  65.9115130  82.0064610  37.7273160  66.2530830  82.7506840  37.2316480
  65.0827840  82.3195730  38.0897990  67.0531740  82.9612940  50.2466240
  67.0676280  82.0293900  50.0285150  66.3456840  83.0472700  50.8856010
  72.1868810  77.1452760  36.5164850  72.1032530  77.5766980  35.6661290
  72.9063000  77.6051110  36.9491670  73.2642950  79.6020280  49.5934820
  72.5391140  80.1949060  49.3964210  73.7918410  79.5943820  48.7948190
  73.2156060  83.9995020  39.2446980  72.5732220  83.3450640  39.5190700
  72.8286720  84.4050110  38.4687650  68.7942540  81.3280450  43.0918670
  69.1466360  80.7308580  42.4320040  67.9104870  81.0024680  43.2626920
  64.8805820  82.0878140  40.4989080  65.5676950  82.6347350  40.8796670
  64.0938240  82.6318870  40.5338690  64.1833030  79.0924170  40.1114440
  64.6395810  79.9029420  40.3374630  63.8321240  78.7747310  40.9432930
  66.4865640  84.6030510  47.3406740  67.1307860  84.8089890  48.0180160
  66.8495080  83.8418910  46.8877590  67.7597720  82.6062860  46.0584190
  68.4019950  81.9056020  46.1716360  68.2847070  83.3861300  45.8781080
  71.6053440  82.8911480  35.7823330  71.3791020  82.1741920  36.3747970
  71.2149640  82.6423920  34.9445080  69.5335340  83.4057760  49.2620250
  69.8691580  83.9924450  49.9398170  68.6135680  83.2750470  49.4918040
  57.3869470  86.9178340  36.5567790  57.7467110  87.5167680  35.9025060
  57.2461810  87.4638230  37.3302820  71.1869690  80.8083420  37.4437490
  70.8991390  81.2696110  38.2315370  71.9821860  80.3481190  37.7121710
  57.3711330  85.1833200  51.0310190  57.4802450  84.2427940  50.8905580
  56.7191890  85.4487950  50.3823920  65.3623920  83.4549090  52.4308310
  65.0420790  82.7358330  52.9754000  64.6882280  84.1304160  52.5044370
  63.4038090  84.3009540  37.3741460  63.3948190  85.0339230  36.7585970
  62.4836450  84.0541120  37.4668420  59.0044730  79.5224430  38.1188220
  58.3972680  80.2623330  38.1283520  59.4794080  79.6123790  37.2926420
  71.9439550  72.6432190  38.6032670  71.3152710  72.7477860  37.8890900
  71.4491470  72.8628970  39.3926550  66.3897690  84.3637780  36.0366650
  66.4909670  84.1601770  35.1068630  65.4899430  84.1096060  36.2414430
  65.0315800  86.8824100  40.7314320  65.2857300  86.8445490  39.8093690
  64.0828280  86.7557430  40.7242570  72.7446370  72.5582800  48.8611470
  72.2419970  73.2988200  49.2005280  73.5603030  72.9466800  48.5448260
  71.0368380  77.8015980  42.3072830  70.0958520  77.8166210  42.4820520
  71.3512450  77.0151940  42.7533130  61.0150020  79.4835580  35.8676790
  61.7813290  79.3716940  36.4302220  61.0924710  78.7873550  35.2153560
  73.0393960  84.9724830  43.9827090  73.1641380  85.7956000  44.4550900
  73.9059520  84.7615560  43.6351240  60.5111490  87.0656040  43.6544220
  61.2473970  86.5171500  43.9252790  60.8952410  87.9312050  43.5150210
  57.3956970  83.1329610  39.5285730  56.4696750  83.3750750  39.5191140
  57.8613400  83.9603870  39.4070480  59.5169770  86.2502110  52.8429800
  60.3182500  86.5714160  53.2565200  59.0021590  85.8897690  53.5649710
  63.6213800  86.2386350  35.4769790  64.4142410  86.5275180  35.0251580
  63.1018150  85.8078520  34.7982270  68.3534400  82.3581980  52.7905210
  67.7472560  82.3813580  52.0500960  68.0488510  81.6265020  53.3272460
  69.7834770  86.0862270  51.4014620  70.7356520  86.0020290  51.3514860
  69.6362990  86.7503980  52.0748410  72.6743970  85.4656480  36.9006530
  72.3885480  85.0521620  36.0860710  72.4763520  86.3944190  36.7807050
  64.1391200  81.4589760  35.3412140  64.0341840  80.8442110  36.0673520
  63.9715420  80.9355650  34.5575150  64.2905520  80.1446560  51.3201370
  63.5251190  80.7131560  51.2356040  64.4721480  79.8522770  50.4269600
  67.3793930  80.5209790  35.9454130  66.8304030  80.9679090  36.5896870
  68.0013190  80.0159040  36.4691800  71.4328870  81.8751890  51.8776390
  72.1738340  82.2127650  51.3743850  70.6701550  82.0443950  51.3246160
  63.0469050  79.4800710  37.8419430  63.4685470  79.3140580  38.6850820
  63.1719890  78.6700940  37.3474570  65.5596690  78.5038320  35.0896530
  66.0802350  77.7887340  34.7237680  66.2065090  79.1424190  35.3897040
  70.1074530  79.9266720  50.4131600  70.5215550  80.0811800  51.2622020
  69.1725530  80.0521940  50.5757380  70.5796700  77.2662880  52.4170750
  71.1617470  76.5115200  52.3291230  70.7558470  77.7970320  51.6402230
  64.8689760  79.8787200  48.3827530  65.2877870  80.7219930  48.2103770
  63.9498390  80.0159240  48.1534310  67.2053660  77.6103380  49.7665370
  67.3249870  77.0144520  50.5060210  68.0647660  77.6473070  49.3466670
  69.5441560  78.1640570  48.3427880  69.0176780  78.6883190  47.7393020
  69.8872900  78.7967960  48.9737610  62.7197180  86.1840210  49.4985260
  62.1818270  86.9086270  49.1793960  62.9731140  85.7070550  48.7082600
  68.7915860  73.7690540  51.2574210  68.1031380  73.1072080  51.1924200
  69.5121880  73.3228810  51.7022670  65.5759390  87.4191420  49.7571910
  65.5018090  88.3226560  50.0644280  64.6738230  87.1003320  49.7293980
  66.1244720  86.5849930  37.3798270  67.0195510  86.9234900  37.4017030
  66.1562350  85.8629340  36.7522550  59.7640880  81.9576980  35.6085270
  60.2015750  82.5006650  36.2642850  60.2488610  81.1323930  35.6181610
  56.9786680  84.7466010  43.0605530  57.3089690  83.8787070  42.8284170
  57.4077680  84.9524530  43.8910490  61.5748600  83.0775020  40.7207500
  61.2744140  82.9539990  41.6211410  61.4686090  82.2183610  40.3123230
  57.4676890  85.6136600  45.7987160  57.0307880  85.7937400  46.6311310
  58.0354570  86.3711220  45.6568880  73.1039070  85.1153600  50.0864470
  72.5041060  85.1746160  49.3428390  73.2332970  84.1758580  50.2161320
  74.3440520  82.8571420  35.4234180  73.5133480  82.9248070  35.8941410
  74.5212350  83.7475540  35.1201040  73.7996980  79.6018900  37.9268380
  74.5615890  80.1715550  38.0328070  73.8151350  79.0346100  38.6976690
  74.8056950  80.4569000  42.7710310  75.1765780  79.6736320  42.3646280
  75.4458880  81.1458100  42.5927610  71.7890710  81.8405580  48.1840630
  70.9750550  82.2702740  48.4466420  72.1964910  82.4523990  47.5709680
  73.8516150  79.8953270  35.0840900  74.1264990  80.8032150  34.9560120
  73.6626890  79.8315800  36.0202890  70.2491760  72.9198120  36.3794530
  70.6676640  72.7329100  35.5391190  69.9427820  72.0677170  36.6897460
  73.7481490  77.8322260  40.0770330  73.3725090  77.0650190  39.6451620
  73.0184610  78.2144960  40.5645260  73.1381110  76.9793780  49.7109850
  72.9067200  76.7506530  48.8107800  73.3985660  77.8993330  49.6654740
  71.5769180  72.2050210  52.4889550  72.4539360  72.2133610  52.8723550
  71.5890020  71.4681050  51.8781900  73.0232450  76.0579750  43.3777570
  73.5469930  75.5642400  42.7467740  73.6091870  76.1930110  44.1225140
  73.2022170  76.1419620  46.8997120  72.2524880  76.1083160  47.0142110
  73.3835180  77.0519730  46.6646890  72.5132420  75.3153100  39.3169980
  73.0091540  75.0823970  40.1018860  72.3148490  74.4764940  38.9007620
  73.9419580  73.9514050  41.8507660  73.8318860  73.7970090  42.7889930
  74.7027170  73.4234990  41.6083070  72.2885300  69.8908180  48.3090660
  72.9257520  70.5042320  48.6749850  72.4360190  69.9268840  47.3639890
  74.8309850  71.7821970  35.0913800  75.7559160  71.6503150  34.8832090
  74.8085640  71.8614790  36.0450250  74.9048340  72.5532630  37.7170510
  74.1099840  72.4877750  38.2463420  75.1091620  73.4883270  37.7055860
  71.8466760  86.5924180  41.7108900  72.4425830  86.2708750  41.0343320
  72.1044910  86.1196000  42.5022170  59.7529330  83.0242090  51.8599530
  59.7098960  82.6535000  52.7413990  59.8840340  83.9619660  52.0001350
  63.4535360  84.5801680  47.4609250  63.2126720  84.8476240  46.5739770
  64.3938000  84.7507410  47.5160110  74.7139520  86.5996060  48.2619890
  74.2197800  86.9964930  47.5447020  74.1052810  85.9745270  48.6557170
  59.5917360  85.9704340  48.9797310  58.9977680  85.8389040  49.7187350
  59.5841200  85.1342480  48.5139410  69.9444360  71.4707440  48.5669060
  69.6157720  70.6559200  48.1870790  70.8926660  71.4277250  48.4434750
  72.3978970  87.2419480  45.5406630  71.9381940  87.9935290  45.1664650
  71.7691430  86.5225950  45.4821430  59.2229590  83.3362720  47.9305350
  58.4963650  82.7168010  47.8631300  59.2838740  83.7303330  47.0603430
  62.8274690  85.5507720  44.7154760  63.3439710  84.9395080  44.1903020
  63.4772070  86.0536500  45.2065770  65.5670190  86.4416210  45.5423740
  65.8548000  86.1870510  44.6656750  66.0793410  85.8893570  46.1329310
  71.3368270  70.8829510  44.1669340  71.7776360  70.8274610  43.3190940
  71.0675860  71.7987520  44.2379520  73.2006840  70.5144750  42.1778160
  73.1395240  69.5705970  42.0309180  73.9798870  70.6224840  42.7231620
  57.5059590  86.6537110  41.1402110  57.3381630  86.0207790  41.8384000
  56.6394100  86.8596510  40.7896300  59.1122290  85.3470340  38.5852250
  58.5869910  85.7278370  37.8814210  59.0366870  85.9721110  39.3061960
  65.6342550  87.3632310  52.9091940  66.5609860  87.1276580  52.9527900
  65.6192980  88.1904310  52.4277970  73.8687610  86.9057880  39.9066190
  74.0439800  86.2195620  39.2627110  73.1709180  87.4304930  39.5142860
  61.7115260  87.2952720  37.4601500  62.4434080  87.0112000  36.9125390
  61.9708930  87.0566000  38.3500880  60.8730050  83.4117450  37.4647830
  60.2438930  83.8802550  38.0133660  60.9877880  82.5666670  37.8994020
  72.2020110  86.5902170  52.7332980  72.9945430  86.0951400  52.5258940
  72.4953260  87.2692310  53.3408590  68.3279770  77.4623110  23.6149030
  68.2473820  76.5477720  23.3440740  67.9144190  77.9590180  22.9088740
  66.4597810  79.2402130  25.4958300  65.6839910  78.7602570  25.7856870
  67.1110740  78.5607780  25.3214460  60.4763640  79.5521940  26.3734060
  59.6448520  79.2970650  26.7730570  61.0844620  79.6232710  27.1091980
  70.4805240  83.6462320  24.2757430  70.0186770  82.8749560  24.6044600
  71.2930790  83.6728390  24.7809880  60.4564900  83.5862030  26.5692080
  60.7592940  82.6959770  26.3902300  61.2008490  84.1432250  26.3414330
  58.8855590  74.5123830  20.1576450  57.9972290  74.8539800  20.0556330
  59.1696780  74.3124150  19.2657280  66.7068550  85.9320330  23.8961420
  66.0879990  86.3877830  23.3255860  67.5620330  86.0871790  23.4951120
  65.9006800  81.9159320  25.5028460  65.8315080  80.9749260  25.3417590
  66.6626660  82.0060730  26.0751030  61.0616980  73.0955330  21.1914830
  61.1683730  73.9959060  21.4983590  60.1509340  73.0473300  20.9009480
  70.7136090  72.2180140  22.6625730  71.5345710  71.7276710  22.7051210
  70.7470170  72.8077800  23.4157570  75.0035640  74.2346890  29.2269360
  74.2987810  74.6228600  28.7084470  75.2693560  74.9297180  29.8290290
  67.5731900  80.8159570  21.2893330  66.9549170  81.2809020  20.7256050
  68.0855150  81.5087050  21.7062840  62.4363660  80.3435440  27.9676930
  62.1033040  80.9704360  28.6098000  62.6130340  80.8697320  27.1878600
  70.9497570  74.1580520  25.4353270  70.2453140  74.4465410  26.0156380
  71.3109730  74.9680630  25.0752830  61.6482760  82.3116240  29.7826110
  62.2656760  82.9867320  29.5010560  60.7875880  82.7204220  29.6913610
  56.9415100  81.5016100  18.6632960  56.5643080  81.9903200  17.9317860
  57.1988170  82.1741380  19.2939490  72.5660350  83.7755650  27.6980750
  71.8823870  84.4454760  27.6897420  73.1054640  83.9736300  26.9325610
  74.0184490  73.6035310  25.8262480  73.0709400  73.6374290  25.9577910
  74.3434480  74.4174260  26.2111840  70.1019090  85.6199780  26.4125930
  70.1146250  85.2162070  25.5448190  69.5494310  86.3947070  26.3087360
  71.3964510  82.3416000  21.5016100  71.2860840  81.3990330  21.6265520
  71.3932760  82.7031640  22.3878860  69.5004530  80.5229620  27.7408540
  69.9173320  80.3089730  26.9062000  70.2244350  80.7802410  28.3117160
  66.9384790  77.9681320  20.8578590  66.0114070  77.9018700  21.0867060
  67.0909610  78.9061450  20.7433830  66.9253870  74.2398320  17.8545750
  65.9857540  74.4012280  17.9398210  67.2437130  74.9584000  17.3081740
  73.4466630  78.9216840  27.8324780  72.6185260  78.9909930  27.3574910
  74.0417110  79.5071150  27.3640610  70.9682080  79.5301620  21.3613840
  70.3494500  79.1921170  20.7140140  70.9506530  78.8861380  22.0693030
  70.4108640  75.7086160  28.7779650  69.9979820  76.5339870  29.0319640
  69.6784590  75.1231200  28.5856010  62.5441430  78.4946060  23.6398320
  62.1398430  77.7823310  23.1444220  62.6304550  78.1499300  24.5286360
  63.0123130  82.1813620  25.8037530  62.7151420  81.5759090  25.1245310
  63.9622950  82.2190930  25.6926890  71.1008740  85.7545490  29.4660630
  70.6239300  86.5617680  29.2733240  70.4170530  85.1023820  29.6186840
  62.1041560  81.9195310  32.4545330  61.2070090  82.1435280  32.7018730
  62.1294430  82.0430250  31.5056730  69.1446780  78.7688430  18.3686590
  69.5840060  77.9310860  18.2224410  69.8575200  79.4017830  18.4550730
  60.9312780  78.7908630  31.0302700  60.7920550  79.6631430  31.3990100
  60.0494140  78.4481440  30.8850640  67.2542160  83.7084500  22.3367830
  67.6938070  84.4508830  21.9223220  67.1929050  83.9511070  23.2606790
  62.7293130  84.7330330  33.2387850  62.7008560  85.1373280  32.3716280
  62.5658100  83.8040690  33.0759450  72.7263920  70.0231240  16.6827630
  72.4136580  70.1158070  17.5826700  73.4876390  70.6012270  16.6325060
  59.2446060  77.3891040  21.1404970  59.1243660  78.1153130  20.5286240
  58.9346950  76.6193950  20.6632880  74.6807950  85.5157430  34.5352020
  75.1567670  85.9940320  35.2141100  75.3015110  85.4474920  33.8097520
  56.8831430  80.5606180  26.9473610  56.9611850  80.6954950  26.0029330
  57.4973110  79.8522070  27.1401730  58.1279060  82.2606370  23.3579790
  57.7207140  82.4020960  22.5033390  59.0192070  81.9766530  23.1551000
  74.0841200  82.7070280  31.6952030  74.2104260  82.4682160  30.7769210
  74.1262580  81.8754820  32.1674110  67.9457940  86.4098280  30.2646840
  68.4602610  86.3206290  31.0669270  67.1027020  86.7557980  30.5574750
  69.9212340  86.6953620  19.6930840  69.7613480  86.4056560  20.5912670
  69.7559050  85.9193750  19.1576070  62.4000720  86.4752150  21.4702460
  62.2243200  85.5587690  21.2570260  61.5456460  86.8339440  21.7100260
  69.6238470  84.2041180  18.2528840  68.9303630  84.2018470  17.5931120
  70.3661330  83.7800500  17.8223010  69.1888400  85.8303890  22.3277330
  69.6445350  85.0493270  22.6415950  69.5280920  86.5410710  22.8718510
  73.9365210  74.7602740  32.6601770  73.3209480  75.2682410  32.1317230
  73.6161630  73.8601070  32.6027710  56.9390950  81.6020350  29.4868070
  57.1021990  81.1325710  28.6687440  57.4043400  81.0943910  30.1516910
  61.7109720  70.7326110  24.5228640  61.2677870  71.5135650  24.1913160
  62.2694710  71.0556000  25.2299580  70.9984040  74.8203580  31.2560620
  70.1477630  74.5209330  31.5769690  70.8385830  75.0645590  30.3444440
  68.0933750  76.3205330  33.3559410  68.4187160  75.4869080  33.0161640
  68.8814080  76.8433850  33.5037740  64.8268540  70.3536810  19.4034470
  64.2022720  70.3496680  20.1287780  64.7398660  69.4867770  19.0070440
  61.5023940  75.8559680  22.2509890  61.2764860  75.6396850  23.1556510
  60.7216470  76.2888140  21.9055860  68.7321700  75.8623050  20.8500540
  68.1330590  76.5858850  20.6664160  69.2801310  75.7999830  20.0676990
  67.3386570  74.4986590  22.8803820  67.7316140  74.8158790  22.0672510
  67.7003420  73.6198470  22.9948340  56.5620970  75.0307510  16.3136740
  56.4795640  75.9738270  16.4551730  56.2104030  74.8882420  15.4349090
  67.9241710  77.0892340  26.9754600  67.1922830  77.5979150  27.3244700
  67.5266050  76.2722320  26.6743380  64.4239250  74.7658620  18.3713850
  64.5452070  74.7245100  19.3199670  64.0387760  75.6282770  18.2160580
  63.4360750  77.0759760  17.7697150  62.8677650  76.6278010  17.1433060
  64.1449750  77.4352540  17.2362300  71.8138370  69.9558200  32.2263920
  72.1384140  69.2247860  32.7521900  71.8494880  69.6371840  31.3244910
  58.5129930  80.9771780  31.6463880  58.1284720  80.3365450  32.2446840
  58.8242120  81.6807900  32.2158610  64.6627070  77.8248320  27.1272500
  65.0297200  77.3506890  27.8733840  64.4732130  78.6989890  27.4680840
  57.5267560  72.5692010  23.2565970  57.2414480  72.2047680  24.0944590
  57.4646420  71.8372470  22.6429110  60.9808230  81.0717950  20.0423560
  60.2070490  80.5315570  19.8822280  61.7102860  80.5524560  19.7041320
  71.7396210  80.0683310  25.8349950  72.4595330  80.5638600  25.4446060
  71.5378030  79.3901200  25.1903820  67.2006150  71.4621270  19.9779340
  66.3870760  70.9634440  19.9024650  67.0068100  72.3019520  19.5615690
  67.1215010  80.1392370  31.7218950  67.0552320  79.2188040  31.4676540
  66.4920150  80.2367810  32.4363590  69.9154540  75.8340920  18.2741500
  70.8034160  76.1458150  18.0992840  69.8859630  74.9613170  17.8822080
  61.0245630  80.7398330  23.6802370  61.5424300  79.9366590  23.6259260
  60.5729650  80.6777470  24.5219200  65.9115130  82.0064610  18.9529670
  66.2530830  82.7506840  18.4572990  65.0827840  82.3195730  19.3154500
  67.0531740  82.9612940  31.4722750  67.0676280  82.0293900  31.2541660
  66.3456840  83.0472700  32.1112520  72.1868810  77.1452760  17.7421360
  72.1032530  77.5766980  16.8917800  72.9063000  77.6051110  18.1748180
  73.2642950  79.6020280  30.8191330  72.5391140  80.1949060  30.6220720
  73.7918410  79.5943820  30.0204700  73.2156060  83.9995020  20.4703490
  72.5732220  83.3450640  20.7447210  72.8286720  84.4050110  19.6944160
  68.7942540  81.3280450  24.3175180  69.1466360  80.7308580  23.6576550
  67.9104870  81.0024680  24.4883430  64.8805820  82.0878140  21.7245590
  65.5676950  82.6347350  22.1053180  64.0938240  82.6318870  21.7595200
  57.0198220  77.7050960  17.2162670  57.8893070  77.9875760  17.4998590
  56.5288540  78.5186830  17.1011480  64.1833030  79.0924170  21.3370950
  64.6395810  79.9029420  21.5631140  63.8321240  78.7747310  22.1689440
  66.4865640  84.6030510  28.5663250  67.1307860  84.8089890  29.2436670
  66.8495080  83.8418910  28.1134100  60.0844810  69.4361820  21.8093470
  59.9559440  69.4279720  22.7578390  59.2606830  69.7744910  21.4584480
  67.7597720  82.6062860  27.2840700  68.4019950  81.9056020  27.3972870
  68.2847070  83.3861300  27.1037590  71.6053440  82.8911480  17.0079840
  71.3791020  82.1741920  17.6004480  71.2149640  82.6423920  16.1701590
  69.5335340  83.4057760  30.4876760  69.8691580  83.9924450  31.1654680
  68.6135680  83.2750470  30.7174550  57.3869470  86.9178340  17.7824300
  57.7467110  87.5167680  17.1281570  57.2461810  87.4638230  18.5559330
  71.1869690  80.8083420  18.6694000  70.8991390  81.2696110  19.4571880
  71.9821860  80.3481190  18.9378220  57.3711330  85.1833200  32.2566700
  57.4802450  84.2427940  32.1162090  56.7191890  85.4487950  31.6080430
  65.3623920  83.4549090  33.6564820  65.0420790  82.7358330  34.2010510
  64.6882280  84.1304160  33.7300880  63.4038090  84.3009540  18.5997970
  63.3948190  85.0339230  17.9842480  62.4836450  84.0541120  18.6924930
  59.0044730  79.5224430  19.3444730  58.3972680  80.2623330  19.3540030
  59.4794080  79.6123790  18.5182930  71.9439550  72.6432190  19.8289180
  71.3152710  72.7477860  19.1147410  71.4491470  72.8628970  20.6183060
  66.3897690  84.3637780  17.2623160  66.4909670  84.1601770  16.3325140
  65.4899430  84.1096060  17.4670940  63.9123580  74.9218140  21.2447060
  63.2039730  75.3904480  21.6860670  64.1968060  74.2640150  21.8792250
  67.9439010  71.6468800  22.6842850  67.8206790  71.6654930  21.7352360
  68.8923570  71.6947740  22.8041250  65.0315800  86.8824100  21.9570830
  65.2857300  86.8445490  21.0350200  64.0828280  86.7557430  21.9499080
  62.1158600  73.2303220  18.6197770  62.9649130  73.6673370  18.5537960
  61.7489870  73.5423480  19.4469830  72.7446370  72.5582800  30.0867980
  72.2419970  73.2988200  30.4261790  73.5603030  72.9466800  29.7704770
  71.0368380  77.8015980  23.5329340  70.0958520  77.8166210  23.7077030
  71.3512450  77.0151940  23.9789640  61.0150020  79.4835580  17.0933300
  61.7813290  79.3716940  17.6558730  61.0924710  78.7873550  16.4410070
  59.7096780  76.9160650  17.7766190  59.7900370  75.9688160  17.8883590
  60.6016530  77.2467530  17.8826850  73.0393960  84.9724830  25.2083600
  73.1641380  85.7956000  25.6807410  73.9059520  84.7615560  24.8607750
  60.5111490  87.0656040  24.8800730  61.2473970  86.5171500  25.1509300
  60.8952410  87.9312050  24.7406720  57.3956970  83.1329610  20.7542240
  56.4696750  83.3750750  20.7447650  57.8613400  83.9603870  20.6326990
  59.5169770  86.2502110  34.0686310  60.3182500  86.5714160  34.4821710
  59.0021590  85.8897690  34.7906220  63.6213800  86.2386350  16.7026300
  64.4142410  86.5275180  16.2508090  63.1018150  85.8078520  16.0238780
  68.3534400  82.3581980  34.0161720  67.7472560  82.3813580  33.2757470
  68.0488510  81.6265020  34.5528970  69.7834770  86.0862270  32.6271130
  70.7356520  86.0020290  32.5771370  69.6362990  86.7503980  33.3004920
  72.6743970  85.4656480  18.1263040  72.3885480  85.0521620  17.3117220
  72.4763520  86.3944190  18.0063560  64.1391200  81.4589760  16.5668650
  64.0341840  80.8442110  17.2930030  63.9715420  80.9355650  15.7831660
  64.2905520  80.1446560  32.5457880  63.5251190  80.7131560  32.4612550
  64.4721480  79.8522770  31.6526110  67.3793930  80.5209790  17.1710640
  66.8304030  80.9679090  17.8153380  68.0013190  80.0159040  17.6948310
  71.4328870  81.8751890  33.1032900  72.1738340  82.2127650  32.6000360
  70.6701550  82.0443950  32.5502670  63.0469050  79.4800710  19.0675940
  63.4685470  79.3140580  19.9107330  63.1719890  78.6700940  18.5731080
  65.5596690  78.5038320  16.3153040  66.0802350  77.7887340  15.9494190
  66.2065090  79.1424190  16.6153550  70.1074530  79.9266720  31.6388110
  70.5215550  80.0811800  32.4878530  69.1725530  80.0521940  31.8013890
  70.5796700  77.2662880  33.6427260  71.1617470  76.5115200  33.5547740
  70.7558470  77.7970320  32.8658740  64.8689760  79.8787200  29.6084040
  65.2877870  80.7219930  29.4360280  63.9498390  80.0159240  29.3790820
  67.2053660  77.6103380  30.9921880  67.3249870  77.0144520  31.7316720
  68.0647660  77.6473070  30.5723180  69.5441560  78.1640570  29.5684390
  69.0176780  78.6883190  28.9649530  69.8872900  78.7967960  30.1994120
  61.9427950  75.5533940  16.0134100  61.7417010  74.6901300  16.3747440
  61.7720000  75.4667300  15.0755700  62.7197180  86.1840210  30.7241770
  62.1818270  86.9086270  30.4050470  62.9731140  85.7070550  29.9339110
  69.4216260  70.3642170  18.5420980  69.7018550  69.5210070  18.8980400
  68.6481990  70.5965280  19.0559730  60.7410750  72.6534560  16.0011980
  61.0436650  72.6601990  15.0931130  61.4805340  72.3032420  16.4979640
  65.5759390  87.4191420  30.9828420  65.5018090  88.3226560  31.2900790
  64.6738230  87.1003320  30.9550490  63.9595680  71.5969180  16.9868180
  63.6117680  70.9193170  16.4070630  64.1608450  71.1358690  17.8011570
  66.1244720  86.5849930  18.6054780  67.0195510  86.9234900  18.6273540
  66.1562350  85.8629340  17.9779060  59.7640880  81.9576980  16.8341780
  60.2015750  82.5006650  17.4899360  60.2488610  81.1323930  16.8438120
  56.9786680  84.7466010  24.2862040  57.3089690  83.8787070  24.0540680
  57.4077680  84.9524530  25.1167000  61.5748600  83.0775020  21.9464010
  61.2744140  82.9539990  22.8467920  61.4686090  82.2183610  21.5379740
  57.4676890  85.6136600  27.0243670  57.0307880  85.7937400  27.8567820
  58.0354570  86.3711220  26.8825390  73.1039070  85.1153600  31.3120980
  72.5041060  85.1746160  30.5684900  73.2332970  84.1758580  31.4417830
  74.3440520  82.8571420  16.6490690  73.5133480  82.9248070  17.1197920
  74.5212350  83.7475540  16.3457550  73.7996980  79.6018900  19.1524890
  74.5615890  80.1715550  19.2584580  73.8151350  79.0346100  19.9233200
  57.3001320  78.1256830  23.3832550  56.6450160  77.8568470  22.7392250
  58.1379270  78.0161310  22.9334530  74.8056950  80.4569000  23.9966820
  75.1765780  79.6736320  23.5902790  75.4458880  81.1458100  23.8184120
  71.7890710  81.8405580  29.4097140  70.9750550  82.2702740  29.6722930
  72.1964910  82.4523990  28.7966190  73.8516150  79.8953270  16.3097410
  74.1264990  80.8032150  16.1816630  73.6626890  79.8315800  17.2459400
  70.2491760  72.9198120  17.6051040  70.6676640  72.7329100  16.7647700
  69.9427820  72.0677170  17.9153970  73.7481490  77.8322260  21.3026840
  73.3725090  77.0650190  20.8708130  73.0184610  78.2144960  21.7901770
  73.1381110  76.9793780  30.9366360  72.9067200  76.7506530  30.0364310
  73.3985660  77.8993330  30.8911250  71.5769180  72.2050210  33.7146060
  72.4539360  72.2133610  34.0980060  71.5890020  71.4681050  33.1038410
  56.5139400  75.3355760  19.3257880  55.6103480  75.5985960  19.1509540
  56.9980020  75.6066930  18.5457840  73.0232450  76.0579750  24.6034080
  73.5469930  75.5642400  23.9724250  73.6091870  76.1930110  25.3481650
  73.2022170  76.1419620  28.1253630  72.2524880  76.1083160  28.2398620
  73.3835180  77.0519730  27.8903400  59.0566610  74.3921300  17.2352260
  59.7658310  73.9704520  16.7499540  58.3406550  74.4596530  16.6035610
  58.7040770  70.4460630  16.2754910  59.4268900  70.9869570  16.5936130
  58.9765290  70.1724050  15.3996450  72.5132420  75.3153100  20.5426490
  73.0091540  75.0823970  21.3275370  72.3148490  74.4764940  20.1264130
  73.9419580  73.9514050  23.0764170  73.8318860  73.7970090  24.0146440
  74.7027170  73.4234990  22.8339580  72.2885300  69.8908180  29.5347170
  72.9257520  70.5042320  29.9006360  72.4360190  69.9268840  28.5896400
  74.8309850  71.7821970  16.3170310  75.7559160  71.6503150  16.1088600
  74.8085640  71.8614790  17.2706760  74.9048340  72.5532630  18.9427020
  74.1099840  72.4877750  19.4719930  75.1091620  73.4883270  18.9312370
  71.8466760  86.5924180  22.9365410  72.4425830  86.2708750  22.2599830
  72.1044910  86.1196000  23.7278680  59.7529330  83.0242090  33.0856040
  59.7098960  82.6535000  33.9670500  59.8840340  83.9619660  33.2257860
  63.4535360  84.5801680  28.6865760  63.2126720  84.8476240  27.7996280
  64.3938000  84.7507410  28.7416620  74.7139520  86.5996060  29.4876400
  74.2197800  86.9964930  28.7703530  74.1052810  85.9745270  29.8813680
  59.5917360  85.9704340  30.2053820  58.9977680  85.8389040  30.9443860
  59.5841200  85.1342480  29.7395920  69.9444360  71.4707440  29.7925570
  69.6157720  70.6559200  29.4127300  70.8926660  71.4277250  29.6691260
  72.3978970  87.2419480  26.7663140  71.9381940  87.9935290  26.3921160
  71.7691430  86.5225950  26.7077940  59.2229590  83.3362720  29.1561860
  58.4963650  82.7168010  29.0887810  59.2838740  83.7303330  28.2859940
  62.8274690  85.5507720  25.9411270  63.3439710  84.9395080  25.4159530
  63.4772070  86.0536500  26.4322280  65.5670190  86.4416210  26.7680250
  65.8548000  86.1870510  25.8913260  66.0793410  85.8893570  27.3585820
  71.3368270  70.8829510  25.3925850  71.7776360  70.8274610  24.5447450
  71.0675860  71.7987520  25.4636030  73.2006840  70.5144750  23.4034670
  73.1395240  69.5705970  23.2565690  73.9798870  70.6224840  23.9488130
  57.5059590  86.6537110  22.3658620  57.3381630  86.0207790  23.0640510
  56.6394100  86.8596510  22.0152810  58.1287610  70.4853890  19.8690480
  58.8866970  70.5982770  19.2954510  57.6664780  71.3223090  19.8233910
  64.6701420  72.5993160  22.8592790  63.8575930  72.2250050  22.5188670
  65.1743060  71.8438240  23.1613980  69.1726400  69.2635610  24.0975860
  69.7755770  69.8355820  24.5724380  68.4319390  69.8275050  23.8749760
  72.3161000  69.6657170  19.3716140  72.5111630  70.5640620  19.6383570
  71.5290870  69.4344250  19.8649090  59.1122290  85.3470340  19.8108760
  58.5869910  85.7278370  19.1070720  59.0366870  85.9721110  20.5318470
  60.5012760  71.0117940  18.4092450  61.0305520  70.2247740  18.2800400
  61.1341080  71.6909130  18.6427980  62.6950600  70.7493080  21.4637840
  62.0653340  70.0480390  21.6307970  62.1555740  71.5097210  21.2471000
  65.6342550  87.3632310  34.1348450  66.5609860  87.1276580  34.1784410
  65.6192980  88.1904310  33.6534480  73.8687610  86.9057880  21.1322700
  74.0439800  86.2195620  20.4883620  73.1709180  87.4304930  20.7399370
  61.7115260  87.2952720  18.6858010  62.4434080  87.0112000  18.1381900
  61.9708930  87.0566000  19.5757390  60.8730050  83.4117450  18.6904340
  60.2438930  83.8802550  19.2390170  60.9877880  82.5666670  19.1250530
  72.2020110  86.5902170  33.9589490  72.9945430  86.0951400  33.7515450
  72.4953260  87.2692310  34.5665100  68.3279770  77.4623110   4.8405540
  68.2473820  76.5477720   4.5697250  67.9144190  77.9590180   4.1345250
  66.4597810  79.2402130   6.7214810  65.6839910  78.7602570   7.0113380
  67.1110740  78.5607780   6.5470970  60.4763640  79.5521940   7.5990570
  59.6448520  79.2970650   7.9987080  61.0844620  79.6232710   8.3348490
  70.4805240  83.6462320   5.5013940  70.0186770  82.8749560   5.8301110
  71.2930790  83.6728390   6.0066390  60.4564900  83.5862030   7.7948590
  60.7592940  82.6959770   7.6158810  61.2008490  84.1432250   7.5670840
  56.8488600  77.1129480   7.2672660  57.4204710  76.3451680   7.2676300
  56.8490140  77.4118240   6.3579270  66.7068550  85.9320330   5.1217930
  66.0879990  86.3877830   4.5512370  67.5620330  86.0871790   4.7207630
  65.9006800  81.9159320   6.7284970  65.8315080  80.9749260   6.5674100
  66.6626660  82.0060730   7.3007540  58.0913470  72.5213840   9.0541590
  57.9116310  71.6239590   9.3344350  57.6893550  73.0685710   9.7288540
  66.9311970  74.7229700   6.9553900  67.3076790  73.8501580   6.8427570
  66.8331480  75.0588400   6.0644340  61.0616980  73.0955330   2.4171340
  61.1683730  73.9959060   2.7240100  60.1509340  73.0473300   2.1265990
  70.7136090  72.2180140   3.8882240  71.5345710  71.7276710   3.9307720
  70.7470170  72.8077800   4.6414080  58.7100140  75.0174340   7.6623930
  59.3910250  75.2812710   8.2811330  58.3948190  74.1775210   7.9961940
  62.9024710  76.0641700   6.7496520  63.4102930  76.5622670   7.3901540
  63.4337950  75.2876900   6.5735880  75.0035640  74.2346890  10.4525870
  74.2987810  74.6228600   9.9340980  75.2693560  74.9297180  11.0546800
  61.1860810  70.7040260  11.0159940  61.1879250  71.2212650  10.2105840
  60.3565120  70.2270440  10.9929870  67.5731900  80.8159570   2.5149840
  66.9549170  81.2809020   1.9512560  68.0855150  81.5087050   2.9319350
  62.4363660  80.3435440   9.1933440  62.1033040  80.9704360   9.8354510
  62.6130340  80.8697320   8.4135110  70.9497570  74.1580520   6.6609780
  70.2453140  74.4465410   7.2412890  71.3109730  74.9680630   6.3009340
  60.8676140  72.4150220   9.0230390  61.2092950  73.2592270   8.7284260
  59.9291950  72.5633960   9.1395730  61.6482760  82.3116240  11.0082620
  62.2656760  82.9867320  10.7267070  60.7875880  82.7204220  10.9170120
  72.5660350  83.7755650   8.9237260  71.8823870  84.4454760   8.9153930
  73.1054640  83.9736300   8.1582120  74.0184490  73.6035310   7.0518990
  73.0709400  73.6374290   7.1834420  74.3434480  74.4174260   7.4368350
  64.5504030  69.9032490   5.3474980  64.8579010  69.3479380   4.6310480
  63.6204730  70.0376950   5.1647970  70.1019090  85.6199780   7.6382440
  70.1146250  85.2162070   6.7704700  69.5494310  86.3947070   7.5343870
  71.3964510  82.3416000   2.7272610  71.2860840  81.3990330   2.8522030
  71.3932760  82.7031640   3.6135370  69.5004530  80.5229620   8.9665050
  69.9173320  80.3089730   8.1318510  70.2244350  80.7802410   9.5373670
  66.9384790  77.9681320   2.0835100  66.0114070  77.9018700   2.3123570
  67.0909610  78.9061450   1.9690340  73.4466630  78.9216840   9.0581290
  72.6185260  78.9909930   8.5831420  74.0417110  79.5071150   8.5897120
  70.9682080  79.5301620   2.5870350  70.3494500  79.1921170   1.9396650
  70.9506530  78.8861380   3.2949540  70.4108640  75.7086160  10.0036160
  69.9979820  76.5339870  10.2576150  69.6784590  75.1231200   9.8112520
  62.5441430  78.4946060   4.8654830  62.1398430  77.7823310   4.3700730
  62.6304550  78.1499300   5.7542870  63.0123130  82.1813620   7.0294040
  62.7151420  81.5759090   6.3501820  63.9622950  82.2190930   6.9183400
  61.2570050  75.2689270   8.6453870  61.8084640  75.3784610   7.8707120
  61.7713560  75.6426870   9.3609100  71.1008740  85.7545490  10.6917140
  70.6239300  86.5617680  10.4989750  70.4170530  85.1023820  10.8443350
  62.1041560  81.9195310  13.6801840  61.2070090  82.1435280  13.9275240
  62.1294430  82.0430250  12.7313240  60.9312780  78.7908630  12.2559210
  60.7920550  79.6631430  12.6246610  60.0494140  78.4481440  12.1107150
  67.2542160  83.7084500   3.5624340  67.6938070  84.4508830   3.1479730
  67.1929050  83.9511070   4.4863300  62.7293130  84.7330330  14.4644360
  62.7008560  85.1373280  13.5972790  62.5658100  83.8040690  14.3015960
  59.2446060  77.3891040   2.3661480  59.1243660  78.1153130   1.7542750
  58.9346950  76.6193950   1.8889390  74.6807950  85.5157430  15.7608530
  75.1567670  85.9940320  16.4397610  75.3015110  85.4474920  15.0354030
  56.8831430  80.5606180   8.1730120  56.9611850  80.6954950   7.2285840
  57.4973110  79.8522070   8.3658240  58.1279060  82.2606370   4.5836300
  57.7207140  82.4020960   3.7289900  59.0192070  81.9766530   4.3807510
  74.0841200  82.7070280  12.9208540  74.2104260  82.4682160  12.0025720
  74.1262580  81.8754820  13.3930620  67.9457940  86.4098280  11.4903350
  68.4602610  86.3206290  12.2925780  67.1027020  86.7557980  11.7831260
  62.4000720  86.4752150   2.6958970  62.2243200  85.5587690   2.4826770
  61.5456460  86.8339440   2.9356770  69.1888400  85.8303890   3.5533840
  69.6445350  85.0493270   3.8672460  69.5280920  86.5410710   4.0975020
  73.9365210  74.7602740  13.8858280  73.3209480  75.2682410  13.3573740
  73.6161630  73.8601070  13.8284220  56.9390950  81.6020350  10.7124580
  57.1021990  81.1325710   9.8943950  57.4043400  81.0943910  11.3773420
  61.7109720  70.7326110   5.7485150  61.2677870  71.5135650   5.4169670
  62.2694710  71.0556000   6.4556090  65.9979530  73.5994630  11.3520470
  65.5358900  73.8077650  12.1640410  65.5957640  72.7853980  11.0491140
  70.9984040  74.8203580  12.4817130  70.1477630  74.5209330  12.8026200
  70.8385830  75.0645590  11.5700950  68.0933750  76.3205330  14.5815920
  68.4187160  75.4869080  14.2418150  68.8814080  76.8433850  14.7294250
  63.7485620  71.2773440   7.6074750  64.0457950  72.1836270   7.5266770
  64.2971180  70.7892220   6.9934320  61.5023940  75.8559680   3.4766400
  61.2764860  75.6396850   4.3813020  60.7216470  76.2888140   3.1312370
  68.7321700  75.8623050   2.0757050  68.1330590  76.5858850   1.8920670
  69.2801310  75.7999830   1.2933500  63.9423150  76.7545260  14.1426670
  63.8466750  75.8139990  13.9927070  64.7855130  76.9760330  13.7474740
  67.3386570  74.4986590   4.1060330  67.7316140  74.8158790   3.2929020
  67.7003420  73.6198470   4.2204850  59.0733690  73.1658930  12.2960450
  58.6797080  74.0134140  12.5033230  58.3852090  72.5285300  12.4869090
  65.6478740  73.2493900  15.3657190  64.9577060  73.0566100  16.0003280
  66.3911040  73.5328540  15.8981490  56.3750740  71.0887390   6.3290530
  56.0863790  71.6590250   7.0415510  57.1196500  70.6091840   6.6921760
  67.9241710  77.0892340   8.2011110  67.1922830  77.5979150   8.5501210
  67.5266050  76.2722320   7.8999890  64.3619100  73.7646540   6.6063600
  64.3655160  73.3236490   5.7568140  65.2570220  74.0863870   6.7135420
  60.2121480  73.6473030   5.5657810  59.8721530  74.1248260   6.3224860
  59.4498800  73.1938150   5.2058910  68.3867620  72.5426020   7.6134050
  68.4040360  72.9934670   8.4575900  68.1383200  71.6431660   7.8267490
  71.8138370  69.9558200  13.4520430  72.1384140  69.2247860  13.9778410
  71.8494880  69.6371840  12.5501420  58.5129930  80.9771780  12.8720390
  58.1284720  80.3365450  13.4703350  58.8242120  81.6807900  13.4415120
  64.6627070  77.8248320   8.3529010  65.0297200  77.3506890   9.0990350
  64.4732130  78.6989890   8.6937350  57.5267560  72.5692010   4.4822480
  57.2414480  72.2047680   5.3201100  57.4646420  71.8372470   3.8685620
  62.4526440  76.8656960  10.6713220  62.1483510  77.7448940  10.8963580
  63.4072900  76.9256750  10.7070660  71.7396210  80.0683310   7.0606460
  72.4595330  80.5638600   6.6702570  71.5378030  79.3901200   6.4160330
  67.1215010  80.1392370  12.9475460  67.0552320  79.2188040  12.6933050
  66.4920150  80.2367810  13.6620100  61.0245630  80.7398330   4.9058880
  61.5424300  79.9366590   4.8515770  60.5729650  80.6777470   5.7475710
  58.5090170  77.7059700  11.8184580  58.1505110  78.3713550  12.4057920
  58.2144730  76.8743250  12.1897200  61.7103290  78.1643940  14.7024130
  61.4103430  78.3101120  13.8051950  62.4814530  77.6049230  14.6097520
  67.0531740  82.9612940  12.6979260  67.0676280  82.0293900  12.4798170
  66.3456840  83.0472700  13.3369030  73.2642950  79.6020280  12.0447840
  72.5391140  80.1949060  11.8477230  73.7918410  79.5943820  11.2461210
  68.7942540  81.3280450   5.5431690  69.1466360  80.7308580   4.8833060
  67.9104870  81.0024680   5.7139940  64.8805820  82.0878140   2.9502100
  65.5676950  82.6347350   3.3309690  64.0938240  82.6318870   2.9851710
  64.1833030  79.0924170   2.5627460  64.6395810  79.9029420   2.7887650
  63.8321240  78.7747310   3.3945950  66.4865640  84.6030510   9.7919760
  67.1307860  84.8089890  10.4693180  66.8495080  83.8418910   9.3390610
  60.0844810  69.4361820   3.0349980  59.9559440  69.4279720   3.9834900
  59.2606830  69.7744910   2.6840990  67.7597720  82.6062860   8.5097210
  68.4019950  81.9056020   8.6229380  68.2847070  83.3861300   8.3294100
  69.5335340  83.4057760  11.7133270  69.8691580  83.9924450  12.3911190
  68.6135680  83.2750470  11.9431060  57.0838740  71.1952940  12.4956680
  56.3697260  71.3949860  13.1009290  57.5033780  70.4192510  12.8671480
  57.3711330  85.1833200  13.4823210  57.4802450  84.2427940  13.3418600
  56.7191890  85.4487950  12.8336940  65.3623920  83.4549090  14.8821330
  65.0420790  82.7358330  15.4267020  64.6882280  84.1304160  14.9557390
  68.5777520  73.6875250  10.2458130  68.9458340  72.8670460  10.5737700
  67.7175720  73.7477140  10.6613780  63.9123580  74.9218140   2.4703570
  63.2039730  75.3904480   2.9117180  64.1968060  74.2640150   3.1048760
  65.5379510  76.3414840  10.4696100  66.0364760  76.8160660  11.1347950
  65.6802460  75.4178360  10.6766130  67.9439010  71.6468800   3.9099360
  67.8206790  71.6654930   2.9608870  68.8923570  71.6947740   4.0297760
  65.0315800  86.8824100   3.1827340  65.2857300  86.8445490   2.2606710
  64.0828280  86.7557430   3.1755590  72.7446370  72.5582800  11.3124490
  72.2419970  73.2988200  11.6518300  73.5603030  72.9466800  10.9961280
  71.0368380  77.8015980   4.7585850  70.0958520  77.8166210   4.9333540
  71.3512450  77.0151940   5.2046150  73.0393960  84.9724830   6.4340110
  73.1641380  85.7956000   6.9063920  73.9059520  84.7615560   6.0864260
  60.5111490  87.0656040   6.1057240  61.2473970  86.5171500   6.3765810
  60.8952410  87.9312050   5.9663230  57.3956970  83.1329610   1.9798750
  56.4696750  83.3750750   1.9704160  57.8613400  83.9603870   1.8583500
  59.5169770  86.2502110  15.2942820  60.3182500  86.5714160  15.7078220
  59.0021590  85.8897690  16.0162730  68.3534400  82.3581980  15.2418230
  67.7472560  82.3813580  14.5013980  68.0488510  81.6265020  15.7785480
  69.7834770  86.0862270  13.8527640  70.7356520  86.0020290  13.8027880
  69.6362990  86.7503980  14.5261430  57.2367580  78.7375570  14.2378870
  57.7406600  78.1582850  14.8095100  56.4975000  79.0215800  14.7755240
  64.2905520  80.1446560  13.7714390  63.5251190  80.7131560  13.6869060
  64.4721480  79.8522770  12.8782620  71.4328870  81.8751890  14.3289410
  72.1738340  82.2127650  13.8256870  70.6701550  82.0443950  13.7759180
  59.2690660  76.8805160  15.1328940  59.3096000  76.5819030  16.0414170
  60.1236160  77.2812770  14.9736460  61.2096470  75.4597260  13.1003430
  60.6792930  74.9688210  12.4726770  61.8784540  75.8881460  12.5661360
  70.1074530  79.9266720  12.8644620  70.5215550  80.0811800  13.7135040
  69.1725530  80.0521940  13.0270400  70.5796700  77.2662880  14.8683770
  71.1617470  76.5115200  14.7804250  70.7558470  77.7970320  14.0915250
  61.6968770  72.4259630  13.1800720  61.6025640  71.8080380  12.4551590
  61.1166160  73.1525920  12.9530630  64.4630210  70.9832870  10.2128110
  64.0147510  71.0057130   9.3673660  63.8295410  70.5851890  10.8098410
  64.8689760  79.8787200  10.8340550  65.2877870  80.7219930  10.6616790
  63.9498390  80.0159240  10.6047330  67.2053660  77.6103380  12.2178390
  67.3249870  77.0144520  12.9573230  68.0647660  77.6473070  11.7979690
  69.5441560  78.1640570  10.7940900  69.0176780  78.6883190  10.1906040
  69.8872900  78.7967960  11.4250630  62.7197180  86.1840210  11.9498280
  62.1818270  86.9086270  11.6306980  62.9731140  85.7070550  11.1595620
  63.9722430  74.1524730  13.4754210  64.5622120  73.8440580  14.1632030
  63.1542670  73.6804480  13.6314110  68.7915860  73.7690540  13.7087230
  68.1031380  73.1072080  13.6437220  69.5121880  73.3228810  14.1535690
  65.5759390  87.4191420  12.2084930  65.5018090  88.3226560  12.5157300
  64.6738230  87.1003320  12.1807000  56.9786680  84.7466010   5.5118550
  57.3089690  83.8787070   5.2797190  57.4077680  84.9524530   6.3423510
  61.5748600  83.0775020   3.1720520  61.2744140  82.9539990   4.0724430
  61.4686090  82.2183610   2.7636250  57.4676890  85.6136600   8.2500180
  57.0307880  85.7937400   9.0824330  58.0354570  86.3711220   8.1081900
  73.1039070  85.1153600  12.5377490  72.5041060  85.1746160  11.7941410
  73.2332970  84.1758580  12.6674340  57.3001320  78.1256830   4.6089060
  56.6450160  77.8568470   3.9648760  58.1379270  78.0161310   4.1591040
  74.8056950  80.4569000   5.2223330  75.1765780  79.6736320   4.8159300
  75.4458880  81.1458100   5.0440630  71.7890710  81.8405580  10.6353650
  70.9750550  82.2702740  10.8979440  72.1964910  82.4523990  10.0222700
  73.7481490  77.8322260   2.5283350  73.3725090  77.0650190   2.0964640
  73.0184610  78.2144960   3.0158280  58.3377250  78.5109400   9.1492400
  58.7050290  78.4236800  10.0288420  57.7688070  77.7475950   9.0499260
  73.1381110  76.9793780  12.1622870  72.9067200  76.7506530  11.2620820
  73.3985660  77.8993330  12.1167760  57.8893250  75.4218490  13.0550820
  56.9949300  75.3885250  13.3944530  58.4290800  75.6205280  13.8202070
  71.5769180  72.2050210  14.9402570  72.4539360  72.2133610  15.3236570
  71.5890020  71.4681050  14.3294920  73.0232450  76.0579750   5.8290590
  73.5469930  75.5642400   5.1980760  73.6091870  76.1930110   6.5738160
  73.2022170  76.1419620   9.3510140  72.2524880  76.1083160   9.4655130
  73.3835180  77.0519730   9.1159910  72.5132420  75.3153100   1.7683000
  73.0091540  75.0823970   2.5531880  72.3148490  74.4764940   1.3520640
  58.3932960  69.6966820   7.4034040  59.0409150  69.1464200   6.9629200
  58.8134800  69.9509970   8.2249850  73.9419580  73.9514050   4.3020680
  73.8318860  73.7970090   5.2402950  74.7027170  73.4234990   4.0596090
  72.2885300  69.8908180  10.7603680  72.9257520  70.5042320  11.1262870
  72.4360190  69.9268840   9.8152910  71.8466760  86.5924180   4.1621920
  72.4425830  86.2708750   3.4856340  72.1044910  86.1196000   4.9535190
  58.1464960  69.8522490  10.1459360  57.7979780  70.3086310  10.9117540
  57.8152660  68.9579620  10.2281790  59.7529330  83.0242090  14.3112550
  59.7098960  82.6535000  15.1927010  59.8840340  83.9619660  14.4514370
  63.4535360  84.5801680   9.9122270  63.2126720  84.8476240   9.0252790
  64.3938000  84.7507410   9.9673130  65.6589780  71.0434370  13.6678780
  65.5978670  71.6356200  14.4174190  66.5990160  70.9360330  13.5229040
  68.2964340  70.7004430  13.3071070  68.9104750  71.0183720  12.6452150
  68.8413900  70.2153020  13.9266930  74.7139520  86.5996060  10.7132910
  74.2197800  86.9964930   9.9960040  74.1052810  85.9745270  11.1070190
  58.8185600  69.3798690  13.4210130  59.3668590  69.1986740  12.6576240
  58.8840910  68.5892800  13.9566440  59.5917360  85.9704340  11.4310330
  58.9977680  85.8389040  12.1700370  59.5841200  85.1342480  10.9652430
  69.0372380  69.2636570   9.6340360  68.1632220  69.5971680   9.4313290
  68.9283130  68.7909750  10.4592230  69.9444360  71.4707440  11.0182080
  69.6157720  70.6559200  10.6383810  70.8926660  71.4277250  10.8947770
  72.3978970  87.2419480   7.9919650  71.9381940  87.9935290   7.6177670
  71.7691430  86.5225950   7.9334450  59.2229590  83.3362720  10.3818370
  58.4963650  82.7168010  10.3144320  59.2838740  83.7303330   9.5116450
  62.8274690  85.5507720   7.1667780  63.3439710  84.9395080   6.6416040
  63.4772070  86.0536500   7.6578790  65.5670190  86.4416210   7.9936760
  65.8548000  86.1870510   7.1169770  66.0793410  85.8893570   8.5842330
  66.7847200  70.1806410   8.5733270  66.0018990  70.6551910   8.8530030
  66.4910130  69.2761240   8.4646450  71.3368270  70.8829510   6.6182360
  71.7776360  70.8274610   5.7703960  71.0675860  71.7987520   6.6892540
  73.2006840  70.5144750   4.6291180  73.1395240  69.5705970   4.4822200
  73.9798870  70.6224840   5.1744640  57.5059590  86.6537110   3.5915130
  57.3381630  86.0207790   4.2897020  56.6394100  86.8596510   3.2409320
  64.6701420  72.5993160   4.0849300  63.8575930  72.2250050   3.7445180
  65.1743060  71.8438240   4.3870490  69.1726400  69.2635610   5.3232370
  69.7755770  69.8355820   5.7980890  68.4319390  69.8275050   5.1006270
  62.6950600  70.7493080   2.6894350  62.0653340  70.0480390   2.8564480
  62.1555740  71.5097210   2.4727510  65.6342550  87.3632310  15.3604960
  66.5609860  87.1276580  15.4040920  65.6192980  88.1904310  14.8790990
  73.8687610  86.9057880   2.3579210  74.0439800  86.2195620   1.7140130
  73.1709180  87.4304930   1.9655880  62.8206160  70.0277060  15.1246840
  62.5390430  70.5310660  14.3607660  63.2025860  69.2298810  14.7588970
  69.4221620  69.4430640  15.7027310  69.3087070  69.7625250  16.5978830
  70.2391360  69.8443150  15.4064590  72.2020110  86.5902170  15.1846000
  72.9945430  86.0951400  14.9771960  72.4953260  87.2692310  15.7921610
  68.3279770  58.6879620  79.9379500  68.2473820  57.7734230  79.6671210
  67.9144190  59.1846690  79.2319210  66.4597810  60.4658640  81.8188770
  65.6839910  59.9859080  82.1087340  67.1110740  59.7864290  81.6444930
  60.4763640  60.7778450  82.6964530  59.6448520  60.5227160  83.0961040
  61.0844620  60.8489220  83.4322450  70.4805240  64.8718830  80.5987900
  70.0186770  64.1006070  80.9275070  71.2930790  64.8984900  81.1040350
  60.4564900  64.8118540  82.8922550  60.7592940  63.9216280  82.7132770
  61.2008490  65.3688760  82.6644800  58.8855590  55.7380340  76.4806920
  57.9972290  56.0796310  76.3786800  59.1696780  55.5380660  75.5887750
  56.8488600  58.3385990  82.3646620  57.4204710  57.5708190  82.3650260
  56.8490140  58.6374750  81.4553230  66.7068550  67.1576840  80.2191890
  66.0879990  67.6134340  79.6486330  67.5620330  67.3128300  79.8181590
  65.9006800  63.1415830  81.8258930  65.8315080  62.2005770  81.6648060
  66.6626660  63.2317240  82.3981500  58.0913470  53.7470350  84.1515550
  57.9116310  52.8496100  84.4318310  57.6893550  54.2942220  84.8262500
  66.9311970  55.9486210  82.0527860  67.3076790  55.0758090  81.9401530
  66.8331480  56.2844910  81.1618300  61.0616980  54.3211840  77.5145300
  61.1683730  55.2215570  77.8214060  60.1509340  54.2729810  77.2239950
  70.7136090  53.4436650  78.9856200  71.5345710  52.9533220  79.0281680
  70.7470170  54.0334310  79.7388040  58.7100140  56.2430850  82.7597890
  59.3910250  56.5069220  83.3785290  58.3948190  55.4031720  83.0935900
  62.9024710  57.2898210  81.8470480  63.4102930  57.7879180  82.4875500
  63.4337950  56.5133410  81.6709840  75.0035640  55.4603400  85.5499830
  74.2987810  55.8485110  85.0314940  75.2693560  56.1553690  86.1520760
  61.1860810  51.9296770  86.1133900  61.1879250  52.4469160  85.3079800
  60.3565120  51.4526950  86.0903830  67.5731900  62.0416080  77.6123800
  66.9549170  62.5065530  77.0486520  68.0855150  62.7343560  78.0293310
  62.4363660  61.5691950  84.2907400  62.1033040  62.1960870  84.9328470
  62.6130340  62.0953830  83.5109070  70.9497570  55.3837030  81.7583740
  70.2453140  55.6721920  82.3386850  71.3109730  56.1937140  81.3983300
  60.8676140  53.6406730  84.1204350  61.2092950  54.4848780  83.8258220
  59.9291950  53.7890470  84.2369690  61.6482760  63.5372750  86.1056580
  62.2656760  64.2123830  85.8241030  60.7875880  63.9460730  86.0144080
  56.9415100  62.7272610  74.9863430  56.5643080  63.2159710  74.2548330
  57.1988170  63.3997890  75.6169960  72.5660350  65.0012160  84.0211220
  71.8823870  65.6711270  84.0127890  73.1054640  65.1992810  83.2556080
  74.0184490  54.8291820  82.1492950  73.0709400  54.8630800  82.2808380
  74.3434480  55.6430770  82.5342310  64.5504030  51.1289000  80.4448940
  64.8579010  50.5735890  79.7284440  63.6204730  51.2633460  80.2621930
  70.1019090  66.8456290  82.7356400  70.1146250  66.4418580  81.8678660
  69.5494310  67.6203580  82.6317830  71.3964510  63.5672510  77.8246570
  71.2860840  62.6246840  77.9495990  71.3932760  63.9288150  78.7109330
  69.5004530  61.7486130  84.0639010  69.9173320  61.5346240  83.2292470
  70.2244350  62.0058920  84.6347630  66.9384790  59.1937830  77.1809060
  66.0114070  59.1275210  77.4097530  67.0909610  60.1317960  77.0664300
  66.9253870  55.4654830  74.1776220  65.9857540  55.6268790  74.2628680
  67.2437130  56.1840510  73.6312210  73.4466630  60.1473350  84.1555250
  72.6185260  60.2166440  83.6805380  74.0417110  60.7327660  83.6871080
  70.9682080  60.7558130  77.6844310  70.3494500  60.4177680  77.0370610
  70.9506530  60.1117890  78.3923500  70.4108640  56.9342670  85.1010120
  69.9979820  57.7596380  85.3550110  69.6784590  56.3487710  84.9086480
  62.5441430  59.7202570  79.9628790  62.1398430  59.0079820  79.4674690
  62.6304550  59.3755810  80.8516830  63.0123130  63.4070130  82.1268000
  62.7151420  62.8015600  81.4475780  63.9622950  63.4447440  82.0157360
  61.2570050  56.4945780  83.7427830  61.8084640  56.6041120  82.9681080
  61.7713560  56.8683380  84.4583060  71.1008740  66.9802000  85.7891100
  70.6239300  67.7874190  85.5963710  70.4170530  66.3280330  85.9417310
  69.1446780  59.9944940  74.6917060  69.5840060  59.1567370  74.5454880
  69.8575200  60.6274340  74.7781200  67.2542160  64.9341010  78.6598300
  67.6938070  65.6765340  78.2453690  67.1929050  65.1767580  79.5837260
  72.7263920  51.2487750  73.0058100  72.4136580  51.3414580  73.9057170
  73.4876390  51.8268780  72.9555530  59.2446060  58.6147550  77.4635440
  59.1243660  59.3409640  76.8516710  58.9346950  57.8450460  76.9863350
  56.8831430  61.7862690  83.2704080  56.9611850  61.9211460  82.3259800
  57.4973110  61.0778580  83.4632200  58.1279060  63.4862880  79.6810260
  57.7207140  63.6277470  78.8263860  59.0192070  63.2023040  79.4781470
  69.9212340  67.9210130  76.0161310  69.7613480  67.6313070  76.9143140
  69.7559050  67.1450260  75.4806540  62.4000720  67.7008660  77.7932930
  62.2243200  66.7844200  77.5800730  61.5456460  68.0595950  78.0330730
  69.6238470  65.4297690  74.5759310  68.9303630  65.4274980  73.9161590
  70.3661330  65.0057010  74.1453480  69.1888400  67.0560400  78.6507800
  69.6445350  66.2749780  78.9646420  69.5280920  67.7667220  79.1948980
  56.9390950  62.8276860  85.8098540  57.1021990  62.3582220  84.9917910
  57.4043400  62.3200420  86.4747380  61.7109720  51.9582620  80.8459110
  61.2677870  52.7392160  80.5143630  62.2694710  52.2812510  81.5530050
  64.8268540  51.5793320  75.7264940  64.2022720  51.5753190  76.4518250
  64.7398660  50.7124280  75.3300910  63.7485620  52.5029950  82.7048710
  64.0457950  53.4092780  82.6240730  64.2971180  52.0148730  82.0908280
  61.5023940  57.0816190  78.5740360  61.2764860  56.8653360  79.4786980
  60.7216470  57.5144650  78.2286330  68.7321700  57.0879560  77.1731010
  68.1330590  57.8115360  76.9894630  69.2801310  57.0256340  76.3907460
  67.3386570  55.7243100  79.2034290  67.7316140  56.0415300  78.3902980
  67.7003420  54.8454980  79.3178810  56.3750740  52.3143900  81.4264490
  56.0863790  52.8846760  82.1389470  57.1196500  51.8348350  81.7895720
  56.5620970  56.2564020  72.6367210  56.4795640  57.1994780  72.7782200
  56.2104030  56.1138930  71.7579560  67.9241710  58.3148850  83.2985070
  67.1922830  58.8235660  83.6475170  67.5266050  57.4978830  82.9973850
  64.3619100  54.9903050  81.7037560  64.3655160  54.5493000  80.8542100
  65.2570220  55.3120380  81.8109380  60.2121480  54.8729540  80.6631770
  59.8721530  55.3504770  81.4198820  59.4498800  54.4194660  80.3032870
  64.4239250  55.9915130  74.6944320  64.5452070  55.9501610  75.6430140
  64.0387760  56.8539280  74.5391050  68.3867620  53.7682530  82.7108010
  68.4040360  54.2191180  83.5549860  68.1383200  52.8688170  82.9241450
  63.4360750  58.3016270  74.0927620  62.8677650  57.8534520  73.4663530
  64.1449750  58.6609050  73.5592770  64.6627070  59.0504830  83.4502970
  65.0297200  58.5763400  84.1964310  64.4732130  59.9246400  83.7911310
  57.5267560  53.7948520  79.5796440  57.2414480  53.4304190  80.4175060
  57.4646420  53.0628980  78.9659580  62.4526440  58.0913470  85.7687180
  62.1483510  58.9705450  85.9937540  63.4072900  58.1513260  85.8044620
  60.9808230  62.2974460  76.3654030  60.2070490  61.7572080  76.2052750
  61.7102860  61.7781070  76.0271790  71.7396210  61.2939820  82.1580420
  72.4595330  61.7895110  81.7676530  71.5378030  60.6157710  81.5134290
  67.2006150  52.6877780  76.3009810  66.3870760  52.1890950  76.2255120
  67.0068100  53.5276030  75.8846160  69.9154540  57.0597430  74.5971970
  70.8034160  57.3714660  74.4223310  69.8859630  56.1869680  74.2052550
  61.0245630  61.9654840  80.0032840  61.5424300  61.1623100  79.9489730
  60.5729650  61.9033980  80.8449670  65.9115130  63.2321120  75.2760140
  66.2530830  63.9763350  74.7803460  65.0827840  63.5452240  75.6384970
  72.1868810  58.3709270  74.0651830  72.1032530  58.8023490  73.2148270
  72.9063000  58.8307620  74.4978650  73.2156060  65.2251530  76.7933960
  72.5732220  64.5707150  77.0677680  72.8286720  65.6306620  76.0174630
  68.7942540  62.5536960  80.6405650  69.1466360  61.9565090  79.9807020
  67.9104870  62.2281190  80.8113900  64.8805820  63.3134650  78.0476060
  65.5676950  63.8603860  78.4283650  64.0938240  63.8575380  78.0825670
  57.0198220  58.9307470  73.5393140  57.8893070  59.2132270  73.8229060
  56.5288540  59.7443340  73.4241950  64.1833030  60.3180680  77.6601420
  64.6395810  61.1285930  77.8861610  63.8321240  60.0003820  78.4919910
  66.4865640  65.8287020  84.8893720  67.1307860  66.0346400  85.5667140
  66.8495080  65.0675420  84.4364570  60.0844810  50.6618330  78.1323940
  59.9559440  50.6536230  79.0808860  59.2606830  51.0001420  77.7814950
  67.7597720  63.8319370  83.6071170  68.4019950  63.1312530  83.7203340
  68.2847070  64.6117810  83.4268060  71.6053440  64.1167990  73.3310310
  71.3791020  63.3998430  73.9234950  71.2149640  63.8680430  72.4932060
  57.3869470  68.1434850  74.1054770  57.7467110  68.7424190  73.4512040
  57.2461810  68.6894740  74.8789800  71.1869690  62.0339930  74.9924470
  70.8991390  62.4952620  75.7802350  71.9821860  61.5737700  75.2608690
  63.4038090  65.5266050  74.9228440  63.3948190  66.2595740  74.3072950
  62.4836450  65.2797630  75.0155400  59.0044730  60.7480940  75.6675200
  58.3972680  61.4879840  75.6770500  59.4794080  60.8380300  74.8413400
  68.5777520  54.9131760  85.3432090  68.9458340  54.0926970  85.6711660
  67.7175720  54.9733650  85.7587740  71.9439550  53.8688700  76.1519650
  71.3152710  53.9734370  75.4377880  71.4491470  54.0885480  76.9413530
  66.3897690  65.5894290  73.5853630  66.4909670  65.3858280  72.6555610
  65.4899430  65.3352570  73.7901410  63.9123580  56.1474650  77.5677530
  63.2039730  56.6160990  78.0091140  64.1968060  55.4896660  78.2022720
  65.5379510  57.5671350  85.5670060  66.0364760  58.0417170  86.2321910
  65.6802460  56.6434870  85.7740090  67.9439010  52.8725310  79.0073320
  67.8206790  52.8911440  78.0582830  68.8923570  52.9204250  79.1271720
  65.0315800  68.1080610  78.2801300  65.2857300  68.0702000  77.3580670
  64.0828280  67.9813940  78.2729550  62.1158600  54.4559730  74.9428240
  62.9649130  54.8929880  74.8768430  61.7489870  54.7679990  75.7700300
  72.7446370  53.7839310  86.4098450  72.2419970  54.5244710  86.7492260
  73.5603030  54.1723310  86.0935240  71.0368380  59.0272490  79.8559810
  70.0958520  59.0422720  80.0307500  71.3512450  58.2408450  80.3020110
  61.0150020  60.7092090  73.4163770  61.7813290  60.5973450  73.9789200
  61.0924710  60.0130060  72.7640540  59.7096780  58.1417160  74.0996660
  59.7900370  57.1944670  74.2114060  60.6016530  58.4724040  74.2057320
  73.0393960  66.1981340  81.5314070  73.1641380  67.0212510  82.0037880
  73.9059520  65.9872070  81.1838220  60.5111490  68.2912550  81.2031200
  61.2473970  67.7428010  81.4739770  60.8952410  69.1568560  81.0637190
  57.3956970  64.3586120  77.0772710  56.4696750  64.6007260  77.0678120
  57.8613400  65.1860380  76.9557460  63.6213800  67.4642860  73.0256770
  64.4142410  67.7531690  72.5738560  63.1018150  67.0335030  72.3469250
  72.6743970  66.6912990  74.4493510  72.3885480  66.2778130  73.6347690
  72.4763520  67.6200700  74.3294030  64.1391200  62.6846270  72.8899120
  64.0341840  62.0698620  73.6160500  63.9715420  62.1612160  72.1062130
  67.3793930  61.7466300  73.4941110  66.8304030  62.1935600  74.1383850
  68.0013190  61.2415550  74.0178780  63.0469050  60.7057220  75.3906410
  63.4685470  60.5397090  76.2337800  63.1719890  59.8957450  74.8961550
  65.5596690  59.7294830  72.6383510  66.0802350  59.0143850  72.2724660
  66.2065090  60.3680700  72.9384020  64.4630210  52.2089380  85.3102070
  64.0147510  52.2313640  84.4647620  63.8295410  51.8108400  85.9072370
  64.8689760  61.1043710  85.9314510  65.2877870  61.9476440  85.7590750
  63.9498390  61.2415750  85.7021290  69.5441560  59.3897080  85.8914860
  69.0176780  59.9139700  85.2880000  69.8872900  60.0224470  86.5224590
  61.9427950  56.7790450  72.3364570  61.7417010  55.9157810  72.6977910
  61.7720000  56.6923810  71.3986170  69.4216260  51.5898680  74.8651450
  69.7018550  50.7466580  75.2210870  68.6481990  51.8221790  75.3790200
  60.7410750  53.8791070  72.3242450  61.0436650  53.8858500  71.4161600
  61.4805340  53.5288930  72.8210110  63.9595680  52.8225690  73.3098650
  63.6117680  52.1449680  72.7301100  64.1608450  52.3615200  74.1242040
  66.1244720  67.8106440  74.9285250  67.0195510  68.1491410  74.9504010
  66.1562350  67.0885850  74.3009530  59.7640880  63.1833490  73.1572250
  60.2015750  63.7263160  73.8129830  60.2488610  62.3580440  73.1668590
  56.9786680  65.9722520  80.6092510  57.3089690  65.1043580  80.3771150
  57.4077680  66.1781040  81.4397470  61.5748600  64.3031530  78.2694480
  61.2744140  64.1796500  79.1698390  61.4686090  63.4440120  77.8610210
  57.4676890  66.8393110  83.3474140  57.0307880  67.0193910  84.1798290
  58.0354570  67.5967730  83.2055860  74.3440520  64.0827930  72.9721160
  73.5133480  64.1504580  73.4428390  74.5212350  64.9732050  72.6688020
  73.7996980  60.8275410  75.4755360  74.5615890  61.3972060  75.5815050
  73.8151350  60.2602610  76.2463670  57.3001320  59.3513340  79.7063020
  56.6450160  59.0824980  79.0622720  58.1379270  59.2417820  79.2565000
  74.8056950  61.6825510  80.3197290  75.1765780  60.8992830  79.9133260
  75.4458880  62.3714610  80.1414590  71.7890710  63.0662090  85.7327610
  70.9750550  63.4959250  85.9953400  72.1964910  63.6780500  85.1196660
  73.8516150  61.1209780  72.6327880  74.1264990  62.0288660  72.5047100
  73.6626890  61.0572310  73.5689870  70.2491760  54.1454630  73.9281510
  70.6676640  53.9585610  73.0878170  69.9427820  53.2933680  74.2384440
  73.7481490  59.0578770  77.6257310  73.3725090  58.2906700  77.1938600
  73.0184610  59.4401470  78.1132240  58.3377250  59.7365910  84.2466360
  58.7050290  59.6493310  85.1262380  57.7688070  58.9732460  84.1473220
  56.5139400  56.5612270  75.6488350  55.6103480  56.8242470  75.4740010
  56.9980020  56.8323440  74.8688310  73.0232450  57.2836260  80.9264550
  73.5469930  56.7898910  80.2954720  73.6091870  57.4186620  81.6712120
  73.2022170  57.3676130  84.4484100  72.2524880  57.3339670  84.5629090
  73.3835180  58.2776240  84.2133870  59.0566610  55.6177810  73.5582730
  59.7658310  55.1961030  73.0730010  58.3406550  55.6853040  72.9266080
  58.7040770  51.6717140  72.5985380  59.4268900  52.2126080  72.9166600
  58.9765290  51.3980560  71.7226920  72.5132420  56.5409610  76.8656960
  73.0091540  56.3080480  77.6505840  72.3148490  55.7021450  76.4494600
  58.3932960  50.9223330  82.5008000  59.0409150  50.3720710  82.0603160
  58.8134800  51.1766480  83.3223810  73.9419580  55.1770560  79.3994640
  73.8318860  55.0226600  80.3376910  74.7027170  54.6491500  79.1570050
  72.2885300  51.1164690  85.8577640  72.9257520  51.7298830  86.2236830
  72.4360190  51.1525350  84.9126870  74.8309850  53.0078480  72.6400780
  75.7559160  52.8759660  72.4319070  74.8085640  53.0871300  73.5937230
  74.9048340  53.7789140  75.2657490  74.1099840  53.7134260  75.7950400
  75.1091620  54.7139780  75.2542840  71.8466760  67.8180690  79.2595880
  72.4425830  67.4965260  78.5830300  72.1044910  67.3452510  80.0509150
  58.1464960  51.0779000  85.2433320  57.7979780  51.5342820  86.0091500
  57.8152660  50.1836130  85.3255750  63.4535360  65.8058190  85.0096230
  63.2126720  66.0732750  84.1226750  64.3938000  65.9763920  85.0647090
  74.7139520  67.8252570  85.8106870  74.2197800  68.2221440  85.0934000
  74.1052810  67.2001780  86.2044150  69.0372380  50.4893080  84.7314320
  68.1632220  50.8228190  84.5287250  68.9283130  50.0166260  85.5566190
  69.9444360  52.6963950  86.1156040  69.6157720  51.8815710  85.7357770
  70.8926660  52.6533760  85.9921730  72.3978970  68.4675990  83.0893610
  71.9381940  69.2191800  82.7151630  71.7691430  67.7482460  83.0308410
  59.2229590  64.5619230  85.4792330  58.4963650  63.9424520  85.4118280
  59.2838740  64.9559840  84.6090410  62.8274690  66.7764230  82.2641740
  63.3439710  66.1651590  81.7390000  63.4772070  67.2793010  82.7552750
  65.5670190  67.6672720  83.0910720  65.8548000  67.4127020  82.2143730
  66.0793410  67.1150080  83.6816290  66.7847200  51.4062920  83.6707230
  66.0018990  51.8808420  83.9503990  66.4910130  50.5017750  83.5620410
  71.3368270  52.1086020  81.7156320  71.7776360  52.0531120  80.8677920
  71.0675860  53.0244030  81.7866500  73.2006840  51.7401260  79.7265140
  73.1395240  50.7962480  79.5796160  73.9798870  51.8481350  80.2718600
  57.5059590  67.8793620  78.6889090  57.3381630  67.2464300  79.3870980
  56.6394100  68.0853020  78.3383280  58.1287610  51.7110400  76.1920950
  58.8866970  51.8239280  75.6184980  57.6664780  52.5479600  76.1464380
  64.6701420  53.8249670  79.1823260  63.8575930  53.4506560  78.8419140
  65.1743060  53.0694750  79.4844450  69.1726400  50.4892120  80.4206330
  69.7755770  51.0612330  80.8954850  68.4319390  51.0531560  80.1980230
  72.3161000  50.8913680  75.6946610  72.5111630  51.7897130  75.9614040
  71.5290870  50.6600760  76.1879560  59.1122290  66.5726850  76.1339230
  58.5869910  66.9534880  75.4301190  59.0366870  67.1977620  76.8548940
  60.5012760  52.2374450  74.7322920  61.0305520  51.4504250  74.6030870
  61.1341080  52.9165640  74.9658450  62.6950600  51.9749590  77.7868310
  62.0653340  51.2736900  77.9538440  62.1555740  52.7353720  77.5701470
  73.8687610  68.1314390  77.4553170  74.0439800  67.4452130  76.8114090
  73.1709180  68.6561440  77.0629840  61.7115260  68.5209230  75.0088480
  62.4434080  68.2368510  74.4612370  61.9708930  68.2822510  75.8987860
  60.8730050  64.6373960  75.0134810  60.2438930  65.1059060  75.5620640
  60.9877880  63.7923180  75.4481000  68.3279770  58.6879620  61.1636010
  68.2473820  57.7734230  60.8927720  67.9144190  59.1846690  60.4575720
  66.4597810  60.4658640  63.0445280  65.6839910  59.9859080  63.3343850
  67.1110740  59.7864290  62.8701440  58.8855590  55.7380340  57.7063430
  57.9972290  56.0796310  57.6043310  59.1696780  55.5380660  56.8144260
  56.8488600  58.3385990  63.5903130  57.4204710  57.5708190  63.5906770
  56.8490140  58.6374750  62.6809740  58.0913470  53.7470350  65.3772060
  57.9116310  52.8496100  65.6574820  57.6893550  54.2942220  66.0519010
  66.9311970  55.9486210  63.2784370  67.3076790  55.0758090  63.1658040
  66.8331480  56.2844910  62.3874810  61.0616980  54.3211840  58.7401810
  61.1683730  55.2215570  59.0470570  60.1509340  54.2729810  58.4496460
  70.7136090  53.4436650  60.2112710  71.5345710  52.9533220  60.2538190
  70.7470170  54.0334310  60.9644550  58.7100140  56.2430850  63.9854400
  59.3910250  56.5069220  64.6041800  58.3948190  55.4031720  64.3192410
  62.9024710  57.2898210  63.0726990  63.4102930  57.7879180  63.7132010
  63.4337950  56.5133410  62.8966350  75.0035640  55.4603400  66.7756340
  74.2987810  55.8485110  66.2571450  75.2693560  56.1553690  67.3777270
  61.1860810  51.9296770  67.3390410  61.1879250  52.4469160  66.5336310
  60.3565120  51.4526950  67.3160340  62.4363660  61.5691950  65.5163910
  62.1033040  62.1960870  66.1584980  62.6130340  62.0953830  64.7365580
  70.9497570  55.3837030  62.9840250  70.2453140  55.6721920  63.5643360
  71.3109730  56.1937140  62.6239810  60.8676140  53.6406730  65.3460860
  61.2092950  54.4848780  65.0514730  59.9291950  53.7890470  65.4626200
  61.6482760  63.5372750  67.3313090  62.2656760  64.2123830  67.0497540
  60.7875880  63.9460730  67.2400590  72.5660350  65.0012160  65.2467730
  71.8823870  65.6711270  65.2384400  73.1054640  65.1992810  64.4812590
  74.0184490  54.8291820  63.3749460  73.0709400  54.8630800  63.5064890
  74.3434480  55.6430770  63.7598820  64.5504030  51.1289000  61.6705450
  64.8579010  50.5735890  60.9540950  63.6204730  51.2633460  61.4878440
  71.3964510  63.5672510  59.0503080  71.2860840  62.6246840  59.1752500
  71.3932760  63.9288150  59.9365840  69.5004530  61.7486130  65.2895520
  69.9173320  61.5346240  64.4548980  70.2244350  62.0058920  65.8604140
  66.9384790  59.1937830  58.4065570  66.0114070  59.1275210  58.6354040
  67.0909610  60.1317960  58.2920810  66.9253870  55.4654830  55.4032730
  65.9857540  55.6268790  55.4885190  67.2437130  56.1840510  54.8568720
  73.4466630  60.1473350  65.3811760  72.6185260  60.2166440  64.9061890
  74.0417110  60.7327660  64.9127590  70.9682080  60.7558130  58.9100820
  70.3494500  60.4177680  58.2627120  70.9506530  60.1117890  59.6180010
  70.4108640  56.9342670  66.3266630  69.9979820  57.7596380  66.5806620
  69.6784590  56.3487710  66.1342990  62.5441430  59.7202570  61.1885300
  62.1398430  59.0079820  60.6931200  62.6304550  59.3755810  62.0773340
  61.2570050  56.4945780  64.9684340  61.8084640  56.6041120  64.1937590
  61.7713560  56.8683380  65.6839570  71.1008740  66.9802000  67.0147610
  70.6239300  67.7874190  66.8220220  70.4170530  66.3280330  67.1673820
  62.1041560  63.1451820  70.0032310  61.2070090  63.3691790  70.2505710
  62.1294430  63.2686760  69.0543710  69.1446780  59.9944940  55.9173570
  69.5840060  59.1567370  55.7711390  69.8575200  60.6274340  56.0037710
  60.9312780  60.0165140  68.5789680  60.7920550  60.8887940  68.9477080
  60.0494140  59.6737950  68.4337620  62.7293130  65.9586840  70.7874830
  62.7008560  66.3629790  69.9203260  62.5658100  65.0297200  70.6246430
  72.7263920  51.2487750  54.2314610  72.4136580  51.3414580  55.1313680
  73.4876390  51.8268780  54.1812040  74.6807950  66.7413940  72.0839000
  75.1567670  67.2196830  72.7628080  75.3015110  66.6731430  71.3584500
  74.0841200  63.9326790  69.2439010  74.2104260  63.6938670  68.3256190
  74.1262580  63.1011330  69.7161090  67.9457940  67.6354790  67.8133820
  68.4602610  67.5462800  68.6156250  67.1027020  67.9814490  68.1061730
  73.9365210  55.9859250  70.2088750  73.3209480  56.4938920  69.6804210
  73.6161630  55.0857580  70.1514690  56.9390950  62.8276860  67.0355050
  57.1021990  62.3582220  66.2174420  57.4043400  62.3200420  67.7003890
  61.7109720  51.9582620  62.0715620  61.2677870  52.7392160  61.7400140
  62.2694710  52.2812510  62.7786560  65.9979530  54.8251140  67.6750940
  65.5358900  55.0334160  68.4870880  65.5957640  54.0110490  67.3721610
  70.9984040  56.0460090  68.8047600  70.1477630  55.7465840  69.1256670
  70.8385830  56.2902100  67.8931420  68.0933750  57.5461840  70.9046390
  68.4187160  56.7125590  70.5648620  68.8814080  58.0690360  71.0524720
  64.8268540  51.5793320  56.9521450  64.2022720  51.5753190  57.6774760
  64.7398660  50.7124280  56.5557420  63.7485620  52.5029950  63.9305220
  64.0457950  53.4092780  63.8497240  64.2971180  52.0148730  63.3164790
  61.5023940  57.0816190  59.7996870  61.2764860  56.8653360  60.7043490
  60.7216470  57.5144650  59.4542840  68.7321700  57.0879560  58.3987520
  68.1330590  57.8115360  58.2151140  69.2801310  57.0256340  57.6163970
  63.9423150  57.9801770  70.4657140  63.8466750  57.0396500  70.3157540
  64.7855130  58.2016840  70.0705210  67.3386570  55.7243100  60.4290800
  67.7316140  56.0415300  59.6159490  67.7003420  54.8454980  60.5435320
  59.0733690  54.3915440  68.6190920  58.6797080  55.2390650  68.8263700
  58.3852090  53.7541810  68.8099560  65.6478740  54.4750410  71.6887660
  64.9577060  54.2822610  72.3233750  66.3911040  54.7585050  72.2211960
  56.3750740  52.3143900  62.6521000  56.0863790  52.8846760  63.3645980
  57.1196500  51.8348350  63.0152230  56.5620970  56.2564020  53.8623720
  56.4795640  57.1994780  54.0038710  56.2104030  56.1138930  52.9836070
  67.9241710  58.3148850  64.5241580  67.1922830  58.8235660  64.8731680
  67.5266050  57.4978830  64.2230360  64.3619100  54.9903050  62.9294070
  64.3655160  54.5493000  62.0798610  65.2570220  55.3120380  63.0365890
  60.2121480  54.8729540  61.8888280  59.8721530  55.3504770  62.6455330
  59.4498800  54.4194660  61.5289380  64.4239250  55.9915130  55.9200830
  64.5452070  55.9501610  56.8686650  64.0387760  56.8539280  55.7647560
  68.3867620  53.7682530  63.9364520  68.4040360  54.2191180  64.7806370
  68.1383200  52.8688170  64.1497960  63.4360750  58.3016270  55.3184130
  62.8677650  57.8534520  54.6920040  64.1449750  58.6609050  54.7849280
  71.8138370  51.1814710  69.7750900  72.1384140  50.4504370  70.3008880
  71.8494880  50.8628350  68.8731890  58.5129930  62.2028290  69.1950860
  58.1284720  61.5621960  69.7933820  58.8242120  62.9064410  69.7645590
  64.6627070  59.0504830  64.6759480  65.0297200  58.5763400  65.4220820
  64.4732130  59.9246400  65.0167820  57.5267560  53.7948520  60.8052950
  57.2414480  53.4304190  61.6431570  57.4646420  53.0628980  60.1916090
  62.4526440  58.0913470  66.9943690  62.1483510  58.9705450  67.2194050
  63.4072900  58.1513260  67.0301130  71.7396210  61.2939820  63.3836930
  72.4595330  61.7895110  62.9933040  71.5378030  60.6157710  62.7390800
  67.2006150  52.6877780  57.5266320  66.3870760  52.1890950  57.4511630
  67.0068100  53.5276030  57.1102670  67.1215010  61.3648880  69.2705930
  67.0552320  60.4444550  69.0163520  66.4920150  61.4624320  69.9850570
  69.9154540  57.0597430  55.8228480  70.8034160  57.3714660  55.6479820
  69.8859630  56.1869680  55.4309060  58.5090170  58.9316210  68.1415050
  58.1505110  59.5970060  68.7288390  58.2144730  58.0999760  68.5127670
  61.7103290  59.3900450  71.0254600  61.4103430  59.5357630  70.1282420
  62.4814530  58.8305740  70.9327990  67.0531740  64.1869450  69.0209730
  67.0676280  63.2550410  68.8028640  66.3456840  64.2729210  69.6599500
  72.1868810  58.3709270  55.2908340  72.1032530  58.8023490  54.4404780
  72.9063000  58.8307620  55.7235160  73.2642950  60.8276790  68.3678310
  72.5391140  61.4205570  68.1707700  73.7918410  60.8200330  67.5691680
  73.2156060  65.2251530  58.0190470  72.5732220  64.5707150  58.2934190
  72.8286720  65.6306620  57.2431140  64.1833030  60.3180680  58.8857930
  64.6395810  61.1285930  59.1118120  63.8321240  60.0003820  59.7176420
  60.0844810  50.6618330  59.3580450  59.9559440  50.6536230  60.3065370
  59.2606830  51.0001420  59.0071460  71.6053440  64.1167990  54.5566820
  71.3791020  63.3998430  55.1491460  71.2149640  63.8680430  53.7188570
  69.5335340  64.6314270  68.0363740  69.8691580  65.2180960  68.7141660
  68.6135680  64.5006980  68.2661530  57.0838740  52.4209450  68.8187150
  56.3697260  52.6206370  69.4239760  57.5033780  51.6449020  69.1901950
  71.1869690  62.0339930  56.2180980  70.8991390  62.4952620  57.0058860
  71.9821860  61.5737700  56.4865200  57.3711330  66.4089710  69.8053680
  57.4802450  65.4684450  69.6649070  56.7191890  66.6744460  69.1567410
  65.3623920  64.6805600  71.2051800  65.0420790  63.9614840  71.7497490
  64.6882280  65.3560670  71.2787860  68.5777520  54.9131760  66.5688600
  68.9458340  54.0926970  66.8968170  67.7175720  54.9733650  66.9844250
  71.9439550  53.8688700  57.3776160  71.3152710  53.9734370  56.6634390
  71.4491470  54.0885480  58.1670040  63.9123580  56.1474650  58.7934040
  63.2039730  56.6160990  59.2347650  64.1968060  55.4896660  59.4279230
  65.5379510  57.5671350  66.7926570  66.0364760  58.0417170  67.4578420
  65.6802460  56.6434870  66.9996600  67.9439010  52.8725310  60.2329830
  67.8206790  52.8911440  59.2839340  68.8923570  52.9204250  60.3528230
  62.1158600  54.4559730  56.1684750  62.9649130  54.8929880  56.1024940
  61.7489870  54.7679990  56.9956810  72.7446370  53.7839310  67.6354960
  72.2419970  54.5244710  67.9748770  73.5603030  54.1723310  67.3191750
  71.0368380  59.0272490  61.0816320  70.0958520  59.0422720  61.2564010
  71.3512450  58.2408450  61.5276620  59.7096780  58.1417160  55.3253170
  59.7900370  57.1944670  55.4370570  60.6016530  58.4724040  55.4313830
  59.5169770  67.4758620  71.6173290  60.3182500  67.7970670  72.0308690
  59.0021590  67.1154200  72.3393200  68.3534400  63.5838490  71.5648700
  67.7472560  63.6070090  70.8244450  68.0488510  62.8521530  72.1015950
  69.7834770  67.3118780  70.1758110  70.7356520  67.2276800  70.1258350
  69.6362990  67.9760490  70.8491900  57.2367580  59.9632080  70.5609340
  57.7406600  59.3839360  71.1325570  56.4975000  60.2472310  71.0985710
  64.2905520  61.3703070  70.0944860  63.5251190  61.9388070  70.0099530
  64.4721480  61.0779280  69.2013090  71.4328870  63.1008400  70.6519880
  72.1738340  63.4384160  70.1487340  70.6701550  63.2700460  70.0989650
  59.2690660  58.1061670  71.4559410  59.3096000  57.8075540  72.3644640
  60.1236160  58.5069280  71.2966930  63.0469050  60.7057220  56.6162920
  63.4685470  60.5397090  57.4594310  63.1719890  59.8957450  56.1218060
  61.2096470  56.6853770  69.4233900  60.6792930  56.1944720  68.7957240
  61.8784540  57.1137970  68.8891830  65.5596690  59.7294830  53.8640020
  66.0802350  59.0143850  53.4981170  66.2065090  60.3680700  54.1640530
  70.1074530  61.1523230  69.1875090  70.5215550  61.3068310  70.0365510
  69.1725530  61.2778450  69.3500870  70.5796700  58.4919390  71.1914240
  71.1617470  57.7371710  71.1034720  70.7558470  59.0226830  70.4145720
  61.6968770  53.6516140  69.5031190  61.6025640  53.0336890  68.7782060
  61.1166160  54.3782430  69.2761100  64.4630210  52.2089380  66.5358580
  64.0147510  52.2313640  65.6904130  63.8295410  51.8108400  67.1328880
  64.8689760  61.1043710  67.1571020  65.2877870  61.9476440  66.9847260
  63.9498390  61.2415750  66.9277800  67.2053660  58.8359890  68.5408860
  67.3249870  58.2401030  69.2803700  68.0647660  58.8729580  68.1210160
  69.5441560  59.3897080  67.1171370  69.0176780  59.9139700  66.5136510
  69.8872900  60.0224470  67.7481100  61.9427950  56.7790450  53.5621080
  61.7417010  55.9157810  53.9234420  61.7720000  56.6923810  52.6242680
  62.7197180  67.4096720  68.2728750  62.1818270  68.1342780  67.9537450
  62.9731140  66.9327060  67.4826090  63.9722430  55.3781240  69.7984680
  64.5622120  55.0697090  70.4862500  63.1542670  54.9060990  69.9544580
  68.7915860  54.9947050  70.0317700  68.1031380  54.3328590  69.9667690
  69.5121880  54.5485320  70.4766160  69.4216260  51.5898680  56.0907960
  69.7018550  50.7466580  56.4467380  68.6481990  51.8221790  56.6046710
  60.7410750  53.8791070  53.5498960  61.0436650  53.8858500  52.6418110
  61.4805340  53.5288930  54.0466620  65.5759390  68.6447930  68.5315400
  65.5018090  69.5483070  68.8387770  64.6738230  68.3259830  68.5037470
  63.9595680  52.8225690  54.5355160  63.6117680  52.1449680  53.9557610
  64.1608450  52.3615200  55.3498550  73.1039070  66.3410110  68.8607960
  72.5041060  66.4002670  68.1171880  73.2332970  65.4015090  68.9904810
  74.3440520  64.0827930  54.1977670  73.5133480  64.1504580  54.6684900
  74.5212350  64.9732050  53.8944530  73.7996980  60.8275410  56.7011870
  74.5615890  61.3972060  56.8071560  73.8151350  60.2602610  57.4720180
  74.8056950  61.6825510  61.5453800  75.1765780  60.8992830  61.1389770
  75.4458880  62.3714610  61.3671100  71.7890710  63.0662090  66.9584120
  70.9750550  63.4959250  67.2209910  72.1964910  63.6780500  66.3453170
  73.8516150  61.1209780  53.8584390  74.1264990  62.0288660  53.7303610
  73.6626890  61.0572310  54.7946380  70.2491760  54.1454630  55.1538020
  70.6676640  53.9585610  54.3134680  69.9427820  53.2933680  55.4640950
  73.7481490  59.0578770  58.8513820  73.3725090  58.2906700  58.4195110
  73.0184610  59.4401470  59.3388750  58.3377250  59.7365910  65.4722870
  58.7050290  59.6493310  66.3518890  57.7688070  58.9732460  65.3729730
  73.1381110  58.2050290  68.4853340  72.9067200  57.9763040  67.5851290
  73.3985660  59.1249840  68.4398230  57.8893250  56.6475000  69.3781290
  56.9949300  56.6141760  69.7175000  58.4290800  56.8461790  70.1432540
  71.5769180  53.4306720  71.2633040  72.4539360  53.4390120  71.6467040
  71.5890020  52.6937560  70.6525390  56.5139400  56.5612270  56.8744860
  55.6103480  56.8242470  56.6996520  56.9980020  56.8323440  56.0944820
  73.0232450  57.2836260  62.1521060  73.5469930  56.7898910  61.5211230
  73.6091870  57.4186620  62.8968630  73.2022170  57.3676130  65.6740610
  72.2524880  57.3339670  65.7885600  73.3835180  58.2776240  65.4390380
  59.0566610  55.6177810  54.7839240  59.7658310  55.1961030  54.2986520
  58.3406550  55.6853040  54.1522590  58.7040770  51.6717140  53.8241890
  59.4268900  52.2126080  54.1423110  58.9765290  51.3980560  52.9483430
  72.5132420  56.5409610  58.0913470  73.0091540  56.3080480  58.8762350
  72.3148490  55.7021450  57.6751110  58.3932960  50.9223330  63.7264510
  59.0409150  50.3720710  63.2859670  58.8134800  51.1766480  64.5480320
  73.9419580  55.1770560  60.6251150  73.8318860  55.0226600  61.5633420
  74.7027170  54.6491500  60.3826560  72.2885300  51.1164690  67.0834150
  72.9257520  51.7298830  67.4493340  72.4360190  51.1525350  66.1383380
  74.8309850  53.0078480  53.8657290  75.7559160  52.8759660  53.6575580
  74.8085640  53.0871300  54.8193740  74.9048340  53.7789140  56.4914000
  74.1099840  53.7134260  57.0206910  75.1091620  54.7139780  56.4799350
  58.1464960  51.0779000  66.4689830  57.7979780  51.5342820  67.2348010
  57.8152660  50.1836130  66.5512260  59.7529330  64.2498600  70.6343020
  59.7098960  63.8791510  71.5157480  59.8840340  65.1876170  70.7744840
  63.4535360  65.8058190  66.2352740  63.2126720  66.0732750  65.3483260
  64.3938000  65.9763920  66.2903600  65.6589780  52.2690880  69.9909250
  65.5978670  52.8612710  70.7404660  66.5990160  52.1616840  69.8459510
  68.2964340  51.9260940  69.6301540  68.9104750  52.2440230  68.9682620
  68.8413900  51.4409530  70.2497400  74.7139520  67.8252570  67.0363380
  74.2197800  68.2221440  66.3190510  74.1052810  67.2001780  67.4300660
  58.8185600  50.6055200  69.7440600  59.3668590  50.4243250  68.9806710
  58.8840910  49.8149310  70.2796910  59.5917360  67.1960850  67.7540800
  58.9977680  67.0645550  68.4930840  59.5841200  66.3598990  67.2882900
  69.0372380  50.4893080  65.9570830  68.1632220  50.8228190  65.7543760
  68.9283130  50.0166260  66.7822700  69.9444360  52.6963950  67.3412550
  69.6157720  51.8815710  66.9614280  70.8926660  52.6533760  67.2178240
  59.2229590  64.5619230  66.7048840  58.4963650  63.9424520  66.6374790
  59.2838740  64.9559840  65.8346920  66.7847200  51.4062920  64.8963740
  66.0018990  51.8808420  65.1760500  66.4910130  50.5017750  64.7876920
  71.3368270  52.1086020  62.9412830  71.7776360  52.0531120  62.0934430
  71.0675860  53.0244030  63.0123010  73.2006840  51.7401260  60.9521650
  73.1395240  50.7962480  60.8052670  73.9798870  51.8481350  61.4975110
  58.1287610  51.7110400  57.4177460  58.8866970  51.8239280  56.8441490
  57.6664780  52.5479600  57.3720890  64.6701420  53.8249670  60.4079770
  63.8575930  53.4506560  60.0675650  65.1743060  53.0694750  60.7100960
  69.1726400  50.4892120  61.6462840  69.7755770  51.0612330  62.1211360
  68.4319390  51.0531560  61.4236740  72.3161000  50.8913680  56.9203120
  72.5111630  51.7897130  57.1870550  71.5290870  50.6600760  57.4136070
  60.5012760  52.2374450  55.9579430  61.0305520  51.4504250  55.8287380
  61.1341080  52.9165640  56.1914960  62.6950600  51.9749590  59.0124820
  62.0653340  51.2736900  59.1794950  62.1555740  52.7353720  58.7957980
  65.6342550  68.5888820  71.6835430  66.5609860  68.3533090  71.7271390
  65.6192980  69.4160820  71.2021460  73.8687610  68.1314390  58.6809680
  74.0439800  67.4452130  58.0370600  73.1709180  68.6561440  58.2886350
  62.8206160  51.2533570  71.4477310  62.5390430  51.7567170  70.6838130
  63.2025860  50.4555320  71.0819440  69.4221620  50.6687150  72.0257780
  69.3087070  50.9881760  72.9209300  70.2391360  51.0699660  71.7295060
  72.2020110  67.8158680  71.5076470  72.9945430  67.3207910  71.3002430
  72.4953260  68.4948820  72.1152080  68.3279770  58.6879620  42.3892520
  68.2473820  57.7734230  42.1184230  67.9144190  59.1846690  41.6832230
  58.8855590  55.7380340  38.9319940  57.9972290  56.0796310  38.8299820
  59.1696780  55.5380660  38.0400770  56.8488600  58.3385990  44.8159640
  57.4204710  57.5708190  44.8163280  56.8490140  58.6374750  43.9066250
  58.0913470  53.7470350  46.6028570  57.9116310  52.8496100  46.8831330
  57.6893550  54.2942220  47.2775520  66.9311970  55.9486210  44.5040880
  67.3076790  55.0758090  44.3914550  66.8331480  56.2844910  43.6131320
  61.0616980  54.3211840  39.9658320  61.1683730  55.2215570  40.2727080
  60.1509340  54.2729810  39.6752970  70.7136090  53.4436650  41.4369220
  71.5345710  52.9533220  41.4794700  70.7470170  54.0334310  42.1901060
  58.7100140  56.2430850  45.2110910  59.3910250  56.5069220  45.8298310
  58.3948190  55.4031720  45.5448920  62.9024710  57.2898210  44.2983500
  63.4102930  57.7879180  44.9388520  63.4337950  56.5133410  44.1222860
  75.0035640  55.4603400  48.0012850  74.2987810  55.8485110  47.4827960
  75.2693560  56.1553690  48.6033780  61.1860810  51.9296770  48.5646920
  61.1879250  52.4469160  47.7592820  60.3565120  51.4526950  48.5416850
  62.4363660  61.5691950  46.7420420  62.1033040  62.1960870  47.3841490
  62.6130340  62.0953830  45.9622090  70.9497570  55.3837030  44.2096760
  70.2453140  55.6721920  44.7899870  71.3109730  56.1937140  43.8496320
  60.8676140  53.6406730  46.5717370  61.2092950  54.4848780  46.2771240
  59.9291950  53.7890470  46.6882710  74.0184490  54.8291820  44.6005970
  73.0709400  54.8630800  44.7321400  74.3434480  55.6430770  44.9855330
  64.5504030  51.1289000  42.8961960  64.8579010  50.5735890  42.1797460
  63.6204730  51.2633460  42.7134950  66.9384790  59.1937830  39.6322080
  66.0114070  59.1275210  39.8610550  67.0909610  60.1317960  39.5177320
  66.9253870  55.4654830  36.6289240  65.9857540  55.6268790  36.7141700
  67.2437130  56.1840510  36.0825230  73.4466630  60.1473350  46.6068270
  72.6185260  60.2166440  46.1318400  74.0417110  60.7327660  46.1384100
  70.9682080  60.7558130  40.1357330  70.3494500  60.4177680  39.4883630
  70.9506530  60.1117890  40.8436520  70.4108640  56.9342670  47.5523140
  69.9979820  57.7596380  47.8063130  69.6784590  56.3487710  47.3599500
  62.5441430  59.7202570  42.4141810  62.1398430  59.0079820  41.9187710
  62.6304550  59.3755810  43.3029850  61.2570050  56.4945780  46.1940850
  61.8084640  56.6041120  45.4194100  61.7713560  56.8683380  46.9096080
  69.1446780  59.9944940  37.1430080  69.5840060  59.1567370  36.9967900
  69.8575200  60.6274340  37.2294220  72.7263920  51.2487750  35.4571120
  72.4136580  51.3414580  36.3570190  73.4876390  51.8268780  35.4068550
  74.6807950  66.7413940  53.3095510  75.1567670  67.2196830  53.9884590
  75.3015110  66.6731430  52.5841010  74.0841200  63.9326790  50.4695520
  74.2104260  63.6938670  49.5512700  74.1262580  63.1011330  50.9417600
  73.9365210  55.9859250  51.4345260  73.3209480  56.4938920  50.9060720
  73.6161630  55.0857580  51.3771200  61.7109720  51.9582620  43.2972130
  61.2677870  52.7392160  42.9656650  62.2694710  52.2812510  44.0043070
  65.9979530  54.8251140  48.9007450  65.5358900  55.0334160  49.7127390
  65.5957640  54.0110490  48.5978120  70.9984040  56.0460090  50.0304110
  70.1477630  55.7465840  50.3513180  70.8385830  56.2902100  49.1187930
  68.0933750  57.5461840  52.1302900  68.4187160  56.7125590  51.7905130
  68.8814080  58.0690360  52.2781230  64.8268540  51.5793320  38.1777960
  64.2022720  51.5753190  38.9031270  64.7398660  50.7124280  37.7813930
  63.7485620  52.5029950  45.1561730  64.0457950  53.4092780  45.0753750
  64.2971180  52.0148730  44.5421300  61.5023940  57.0816190  41.0253380
  61.2764860  56.8653360  41.9300000  60.7216470  57.5144650  40.6799350
  68.7321700  57.0879560  39.6244030  68.1330590  57.8115360  39.4407650
  69.2801310  57.0256340  38.8420480  63.9423150  57.9801770  51.6913650
  63.8466750  57.0396500  51.5414050  64.7855130  58.2016840  51.2961720
  67.3386570  55.7243100  41.6547310  67.7316140  56.0415300  40.8416000
  67.7003420  54.8454980  41.7691830  59.0733690  54.3915440  49.8447430
  58.6797080  55.2390650  50.0520210  58.3852090  53.7541810  50.0356070
  65.6478740  54.4750410  52.9144170  64.9577060  54.2822610  53.5490260
  66.3911040  54.7585050  53.4468470  56.3750740  52.3143900  43.8777510
  56.0863790  52.8846760  44.5902490  57.1196500  51.8348350  44.2408740
  56.5620970  56.2564020  35.0880230  56.4795640  57.1994780  35.2295220
  56.2104030  56.1138930  34.2092580  67.9241710  58.3148850  45.7498090
  67.1922830  58.8235660  46.0988190  67.5266050  57.4978830  45.4486870
  64.3619100  54.9903050  44.1550580  64.3655160  54.5493000  43.3055120
  65.2570220  55.3120380  44.2622400  60.2121480  54.8729540  43.1144790
  59.8721530  55.3504770  43.8711840  59.4498800  54.4194660  42.7545890
  64.4239250  55.9915130  37.1457340  64.5452070  55.9501610  38.0943160
  64.0387760  56.8539280  36.9904070  68.3867620  53.7682530  45.1621030
  68.4040360  54.2191180  46.0062880  68.1383200  52.8688170  45.3754470
  63.4360750  58.3016270  36.5440640  62.8677650  57.8534520  35.9176550
  64.1449750  58.6609050  36.0105790  71.8138370  51.1814710  51.0007410
  72.1384140  50.4504370  51.5265390  71.8494880  50.8628350  50.0988400
  64.6627070  59.0504830  45.9015990  65.0297200  58.5763400  46.6477330
  64.4732130  59.9246400  46.2424330  57.5267560  53.7948520  42.0309460
  57.2414480  53.4304190  42.8688080  57.4646420  53.0628980  41.4172600
  62.4526440  58.0913470  48.2200200  62.1483510  58.9705450  48.4450560
  63.4072900  58.1513260  48.2557640  71.7396210  61.2939820  44.6093440
  72.4595330  61.7895110  44.2189550  71.5378030  60.6157710  43.9647310
  67.2006150  52.6877780  38.7522830  66.3870760  52.1890950  38.6768140
  67.0068100  53.5276030  38.3359180  69.9154540  57.0597430  37.0484990
  70.8034160  57.3714660  36.8736330  69.8859630  56.1869680  36.6565570
  61.7103290  59.3900450  52.2511110  61.4103430  59.5357630  51.3538930
  62.4814530  58.8305740  52.1584500  72.1868810  58.3709270  36.5164850
  72.1032530  58.8023490  35.6661290  72.9063000  58.8307620  36.9491670
  73.2642950  60.8276790  49.5934820  72.5391140  61.4205570  49.3964210
  73.7918410  60.8200330  48.7948190  64.1833030  60.3180680  40.1114440
  64.6395810  61.1285930  40.3374630  63.8321240  60.0003820  40.9432930
  60.0844810  50.6618330  40.5836960  59.9559440  50.6536230  41.5321880
  59.2606830  51.0001420  40.2327970  57.0838740  52.4209450  50.0443660
  56.3697260  52.6206370  50.6496270  57.5033780  51.6449020  50.4158460
  71.1869690  62.0339930  37.4437490  70.8991390  62.4952620  38.2315370
  71.9821860  61.5737700  37.7121710  68.5777520  54.9131760  47.7945110
  68.9458340  54.0926970  48.1224680  67.7175720  54.9733650  48.2100760
  71.9439550  53.8688700  38.6032670  71.3152710  53.9734370  37.8890900
  71.4491470  54.0885480  39.3926550  63.9123580  56.1474650  40.0190550
  63.2039730  56.6160990  40.4604160  64.1968060  55.4896660  40.6535740
  65.5379510  57.5671350  48.0183080  66.0364760  58.0417170  48.6834930
  65.6802460  56.6434870  48.2253110  67.9439010  52.8725310  41.4586340
  67.8206790  52.8911440  40.5095850  68.8923570  52.9204250  41.5784740
  62.1158600  54.4559730  37.3941260  62.9649130  54.8929880  37.3281450
  61.7489870  54.7679990  38.2213320  72.7446370  53.7839310  48.8611470
  72.2419970  54.5244710  49.2005280  73.5603030  54.1723310  48.5448260
  71.0368380  59.0272490  42.3072830  70.0958520  59.0422720  42.4820520
  71.3512450  58.2408450  42.7533130  64.2905520  61.3703070  51.3201370
  63.5251190  61.9388070  51.2356040  64.4721480  61.0779280  50.4269600
  71.4328870  63.1008400  51.8776390  72.1738340  63.4384160  51.3743850
  70.6701550  63.2700460  51.3246160  63.0469050  60.7057220  37.8419430
  63.4685470  60.5397090  38.6850820  63.1719890  59.8957450  37.3474570
  61.2096470  56.6853770  50.6490410  60.6792930  56.1944720  50.0213750
  61.8784540  57.1137970  50.1148340  70.1074530  61.1523230  50.4131600
  70.5215550  61.3068310  51.2622020  69.1725530  61.2778450  50.5757380
  70.5796700  58.4919390  52.4170750  71.1617470  57.7371710  52.3291230
  70.7558470  59.0226830  51.6402230  61.6968770  53.6516140  50.7287700
  61.6025640  53.0336890  50.0038570  61.1166160  54.3782430  50.5017610
  64.4630210  52.2089380  47.7615090  64.0147510  52.2313640  46.9160640
  63.8295410  51.8108400  48.3585390  67.2053660  58.8359890  49.7665370
  67.3249870  58.2401030  50.5060210  68.0647660  58.8729580  49.3466670
  69.5441560  59.3897080  48.3427880  69.0176780  59.9139700  47.7393020
  69.8872900  60.0224470  48.9737610  61.9427950  56.7790450  34.7877590
  61.7417010  55.9157810  35.1490930  61.7720000  56.6923810  33.8499190
  63.9722430  55.3781240  51.0241190  64.5622120  55.0697090  51.7119010
  63.1542670  54.9060990  51.1801090  68.7915860  54.9947050  51.2574210
  68.1031380  54.3328590  51.1924200  69.5121880  54.5485320  51.7022670
  69.4216260  51.5898680  37.3164470  69.7018550  50.7466580  37.6723890
  68.6481990  51.8221790  37.8303220  60.7410750  53.8791070  34.7755470
  61.0436650  53.8858500  33.8674620  61.4805340  53.5288930  35.2723130
  63.9595680  52.8225690  35.7611670  63.6117680  52.1449680  35.1814120
  64.1608450  52.3615200  36.5755060  74.3440520  64.0827930  35.4234180
  73.5133480  64.1504580  35.8941410  74.5212350  64.9732050  35.1201040
  73.7996980  60.8275410  37.9268380  74.5615890  61.3972060  38.0328070
  73.8151350  60.2602610  38.6976690  74.8056950  61.6825510  42.7710310
  75.1765780  60.8992830  42.3646280  75.4458880  62.3714610  42.5927610
  71.7890710  63.0662090  48.1840630  70.9750550  63.4959250  48.4466420
  72.1964910  63.6780500  47.5709680  73.8516150  61.1209780  35.0840900
  74.1264990  62.0288660  34.9560120  73.6626890  61.0572310  36.0202890
  70.2491760  54.1454630  36.3794530  70.6676640  53.9585610  35.5391190
  69.9427820  53.2933680  36.6897460  73.7481490  59.0578770  40.0770330
  73.3725090  58.2906700  39.6451620  73.0184610  59.4401470  40.5645260
  73.1381110  58.2050290  49.7109850  72.9067200  57.9763040  48.8107800
  73.3985660  59.1249840  49.6654740  57.8893250  56.6475000  50.6037800
  56.9949300  56.6141760  50.9431510  58.4290800  56.8461790  51.3689050
  71.5769180  53.4306720  52.4889550  72.4539360  53.4390120  52.8723550
  71.5890020  52.6937560  51.8781900  56.5139400  56.5612270  38.1001370
  55.6103480  56.8242470  37.9253030  56.9980020  56.8323440  37.3201330
  73.0232450  57.2836260  43.3777570  73.5469930  56.7898910  42.7467740
  73.6091870  57.4186620  44.1225140  73.2022170  57.3676130  46.8997120
  72.2524880  57.3339670  47.0142110  73.3835180  58.2776240  46.6646890
  59.0566610  55.6177810  36.0095750  59.7658310  55.1961030  35.5243030
  58.3406550  55.6853040  35.3779100  58.7040770  51.6717140  35.0498400
  59.4268900  52.2126080  35.3679620  58.9765290  51.3980560  34.1739940
  72.5132420  56.5409610  39.3169980  73.0091540  56.3080480  40.1018860
  72.3148490  55.7021450  38.9007620  58.3932960  50.9223330  44.9521020
  59.0409150  50.3720710  44.5116180  58.8134800  51.1766480  45.7736830
  73.9419580  55.1770560  41.8507660  73.8318860  55.0226600  42.7889930
  74.7027170  54.6491500  41.6083070  72.2885300  51.1164690  48.3090660
  72.9257520  51.7298830  48.6749850  72.4360190  51.1525350  47.3639890
  74.8309850  53.0078480  35.0913800  75.7559160  52.8759660  34.8832090
  74.8085640  53.0871300  36.0450250  74.9048340  53.7789140  37.7170510
  74.1099840  53.7134260  38.2463420  75.1091620  54.7139780  37.7055860
  58.1464960  51.0779000  47.6946340  57.7979780  51.5342820  48.4604520
  57.8152660  50.1836130  47.7768770  65.6589780  52.2690880  51.2165760
  65.5978670  52.8612710  51.9661170  66.5990160  52.1616840  51.0716020
  68.2964340  51.9260940  50.8558050  68.9104750  52.2440230  50.1939130
  68.8413900  51.4409530  51.4753910  74.7139520  67.8252570  48.2619890
  74.2197800  68.2221440  47.5447020  74.1052810  67.2001780  48.6557170
  58.8185600  50.6055200  50.9697110  59.3668590  50.4243250  50.2063220
  58.8840910  49.8149310  51.5053420  69.0372380  50.4893080  47.1827340
  68.1632220  50.8228190  46.9800270  68.9283130  50.0166260  48.0079210
  69.9444360  52.6963950  48.5669060  69.6157720  51.8815710  48.1870790
  70.8926660  52.6533760  48.4434750  66.7847200  51.4062920  46.1220250
  66.0018990  51.8808420  46.4017010  66.4910130  50.5017750  46.0133430
  71.3368270  52.1086020  44.1669340  71.7776360  52.0531120  43.3190940
  71.0675860  53.0244030  44.2379520  73.2006840  51.7401260  42.1778160
  73.1395240  50.7962480  42.0309180  73.9798870  51.8481350  42.7231620
  58.1287610  51.7110400  38.6433970  58.8866970  51.8239280  38.0698000
  57.6664780  52.5479600  38.5977400  64.6701420  53.8249670  41.6336280
  63.8575930  53.4506560  41.2932160  65.1743060  53.0694750  41.9357470
  69.1726400  50.4892120  42.8719350  69.7755770  51.0612330  43.3467870
  68.4319390  51.0531560  42.6493250  72.3161000  50.8913680  38.1459630
  72.5111630  51.7897130  38.4127060  71.5290870  50.6600760  38.6392580
  60.5012760  52.2374450  37.1835940  61.0305520  51.4504250  37.0543890
  61.1341080  52.9165640  37.4171470  62.6950600  51.9749590  40.2381330
  62.0653340  51.2736900  40.4051460  62.1555740  52.7353720  40.0214490
  73.8687610  68.1314390  39.9066190  74.0439800  67.4452130  39.2627110
  73.1709180  68.6561440  39.5142860  62.8206160  51.2533570  52.6733820
  62.5390430  51.7567170  51.9094640  63.2025860  50.4555320  52.3075950
  69.4221620  50.6687150  53.2514290  69.3087070  50.9881760  54.1465810
  70.2391360  51.0699660  52.9551570  68.3279770  58.6879620  23.6149030
  68.2473820  57.7734230  23.3440740  67.9144190  59.1846690  22.9088740
  66.4597810  60.4658640  25.4958300  65.6839910  59.9859080  25.7856870
  67.1110740  59.7864290  25.3214460  58.8855590  55.7380340  20.1576450
  57.9972290  56.0796310  20.0556330  59.1696780  55.5380660  19.2657280
  56.8488600  58.3385990  26.0416150  57.4204710  57.5708190  26.0419790
  56.8490140  58.6374750  25.1322760  66.7068550  67.1576840  23.8961420
  66.0879990  67.6134340  23.3255860  67.5620330  67.3128300  23.4951120
  58.0913470  53.7470350  27.8285080  57.9116310  52.8496100  28.1087840
  57.6893550  54.2942220  28.5032030  66.9311970  55.9486210  25.7297390
  67.3076790  55.0758090  25.6171060  66.8331480  56.2844910  24.8387830
  61.0616980  54.3211840  21.1914830  61.1683730  55.2215570  21.4983590
  60.1509340  54.2729810  20.9009480  70.7136090  53.4436650  22.6625730
  71.5345710  52.9533220  22.7051210  70.7470170  54.0334310  23.4157570
  58.7100140  56.2430850  26.4367420  59.3910250  56.5069220  27.0554820
  58.3948190  55.4031720  26.7705430  62.9024710  57.2898210  25.5240010
  63.4102930  57.7879180  26.1645030  63.4337950  56.5133410  25.3479370
  75.0035640  55.4603400  29.2269360  74.2987810  55.8485110  28.7084470
  75.2693560  56.1553690  29.8290290  61.1860810  51.9296770  29.7903430
  61.1879250  52.4469160  28.9849330  60.3565120  51.4526950  29.7673360
  67.5731900  62.0416080  21.2893330  66.9549170  62.5065530  20.7256050
  68.0855150  62.7343560  21.7062840  62.4363660  61.5691950  27.9676930
  62.1033040  62.1960870  28.6098000  62.6130340  62.0953830  27.1878600
  70.9497570  55.3837030  25.4353270  70.2453140  55.6721920  26.0156380
  71.3109730  56.1937140  25.0752830  60.8676140  53.6406730  27.7973880
  61.2092950  54.4848780  27.5027750  59.9291950  53.7890470  27.9139220
  56.9415100  62.7272610  18.6632960  56.5643080  63.2159710  17.9317860
  57.1988170  63.3997890  19.2939490  74.0184490  54.8291820  25.8262480
  73.0709400  54.8630800  25.9577910  74.3434480  55.6430770  26.2111840
  64.5504030  51.1289000  24.1218470  64.8579010  50.5735890  23.4053970
  63.6204730  51.2633460  23.9391460  71.3964510  63.5672510  21.5016100
  71.2860840  62.6246840  21.6265520  71.3932760  63.9288150  22.3878860
  66.9384790  59.1937830  20.8578590  66.0114070  59.1275210  21.0867060
  67.0909610  60.1317960  20.7433830  66.9253870  55.4654830  17.8545750
  65.9857540  55.6268790  17.9398210  67.2437130  56.1840510  17.3081740
  73.4466630  60.1473350  27.8324780  72.6185260  60.2166440  27.3574910
  74.0417110  60.7327660  27.3640610  70.9682080  60.7558130  21.3613840
  70.3494500  60.4177680  20.7140140  70.9506530  60.1117890  22.0693030
  70.4108640  56.9342670  28.7779650  69.9979820  57.7596380  29.0319640
  69.6784590  56.3487710  28.5856010  62.5441430  59.7202570  23.6398320
  62.1398430  59.0079820  23.1444220  62.6304550  59.3755810  24.5286360
  63.0123130  63.4070130  25.8037530  62.7151420  62.8015600  25.1245310
  63.9622950  63.4447440  25.6926890  61.2570050  56.4945780  27.4197360
  61.8084640  56.6041120  26.6450610  61.7713560  56.8683380  28.1352590
  69.1446780  59.9944940  18.3686590  69.5840060  59.1567370  18.2224410
  69.8575200  60.6274340  18.4550730  67.2542160  64.9341010  22.3367830
  67.6938070  65.6765340  21.9223220  67.1929050  65.1767580  23.2606790
  72.7263920  51.2487750  16.6827630  72.4136580  51.3414580  17.5826700
  73.4876390  51.8268780  16.6325060  59.2446060  58.6147550  21.1404970
  59.1243660  59.3409640  20.5286240  58.9346950  57.8450460  20.6632880
  74.6807950  66.7413940  34.5352020  75.1567670  67.2196830  35.2141100
  75.3015110  66.6731430  33.8097520  58.1279060  63.4862880  23.3579790
  57.7207140  63.6277470  22.5033390  59.0192070  63.2023040  23.1551000
  74.0841200  63.9326790  31.6952030  74.2104260  63.6938670  30.7769210
  74.1262580  63.1011330  32.1674110  69.9212340  67.9210130  19.6930840
  69.7613480  67.6313070  20.5912670  69.7559050  67.1450260  19.1576070
  62.4000720  67.7008660  21.4702460  62.2243200  66.7844200  21.2570260
  61.5456460  68.0595950  21.7100260  69.6238470  65.4297690  18.2528840
  68.9303630  65.4274980  17.5931120  70.3661330  65.0057010  17.8223010
  69.1888400  67.0560400  22.3277330  69.6445350  66.2749780  22.6415950
  69.5280920  67.7667220  22.8718510  73.9365210  55.9859250  32.6601770
  73.3209480  56.4938920  32.1317230  73.6161630  55.0857580  32.6027710
  61.7109720  51.9582620  24.5228640  61.2677870  52.7392160  24.1913160
  62.2694710  52.2812510  25.2299580  65.9979530  54.8251140  30.1263960
  65.5358900  55.0334160  30.9383900  65.5957640  54.0110490  29.8234630
  70.9984040  56.0460090  31.2560620  70.1477630  55.7465840  31.5769690
  70.8385830  56.2902100  30.3444440  68.0933750  57.5461840  33.3559410
  68.4187160  56.7125590  33.0161640  68.8814080  58.0690360  33.5037740
  64.8268540  51.5793320  19.4034470  64.2022720  51.5753190  20.1287780
  64.7398660  50.7124280  19.0070440  63.7485620  52.5029950  26.3818240
  64.0457950  53.4092780  26.3010260  64.2971180  52.0148730  25.7677810
  61.5023940  57.0816190  22.2509890  61.2764860  56.8653360  23.1556510
  60.7216470  57.5144650  21.9055860  68.7321700  57.0879560  20.8500540
  68.1330590  57.8115360  20.6664160  69.2801310  57.0256340  20.0676990
  63.9423150  57.9801770  32.9170160  63.8466750  57.0396500  32.7670560
  64.7855130  58.2016840  32.5218230  67.3386570  55.7243100  22.8803820
  67.7316140  56.0415300  22.0672510  67.7003420  54.8454980  22.9948340
  59.0733690  54.3915440  31.0703940  58.6797080  55.2390650  31.2776720
  58.3852090  53.7541810  31.2612580  65.6478740  54.4750410  34.1400680
  64.9577060  54.2822610  34.7746770  66.3911040  54.7585050  34.6724980
  56.3750740  52.3143900  25.1034020  56.0863790  52.8846760  25.8159000
  57.1196500  51.8348350  25.4665250  56.5620970  56.2564020  16.3136740
  56.4795640  57.1994780  16.4551730  56.2104030  56.1138930  15.4349090
  67.9241710  58.3148850  26.9754600  67.1922830  58.8235660  27.3244700
  67.5266050  57.4978830  26.6743380  64.3619100  54.9903050  25.3807090
  64.3655160  54.5493000  24.5311630  65.2570220  55.3120380  25.4878910
  60.2121480  54.8729540  24.3401300  59.8721530  55.3504770  25.0968350
  59.4498800  54.4194660  23.9802400  64.4239250  55.9915130  18.3713850
  64.5452070  55.9501610  19.3199670  64.0387760  56.8539280  18.2160580
  68.3867620  53.7682530  26.3877540  68.4040360  54.2191180  27.2319390
  68.1383200  52.8688170  26.6010980  63.4360750  58.3016270  17.7697150
  62.8677650  57.8534520  17.1433060  64.1449750  58.6609050  17.2362300
  71.8138370  51.1814710  32.2263920  72.1384140  50.4504370  32.7521900
  71.8494880  50.8628350  31.3244910  64.6627070  59.0504830  27.1272500
  65.0297200  58.5763400  27.8733840  64.4732130  59.9246400  27.4680840
  57.5267560  53.7948520  23.2565970  57.2414480  53.4304190  24.0944590
  57.4646420  53.0628980  22.6429110  62.4526440  58.0913470  29.4456710
  62.1483510  58.9705450  29.6707070  63.4072900  58.1513260  29.4814150
  60.9808230  62.2974460  20.0423560  60.2070490  61.7572080  19.8822280
  61.7102860  61.7781070  19.7041320  71.7396210  61.2939820  25.8349950
  72.4595330  61.7895110  25.4446060  71.5378030  60.6157710  25.1903820
  67.2006150  52.6877780  19.9779340  66.3870760  52.1890950  19.9024650
  67.0068100  53.5276030  19.5615690  69.9154540  57.0597430  18.2741500
  70.8034160  57.3714660  18.0992840  69.8859630  56.1869680  17.8822080
  61.0245630  61.9654840  23.6802370  61.5424300  61.1623100  23.6259260
  60.5729650  61.9033980  24.5219200  65.9115130  63.2321120  18.9529670
  66.2530830  63.9763350  18.4572990  65.0827840  63.5452240  19.3154500
  72.1868810  58.3709270  17.7421360  72.1032530  58.8023490  16.8917800
  72.9063000  58.8307620  18.1748180  73.2642950  60.8276790  30.8191330
  72.5391140  61.4205570  30.6220720  73.7918410  60.8200330  30.0204700
  73.2156060  65.2251530  20.4703490  72.5732220  64.5707150  20.7447210
  72.8286720  65.6306620  19.6944160  64.8805820  63.3134650  21.7245590
  65.5676950  63.8603860  22.1053180  64.0938240  63.8575380  21.7595200
  57.0198220  58.9307470  17.2162670  57.8893070  59.2132270  17.4998590
  56.5288540  59.7443340  17.1011480  64.1833030  60.3180680  21.3370950
  64.6395810  61.1285930  21.5631140  63.8321240  60.0003820  22.1689440
  60.0844810  50.6618330  21.8093470  59.9559440  50.6536230  22.7578390
  59.2606830  51.0001420  21.4584480  71.6053440  64.1167990  17.0079840
  71.3791020  63.3998430  17.6004480  71.2149640  63.8680430  16.1701590
  57.3869470  68.1434850  17.7824300  57.7467110  68.7424190  17.1281570
  57.2461810  68.6894740  18.5559330  57.0838740  52.4209450  31.2700170
  56.3697260  52.6206370  31.8752780  57.5033780  51.6449020  31.6414970
  71.1869690  62.0339930  18.6694000  70.8991390  62.4952620  19.4571880
  71.9821860  61.5737700  18.9378220  63.4038090  65.5266050  18.5997970
  63.3948190  66.2595740  17.9842480  62.4836450  65.2797630  18.6924930
  59.0044730  60.7480940  19.3444730  58.3972680  61.4879840  19.3540030
  59.4794080  60.8380300  18.5182930  68.5777520  54.9131760  29.0201620
  68.9458340  54.0926970  29.3481190  67.7175720  54.9733650  29.4357270
  71.9439550  53.8688700  19.8289180  71.3152710  53.9734370  19.1147410
  71.4491470  54.0885480  20.6183060  66.3897690  65.5894290  17.2623160
  66.4909670  65.3858280  16.3325140  65.4899430  65.3352570  17.4670940
  63.9123580  56.1474650  21.2447060  63.2039730  56.6160990  21.6860670
  64.1968060  55.4896660  21.8792250  65.5379510  57.5671350  29.2439590
  66.0364760  58.0417170  29.9091440  65.6802460  56.6434870  29.4509620
  67.9439010  52.8725310  22.6842850  67.8206790  52.8911440  21.7352360
  68.8923570  52.9204250  22.8041250  65.0315800  68.1080610  21.9570830
  65.2857300  68.0702000  21.0350200  64.0828280  67.9813940  21.9499080
  62.1158600  54.4559730  18.6197770  62.9649130  54.8929880  18.5537960
  61.7489870  54.7679990  19.4469830  72.7446370  53.7839310  30.0867980
  72.2419970  54.5244710  30.4261790  73.5603030  54.1723310  29.7704770
  71.0368380  59.0272490  23.5329340  70.0958520  59.0422720  23.7077030
  71.3512450  58.2408450  23.9789640  61.0150020  60.7092090  17.0933300
  61.7813290  60.5973450  17.6558730  61.0924710  60.0130060  16.4410070
  59.7096780  58.1417160  17.7766190  59.7900370  57.1944670  17.8883590
  60.6016530  58.4724040  17.8826850  73.0393960  66.1981340  25.2083600
  73.1641380  67.0212510  25.6807410  73.9059520  65.9872070  24.8607750
  57.3956970  64.3586120  20.7542240  56.4696750  64.6007260  20.7447650
  57.8613400  65.1860380  20.6326990  63.6213800  67.4642860  16.7026300
  64.4142410  67.7531690  16.2508090  63.1018150  67.0335030  16.0238780
  72.6743970  66.6912990  18.1263040  72.3885480  66.2778130  17.3117220
  72.4763520  67.6200700  18.0063560  64.1391200  62.6846270  16.5668650
  64.0341840  62.0698620  17.2930030  63.9715420  62.1612160  15.7831660
  67.3793930  61.7466300  17.1710640  66.8304030  62.1935600  17.8153380
  68.0013190  61.2415550  17.6948310  63.0469050  60.7057220  19.0675940
  63.4685470  60.5397090  19.9107330  63.1719890  59.8957450  18.5731080
  61.2096470  56.6853770  31.8746920  60.6792930  56.1944720  31.2470260
  61.8784540  57.1137970  31.3404850  65.5596690  59.7294830  16.3153040
  66.0802350  59.0143850  15.9494190  66.2065090  60.3680700  16.6153550
  70.5796700  58.4919390  33.6427260  71.1617470  57.7371710  33.5547740
  70.7558470  59.0226830  32.8658740  61.6968770  53.6516140  31.9544210
  61.6025640  53.0336890  31.2295080  61.1166160  54.3782430  31.7274120
  64.4630210  52.2089380  28.9871600  64.0147510  52.2313640  28.1417150
  63.8295410  51.8108400  29.5841900  67.2053660  58.8359890  30.9921880
  67.3249870  58.2401030  31.7316720  68.0647660  58.8729580  30.5723180
  69.5441560  59.3897080  29.5684390  69.0176780  59.9139700  28.9649530
  69.8872900  60.0224470  30.1994120  61.9427950  56.7790450  16.0134100
  61.7417010  55.9157810  16.3747440  61.7720000  56.6923810  15.0755700
  63.9722430  55.3781240  32.2497700  64.5622120  55.0697090  32.9375520
  63.1542670  54.9060990  32.4057600  68.7915860  54.9947050  32.4830720
  68.1031380  54.3328590  32.4180710  69.5121880  54.5485320  32.9279180
  69.4216260  51.5898680  18.5420980  69.7018550  50.7466580  18.8980400
  68.6481990  51.8221790  19.0559730  60.7410750  53.8791070  16.0011980
  61.0436650  53.8858500  15.0931130  61.4805340  53.5288930  16.4979640
  63.9595680  52.8225690  16.9868180  63.6117680  52.1449680  16.4070630
  64.1608450  52.3615200  17.8011570  66.1244720  67.8106440  18.6054780
  67.0195510  68.1491410  18.6273540  66.1562350  67.0885850  17.9779060
  59.7640880  63.1833490  16.8341780  60.2015750  63.7263160  17.4899360
  60.2488610  62.3580440  16.8438120  56.9786680  65.9722520  24.2862040
  57.3089690  65.1043580  24.0540680  57.4077680  66.1781040  25.1167000
  61.5748600  64.3031530  21.9464010  61.2744140  64.1796500  22.8467920
  61.4686090  63.4440120  21.5379740  73.1039070  66.3410110  31.3120980
  72.5041060  66.4002670  30.5684900  73.2332970  65.4015090  31.4417830
  74.3440520  64.0827930  16.6490690  73.5133480  64.1504580  17.1197920
  74.5212350  64.9732050  16.3457550  73.7996980  60.8275410  19.1524890
  74.5615890  61.3972060  19.2584580  73.8151350  60.2602610  19.9233200
  57.3001320  59.3513340  23.3832550  56.6450160  59.0824980  22.7392250
  58.1379270  59.2417820  22.9334530  74.8056950  61.6825510  23.9966820
  75.1765780  60.8992830  23.5902790  75.4458880  62.3714610  23.8184120
  73.8516150  61.1209780  16.3097410  74.1264990  62.0288660  16.1816630
  73.6626890  61.0572310  17.2459400  70.2491760  54.1454630  17.6051040
  70.6676640  53.9585610  16.7647700  69.9427820  53.2933680  17.9153970
  73.7481490  59.0578770  21.3026840  73.3725090  58.2906700  20.8708130
  73.0184610  59.4401470  21.7901770  73.1381110  58.2050290  30.9366360
  72.9067200  57.9763040  30.0364310  73.3985660  59.1249840  30.8911250
  57.8893250  56.6475000  31.8294310  56.9949300  56.6141760  32.1688020
  58.4290800  56.8461790  32.5945560  71.5769180  53.4306720  33.7146060
  72.4539360  53.4390120  34.0980060  71.5890020  52.6937560  33.1038410
  56.5139400  56.5612270  19.3257880  55.6103480  56.8242470  19.1509540
  56.9980020  56.8323440  18.5457840  73.0232450  57.2836260  24.6034080
  73.5469930  56.7898910  23.9724250  73.6091870  57.4186620  25.3481650
  73.2022170  57.3676130  28.1253630  72.2524880  57.3339670  28.2398620
  73.3835180  58.2776240  27.8903400  59.0566610  55.6177810  17.2352260
  59.7658310  55.1961030  16.7499540  58.3406550  55.6853040  16.6035610
  58.7040770  51.6717140  16.2754910  59.4268900  52.2126080  16.5936130
  58.9765290  51.3980560  15.3996450  72.5132420  56.5409610  20.5426490
  73.0091540  56.3080480  21.3275370  72.3148490  55.7021450  20.1264130
  58.3932960  50.9223330  26.1777530  59.0409150  50.3720710  25.7372690
  58.8134800  51.1766480  26.9993340  73.9419580  55.1770560  23.0764170
  73.8318860  55.0226600  24.0146440  74.7027170  54.6491500  22.8339580
  72.2885300  51.1164690  29.5347170  72.9257520  51.7298830  29.9006360
  72.4360190  51.1525350  28.5896400  74.8309850  53.0078480  16.3170310
  75.7559160  52.8759660  16.1088600  74.8085640  53.0871300  17.2706760
  74.9048340  53.7789140  18.9427020  74.1099840  53.7134260  19.4719930
  75.1091620  54.7139780  18.9312370  71.8466760  67.8180690  22.9365410
  72.4425830  67.4965260  22.2599830  72.1044910  67.3452510  23.7278680
  58.1464960  51.0779000  28.9202850  57.7979780  51.5342820  29.6861030
  57.8152660  50.1836130  29.0025280  65.6589780  52.2690880  32.4422270
  65.5978670  52.8612710  33.1917680  66.5990160  52.1616840  32.2972530
  68.2964340  51.9260940  32.0814560  68.9104750  52.2440230  31.4195640
  68.8413900  51.4409530  32.7010420  74.7139520  67.8252570  29.4876400
  74.2197800  68.2221440  28.7703530  74.1052810  67.2001780  29.8813680
  58.8185600  50.6055200  32.1953620  59.3668590  50.4243250  31.4319730
  58.8840910  49.8149310  32.7309930  69.0372380  50.4893080  28.4083850
  68.1632220  50.8228190  28.2056780  68.9283130  50.0166260  29.2335720
  69.9444360  52.6963950  29.7925570  69.6157720  51.8815710  29.4127300
  70.8926660  52.6533760  29.6691260  72.3978970  68.4675990  26.7663140
  71.9381940  69.2191800  26.3921160  71.7691430  67.7482460  26.7077940
  66.7847200  51.4062920  27.3476760  66.0018990  51.8808420  27.6273520
  66.4910130  50.5017750  27.2389940  71.3368270  52.1086020  25.3925850
  71.7776360  52.0531120  24.5447450  71.0675860  53.0244030  25.4636030
  73.2006840  51.7401260  23.4034670  73.1395240  50.7962480  23.2565690
  73.9798870  51.8481350  23.9488130  57.5059590  67.8793620  22.3658620
  57.3381630  67.2464300  23.0640510  56.6394100  68.0853020  22.0152810
  58.1287610  51.7110400  19.8690480  58.8866970  51.8239280  19.2954510
  57.6664780  52.5479600  19.8233910  64.6701420  53.8249670  22.8592790
  63.8575930  53.4506560  22.5188670  65.1743060  53.0694750  23.1613980
  69.1726400  50.4892120  24.0975860  69.7755770  51.0612330  24.5724380
  68.4319390  51.0531560  23.8749760  72.3161000  50.8913680  19.3716140
  72.5111630  51.7897130  19.6383570  71.5290870  50.6600760  19.8649090
  59.1122290  66.5726850  19.8108760  58.5869910  66.9534880  19.1070720
  59.0366870  67.1977620  20.5318470  60.5012760  52.2374450  18.4092450
  61.0305520  51.4504250  18.2800400  61.1341080  52.9165640  18.6427980
  62.6950600  51.9749590  21.4637840  62.0653340  51.2736900  21.6307970
  62.1555740  52.7353720  21.2471000  73.8687610  68.1314390  21.1322700
  74.0439800  67.4452130  20.4883620  73.1709180  68.6561440  20.7399370
  62.8206160  51.2533570  33.8990330  62.5390430  51.7567170  33.1351150
  63.2025860  50.4555320  33.5332460  61.7115260  68.5209230  18.6858010
  62.4434080  68.2368510  18.1381900  61.9708930  68.2822510  19.5757390
  60.8730050  64.6373960  18.6904340  60.2438930  65.1059060  19.2390170
  60.9877880  63.7923180  19.1250530  69.4221620  50.6687150  34.4770800
  69.3087070  50.9881760  35.3722320  70.2391360  51.0699660  34.1808080
  72.2020110  67.8158680  33.9589490  72.9945430  67.3207910  33.7515450
  72.4953260  68.4948820  34.5665100  68.3279770  58.6879620   4.8405540
  68.2473820  57.7734230   4.5697250  67.9144190  59.1846690   4.1345250
  66.4597810  60.4658640   6.7214810  65.6839910  59.9859080   7.0113380
  67.1110740  59.7864290   6.5470970  60.4763640  60.7778450   7.5990570
  59.6448520  60.5227160   7.9987080  61.0844620  60.8489220   8.3348490
  70.4805240  64.8718830   5.5013940  70.0186770  64.1006070   5.8301110
  71.2930790  64.8984900   6.0066390  60.4564900  64.8118540   7.7948590
  60.7592940  63.9216280   7.6158810  61.2008490  65.3688760   7.5670840
  56.8488600  58.3385990   7.2672660  57.4204710  57.5708190   7.2676300
  56.8490140  58.6374750   6.3579270  66.7068550  67.1576840   5.1217930
  66.0879990  67.6134340   4.5512370  67.5620330  67.3128300   4.7207630
  65.9006800  63.1415830   6.7284970  65.8315080  62.2005770   6.5674100
  66.6626660  63.2317240   7.3007540  58.0913470  53.7470350   9.0541590
  57.9116310  52.8496100   9.3344350  57.6893550  54.2942220   9.7288540
  66.9311970  55.9486210   6.9553900  67.3076790  55.0758090   6.8427570
  66.8331480  56.2844910   6.0644340  61.0616980  54.3211840   2.4171340
  61.1683730  55.2215570   2.7240100  60.1509340  54.2729810   2.1265990
  70.7136090  53.4436650   3.8882240  71.5345710  52.9533220   3.9307720
  70.7470170  54.0334310   4.6414080  58.7100140  56.2430850   7.6623930
  59.3910250  56.5069220   8.2811330  58.3948190  55.4031720   7.9961940
  62.9024710  57.2898210   6.7496520  63.4102930  57.7879180   7.3901540
  63.4337950  56.5133410   6.5735880  75.0035640  55.4603400  10.4525870
  74.2987810  55.8485110   9.9340980  75.2693560  56.1553690  11.0546800
  61.1860810  51.9296770  11.0159940  61.1879250  52.4469160  10.2105840
  60.3565120  51.4526950  10.9929870  67.5731900  62.0416080   2.5149840
  66.9549170  62.5065530   1.9512560  68.0855150  62.7343560   2.9319350
  62.4363660  61.5691950   9.1933440  62.1033040  62.1960870   9.8354510
  62.6130340  62.0953830   8.4135110  70.9497570  55.3837030   6.6609780
  70.2453140  55.6721920   7.2412890  71.3109730  56.1937140   6.3009340
  60.8676140  53.6406730   9.0230390  61.2092950  54.4848780   8.7284260
  59.9291950  53.7890470   9.1395730  61.6482760  63.5372750  11.0082620
  62.2656760  64.2123830  10.7267070  60.7875880  63.9460730  10.9170120
  72.5660350  65.0012160   8.9237260  71.8823870  65.6711270   8.9153930
  73.1054640  65.1992810   8.1582120  74.0184490  54.8291820   7.0518990
  73.0709400  54.8630800   7.1834420  74.3434480  55.6430770   7.4368350
  64.5504030  51.1289000   5.3474980  64.8579010  50.5735890   4.6310480
  63.6204730  51.2633460   5.1647970  70.1019090  66.8456290   7.6382440
  70.1146250  66.4418580   6.7704700  69.5494310  67.6203580   7.5343870
  71.3964510  63.5672510   2.7272610  71.2860840  62.6246840   2.8522030
  71.3932760  63.9288150   3.6135370  69.5004530  61.7486130   8.9665050
  69.9173320  61.5346240   8.1318510  70.2244350  62.0058920   9.5373670
  66.9384790  59.1937830   2.0835100  66.0114070  59.1275210   2.3123570
  67.0909610  60.1317960   1.9690340  73.4466630  60.1473350   9.0581290
  72.6185260  60.2166440   8.5831420  74.0417110  60.7327660   8.5897120
  70.9682080  60.7558130   2.5870350  70.3494500  60.4177680   1.9396650
  70.9506530  60.1117890   3.2949540  70.4108640  56.9342670  10.0036160
  69.9979820  57.7596380  10.2576150  69.6784590  56.3487710   9.8112520
  62.5441430  59.7202570   4.8654830  62.1398430  59.0079820   4.3700730
  62.6304550  59.3755810   5.7542870  63.0123130  63.4070130   7.0294040
  62.7151420  62.8015600   6.3501820  63.9622950  63.4447440   6.9183400
  61.2570050  56.4945780   8.6453870  61.8084640  56.6041120   7.8707120
  61.7713560  56.8683380   9.3609100  71.1008740  66.9802000  10.6917140
  70.6239300  67.7874190  10.4989750  70.4170530  66.3280330  10.8443350
  62.1041560  63.1451820  13.6801840  61.2070090  63.3691790  13.9275240
  62.1294430  63.2686760  12.7313240  60.9312780  60.0165140  12.2559210
  60.7920550  60.8887940  12.6246610  60.0494140  59.6737950  12.1107150
  67.2542160  64.9341010   3.5624340  67.6938070  65.6765340   3.1479730
  67.1929050  65.1767580   4.4863300  62.7293130  65.9586840  14.4644360
  62.7008560  66.3629790  13.5972790  62.5658100  65.0297200  14.3015960
  59.2446060  58.6147550   2.3661480  59.1243660  59.3409640   1.7542750
  58.9346950  57.8450460   1.8889390  74.6807950  66.7413940  15.7608530
  75.1567670  67.2196830  16.4397610  75.3015110  66.6731430  15.0354030
  56.8831430  61.7862690   8.1730120  56.9611850  61.9211460   7.2285840
  57.4973110  61.0778580   8.3658240  58.1279060  63.4862880   4.5836300
  57.7207140  63.6277470   3.7289900  59.0192070  63.2023040   4.3807510
  74.0841200  63.9326790  12.9208540  74.2104260  63.6938670  12.0025720
  74.1262580  63.1011330  13.3930620  67.9457940  67.6354790  11.4903350
  68.4602610  67.5462800  12.2925780  67.1027020  67.9814490  11.7831260
  62.4000720  67.7008660   2.6958970  62.2243200  66.7844200   2.4826770
  61.5456460  68.0595950   2.9356770  69.1888400  67.0560400   3.5533840
  69.6445350  66.2749780   3.8672460  69.5280920  67.7667220   4.0975020
  73.9365210  55.9859250  13.8858280  73.3209480  56.4938920  13.3573740
  73.6161630  55.0857580  13.8284220  56.9390950  62.8276860  10.7124580
  57.1021990  62.3582220   9.8943950  57.4043400  62.3200420  11.3773420
  61.7109720  51.9582620   5.7485150  61.2677870  52.7392160   5.4169670
  62.2694710  52.2812510   6.4556090  65.9979530  54.8251140  11.3520470
  65.5358900  55.0334160  12.1640410  65.5957640  54.0110490  11.0491140
  70.9984040  56.0460090  12.4817130  70.1477630  55.7465840  12.8026200
  70.8385830  56.2902100  11.5700950  68.0933750  57.5461840  14.5815920
  68.4187160  56.7125590  14.2418150  68.8814080  58.0690360  14.7294250
  63.7485620  52.5029950   7.6074750  64.0457950  53.4092780   7.5266770
  64.2971180  52.0148730   6.9934320  61.5023940  57.0816190   3.4766400
  61.2764860  56.8653360   4.3813020  60.7216470  57.5144650   3.1312370
  68.7321700  57.0879560   2.0757050  68.1330590  57.8115360   1.8920670
  69.2801310  57.0256340   1.2933500  63.9423150  57.9801770  14.1426670
  63.8466750  57.0396500  13.9927070  64.7855130  58.2016840  13.7474740
  67.3386570  55.7243100   4.1060330  67.7316140  56.0415300   3.2929020
  67.7003420  54.8454980   4.2204850  59.0733690  54.3915440  12.2960450
  58.6797080  55.2390650  12.5033230  58.3852090  53.7541810  12.4869090
  65.6478740  54.4750410  15.3657190  64.9577060  54.2822610  16.0003280
  66.3911040  54.7585050  15.8981490  56.3750740  52.3143900   6.3290530
  56.0863790  52.8846760   7.0415510  57.1196500  51.8348350   6.6921760
  67.9241710  58.3148850   8.2011110  67.1922830  58.8235660   8.5501210
  67.5266050  57.4978830   7.8999890  64.3619100  54.9903050   6.6063600
  64.3655160  54.5493000   5.7568140  65.2570220  55.3120380   6.7135420
  60.2121480  54.8729540   5.5657810  59.8721530  55.3504770   6.3224860
  59.4498800  54.4194660   5.2058910  68.3867620  53.7682530   7.6134050
  68.4040360  54.2191180   8.4575900  68.1383200  52.8688170   7.8267490
  71.8138370  51.1814710  13.4520430  72.1384140  50.4504370  13.9778410
  71.8494880  50.8628350  12.5501420  58.5129930  62.2028290  12.8720390
  58.1284720  61.5621960  13.4703350  58.8242120  62.9064410  13.4415120
  64.6627070  59.0504830   8.3529010  65.0297200  58.5763400   9.0990350
  64.4732130  59.9246400   8.6937350  57.5267560  53.7948520   4.4822480
  57.2414480  53.4304190   5.3201100  57.4646420  53.0628980   3.8685620
  62.4526440  58.0913470  10.6713220  62.1483510  58.9705450  10.8963580
  63.4072900  58.1513260  10.7070660  71.7396210  61.2939820   7.0606460
  72.4595330  61.7895110   6.6702570  71.5378030  60.6157710   6.4160330
  67.1215010  61.3648880  12.9475460  67.0552320  60.4444550  12.6933050
  66.4920150  61.4624320  13.6620100  61.0245630  61.9654840   4.9058880
  61.5424300  61.1623100   4.8515770  60.5729650  61.9033980   5.7475710
  58.5090170  58.9316210  11.8184580  58.1505110  59.5970060  12.4057920
  58.2144730  58.0999760  12.1897200  61.7103290  59.3900450  14.7024130
  61.4103430  59.5357630  13.8051950  62.4814530  58.8305740  14.6097520
  67.0531740  64.1869450  12.6979260  67.0676280  63.2550410  12.4798170
  66.3456840  64.2729210  13.3369030  73.2642950  60.8276790  12.0447840
  72.5391140  61.4205570  11.8477230  73.7918410  60.8200330  11.2461210
  68.7942540  62.5536960   5.5431690  69.1466360  61.9565090   4.8833060
  67.9104870  62.2281190   5.7139940  64.8805820  63.3134650   2.9502100
  65.5676950  63.8603860   3.3309690  64.0938240  63.8575380   2.9851710
  64.1833030  60.3180680   2.5627460  64.6395810  61.1285930   2.7887650
  63.8321240  60.0003820   3.3945950  66.4865640  65.8287020   9.7919760
  67.1307860  66.0346400  10.4693180  66.8495080  65.0675420   9.3390610
  60.0844810  50.6618330   3.0349980  59.9559440  50.6536230   3.9834900
  59.2606830  51.0001420   2.6840990  67.7597720  63.8319370   8.5097210
  68.4019950  63.1312530   8.6229380  68.2847070  64.6117810   8.3294100
  69.5335340  64.6314270  11.7133270  69.8691580  65.2180960  12.3911190
  68.6135680  64.5006980  11.9431060  57.0838740  52.4209450  12.4956680
  56.3697260  52.6206370  13.1009290  57.5033780  51.6449020  12.8671480
  57.3711330  66.4089710  13.4823210  57.4802450  65.4684450  13.3418600
  56.7191890  66.6744460  12.8336940  65.3623920  64.6805600  14.8821330
  65.0420790  63.9614840  15.4267020  64.6882280  65.3560670  14.9557390
  68.5777520  54.9131760  10.2458130  68.9458340  54.0926970  10.5737700
  67.7175720  54.9733650  10.6613780  63.9123580  56.1474650   2.4703570
  63.2039730  56.6160990   2.9117180  64.1968060  55.4896660   3.1048760
  65.5379510  57.5671350  10.4696100  66.0364760  58.0417170  11.1347950
  65.6802460  56.6434870  10.6766130  67.9439010  52.8725310   3.9099360
  67.8206790  52.8911440   2.9608870  68.8923570  52.9204250   4.0297760
  65.0315800  68.1080610   3.1827340  65.2857300  68.0702000   2.2606710
  64.0828280  67.9813940   3.1755590  72.7446370  53.7839310  11.3124490
  72.2419970  54.5244710  11.6518300  73.5603030  54.1723310  10.9961280
  71.0368380  59.0272490   4.7585850  70.0958520  59.0422720   4.9333540
  71.3512450  58.2408450   5.2046150  73.0393960  66.1981340   6.4340110
  73.1641380  67.0212510   6.9063920  73.9059520  65.9872070   6.0864260
  60.5111490  68.2912550   6.1057240  61.2473970  67.7428010   6.3765810
  60.8952410  69.1568560   5.9663230  57.3956970  64.3586120   1.9798750
  56.4696750  64.6007260   1.9704160  57.8613400  65.1860380   1.8583500
  59.5169770  67.4758620  15.2942820  60.3182500  67.7970670  15.7078220
  59.0021590  67.1154200  16.0162730  68.3534400  63.5838490  15.2418230
  67.7472560  63.6070090  14.5013980  68.0488510  62.8521530  15.7785480
  69.7834770  67.3118780  13.8527640  70.7356520  67.2276800  13.8027880
  69.6362990  67.9760490  14.5261430  57.2367580  59.9632080  14.2378870
  57.7406600  59.3839360  14.8095100  56.4975000  60.2472310  14.7755240
  64.2905520  61.3703070  13.7714390  63.5251190  61.9388070  13.6869060
  64.4721480  61.0779280  12.8782620  71.4328870  63.1008400  14.3289410
  72.1738340  63.4384160  13.8256870  70.6701550  63.2700460  13.7759180
  59.2690660  58.1061670  15.1328940  59.3096000  57.8075540  16.0414170
  60.1236160  58.5069280  14.9736460  61.2096470  56.6853770  13.1003430
  60.6792930  56.1944720  12.4726770  61.8784540  57.1137970  12.5661360
  70.1074530  61.1523230  12.8644620  70.5215550  61.3068310  13.7135040
  69.1725530  61.2778450  13.0270400  70.5796700  58.4919390  14.8683770
  71.1617470  57.7371710  14.7804250  70.7558470  59.0226830  14.0915250
  61.6968770  53.6516140  13.1800720  61.6025640  53.0336890  12.4551590
  61.1166160  54.3782430  12.9530630  64.4630210  52.2089380  10.2128110
  64.0147510  52.2313640   9.3673660  63.8295410  51.8108400  10.8098410
  64.8689760  61.1043710  10.8340550  65.2877870  61.9476440  10.6616790
  63.9498390  61.2415750  10.6047330  67.2053660  58.8359890  12.2178390
  67.3249870  58.2401030  12.9573230  68.0647660  58.8729580  11.7979690
  69.5441560  59.3897080  10.7940900  69.0176780  59.9139700  10.1906040
  69.8872900  60.0224470  11.4250630  62.7197180  67.4096720  11.9498280
  62.1818270  68.1342780  11.6306980  62.9731140  66.9327060  11.1595620
  63.9722430  55.3781240  13.4754210  64.5622120  55.0697090  14.1632030
  63.1542670  54.9060990  13.6314110  68.7915860  54.9947050  13.7087230
  68.1031380  54.3328590  13.6437220  69.5121880  54.5485320  14.1535690
  65.5759390  68.6447930  12.2084930  65.5018090  69.5483070  12.5157300
  64.6738230  68.3259830  12.1807000  56.9786680  65.9722520   5.5118550
  57.3089690  65.1043580   5.2797190  57.4077680  66.1781040   6.3423510
  61.5748600  64.3031530   3.1720520  61.2744140  64.1796500   4.0724430
  61.4686090  63.4440120   2.7636250  57.4676890  66.8393110   8.2500180
  57.0307880  67.0193910   9.0824330  58.0354570  67.5967730   8.1081900
  73.1039070  66.3410110  12.5377490  72.5041060  66.4002670  11.7941410
  73.2332970  65.4015090  12.6674340  57.3001320  59.3513340   4.6089060
  56.6450160  59.0824980   3.9648760  58.1379270  59.2417820   4.1591040
  74.8056950  61.6825510   5.2223330  75.1765780  60.8992830   4.8159300
  75.4458880  62.3714610   5.0440630  71.7890710  63.0662090  10.6353650
  70.9750550  63.4959250  10.8979440  72.1964910  63.6780500  10.0222700
  73.7481490  59.0578770   2.5283350  73.3725090  58.2906700   2.0964640
  73.0184610  59.4401470   3.0158280  58.3377250  59.7365910   9.1492400
  58.7050290  59.6493310  10.0288420  57.7688070  58.9732460   9.0499260
  73.1381110  58.2050290  12.1622870  72.9067200  57.9763040  11.2620820
  73.3985660  59.1249840  12.1167760  57.8893250  56.6475000  13.0550820
  56.9949300  56.6141760  13.3944530  58.4290800  56.8461790  13.8202070
  71.5769180  53.4306720  14.9402570  72.4539360  53.4390120  15.3236570
  71.5890020  52.6937560  14.3294920  73.0232450  57.2836260   5.8290590
  73.5469930  56.7898910   5.1980760  73.6091870  57.4186620   6.5738160
  73.2022170  57.3676130   9.3510140  72.2524880  57.3339670   9.4655130
  73.3835180  58.2776240   9.1159910  72.5132420  56.5409610   1.7683000
  73.0091540  56.3080480   2.5531880  72.3148490  55.7021450   1.3520640
  58.3932960  50.9223330   7.4034040  59.0409150  50.3720710   6.9629200
  58.8134800  51.1766480   8.2249850  73.9419580  55.1770560   4.3020680
  73.8318860  55.0226600   5.2402950  74.7027170  54.6491500   4.0596090
  72.2885300  51.1164690  10.7603680  72.9257520  51.7298830  11.1262870
  72.4360190  51.1525350   9.8152910  71.8466760  67.8180690   4.1621920
  72.4425830  67.4965260   3.4856340  72.1044910  67.3452510   4.9535190
  58.1464960  51.0779000  10.1459360  57.7979780  51.5342820  10.9117540
  57.8152660  50.1836130  10.2281790  59.7529330  64.2498600  14.3112550
  59.7098960  63.8791510  15.1927010  59.8840340  65.1876170  14.4514370
  63.4535360  65.8058190   9.9122270  63.2126720  66.0732750   9.0252790
  64.3938000  65.9763920   9.9673130  65.6589780  52.2690880  13.6678780
  65.5978670  52.8612710  14.4174190  66.5990160  52.1616840  13.5229040
  68.2964340  51.9260940  13.3071070  68.9104750  52.2440230  12.6452150
  68.8413900  51.4409530  13.9266930  74.7139520  67.8252570  10.7132910
  74.2197800  68.2221440   9.9960040  74.1052810  67.2001780  11.1070190
  58.8185600  50.6055200  13.4210130  59.3668590  50.4243250  12.6576240
  58.8840910  49.8149310  13.9566440  59.5917360  67.1960850  11.4310330
  58.9977680  67.0645550  12.1700370  59.5841200  66.3598990  10.9652430
  69.0372380  50.4893080   9.6340360  68.1632220  50.8228190   9.4313290
  68.9283130  50.0166260  10.4592230  69.9444360  52.6963950  11.0182080
  69.6157720  51.8815710  10.6383810  70.8926660  52.6533760  10.8947770
  72.3978970  68.4675990   7.9919650  71.9381940  69.2191800   7.6177670
  71.7691430  67.7482460   7.9334450  59.2229590  64.5619230  10.3818370
  58.4963650  63.9424520  10.3144320  59.2838740  64.9559840   9.5116450
  62.8274690  66.7764230   7.1667780  63.3439710  66.1651590   6.6416040
  63.4772070  67.2793010   7.6578790  65.5670190  67.6672720   7.9936760
  65.8548000  67.4127020   7.1169770  66.0793410  67.1150080   8.5842330
  66.7847200  51.4062920   8.5733270  66.0018990  51.8808420   8.8530030
  66.4910130  50.5017750   8.4646450  71.3368270  52.1086020   6.6182360
  71.7776360  52.0531120   5.7703960  71.0675860  53.0244030   6.6892540
  73.2006840  51.7401260   4.6291180  73.1395240  50.7962480   4.4822200
  73.9798870  51.8481350   5.1744640  57.5059590  67.8793620   3.5915130
  57.3381630  67.2464300   4.2897020  56.6394100  68.0853020   3.2409320
  64.6701420  53.8249670   4.0849300  63.8575930  53.4506560   3.7445180
  65.1743060  53.0694750   4.3870490  69.1726400  50.4892120   5.3232370
  69.7755770  51.0612330   5.7980890  68.4319390  51.0531560   5.1006270
  62.6950600  51.9749590   2.6894350  62.0653340  51.2736900   2.8564480
  62.1555740  52.7353720   2.4727510  65.6342550  68.5888820  15.3604960
  66.5609860  68.3533090  15.4040920  65.6192980  69.4160820  14.8790990
  73.8687610  68.1314390   2.3579210  74.0439800  67.4452130   1.7140130
  73.1709180  68.6561440   1.9655880  62.8206160  51.2533570  15.1246840
  62.5390430  51.7567170  14.3607660  63.2025860  50.4555320  14.7588970
  69.4221620  50.6687150  15.7027310  69.3087070  50.9881760  16.5978830
  70.2391360  51.0699660  15.4064590  72.2020110  67.8158680  15.1846000
  72.9945430  67.3207910  14.9771960  72.4953260  68.4948820  15.7921610
  68.3279770  39.9136130  79.9379500  68.2473820  38.9990740  79.6671210
  67.9144190  40.4103200  79.2319210  66.4597810  41.6915150  81.8188770
  65.6839910  41.2115590  82.1087340  67.1110740  41.0120800  81.6444930
  60.4763640  42.0034960  82.6964530  59.6448520  41.7483670  83.0961040
  61.0844620  42.0745730  83.4322450  70.4805240  46.0975340  80.5987900
  70.0186770  45.3262580  80.9275070  71.2930790  46.1241410  81.1040350
  60.4564900  46.0375050  82.8922550  60.7592940  45.1472790  82.7132770
  61.2008490  46.5945270  82.6644800  58.8855590  36.9636850  76.4806920
  57.9972290  37.3052820  76.3786800  59.1696780  36.7637170  75.5887750
  56.8488600  39.5642500  82.3646620  57.4204710  38.7964700  82.3650260
  56.8490140  39.8631260  81.4553230  66.7068550  48.3833350  80.2191890
  66.0879990  48.8390850  79.6486330  67.5620330  48.5384810  79.8181590
  65.9006800  44.3672340  81.8258930  65.8315080  43.4262280  81.6648060
  66.6626660  44.4573750  82.3981500  58.0913470  34.9726860  84.1515550
  57.9116310  34.0752610  84.4318310  57.6893550  35.5198730  84.8262500
  66.9311970  37.1742720  82.0527860  67.3076790  36.3014600  81.9401530
  66.8331480  37.5101420  81.1618300  61.0616980  35.5468350  77.5145300
  61.1683730  36.4472080  77.8214060  60.1509340  35.4986320  77.2239950
  70.7136090  34.6693160  78.9856200  71.5345710  34.1789730  79.0281680
  70.7470170  35.2590820  79.7388040  58.7100140  37.4687360  82.7597890
  59.3910250  37.7325730  83.3785290  58.3948190  36.6288230  83.0935900
  62.9024710  38.5154720  81.8470480  63.4102930  39.0135690  82.4875500
  63.4337950  37.7389920  81.6709840  75.0035640  36.6859910  85.5499830
  74.2987810  37.0741620  85.0314940  75.2693560  37.3810200  86.1520760
  61.1860810  33.1553280  86.1133900  61.1879250  33.6725670  85.3079800
  60.3565120  32.6783460  86.0903830  67.5731900  43.2672590  77.6123800
  66.9549170  43.7322040  77.0486520  68.0855150  43.9600070  78.0293310
  62.4363660  42.7948460  84.2907400  62.1033040  43.4217380  84.9328470
  62.6130340  43.3210340  83.5109070  70.9497570  36.6093540  81.7583740
  70.2453140  36.8978430  82.3386850  71.3109730  37.4193650  81.3983300
  60.8676140  34.8663240  84.1204350  61.2092950  35.7105290  83.8258220
  59.9291950  35.0146980  84.2369690  61.6482760  44.7629260  86.1056580
  62.2656760  45.4380340  85.8241030  60.7875880  45.1717240  86.0144080
  56.9415100  43.9529120  74.9863430  56.5643080  44.4416220  74.2548330
  57.1988170  44.6254400  75.6169960  72.5660350  46.2268670  84.0211220
  71.8823870  46.8967780  84.0127890  73.1054640  46.4249320  83.2556080
  74.0184490  36.0548330  82.1492950  73.0709400  36.0887310  82.2808380
  74.3434480  36.8687280  82.5342310  64.5504030  32.3545510  80.4448940
  64.8579010  31.7992400  79.7284440  63.6204730  32.4889970  80.2621930
  70.1019090  48.0712800  82.7356400  70.1146250  47.6675090  81.8678660
  69.5494310  48.8460090  82.6317830  71.3964510  44.7929020  77.8246570
  71.2860840  43.8503350  77.9495990  71.3932760  45.1544660  78.7109330
  69.5004530  42.9742640  84.0639010  69.9173320  42.7602750  83.2292470
  70.2244350  43.2315430  84.6347630  66.9384790  40.4194340  77.1809060
  66.0114070  40.3531720  77.4097530  67.0909610  41.3574470  77.0664300
  66.9253870  36.6911340  74.1776220  65.9857540  36.8525300  74.2628680
  67.2437130  37.4097020  73.6312210  73.4466630  41.3729860  84.1555250
  72.6185260  41.4422950  83.6805380  74.0417110  41.9584170  83.6871080
  70.9682080  41.9814640  77.6844310  70.3494500  41.6434190  77.0370610
  70.9506530  41.3374400  78.3923500  70.4108640  38.1599180  85.1010120
  69.9979820  38.9852890  85.3550110  69.6784590  37.5744220  84.9086480
  62.5441430  40.9459080  79.9628790  62.1398430  40.2336330  79.4674690
  62.6304550  40.6012320  80.8516830  63.0123130  44.6326640  82.1268000
  62.7151420  44.0272110  81.4475780  63.9622950  44.6703950  82.0157360
  61.2570050  37.7202290  83.7427830  61.8084640  37.8297630  82.9681080
  61.7713560  38.0939890  84.4583060  71.1008740  48.2058510  85.7891100
  70.6239300  49.0130700  85.5963710  70.4170530  47.5536840  85.9417310
  69.1446780  41.2201450  74.6917060  69.5840060  40.3823880  74.5454880
  69.8575200  41.8530850  74.7781200  67.2542160  46.1597520  78.6598300
  67.6938070  46.9021850  78.2453690  67.1929050  46.4024090  79.5837260
  72.7263920  32.4744260  73.0058100  72.4136580  32.5671090  73.9057170
  73.4876390  33.0525290  72.9555530  59.2446060  39.8404060  77.4635440
  59.1243660  40.5666150  76.8516710  58.9346950  39.0706970  76.9863350
  56.8831430  43.0119200  83.2704080  56.9611850  43.1467970  82.3259800
  57.4973110  42.3035090  83.4632200  58.1279060  44.7119390  79.6810260
  57.7207140  44.8533980  78.8263860  59.0192070  44.4279550  79.4781470
  69.9212340  49.1466640  76.0161310  69.7613480  48.8569580  76.9143140
  69.7559050  48.3706770  75.4806540  62.4000720  48.9265170  77.7932930
  62.2243200  48.0100710  77.5800730  61.5456460  49.2852460  78.0330730
  69.6238470  46.6554200  74.5759310  68.9303630  46.6531490  73.9161590
  70.3661330  46.2313520  74.1453480  69.1888400  48.2816910  78.6507800
  69.6445350  47.5006290  78.9646420  69.5280920  48.9923730  79.1948980
  56.9390950  44.0533370  85.8098540  57.1021990  43.5838730  84.9917910
  57.4043400  43.5456930  86.4747380  61.7109720  33.1839130  80.8459110
  61.2677870  33.9648670  80.5143630  62.2694710  33.5069020  81.5530050
  64.8268540  32.8049830  75.7264940  64.2022720  32.8009700  76.4518250
  64.7398660  31.9380790  75.3300910  63.7485620  33.7286460  82.7048710
  64.0457950  34.6349290  82.6240730  64.2971180  33.2405240  82.0908280
  61.5023940  38.3072700  78.5740360  61.2764860  38.0909870  79.4786980
  60.7216470  38.7401160  78.2286330  68.7321700  38.3136070  77.1731010
  68.1330590  39.0371870  76.9894630  69.2801310  38.2512850  76.3907460
  67.3386570  36.9499610  79.2034290  67.7316140  37.2671810  78.3902980
  67.7003420  36.0711490  79.3178810  56.3750740  33.5400410  81.4264490
  56.0863790  34.1103270  82.1389470  57.1196500  33.0604860  81.7895720
  56.5620970  37.4820530  72.6367210  56.4795640  38.4251290  72.7782200
  56.2104030  37.3395440  71.7579560  67.9241710  39.5405360  83.2985070
  67.1922830  40.0492170  83.6475170  67.5266050  38.7235340  82.9973850
  64.3619100  36.2159560  81.7037560  64.3655160  35.7749510  80.8542100
  65.2570220  36.5376890  81.8109380  60.2121480  36.0986050  80.6631770
  59.8721530  36.5761280  81.4198820  59.4498800  35.6451170  80.3032870
  64.4239250  37.2171640  74.6944320  64.5452070  37.1758120  75.6430140
  64.0387760  38.0795790  74.5391050  68.3867620  34.9939040  82.7108010
  68.4040360  35.4447690  83.5549860  68.1383200  34.0944680  82.9241450
  63.4360750  39.5272780  74.0927620  62.8677650  39.0791030  73.4663530
  64.1449750  39.8865560  73.5592770  64.6627070  40.2761340  83.4502970
  65.0297200  39.8019910  84.1964310  64.4732130  41.1502910  83.7911310
  57.5267560  35.0205030  79.5796440  57.2414480  34.6560700  80.4175060
  57.4646420  34.2885490  78.9659580  62.4526440  39.3169980  85.7687180
  62.1483510  40.1961960  85.9937540  63.4072900  39.3769770  85.8044620
  60.9808230  43.5230970  76.3654030  60.2070490  42.9828590  76.2052750
  61.7102860  43.0037580  76.0271790  71.7396210  42.5196330  82.1580420
  72.4595330  43.0151620  81.7676530  71.5378030  41.8414220  81.5134290
  67.2006150  33.9134290  76.3009810  66.3870760  33.4147460  76.2255120
  67.0068100  34.7532540  75.8846160  69.9154540  38.2853940  74.5971970
  70.8034160  38.5971170  74.4223310  69.8859630  37.4126190  74.2052550
  61.0245630  43.1911350  80.0032840  61.5424300  42.3879610  79.9489730
  60.5729650  43.1290490  80.8449670  65.9115130  44.4577630  75.2760140
  66.2530830  45.2019860  74.7803460  65.0827840  44.7708750  75.6384970
  72.1868810  39.5965780  74.0651830  72.1032530  40.0280000  73.2148270
  72.9063000  40.0564130  74.4978650  73.2156060  46.4508040  76.7933960
  72.5732220  45.7963660  77.0677680  72.8286720  46.8563130  76.0174630
  68.7942540  43.7793470  80.6405650  69.1466360  43.1821600  79.9807020
  67.9104870  43.4537700  80.8113900  64.8805820  44.5391160  78.0476060
  65.5676950  45.0860370  78.4283650  64.0938240  45.0831890  78.0825670
  57.0198220  40.1563980  73.5393140  57.8893070  40.4388780  73.8229060
  56.5288540  40.9699850  73.4241950  64.1833030  41.5437190  77.6601420
  64.6395810  42.3542440  77.8861610  63.8321240  41.2260330  78.4919910
  66.4865640  47.0543530  84.8893720  67.1307860  47.2602910  85.5667140
  66.8495080  46.2931930  84.4364570  60.0844810  31.8874840  78.1323940
  59.9559440  31.8792740  79.0808860  59.2606830  32.2257930  77.7814950
  67.7597720  45.0575880  83.6071170  68.4019950  44.3569040  83.7203340
  68.2847070  45.8374320  83.4268060  71.6053440  45.3424500  73.3310310
  71.3791020  44.6254940  73.9234950  71.2149640  45.0936940  72.4932060
  57.3869470  49.3691360  74.1054770  57.7467110  49.9680700  73.4512040
  57.2461810  49.9151250  74.8789800  71.1869690  43.2596440  74.9924470
  70.8991390  43.7209130  75.7802350  71.9821860  42.7994210  75.2608690
  63.4038090  46.7522560  74.9228440  63.3948190  47.4852250  74.3072950
  62.4836450  46.5054140  75.0155400  59.0044730  41.9737450  75.6675200
  58.3972680  42.7136350  75.6770500  59.4794080  42.0636810  74.8413400
  68.5777520  36.1388270  85.3432090  68.9458340  35.3183480  85.6711660
  67.7175720  36.1990160  85.7587740  71.9439550  35.0945210  76.1519650
  71.3152710  35.1990880  75.4377880  71.4491470  35.3141990  76.9413530
  66.3897690  46.8150800  73.5853630  66.4909670  46.6114790  72.6555610
  65.4899430  46.5609080  73.7901410  63.9123580  37.3731160  77.5677530
  63.2039730  37.8417500  78.0091140  64.1968060  36.7153170  78.2022720
  65.5379510  38.7927860  85.5670060  66.0364760  39.2673680  86.2321910
  65.6802460  37.8691380  85.7740090  67.9439010  34.0981820  79.0073320
  67.8206790  34.1167950  78.0582830  68.8923570  34.1460760  79.1271720
  65.0315800  49.3337120  78.2801300  65.2857300  49.2958510  77.3580670
  64.0828280  49.2070450  78.2729550  62.1158600  35.6816240  74.9428240
  62.9649130  36.1186390  74.8768430  61.7489870  35.9936500  75.7700300
  72.7446370  35.0095820  86.4098450  72.2419970  35.7501220  86.7492260
  73.5603030  35.3979820  86.0935240  71.0368380  40.2529000  79.8559810
  70.0958520  40.2679230  80.0307500  71.3512450  39.4664960  80.3020110
  61.0150020  41.9348600  73.4163770  61.7813290  41.8229960  73.9789200
  61.0924710  41.2386570  72.7640540  59.7096780  39.3673670  74.0996660
  59.7900370  38.4201180  74.2114060  60.6016530  39.6980550  74.2057320
  73.0393960  47.4237850  81.5314070  73.1641380  48.2469020  82.0037880
  73.9059520  47.2128580  81.1838220  60.5111490  49.5169060  81.2031200
  61.2473970  48.9684520  81.4739770  60.8952410  50.3825070  81.0637190
  57.3956970  45.5842630  77.0772710  56.4696750  45.8263770  77.0678120
  57.8613400  46.4116890  76.9557460  63.6213800  48.6899370  73.0256770
  64.4142410  48.9788200  72.5738560  63.1018150  48.2591540  72.3469250
  72.6743970  47.9169500  74.4493510  72.3885480  47.5034640  73.6347690
  72.4763520  48.8457210  74.3294030  64.1391200  43.9102780  72.8899120
  64.0341840  43.2955130  73.6160500  63.9715420  43.3868670  72.1062130
  67.3793930  42.9722810  73.4941110  66.8304030  43.4192110  74.1383850
  68.0013190  42.4672060  74.0178780  63.0469050  41.9313730  75.3906410
  63.4685470  41.7653600  76.2337800  63.1719890  41.1213960  74.8961550
  65.5596690  40.9551340  72.6383510  66.0802350  40.2400360  72.2724660
  66.2065090  41.5937210  72.9384020  64.4630210  33.4345890  85.3102070
  64.0147510  33.4570150  84.4647620  63.8295410  33.0364910  85.9072370
  64.8689760  42.3300220  85.9314510  65.2877870  43.1732950  85.7590750
  63.9498390  42.4672260  85.7021290  69.5441560  40.6153590  85.8914860
  69.0176780  41.1396210  85.2880000  69.8872900  41.2480980  86.5224590
  61.9427950  38.0046960  72.3364570  61.7417010  37.1414320  72.6977910
  61.7720000  37.9180320  71.3986170  69.4216260  32.8155190  74.8651450
  69.7018550  31.9723090  75.2210870  68.6481990  33.0478300  75.3790200
  60.7410750  35.1047580  72.3242450  61.0436650  35.1115010  71.4161600
  61.4805340  34.7545440  72.8210110  63.9595680  34.0482200  73.3098650
  63.6117680  33.3706190  72.7301100  64.1608450  33.5871710  74.1242040
  66.1244720  49.0362950  74.9285250  67.0195510  49.3747920  74.9504010
  66.1562350  48.3142360  74.3009530  59.7640880  44.4090000  73.1572250
  60.2015750  44.9519670  73.8129830  60.2488610  43.5836950  73.1668590
  56.9786680  47.1979030  80.6092510  57.3089690  46.3300090  80.3771150
  57.4077680  47.4037550  81.4397470  61.5748600  45.5288040  78.2694480
  61.2744140  45.4053010  79.1698390  61.4686090  44.6696630  77.8610210
  57.4676890  48.0649620  83.3474140  57.0307880  48.2450420  84.1798290
  58.0354570  48.8224240  83.2055860  74.3440520  45.3084440  72.9721160
  73.5133480  45.3761090  73.4428390  74.5212350  46.1988560  72.6688020
  73.7996980  42.0531920  75.4755360  74.5615890  42.6228570  75.5815050
  73.8151350  41.4859120  76.2463670  57.3001320  40.5769850  79.7063020
  56.6450160  40.3081490  79.0622720  58.1379270  40.4674330  79.2565000
  74.8056950  42.9082020  80.3197290  75.1765780  42.1249340  79.9133260
  75.4458880  43.5971120  80.1414590  71.7890710  44.2918600  85.7327610
  70.9750550  44.7215760  85.9953400  72.1964910  44.9037010  85.1196660
  73.8516150  42.3466290  72.6327880  74.1264990  43.2545170  72.5047100
  73.6626890  42.2828820  73.5689870  70.2491760  35.3711140  73.9281510
  70.6676640  35.1842120  73.0878170  69.9427820  34.5190190  74.2384440
  73.7481490  40.2835280  77.6257310  73.3725090  39.5163210  77.1938600
  73.0184610  40.6657980  78.1132240  58.3377250  40.9622420  84.2466360
  58.7050290  40.8749820  85.1262380  57.7688070  40.1988970  84.1473220
  56.5139400  37.7868780  75.6488350  55.6103480  38.0498980  75.4740010
  56.9980020  38.0579950  74.8688310  73.0232450  38.5092770  80.9264550
  73.5469930  38.0155420  80.2954720  73.6091870  38.6443130  81.6712120
  73.2022170  38.5932640  84.4484100  72.2524880  38.5596180  84.5629090
  73.3835180  39.5032750  84.2133870  59.0566610  36.8434320  73.5582730
  59.7658310  36.4217540  73.0730010  58.3406550  36.9109550  72.9266080
  58.7040770  32.8973650  72.5985380  59.4268900  33.4382590  72.9166600
  58.9765290  32.6237070  71.7226920  72.5132420  37.7666120  76.8656960
  73.0091540  37.5336990  77.6505840  72.3148490  36.9277960  76.4494600
  58.3932960  32.1479840  82.5008000  59.0409150  31.5977220  82.0603160
  58.8134800  32.4022990  83.3223810  73.9419580  36.4027070  79.3994640
  73.8318860  36.2483110  80.3376910  74.7027170  35.8748010  79.1570050
  72.2885300  32.3421200  85.8577640  72.9257520  32.9555340  86.2236830
  72.4360190  32.3781860  84.9126870  74.8309850  34.2334990  72.6400780
  75.7559160  34.1016170  72.4319070  74.8085640  34.3127810  73.5937230
  74.9048340  35.0045650  75.2657490  74.1099840  34.9390770  75.7950400
  75.1091620  35.9396290  75.2542840  71.8466760  49.0437200  79.2595880
  72.4425830  48.7221770  78.5830300  72.1044910  48.5709020  80.0509150
  58.1464960  32.3035510  85.2433320  57.7979780  32.7599330  86.0091500
  57.8152660  31.4092640  85.3255750  63.4535360  47.0314700  85.0096230
  63.2126720  47.2989260  84.1226750  64.3938000  47.2020430  85.0647090
  74.7139520  49.0509080  85.8106870  74.2197800  49.4477950  85.0934000
  74.1052810  48.4258290  86.2044150  69.0372380  31.7149590  84.7314320
  68.1632220  32.0484700  84.5287250  68.9283130  31.2422770  85.5566190
  69.9444360  33.9220460  86.1156040  69.6157720  33.1072220  85.7357770
  70.8926660  33.8790270  85.9921730  72.3978970  49.6932500  83.0893610
  71.9381940  50.4448310  82.7151630  71.7691430  48.9738970  83.0308410
  59.2229590  45.7875740  85.4792330  58.4963650  45.1681030  85.4118280
  59.2838740  46.1816350  84.6090410  62.8274690  48.0020740  82.2641740
  63.3439710  47.3908100  81.7390000  63.4772070  48.5049520  82.7552750
  65.5670190  48.8929230  83.0910720  65.8548000  48.6383530  82.2143730
  66.0793410  48.3406590  83.6816290  66.7847200  32.6319430  83.6707230
  66.0018990  33.1064930  83.9503990  66.4910130  31.7274260  83.5620410
  71.3368270  33.3342530  81.7156320  71.7776360  33.2787630  80.8677920
  71.0675860  34.2500540  81.7866500  73.2006840  32.9657770  79.7265140
  73.1395240  32.0218990  79.5796160  73.9798870  33.0737860  80.2718600
  57.5059590  49.1050130  78.6889090  57.3381630  48.4720810  79.3870980
  56.6394100  49.3109530  78.3383280  58.1287610  32.9366910  76.1920950
  58.8866970  33.0495790  75.6184980  57.6664780  33.7736110  76.1464380
  64.6701420  35.0506180  79.1823260  63.8575930  34.6763070  78.8419140
  65.1743060  34.2951260  79.4844450  69.1726400  31.7148630  80.4206330
  69.7755770  32.2868840  80.8954850  68.4319390  32.2788070  80.1980230
  72.3161000  32.1170190  75.6946610  72.5111630  33.0153640  75.9614040
  71.5290870  31.8857270  76.1879560  59.1122290  47.7983360  76.1339230
  58.5869910  48.1791390  75.4301190  59.0366870  48.4234130  76.8548940
  60.5012760  33.4630960  74.7322920  61.0305520  32.6760760  74.6030870
  61.1341080  34.1422150  74.9658450  62.6950600  33.2006100  77.7868310
  62.0653340  32.4993410  77.9538440  62.1555740  33.9610230  77.5701470
  73.8687610  49.3570900  77.4553170  74.0439800  48.6708640  76.8114090
  73.1709180  49.8817950  77.0629840  61.7115260  49.7465740  75.0088480
  62.4434080  49.4625020  74.4612370  61.9708930  49.5079020  75.8987860
  60.8730050  45.8630470  75.0134810  60.2438930  46.3315570  75.5620640
  60.9877880  45.0179690  75.4481000  68.3279770  39.9136130  61.1636010
  68.2473820  38.9990740  60.8927720  67.9144190  40.4103200  60.4575720
  66.4597810  41.6915150  63.0445280  65.6839910  41.2115590  63.3343850
  67.1110740  41.0120800  62.8701440  60.4763640  42.0034960  63.9221040
  59.6448520  41.7483670  64.3217550  61.0844620  42.0745730  64.6578960
  70.4805240  46.0975340  61.8244410  70.0186770  45.3262580  62.1531580
  71.2930790  46.1241410  62.3296860  60.4564900  46.0375050  64.1179060
  60.7592940  45.1472790  63.9389280  61.2008490  46.5945270  63.8901310
  58.8855590  36.9636850  57.7063430  57.9972290  37.3052820  57.6043310
  59.1696780  36.7637170  56.8144260  56.8488600  39.5642500  63.5903130
  57.4204710  38.7964700  63.5906770  56.8490140  39.8631260  62.6809740
  66.7068550  48.3833350  61.4448400  66.0879990  48.8390850  60.8742840
  67.5620330  48.5384810  61.0438100  65.9006800  44.3672340  63.0515440
  65.8315080  43.4262280  62.8904570  66.6626660  44.4573750  63.6238010
  58.0913470  34.9726860  65.3772060  57.9116310  34.0752610  65.6574820
  57.6893550  35.5198730  66.0519010  66.9311970  37.1742720  63.2784370
  67.3076790  36.3014600  63.1658040  66.8331480  37.5101420  62.3874810
  61.0616980  35.5468350  58.7401810  61.1683730  36.4472080  59.0470570
  60.1509340  35.4986320  58.4496460  70.7136090  34.6693160  60.2112710
  71.5345710  34.1789730  60.2538190  70.7470170  35.2590820  60.9644550
  58.7100140  37.4687360  63.9854400  59.3910250  37.7325730  64.6041800
  58.3948190  36.6288230  64.3192410  62.9024710  38.5154720  63.0726990
  63.4102930  39.0135690  63.7132010  63.4337950  37.7389920  62.8966350
  75.0035640  36.6859910  66.7756340  74.2987810  37.0741620  66.2571450
  75.2693560  37.3810200  67.3777270  61.1860810  33.1553280  67.3390410
  61.1879250  33.6725670  66.5336310  60.3565120  32.6783460  67.3160340
  67.5731900  43.2672590  58.8380310  66.9549170  43.7322040  58.2743030
  68.0855150  43.9600070  59.2549820  62.4363660  42.7948460  65.5163910
  62.1033040  43.4217380  66.1584980  62.6130340  43.3210340  64.7365580
  70.9497570  36.6093540  62.9840250  70.2453140  36.8978430  63.5643360
  71.3109730  37.4193650  62.6239810  60.8676140  34.8663240  65.3460860
  61.2092950  35.7105290  65.0514730  59.9291950  35.0146980  65.4626200
  61.6482760  44.7629260  67.3313090  62.2656760  45.4380340  67.0497540
  60.7875880  45.1717240  67.2400590  56.9415100  43.9529120  56.2119940
  56.5643080  44.4416220  55.4804840  57.1988170  44.6254400  56.8426470
  72.5660350  46.2268670  65.2467730  71.8823870  46.8967780  65.2384400
  73.1054640  46.4249320  64.4812590  74.0184490  36.0548330  63.3749460
  73.0709400  36.0887310  63.5064890  74.3434480  36.8687280  63.7598820
  64.5504030  32.3545510  61.6705450  64.8579010  31.7992400  60.9540950
  63.6204730  32.4889970  61.4878440  70.1019090  48.0712800  63.9612910
  70.1146250  47.6675090  63.0935170  69.5494310  48.8460090  63.8574340
  71.3964510  44.7929020  59.0503080  71.2860840  43.8503350  59.1752500
  71.3932760  45.1544660  59.9365840  69.5004530  42.9742640  65.2895520
  69.9173320  42.7602750  64.4548980  70.2244350  43.2315430  65.8604140
  66.9384790  40.4194340  58.4065570  66.0114070  40.3531720  58.6354040
  67.0909610  41.3574470  58.2920810  66.9253870  36.6911340  55.4032730
  65.9857540  36.8525300  55.4885190  67.2437130  37.4097020  54.8568720
  73.4466630  41.3729860  65.3811760  72.6185260  41.4422950  64.9061890
  74.0417110  41.9584170  64.9127590  70.9682080  41.9814640  58.9100820
  70.3494500  41.6434190  58.2627120  70.9506530  41.3374400  59.6180010
  70.4108640  38.1599180  66.3266630  69.9979820  38.9852890  66.5806620
  69.6784590  37.5744220  66.1342990  62.5441430  40.9459080  61.1885300
  62.1398430  40.2336330  60.6931200  62.6304550  40.6012320  62.0773340
  63.0123130  44.6326640  63.3524510  62.7151420  44.0272110  62.6732290
  63.9622950  44.6703950  63.2413870  61.2570050  37.7202290  64.9684340
  61.8084640  37.8297630  64.1937590  61.7713560  38.0939890  65.6839570
  71.1008740  48.2058510  67.0147610  70.6239300  49.0130700  66.8220220
  70.4170530  47.5536840  67.1673820  62.1041560  44.3708330  70.0032310
  61.2070090  44.5948300  70.2505710  62.1294430  44.4943270  69.0543710
  69.1446780  41.2201450  55.9173570  69.5840060  40.3823880  55.7711390
  69.8575200  41.8530850  56.0037710  60.9312780  41.2421650  68.5789680
  60.7920550  42.1144450  68.9477080  60.0494140  40.8994460  68.4337620
  67.2542160  46.1597520  59.8854810  67.6938070  46.9021850  59.4710200
  67.1929050  46.4024090  60.8093770  62.7293130  47.1843350  70.7874830
  62.7008560  47.5886300  69.9203260  62.5658100  46.2553710  70.6246430
  72.7263920  32.4744260  54.2314610  72.4136580  32.5671090  55.1313680
  73.4876390  33.0525290  54.1812040  59.2446060  39.8404060  58.6891950
  59.1243660  40.5666150  58.0773220  58.9346950  39.0706970  58.2119860
  74.6807950  47.9670450  72.0839000  75.1567670  48.4453340  72.7628080
  75.3015110  47.8987940  71.3584500  56.8831430  43.0119200  64.4960590
  56.9611850  43.1467970  63.5516310  57.4973110  42.3035090  64.6888710
  58.1279060  44.7119390  60.9066770  57.7207140  44.8533980  60.0520370
  59.0192070  44.4279550  60.7037980  74.0841200  45.1583300  69.2439010
  74.2104260  44.9195180  68.3256190  74.1262580  44.3267840  69.7161090
  67.9457940  48.8611300  67.8133820  68.4602610  48.7719310  68.6156250
  67.1027020  49.2071000  68.1061730  69.9212340  49.1466640  57.2417820
  69.7613480  48.8569580  58.1399650  69.7559050  48.3706770  56.7063050
  62.4000720  48.9265170  59.0189440  62.2243200  48.0100710  58.8057240
  61.5456460  49.2852460  59.2587240  69.6238470  46.6554200  55.8015820
  68.9303630  46.6531490  55.1418100  70.3661330  46.2313520  55.3709990
  69.1888400  48.2816910  59.8764310  69.6445350  47.5006290  60.1902930
  69.5280920  48.9923730  60.4205490  73.9365210  37.2115760  70.2088750
  73.3209480  37.7195430  69.6804210  73.6161630  36.3114090  70.1514690
  56.9390950  44.0533370  67.0355050  57.1021990  43.5838730  66.2174420
  57.4043400  43.5456930  67.7003890  61.7109720  33.1839130  62.0715620
  61.2677870  33.9648670  61.7400140  62.2694710  33.5069020  62.7786560
  65.9979530  36.0507650  67.6750940  65.5358900  36.2590670  68.4870880
  65.5957640  35.2367000  67.3721610  70.9984040  37.2716600  68.8047600
  70.1477630  36.9722350  69.1256670  70.8385830  37.5158610  67.8931420
  68.0933750  38.7718350  70.9046390  68.4187160  37.9382100  70.5648620
  68.8814080  39.2946870  71.0524720  64.8268540  32.8049830  56.9521450
  64.2022720  32.8009700  57.6774760  64.7398660  31.9380790  56.5557420
  63.7485620  33.7286460  63.9305220  64.0457950  34.6349290  63.8497240
  64.2971180  33.2405240  63.3164790  61.5023940  38.3072700  59.7996870
  61.2764860  38.0909870  60.7043490  60.7216470  38.7401160  59.4542840
  68.7321700  38.3136070  58.3987520  68.1330590  39.0371870  58.2151140
  69.2801310  38.2512850  57.6163970  63.9423150  39.2058280  70.4657140
  63.8466750  38.2653010  70.3157540  64.7855130  39.4273350  70.0705210
  67.3386570  36.9499610  60.4290800  67.7316140  37.2671810  59.6159490
  67.7003420  36.0711490  60.5435320  59.0733690  35.6171950  68.6190920
  58.6797080  36.4647160  68.8263700  58.3852090  34.9798320  68.8099560
  65.6478740  35.7006920  71.6887660  64.9577060  35.5079120  72.3233750
  66.3911040  35.9841560  72.2211960  56.3750740  33.5400410  62.6521000
  56.0863790  34.1103270  63.3645980  57.1196500  33.0604860  63.0152230
  56.5620970  37.4820530  53.8623720  56.4795640  38.4251290  54.0038710
  56.2104030  37.3395440  52.9836070  67.9241710  39.5405360  64.5241580
  67.1922830  40.0492170  64.8731680  67.5266050  38.7235340  64.2230360
  64.3619100  36.2159560  62.9294070  64.3655160  35.7749510  62.0798610
  65.2570220  36.5376890  63.0365890  60.2121480  36.0986050  61.8888280
  59.8721530  36.5761280  62.6455330  59.4498800  35.6451170  61.5289380
  64.4239250  37.2171640  55.9200830  64.5452070  37.1758120  56.8686650
  64.0387760  38.0795790  55.7647560  68.3867620  34.9939040  63.9364520
  68.4040360  35.4447690  64.7806370  68.1383200  34.0944680  64.1497960
  63.4360750  39.5272780  55.3184130  62.8677650  39.0791030  54.6920040
  64.1449750  39.8865560  54.7849280  71.8138370  32.4071220  69.7750900
  72.1384140  31.6760880  70.3008880  71.8494880  32.0884860  68.8731890
  58.5129930  43.4284800  69.1950860  58.1284720  42.7878470  69.7933820
  58.8242120  44.1320920  69.7645590  64.6627070  40.2761340  64.6759480
  65.0297200  39.8019910  65.4220820  64.4732130  41.1502910  65.0167820
  57.5267560  35.0205030  60.8052950  57.2414480  34.6560700  61.6431570
  57.4646420  34.2885490  60.1916090  62.4526440  39.3169980  66.9943690
  62.1483510  40.1961960  67.2194050  63.4072900  39.3769770  67.0301130
  60.9808230  43.5230970  57.5910540  60.2070490  42.9828590  57.4309260
  61.7102860  43.0037580  57.2528300  71.7396210  42.5196330  63.3836930
  72.4595330  43.0151620  62.9933040  71.5378030  41.8414220  62.7390800
  67.2006150  33.9134290  57.5266320  66.3870760  33.4147460  57.4511630
  67.0068100  34.7532540  57.1102670  67.1215010  42.5905390  69.2705930
  67.0552320  41.6701060  69.0163520  66.4920150  42.6880830  69.9850570
  69.9154540  38.2853940  55.8228480  70.8034160  38.5971170  55.6479820
  69.8859630  37.4126190  55.4309060  61.0245630  43.1911350  61.2289350
  61.5424300  42.3879610  61.1746240  60.5729650  43.1290490  62.0706180
  65.9115130  44.4577630  56.5016650  66.2530830  45.2019860  56.0059970
  65.0827840  44.7708750  56.8641480  58.5090170  40.1572720  68.1415050
  58.1505110  40.8226570  68.7288390  58.2144730  39.3256270  68.5127670
  61.7103290  40.6156960  71.0254600  61.4103430  40.7614140  70.1282420
  62.4814530  40.0562250  70.9327990  67.0531740  45.4125960  69.0209730
  67.0676280  44.4806920  68.8028640  66.3456840  45.4985720  69.6599500
  72.1868810  39.5965780  55.2908340  72.1032530  40.0280000  54.4404780
  72.9063000  40.0564130  55.7235160  73.2642950  42.0533300  68.3678310
  72.5391140  42.6462080  68.1707700  73.7918410  42.0456840  67.5691680
  73.2156060  46.4508040  58.0190470  72.5732220  45.7963660  58.2934190
  72.8286720  46.8563130  57.2431140  68.7942540  43.7793470  61.8662160
  69.1466360  43.1821600  61.2063530  67.9104870  43.4537700  62.0370410
  64.8805820  44.5391160  59.2732570  65.5676950  45.0860370  59.6540160
  64.0938240  45.0831890  59.3082180  57.0198220  40.1563980  54.7649650
  57.8893070  40.4388780  55.0485570  56.5288540  40.9699850  54.6498460
  64.1833030  41.5437190  58.8857930  64.6395810  42.3542440  59.1118120
  63.8321240  41.2260330  59.7176420  66.4865640  47.0543530  66.1150230
  67.1307860  47.2602910  66.7923650  66.8495080  46.2931930  65.6621080
  60.0844810  31.8874840  59.3580450  59.9559440  31.8792740  60.3065370
  59.2606830  32.2257930  59.0071460  67.7597720  45.0575880  64.8327680
  68.4019950  44.3569040  64.9459850  68.2847070  45.8374320  64.6524570
  71.6053440  45.3424500  54.5566820  71.3791020  44.6254940  55.1491460
  71.2149640  45.0936940  53.7188570  69.5335340  45.8570780  68.0363740
  69.8691580  46.4437470  68.7141660  68.6135680  45.7263490  68.2661530
  57.3869470  49.3691360  55.3311280  57.7467110  49.9680700  54.6768550
  57.2461810  49.9151250  56.1046310  57.0838740  33.6465960  68.8187150
  56.3697260  33.8462880  69.4239760  57.5033780  32.8705530  69.1901950
  71.1869690  43.2596440  56.2180980  70.8991390  43.7209130  57.0058860
  71.9821860  42.7994210  56.4865200  57.3711330  47.6346220  69.8053680
  57.4802450  46.6940960  69.6649070  56.7191890  47.9000970  69.1567410
  65.3623920  45.9062110  71.2051800  65.0420790  45.1871350  71.7497490
  64.6882280  46.5817180  71.2787860  63.4038090  46.7522560  56.1484950
  63.3948190  47.4852250  55.5329460  62.4836450  46.5054140  56.2411910
  59.0044730  41.9737450  56.8931710  58.3972680  42.7136350  56.9027010
  59.4794080  42.0636810  56.0669910  68.5777520  36.1388270  66.5688600
  68.9458340  35.3183480  66.8968170  67.7175720  36.1990160  66.9844250
  71.9439550  35.0945210  57.3776160  71.3152710  35.1990880  56.6634390
  71.4491470  35.3141990  58.1670040  66.3897690  46.8150800  54.8110140
  66.4909670  46.6114790  53.8812120  65.4899430  46.5609080  55.0157920
  63.9123580  37.3731160  58.7934040  63.2039730  37.8417500  59.2347650
  64.1968060  36.7153170  59.4279230  65.5379510  38.7927860  66.7926570
  66.0364760  39.2673680  67.4578420  65.6802460  37.8691380  66.9996600
  67.9439010  34.0981820  60.2329830  67.8206790  34.1167950  59.2839340
  68.8923570  34.1460760  60.3528230  65.0315800  49.3337120  59.5057810
  65.2857300  49.2958510  58.5837180  64.0828280  49.2070450  59.4986060
  62.1158600  35.6816240  56.1684750  62.9649130  36.1186390  56.1024940
  61.7489870  35.9936500  56.9956810  72.7446370  35.0095820  67.6354960
  72.2419970  35.7501220  67.9748770  73.5603030  35.3979820  67.3191750
  71.0368380  40.2529000  61.0816320  70.0958520  40.2679230  61.2564010
  71.3512450  39.4664960  61.5276620  61.0150020  41.9348600  54.6420280
  61.7813290  41.8229960  55.2045710  61.0924710  41.2386570  53.9897050
  59.7096780  39.3673670  55.3253170  59.7900370  38.4201180  55.4370570
  60.6016530  39.6980550  55.4313830  73.0393960  47.4237850  62.7570580
  73.1641380  48.2469020  63.2294390  73.9059520  47.2128580  62.4094730
  60.5111490  49.5169060  62.4287710  61.2473970  48.9684520  62.6996280
  60.8952410  50.3825070  62.2893700  57.3956970  45.5842630  58.3029220
  56.4696750  45.8263770  58.2934630  57.8613400  46.4116890  58.1813970
  59.5169770  48.7015130  71.6173290  60.3182500  49.0227180  72.0308690
  59.0021590  48.3410710  72.3393200  63.6213800  48.6899370  54.2513280
  64.4142410  48.9788200  53.7995070  63.1018150  48.2591540  53.5725760
  68.3534400  44.8095000  71.5648700  67.7472560  44.8326600  70.8244450
  68.0488510  44.0778040  72.1015950  69.7834770  48.5375290  70.1758110
  70.7356520  48.4533310  70.1258350  69.6362990  49.2017000  70.8491900
  72.6743970  47.9169500  55.6750020  72.3885480  47.5034640  54.8604200
  72.4763520  48.8457210  55.5550540  57.2367580  41.1888590  70.5609340
  57.7406600  40.6095870  71.1325570  56.4975000  41.4728820  71.0985710
  64.1391200  43.9102780  54.1155630  64.0341840  43.2955130  54.8417010
  63.9715420  43.3868670  53.3318640  64.2905520  42.5959580  70.0944860
  63.5251190  43.1644580  70.0099530  64.4721480  42.3035790  69.2013090
  67.3793930  42.9722810  54.7197620  66.8304030  43.4192110  55.3640360
  68.0013190  42.4672060  55.2435290  71.4328870  44.3264910  70.6519880
  72.1738340  44.6640670  70.1487340  70.6701550  44.4956970  70.0989650
  59.2690660  39.3318180  71.4559410  59.3096000  39.0332050  72.3644640
  60.1236160  39.7325790  71.2966930  63.0469050  41.9313730  56.6162920
  63.4685470  41.7653600  57.4594310  63.1719890  41.1213960  56.1218060
  61.2096470  37.9110280  69.4233900  60.6792930  37.4201230  68.7957240
  61.8784540  38.3394480  68.8891830  65.5596690  40.9551340  53.8640020
  66.0802350  40.2400360  53.4981170  66.2065090  41.5937210  54.1640530
  70.1074530  42.3779740  69.1875090  70.5215550  42.5324820  70.0365510
  69.1725530  42.5034960  69.3500870  70.5796700  39.7175900  71.1914240
  71.1617470  38.9628220  71.1034720  70.7558470  40.2483340  70.4145720
  61.6968770  34.8772650  69.5031190  61.6025640  34.2593400  68.7782060
  61.1166160  35.6038940  69.2761100  64.4630210  33.4345890  66.5358580
  64.0147510  33.4570150  65.6904130  63.8295410  33.0364910  67.1328880
  64.8689760  42.3300220  67.1571020  65.2877870  43.1732950  66.9847260
  63.9498390  42.4672260  66.9277800  67.2053660  40.0616400  68.5408860
  67.3249870  39.4657540  69.2803700  68.0647660  40.0986090  68.1210160
  69.5441560  40.6153590  67.1171370  69.0176780  41.1396210  66.5136510
  69.8872900  41.2480980  67.7481100  61.9427950  38.0046960  53.5621080
  61.7417010  37.1414320  53.9234420  61.7720000  37.9180320  52.6242680
  62.7197180  48.6353230  68.2728750  62.1818270  49.3599290  67.9537450
  62.9731140  48.1583570  67.4826090  63.9722430  36.6037750  69.7984680
  64.5622120  36.2953600  70.4862500  63.1542670  36.1317500  69.9544580
  68.7915860  36.2203560  70.0317700  68.1031380  35.5585100  69.9667690
  69.5121880  35.7741830  70.4766160  69.4216260  32.8155190  56.0907960
  69.7018550  31.9723090  56.4467380  68.6481990  33.0478300  56.6046710
  60.7410750  35.1047580  53.5498960  61.0436650  35.1115010  52.6418110
  61.4805340  34.7545440  54.0466620  65.5759390  49.8704440  68.5315400
  65.5018090  50.7739580  68.8387770  64.6738230  49.5516340  68.5037470
  63.9595680  34.0482200  54.5355160  63.6117680  33.3706190  53.9557610
  64.1608450  33.5871710  55.3498550  66.1244720  49.0362950  56.1541760
  67.0195510  49.3747920  56.1760520  66.1562350  48.3142360  55.5266040
  59.7640880  44.4090000  54.3828760  60.2015750  44.9519670  55.0386340
  60.2488610  43.5836950  54.3925100  56.9786680  47.1979030  61.8349020
  57.3089690  46.3300090  61.6027660  57.4077680  47.4037550  62.6653980
  61.5748600  45.5288040  59.4950990  61.2744140  45.4053010  60.3954900
  61.4686090  44.6696630  59.0866720  57.4676890  48.0649620  64.5730650
  57.0307880  48.2450420  65.4054800  58.0354570  48.8224240  64.4312370
  73.1039070  47.5666620  68.8607960  72.5041060  47.6259180  68.1171880
  73.2332970  46.6271600  68.9904810  74.3440520  45.3084440  54.1977670
  73.5133480  45.3761090  54.6684900  74.5212350  46.1988560  53.8944530
  73.7996980  42.0531920  56.7011870  74.5615890  42.6228570  56.8071560
  73.8151350  41.4859120  57.4720180  57.3001320  40.5769850  60.9319530
  56.6450160  40.3081490  60.2879230  58.1379270  40.4674330  60.4821510
  74.8056950  42.9082020  61.5453800  75.1765780  42.1249340  61.1389770
  75.4458880  43.5971120  61.3671100  71.7890710  44.2918600  66.9584120
  70.9750550  44.7215760  67.2209910  72.1964910  44.9037010  66.3453170
  73.8516150  42.3466290  53.8584390  74.1264990  43.2545170  53.7303610
  73.6626890  42.2828820  54.7946380  70.2491760  35.3711140  55.1538020
  70.6676640  35.1842120  54.3134680  69.9427820  34.5190190  55.4640950
  73.7481490  40.2835280  58.8513820  73.3725090  39.5163210  58.4195110
  73.0184610  40.6657980  59.3388750  58.3377250  40.9622420  65.4722870
  58.7050290  40.8749820  66.3518890  57.7688070  40.1988970  65.3729730
  73.1381110  39.4306800  68.4853340  72.9067200  39.2019550  67.5851290
  73.3985660  40.3506350  68.4398230  57.8893250  37.8731510  69.3781290
  56.9949300  37.8398270  69.7175000  58.4290800  38.0718300  70.1432540
  71.5769180  34.6563230  71.2633040  72.4539360  34.6646630  71.6467040
  71.5890020  33.9194070  70.6525390  56.5139400  37.7868780  56.8744860
  55.6103480  38.0498980  56.6996520  56.9980020  38.0579950  56.0944820
  73.0232450  38.5092770  62.1521060  73.5469930  38.0155420  61.5211230
  73.6091870  38.6443130  62.8968630  73.2022170  38.5932640  65.6740610
  72.2524880  38.5596180  65.7885600  73.3835180  39.5032750  65.4390380
  59.0566610  36.8434320  54.7839240  59.7658310  36.4217540  54.2986520
  58.3406550  36.9109550  54.1522590  58.7040770  32.8973650  53.8241890
  59.4268900  33.4382590  54.1423110  58.9765290  32.6237070  52.9483430
  72.5132420  37.7666120  58.0913470  73.0091540  37.5336990  58.8762350
  72.3148490  36.9277960  57.6751110  58.3932960  32.1479840  63.7264510
  59.0409150  31.5977220  63.2859670  58.8134800  32.4022990  64.5480320
  73.9419580  36.4027070  60.6251150  73.8318860  36.2483110  61.5633420
  74.7027170  35.8748010  60.3826560  72.2885300  32.3421200  67.0834150
  72.9257520  32.9555340  67.4493340  72.4360190  32.3781860  66.1383380
  74.8309850  34.2334990  53.8657290  75.7559160  34.1016170  53.6575580
  74.8085640  34.3127810  54.8193740  74.9048340  35.0045650  56.4914000
  74.1099840  34.9390770  57.0206910  75.1091620  35.9396290  56.4799350
  71.8466760  49.0437200  60.4852390  72.4425830  48.7221770  59.8086810
  72.1044910  48.5709020  61.2765660  58.1464960  32.3035510  66.4689830
  57.7979780  32.7599330  67.2348010  57.8152660  31.4092640  66.5512260
  59.7529330  45.4755110  70.6343020  59.7098960  45.1048020  71.5157480
  59.8840340  46.4132680  70.7744840  63.4535360  47.0314700  66.2352740
  63.2126720  47.2989260  65.3483260  64.3938000  47.2020430  66.2903600
  65.6589780  33.4947390  69.9909250  65.5978670  34.0869220  70.7404660
  66.5990160  33.3873350  69.8459510  68.2964340  33.1517450  69.6301540
  68.9104750  33.4696740  68.9682620  68.8413900  32.6666040  70.2497400
  74.7139520  49.0509080  67.0363380  74.2197800  49.4477950  66.3190510
  74.1052810  48.4258290  67.4300660  58.8185600  31.8311710  69.7440600
  59.3668590  31.6499760  68.9806710  58.8840910  31.0405820  70.2796910
  59.5917360  48.4217360  67.7540800  58.9977680  48.2902060  68.4930840
  59.5841200  47.5855500  67.2882900  69.0372380  31.7149590  65.9570830
  68.1632220  32.0484700  65.7543760  68.9283130  31.2422770  66.7822700
  69.9444360  33.9220460  67.3412550  69.6157720  33.1072220  66.9614280
  70.8926660  33.8790270  67.2178240  72.3978970  49.6932500  64.3150120
  71.9381940  50.4448310  63.9408140  71.7691430  48.9738970  64.2564920
  59.2229590  45.7875740  66.7048840  58.4963650  45.1681030  66.6374790
  59.2838740  46.1816350  65.8346920  62.8274690  48.0020740  63.4898250
  63.3439710  47.3908100  62.9646510  63.4772070  48.5049520  63.9809260
  65.5670190  48.8929230  64.3167230  65.8548000  48.6383530  63.4400240
  66.0793410  48.3406590  64.9072800  66.7847200  32.6319430  64.8963740
  66.0018990  33.1064930  65.1760500  66.4910130  31.7274260  64.7876920
  71.3368270  33.3342530  62.9412830  71.7776360  33.2787630  62.0934430
  71.0675860  34.2500540  63.0123010  73.2006840  32.9657770  60.9521650
  73.1395240  32.0218990  60.8052670  73.9798870  33.0737860  61.4975110
  57.5059590  49.1050130  59.9145600  57.3381630  48.4720810  60.6127490
  56.6394100  49.3109530  59.5639790  58.1287610  32.9366910  57.4177460
  58.8866970  33.0495790  56.8441490  57.6664780  33.7736110  57.3720890
  64.6701420  35.0506180  60.4079770  63.8575930  34.6763070  60.0675650
  65.1743060  34.2951260  60.7100960  69.1726400  31.7148630  61.6462840
  69.7755770  32.2868840  62.1211360  68.4319390  32.2788070  61.4236740
  72.3161000  32.1170190  56.9203120  72.5111630  33.0153640  57.1870550
  71.5290870  31.8857270  57.4136070  59.1122290  47.7983360  57.3595740
  58.5869910  48.1791390  56.6557700  59.0366870  48.4234130  58.0805450
  60.5012760  33.4630960  55.9579430  61.0305520  32.6760760  55.8287380
  61.1341080  34.1422150  56.1914960  62.6950600  33.2006100  59.0124820
  62.0653340  32.4993410  59.1794950  62.1555740  33.9610230  58.7957980
  65.6342550  49.8145330  71.6835430  66.5609860  49.5789600  71.7271390
  65.6192980  50.6417330  71.2021460  73.8687610  49.3570900  58.6809680
  74.0439800  48.6708640  58.0370600  73.1709180  49.8817950  58.2886350
  62.8206160  32.4790080  71.4477310  62.5390430  32.9823680  70.6838130
  63.2025860  31.6811830  71.0819440  61.7115260  49.7465740  56.2344990
  62.4434080  49.4625020  55.6868880  61.9708930  49.5079020  57.1244370
  60.8730050  45.8630470  56.2391320  60.2438930  46.3315570  56.7877150
  60.9877880  45.0179690  56.6737510  69.4221620  31.8943660  72.0257780
  69.3087070  32.2138270  72.9209300  70.2391360  32.2956170  71.7295060
  72.2020110  49.0415190  71.5076470  72.9945430  48.5464420  71.3002430
  72.4953260  49.7205330  72.1152080  68.3279770  39.9136130  42.3892520
  68.2473820  38.9990740  42.1184230  67.9144190  40.4103200  41.6832230
  66.4597810  41.6915150  44.2701790  65.6839910  41.2115590  44.5600360
  67.1110740  41.0120800  44.0957950  60.4763640  42.0034960  45.1477550
  59.6448520  41.7483670  45.5474060  61.0844620  42.0745730  45.8835470
  70.4805240  46.0975340  43.0500920  70.0186770  45.3262580  43.3788090
  71.2930790  46.1241410  43.5553370  60.4564900  46.0375050  45.3435570
  60.7592940  45.1472790  45.1645790  61.2008490  46.5945270  45.1157820
  58.8855590  36.9636850  38.9319940  57.9972290  37.3052820  38.8299820
  59.1696780  36.7637170  38.0400770  56.8488600  39.5642500  44.8159640
  57.4204710  38.7964700  44.8163280  56.8490140  39.8631260  43.9066250
  66.7068550  48.3833350  42.6704910  66.0879990  48.8390850  42.0999350
  67.5620330  48.5384810  42.2694610  65.9006800  44.3672340  44.2771950
  65.8315080  43.4262280  44.1161080  66.6626660  44.4573750  44.8494520
  58.0913470  34.9726860  46.6028570  57.9116310  34.0752610  46.8831330
  57.6893550  35.5198730  47.2775520  66.9311970  37.1742720  44.5040880
  67.3076790  36.3014600  44.3914550  66.8331480  37.5101420  43.6131320
  61.0616980  35.5468350  39.9658320  61.1683730  36.4472080  40.2727080
  60.1509340  35.4986320  39.6752970  70.7136090  34.6693160  41.4369220
  71.5345710  34.1789730  41.4794700  70.7470170  35.2590820  42.1901060
  58.7100140  37.4687360  45.2110910  59.3910250  37.7325730  45.8298310
  58.3948190  36.6288230  45.5448920  62.9024710  38.5154720  44.2983500
  63.4102930  39.0135690  44.9388520  63.4337950  37.7389920  44.1222860
  75.0035640  36.6859910  48.0012850  74.2987810  37.0741620  47.4827960
  75.2693560  37.3810200  48.6033780  61.1860810  33.1553280  48.5646920
  61.1879250  33.6725670  47.7592820  60.3565120  32.6783460  48.5416850
  67.5731900  43.2672590  40.0636820  66.9549170  43.7322040  39.4999540
  68.0855150  43.9600070  40.4806330  62.4363660  42.7948460  46.7420420
  62.1033040  43.4217380  47.3841490  62.6130340  43.3210340  45.9622090
  70.9497570  36.6093540  44.2096760  70.2453140  36.8978430  44.7899870
  71.3109730  37.4193650  43.8496320  60.8676140  34.8663240  46.5717370
  61.2092950  35.7105290  46.2771240  59.9291950  35.0146980  46.6882710
  61.6482760  44.7629260  48.5569600  62.2656760  45.4380340  48.2754050
  60.7875880  45.1717240  48.4657100  56.9415100  43.9529120  37.4376450
  56.5643080  44.4416220  36.7061350  57.1988170  44.6254400  38.0682980
  72.5660350  46.2268670  46.4724240  71.8823870  46.8967780  46.4640910
  73.1054640  46.4249320  45.7069100  74.0184490  36.0548330  44.6005970
  73.0709400  36.0887310  44.7321400  74.3434480  36.8687280  44.9855330
  64.5504030  32.3545510  42.8961960  64.8579010  31.7992400  42.1797460
  63.6204730  32.4889970  42.7134950  70.1019090  48.0712800  45.1869420
  70.1146250  47.6675090  44.3191680  69.5494310  48.8460090  45.0830850
  71.3964510  44.7929020  40.2759590  71.2860840  43.8503350  40.4009010
  71.3932760  45.1544660  41.1622350  69.5004530  42.9742640  46.5152030
  69.9173320  42.7602750  45.6805490  70.2244350  43.2315430  47.0860650
  66.9384790  40.4194340  39.6322080  66.0114070  40.3531720  39.8610550
  67.0909610  41.3574470  39.5177320  66.9253870  36.6911340  36.6289240
  65.9857540  36.8525300  36.7141700  67.2437130  37.4097020  36.0825230
  73.4466630  41.3729860  46.6068270  72.6185260  41.4422950  46.1318400
  74.0417110  41.9584170  46.1384100  70.9682080  41.9814640  40.1357330
  70.3494500  41.6434190  39.4883630  70.9506530  41.3374400  40.8436520
  70.4108640  38.1599180  47.5523140  69.9979820  38.9852890  47.8063130
  69.6784590  37.5744220  47.3599500  62.5441430  40.9459080  42.4141810
  62.1398430  40.2336330  41.9187710  62.6304550  40.6012320  43.3029850
  63.0123130  44.6326640  44.5781020  62.7151420  44.0272110  43.8988800
  63.9622950  44.6703950  44.4670380  61.2570050  37.7202290  46.1940850
  61.8084640  37.8297630  45.4194100  61.7713560  38.0939890  46.9096080
  71.1008740  48.2058510  48.2404120  70.6239300  49.0130700  48.0476730
  70.4170530  47.5536840  48.3930330  62.1041560  44.3708330  51.2288820
  61.2070090  44.5948300  51.4762220  62.1294430  44.4943270  50.2800220
  69.1446780  41.2201450  37.1430080  69.5840060  40.3823880  36.9967900
  69.8575200  41.8530850  37.2294220  60.9312780  41.2421650  49.8046190
  60.7920550  42.1144450  50.1733590  60.0494140  40.8994460  49.6594130
  67.2542160  46.1597520  41.1111320  67.6938070  46.9021850  40.6966710
  67.1929050  46.4024090  42.0350280  62.7293130  47.1843350  52.0131340
  62.7008560  47.5886300  51.1459770  62.5658100  46.2553710  51.8502940
  72.7263920  32.4744260  35.4571120  72.4136580  32.5671090  36.3570190
  73.4876390  33.0525290  35.4068550  59.2446060  39.8404060  39.9148460
  59.1243660  40.5666150  39.3029730  58.9346950  39.0706970  39.4376370
  74.6807950  47.9670450  53.3095510  75.1567670  48.4453340  53.9884590
  75.3015110  47.8987940  52.5841010  56.8831430  43.0119200  45.7217100
  56.9611850  43.1467970  44.7772820  57.4973110  42.3035090  45.9145220
  58.1279060  44.7119390  42.1323280  57.7207140  44.8533980  41.2776880
  59.0192070  44.4279550  41.9294490  74.0841200  45.1583300  50.4695520
  74.2104260  44.9195180  49.5512700  74.1262580  44.3267840  50.9417600
  67.9457940  48.8611300  49.0390330  68.4602610  48.7719310  49.8412760
  67.1027020  49.2071000  49.3318240  69.9212340  49.1466640  38.4674330
  69.7613480  48.8569580  39.3656160  69.7559050  48.3706770  37.9319560
  62.4000720  48.9265170  40.2445950  62.2243200  48.0100710  40.0313750
  61.5456460  49.2852460  40.4843750  69.6238470  46.6554200  37.0272330
  68.9303630  46.6531490  36.3674610  70.3661330  46.2313520  36.5966500
  69.1888400  48.2816910  41.1020820  69.6445350  47.5006290  41.4159440
  69.5280920  48.9923730  41.6462000  73.9365210  37.2115760  51.4345260
  73.3209480  37.7195430  50.9060720  73.6161630  36.3114090  51.3771200
  56.9390950  44.0533370  48.2611560  57.1021990  43.5838730  47.4430930
  57.4043400  43.5456930  48.9260400  61.7109720  33.1839130  43.2972130
  61.2677870  33.9648670  42.9656650  62.2694710  33.5069020  44.0043070
  65.9979530  36.0507650  48.9007450  65.5358900  36.2590670  49.7127390
  65.5957640  35.2367000  48.5978120  70.9984040  37.2716600  50.0304110
  70.1477630  36.9722350  50.3513180  70.8385830  37.5158610  49.1187930
  68.0933750  38.7718350  52.1302900  68.4187160  37.9382100  51.7905130
  68.8814080  39.2946870  52.2781230  64.8268540  32.8049830  38.1777960
  64.2022720  32.8009700  38.9031270  64.7398660  31.9380790  37.7813930
  63.7485620  33.7286460  45.1561730  64.0457950  34.6349290  45.0753750
  64.2971180  33.2405240  44.5421300  61.5023940  38.3072700  41.0253380
  61.2764860  38.0909870  41.9300000  60.7216470  38.7401160  40.6799350
  68.7321700  38.3136070  39.6244030  68.1330590  39.0371870  39.4407650
  69.2801310  38.2512850  38.8420480  63.9423150  39.2058280  51.6913650
  63.8466750  38.2653010  51.5414050  64.7855130  39.4273350  51.2961720
  67.3386570  36.9499610  41.6547310  67.7316140  37.2671810  40.8416000
  67.7003420  36.0711490  41.7691830  59.0733690  35.6171950  49.8447430
  58.6797080  36.4647160  50.0520210  58.3852090  34.9798320  50.0356070
  65.6478740  35.7006920  52.9144170  64.9577060  35.5079120  53.5490260
  66.3911040  35.9841560  53.4468470  56.3750740  33.5400410  43.8777510
  56.0863790  34.1103270  44.5902490  57.1196500  33.0604860  44.2408740
  56.5620970  37.4820530  35.0880230  56.4795640  38.4251290  35.2295220
  56.2104030  37.3395440  34.2092580  67.9241710  39.5405360  45.7498090
  67.1922830  40.0492170  46.0988190  67.5266050  38.7235340  45.4486870
  64.3619100  36.2159560  44.1550580  64.3655160  35.7749510  43.3055120
  65.2570220  36.5376890  44.2622400  60.2121480  36.0986050  43.1144790
  59.8721530  36.5761280  43.8711840  59.4498800  35.6451170  42.7545890
  64.4239250  37.2171640  37.1457340  64.5452070  37.1758120  38.0943160
  64.0387760  38.0795790  36.9904070  68.3867620  34.9939040  45.1621030
  68.4040360  35.4447690  46.0062880  68.1383200  34.0944680  45.3754470
  63.4360750  39.5272780  36.5440640  62.8677650  39.0791030  35.9176550
  64.1449750  39.8865560  36.0105790  71.8138370  32.4071220  51.0007410
  72.1384140  31.6760880  51.5265390  71.8494880  32.0884860  50.0988400
  58.5129930  43.4284800  50.4207370  58.1284720  42.7878470  51.0190330
  58.8242120  44.1320920  50.9902100  64.6627070  40.2761340  45.9015990
  65.0297200  39.8019910  46.6477330  64.4732130  41.1502910  46.2424330
  57.5267560  35.0205030  42.0309460  57.2414480  34.6560700  42.8688080
  57.4646420  34.2885490  41.4172600  62.4526440  39.3169980  48.2200200
  62.1483510  40.1961960  48.4450560  63.4072900  39.3769770  48.2557640
  60.9808230  43.5230970  38.8167050  60.2070490  42.9828590  38.6565770
  61.7102860  43.0037580  38.4784810  71.7396210  42.5196330  44.6093440
  72.4595330  43.0151620  44.2189550  71.5378030  41.8414220  43.9647310
  67.2006150  33.9134290  38.7522830  66.3870760  33.4147460  38.6768140
  67.0068100  34.7532540  38.3359180  67.1215010  42.5905390  50.4962440
  67.0552320  41.6701060  50.2420030  66.4920150  42.6880830  51.2107080
  69.9154540  38.2853940  37.0484990  70.8034160  38.5971170  36.8736330
  69.8859630  37.4126190  36.6565570  61.0245630  43.1911350  42.4545860
  61.5424300  42.3879610  42.4002750  60.5729650  43.1290490  43.2962690
  65.9115130  44.4577630  37.7273160  66.2530830  45.2019860  37.2316480
  65.0827840  44.7708750  38.0897990  58.5090170  40.1572720  49.3671560
  58.1505110  40.8226570  49.9544900  58.2144730  39.3256270  49.7384180
  61.7103290  40.6156960  52.2511110  61.4103430  40.7614140  51.3538930
  62.4814530  40.0562250  52.1584500  67.0531740  45.4125960  50.2466240
  67.0676280  44.4806920  50.0285150  66.3456840  45.4985720  50.8856010
  72.1868810  39.5965780  36.5164850  72.1032530  40.0280000  35.6661290
  72.9063000  40.0564130  36.9491670  73.2642950  42.0533300  49.5934820
  72.5391140  42.6462080  49.3964210  73.7918410  42.0456840  48.7948190
  73.2156060  46.4508040  39.2446980  72.5732220  45.7963660  39.5190700
  72.8286720  46.8563130  38.4687650  68.7942540  43.7793470  43.0918670
  69.1466360  43.1821600  42.4320040  67.9104870  43.4537700  43.2626920
  64.8805820  44.5391160  40.4989080  65.5676950  45.0860370  40.8796670
  64.0938240  45.0831890  40.5338690  57.0198220  40.1563980  35.9906160
  57.8893070  40.4388780  36.2742080  56.5288540  40.9699850  35.8754970
  64.1833030  41.5437190  40.1114440  64.6395810  42.3542440  40.3374630
  63.8321240  41.2260330  40.9432930  66.4865640  47.0543530  47.3406740
  67.1307860  47.2602910  48.0180160  66.8495080  46.2931930  46.8877590
  60.0844810  31.8874840  40.5836960  59.9559440  31.8792740  41.5321880
  59.2606830  32.2257930  40.2327970  67.7597720  45.0575880  46.0584190
  68.4019950  44.3569040  46.1716360  68.2847070  45.8374320  45.8781080
  71.6053440  45.3424500  35.7823330  71.3791020  44.6254940  36.3747970
  71.2149640  45.0936940  34.9445080  69.5335340  45.8570780  49.2620250
  69.8691580  46.4437470  49.9398170  68.6135680  45.7263490  49.4918040
  57.3869470  49.3691360  36.5567790  57.7467110  49.9680700  35.9025060
  57.2461810  49.9151250  37.3302820  57.0838740  33.6465960  50.0443660
  56.3697260  33.8462880  50.6496270  57.5033780  32.8705530  50.4158460
  71.1869690  43.2596440  37.4437490  70.8991390  43.7209130  38.2315370
  71.9821860  42.7994210  37.7121710  57.3711330  47.6346220  51.0310190
  57.4802450  46.6940960  50.8905580  56.7191890  47.9000970  50.3823920
  65.3623920  45.9062110  52.4308310  65.0420790  45.1871350  52.9754000
  64.6882280  46.5817180  52.5044370  63.4038090  46.7522560  37.3741460
  63.3948190  47.4852250  36.7585970  62.4836450  46.5054140  37.4668420
  59.0044730  41.9737450  38.1188220  58.3972680  42.7136350  38.1283520
  59.4794080  42.0636810  37.2926420  68.5777520  36.1388270  47.7945110
  68.9458340  35.3183480  48.1224680  67.7175720  36.1990160  48.2100760
  71.9439550  35.0945210  38.6032670  71.3152710  35.1990880  37.8890900
  71.4491470  35.3141990  39.3926550  66.3897690  46.8150800  36.0366650
  66.4909670  46.6114790  35.1068630  65.4899430  46.5609080  36.2414430
  63.9123580  37.3731160  40.0190550  63.2039730  37.8417500  40.4604160
  64.1968060  36.7153170  40.6535740  65.5379510  38.7927860  48.0183080
  66.0364760  39.2673680  48.6834930  65.6802460  37.8691380  48.2253110
  67.9439010  34.0981820  41.4586340  67.8206790  34.1167950  40.5095850
  68.8923570  34.1460760  41.5784740  65.0315800  49.3337120  40.7314320
  65.2857300  49.2958510  39.8093690  64.0828280  49.2070450  40.7242570
  62.1158600  35.6816240  37.3941260  62.9649130  36.1186390  37.3281450
  61.7489870  35.9936500  38.2213320  72.7446370  35.0095820  48.8611470
  72.2419970  35.7501220  49.2005280  73.5603030  35.3979820  48.5448260
  71.0368380  40.2529000  42.3072830  70.0958520  40.2679230  42.4820520
  71.3512450  39.4664960  42.7533130  61.0150020  41.9348600  35.8676790
  61.7813290  41.8229960  36.4302220  61.0924710  41.2386570  35.2153560
  59.7096780  39.3673670  36.5509680  59.7900370  38.4201180  36.6627080
  60.6016530  39.6980550  36.6570340  73.0393960  47.4237850  43.9827090
  73.1641380  48.2469020  44.4550900  73.9059520  47.2128580  43.6351240
  60.5111490  49.5169060  43.6544220  61.2473970  48.9684520  43.9252790
  60.8952410  50.3825070  43.5150210  57.3956970  45.5842630  39.5285730
  56.4696750  45.8263770  39.5191140  57.8613400  46.4116890  39.4070480
  59.5169770  48.7015130  52.8429800  60.3182500  49.0227180  53.2565200
  59.0021590  48.3410710  53.5649710  63.6213800  48.6899370  35.4769790
  64.4142410  48.9788200  35.0251580  63.1018150  48.2591540  34.7982270
  68.3534400  44.8095000  52.7905210  67.7472560  44.8326600  52.0500960
  68.0488510  44.0778040  53.3272460  69.7834770  48.5375290  51.4014620
  70.7356520  48.4533310  51.3514860  69.6362990  49.2017000  52.0748410
  72.6743970  47.9169500  36.9006530  72.3885480  47.5034640  36.0860710
  72.4763520  48.8457210  36.7807050  57.2367580  41.1888590  51.7865850
  57.7406600  40.6095870  52.3582080  56.4975000  41.4728820  52.3242220
  64.1391200  43.9102780  35.3412140  64.0341840  43.2955130  36.0673520
  63.9715420  43.3868670  34.5575150  64.2905520  42.5959580  51.3201370
  63.5251190  43.1644580  51.2356040  64.4721480  42.3035790  50.4269600
  67.3793930  42.9722810  35.9454130  66.8304030  43.4192110  36.5896870
  68.0013190  42.4672060  36.4691800  71.4328870  44.3264910  51.8776390
  72.1738340  44.6640670  51.3743850  70.6701550  44.4956970  51.3246160
  59.2690660  39.3318180  52.6815920  59.3096000  39.0332050  53.5901150
  60.1236160  39.7325790  52.5223440  63.0469050  41.9313730  37.8419430
  63.4685470  41.7653600  38.6850820  63.1719890  41.1213960  37.3474570
  61.2096470  37.9110280  50.6490410  60.6792930  37.4201230  50.0213750
  61.8784540  38.3394480  50.1148340  65.5596690  40.9551340  35.0896530
  66.0802350  40.2400360  34.7237680  66.2065090  41.5937210  35.3897040
  70.1074530  42.3779740  50.4131600  70.5215550  42.5324820  51.2622020
  69.1725530  42.5034960  50.5757380  70.5796700  39.7175900  52.4170750
  71.1617470  38.9628220  52.3291230  70.7558470  40.2483340  51.6402230
  61.6968770  34.8772650  50.7287700  61.6025640  34.2593400  50.0038570
  61.1166160  35.6038940  50.5017610  64.4630210  33.4345890  47.7615090
  64.0147510  33.4570150  46.9160640  63.8295410  33.0364910  48.3585390
  64.8689760  42.3300220  48.3827530  65.2877870  43.1732950  48.2103770
  63.9498390  42.4672260  48.1534310  67.2053660  40.0616400  49.7665370
  67.3249870  39.4657540  50.5060210  68.0647660  40.0986090  49.3466670
  69.5441560  40.6153590  48.3427880  69.0176780  41.1396210  47.7393020
  69.8872900  41.2480980  48.9737610  61.9427950  38.0046960  34.7877590
  61.7417010  37.1414320  35.1490930  61.7720000  37.9180320  33.8499190
  62.7197180  48.6353230  49.4985260  62.1818270  49.3599290  49.1793960
  62.9731140  48.1583570  48.7082600  63.9722430  36.6037750  51.0241190
  64.5622120  36.2953600  51.7119010  63.1542670  36.1317500  51.1801090
  68.7915860  36.2203560  51.2574210  68.1031380  35.5585100  51.1924200
  69.5121880  35.7741830  51.7022670  69.4216260  32.8155190  37.3164470
  69.7018550  31.9723090  37.6723890  68.6481990  33.0478300  37.8303220
  60.7410750  35.1047580  34.7755470  61.0436650  35.1115010  33.8674620
  61.4805340  34.7545440  35.2723130  65.5759390  49.8704440  49.7571910
  65.5018090  50.7739580  50.0644280  64.6738230  49.5516340  49.7293980
  63.9595680  34.0482200  35.7611670  63.6117680  33.3706190  35.1814120
  64.1608450  33.5871710  36.5755060  66.1244720  49.0362950  37.3798270
  67.0195510  49.3747920  37.4017030  66.1562350  48.3142360  36.7522550
  59.7640880  44.4090000  35.6085270  60.2015750  44.9519670  36.2642850
  60.2488610  43.5836950  35.6181610  56.9786680  47.1979030  43.0605530
  57.3089690  46.3300090  42.8284170  57.4077680  47.4037550  43.8910490
  61.5748600  45.5288040  40.7207500  61.2744140  45.4053010  41.6211410
  61.4686090  44.6696630  40.3123230  57.4676890  48.0649620  45.7987160
  57.0307880  48.2450420  46.6311310  58.0354570  48.8224240  45.6568880
  73.1039070  47.5666620  50.0864470  72.5041060  47.6259180  49.3428390
  73.2332970  46.6271600  50.2161320  74.3440520  45.3084440  35.4234180
  73.5133480  45.3761090  35.8941410  74.5212350  46.1988560  35.1201040
  73.7996980  42.0531920  37.9268380  74.5615890  42.6228570  38.0328070
  73.8151350  41.4859120  38.6976690  57.3001320  40.5769850  42.1576040
  56.6450160  40.3081490  41.5135740  58.1379270  40.4674330  41.7078020
  74.8056950  42.9082020  42.7710310  75.1765780  42.1249340  42.3646280
  75.4458880  43.5971120  42.5927610  71.7890710  44.2918600  48.1840630
  70.9750550  44.7215760  48.4466420  72.1964910  44.9037010  47.5709680
  73.8516150  42.3466290  35.0840900  74.1264990  43.2545170  34.9560120
  73.6626890  42.2828820  36.0202890  70.2491760  35.3711140  36.3794530
  70.6676640  35.1842120  35.5391190  69.9427820  34.5190190  36.6897460
  73.7481490  40.2835280  40.0770330  73.3725090  39.5163210  39.6451620
  73.0184610  40.6657980  40.5645260  58.3377250  40.9622420  46.6979380
  58.7050290  40.8749820  47.5775400  57.7688070  40.1988970  46.5986240
  73.1381110  39.4306800  49.7109850  72.9067200  39.2019550  48.8107800
  73.3985660  40.3506350  49.6654740  57.8893250  37.8731510  50.6037800
  56.9949300  37.8398270  50.9431510  58.4290800  38.0718300  51.3689050
  71.5769180  34.6563230  52.4889550  72.4539360  34.6646630  52.8723550
  71.5890020  33.9194070  51.8781900  56.5139400  37.7868780  38.1001370
  55.6103480  38.0498980  37.9253030  56.9980020  38.0579950  37.3201330
  73.0232450  38.5092770  43.3777570  73.5469930  38.0155420  42.7467740
  73.6091870  38.6443130  44.1225140  73.2022170  38.5932640  46.8997120
  72.2524880  38.5596180  47.0142110  73.3835180  39.5032750  46.6646890
  59.0566610  36.8434320  36.0095750  59.7658310  36.4217540  35.5243030
  58.3406550  36.9109550  35.3779100  58.7040770  32.8973650  35.0498400
  59.4268900  33.4382590  35.3679620  58.9765290  32.6237070  34.1739940
  72.5132420  37.7666120  39.3169980  73.0091540  37.5336990  40.1018860
  72.3148490  36.9277960  38.9007620  58.3932960  32.1479840  44.9521020
  59.0409150  31.5977220  44.5116180  58.8134800  32.4022990  45.7736830
  73.9419580  36.4027070  41.8507660  73.8318860  36.2483110  42.7889930
  74.7027170  35.8748010  41.6083070  72.2885300  32.3421200  48.3090660
  72.9257520  32.9555340  48.6749850  72.4360190  32.3781860  47.3639890
  74.8309850  34.2334990  35.0913800  75.7559160  34.1016170  34.8832090
  74.8085640  34.3127810  36.0450250  74.9048340  35.0045650  37.7170510
  74.1099840  34.9390770  38.2463420  75.1091620  35.9396290  37.7055860
  71.8466760  49.0437200  41.7108900  72.4425830  48.7221770  41.0343320
  72.1044910  48.5709020  42.5022170  58.1464960  32.3035510  47.6946340
  57.7979780  32.7599330  48.4604520  57.8152660  31.4092640  47.7768770
  59.7529330  45.4755110  51.8599530  59.7098960  45.1048020  52.7413990
  59.8840340  46.4132680  52.0001350  63.4535360  47.0314700  47.4609250
  63.2126720  47.2989260  46.5739770  64.3938000  47.2020430  47.5160110
  65.6589780  33.4947390  51.2165760  65.5978670  34.0869220  51.9661170
  66.5990160  33.3873350  51.0716020  68.2964340  33.1517450  50.8558050
  68.9104750  33.4696740  50.1939130  68.8413900  32.6666040  51.4753910
  74.7139520  49.0509080  48.2619890  74.2197800  49.4477950  47.5447020
  74.1052810  48.4258290  48.6557170  58.8185600  31.8311710  50.9697110
  59.3668590  31.6499760  50.2063220  58.8840910  31.0405820  51.5053420
  59.5917360  48.4217360  48.9797310  58.9977680  48.2902060  49.7187350
  59.5841200  47.5855500  48.5139410  69.0372380  31.7149590  47.1827340
  68.1632220  32.0484700  46.9800270  68.9283130  31.2422770  48.0079210
  69.9444360  33.9220460  48.5669060  69.6157720  33.1072220  48.1870790
  70.8926660  33.8790270  48.4434750  72.3978970  49.6932500  45.5406630
  71.9381940  50.4448310  45.1664650  71.7691430  48.9738970  45.4821430
  59.2229590  45.7875740  47.9305350  58.4963650  45.1681030  47.8631300
  59.2838740  46.1816350  47.0603430  62.8274690  48.0020740  44.7154760
  63.3439710  47.3908100  44.1903020  63.4772070  48.5049520  45.2065770
  65.5670190  48.8929230  45.5423740  65.8548000  48.6383530  44.6656750
  66.0793410  48.3406590  46.1329310  66.7847200  32.6319430  46.1220250
  66.0018990  33.1064930  46.4017010  66.4910130  31.7274260  46.0133430
  71.3368270  33.3342530  44.1669340  71.7776360  33.2787630  43.3190940
  71.0675860  34.2500540  44.2379520  73.2006840  32.9657770  42.1778160
  73.1395240  32.0218990  42.0309180  73.9798870  33.0737860  42.7231620
  57.5059590  49.1050130  41.1402110  57.3381630  48.4720810  41.8384000
  56.6394100  49.3109530  40.7896300  58.1287610  32.9366910  38.6433970
  58.8866970  33.0495790  38.0698000  57.6664780  33.7736110  38.5977400
  64.6701420  35.0506180  41.6336280  63.8575930  34.6763070  41.2932160
  65.1743060  34.2951260  41.9357470  69.1726400  31.7148630  42.8719350
  69.7755770  32.2868840  43.3467870  68.4319390  32.2788070  42.6493250
  72.3161000  32.1170190  38.1459630  72.5111630  33.0153640  38.4127060
  71.5290870  31.8857270  38.6392580  59.1122290  47.7983360  38.5852250
  58.5869910  48.1791390  37.8814210  59.0366870  48.4234130  39.3061960
  60.5012760  33.4630960  37.1835940  61.0305520  32.6760760  37.0543890
  61.1341080  34.1422150  37.4171470  62.6950600  33.2006100  40.2381330
  62.0653340  32.4993410  40.4051460  62.1555740  33.9610230  40.0214490
  65.6342550  49.8145330  52.9091940  66.5609860  49.5789600  52.9527900
  65.6192980  50.6417330  52.4277970  73.8687610  49.3570900  39.9066190
  74.0439800  48.6708640  39.2627110  73.1709180  49.8817950  39.5142860
  62.8206160  32.4790080  52.6733820  62.5390430  32.9823680  51.9094640
  63.2025860  31.6811830  52.3075950  61.7115260  49.7465740  37.4601500
  62.4434080  49.4625020  36.9125390  61.9708930  49.5079020  38.3500880
  60.8730050  45.8630470  37.4647830  60.2438930  46.3315570  38.0133660
  60.9877880  45.0179690  37.8994020  69.4221620  31.8943660  53.2514290
  69.3087070  32.2138270  54.1465810  70.2391360  32.2956170  52.9551570
  72.2020110  49.0415190  52.7332980  72.9945430  48.5464420  52.5258940
  72.4953260  49.7205330  53.3408590  68.3279770  39.9136130  23.6149030
  68.2473820  38.9990740  23.3440740  67.9144190  40.4103200  22.9088740
  66.4597810  41.6915150  25.4958300  65.6839910  41.2115590  25.7856870
  67.1110740  41.0120800  25.3214460  60.4763640  42.0034960  26.3734060
  59.6448520  41.7483670  26.7730570  61.0844620  42.0745730  27.1091980
  70.4805240  46.0975340  24.2757430  70.0186770  45.3262580  24.6044600
  71.2930790  46.1241410  24.7809880  60.4564900  46.0375050  26.5692080
  60.7592940  45.1472790  26.3902300  61.2008490  46.5945270  26.3414330
  58.8855590  36.9636850  20.1576450  57.9972290  37.3052820  20.0556330
  59.1696780  36.7637170  19.2657280  56.8488600  39.5642500  26.0416150
  57.4204710  38.7964700  26.0419790  56.8490140  39.8631260  25.1322760
  66.7068550  48.3833350  23.8961420  66.0879990  48.8390850  23.3255860
  67.5620330  48.5384810  23.4951120  65.9006800  44.3672340  25.5028460
  65.8315080  43.4262280  25.3417590  66.6626660  44.4573750  26.0751030
  58.0913470  34.9726860  27.8285080  57.9116310  34.0752610  28.1087840
  57.6893550  35.5198730  28.5032030  66.9311970  37.1742720  25.7297390
  67.3076790  36.3014600  25.6171060  66.8331480  37.5101420  24.8387830
  61.0616980  35.5468350  21.1914830  61.1683730  36.4472080  21.4983590
  60.1509340  35.4986320  20.9009480  70.7136090  34.6693160  22.6625730
  71.5345710  34.1789730  22.7051210  70.7470170  35.2590820  23.4157570
  58.7100140  37.4687360  26.4367420  59.3910250  37.7325730  27.0554820
  58.3948190  36.6288230  26.7705430  62.9024710  38.5154720  25.5240010
  63.4102930  39.0135690  26.1645030  63.4337950  37.7389920  25.3479370
  75.0035640  36.6859910  29.2269360  74.2987810  37.0741620  28.7084470
  75.2693560  37.3810200  29.8290290  61.1860810  33.1553280  29.7903430
  61.1879250  33.6725670  28.9849330  60.3565120  32.6783460  29.7673360
  67.5731900  43.2672590  21.2893330  66.9549170  43.7322040  20.7256050
  68.0855150  43.9600070  21.7062840  62.4363660  42.7948460  27.9676930
  62.1033040  43.4217380  28.6098000  62.6130340  43.3210340  27.1878600
  70.9497570  36.6093540  25.4353270  70.2453140  36.8978430  26.0156380
  71.3109730  37.4193650  25.0752830  60.8676140  34.8663240  27.7973880
  61.2092950  35.7105290  27.5027750  59.9291950  35.0146980  27.9139220
  61.6482760  44.7629260  29.7826110  62.2656760  45.4380340  29.5010560
  60.7875880  45.1717240  29.6913610  56.9415100  43.9529120  18.6632960
  56.5643080  44.4416220  17.9317860  57.1988170  44.6254400  19.2939490
  72.5660350  46.2268670  27.6980750  71.8823870  46.8967780  27.6897420
  73.1054640  46.4249320  26.9325610  74.0184490  36.0548330  25.8262480
  73.0709400  36.0887310  25.9577910  74.3434480  36.8687280  26.2111840
  64.5504030  32.3545510  24.1218470  64.8579010  31.7992400  23.4053970
  63.6204730  32.4889970  23.9391460  70.1019090  48.0712800  26.4125930
  70.1146250  47.6675090  25.5448190  69.5494310  48.8460090  26.3087360
  71.3964510  44.7929020  21.5016100  71.2860840  43.8503350  21.6265520
  71.3932760  45.1544660  22.3878860  69.5004530  42.9742640  27.7408540
  69.9173320  42.7602750  26.9062000  70.2244350  43.2315430  28.3117160
  66.9384790  40.4194340  20.8578590  66.0114070  40.3531720  21.0867060
  67.0909610  41.3574470  20.7433830  66.9253870  36.6911340  17.8545750
  65.9857540  36.8525300  17.9398210  67.2437130  37.4097020  17.3081740
  73.4466630  41.3729860  27.8324780  72.6185260  41.4422950  27.3574910
  74.0417110  41.9584170  27.3640610  70.9682080  41.9814640  21.3613840
  70.3494500  41.6434190  20.7140140  70.9506530  41.3374400  22.0693030
  70.4108640  38.1599180  28.7779650  69.9979820  38.9852890  29.0319640
  69.6784590  37.5744220  28.5856010  62.5441430  40.9459080  23.6398320
  62.1398430  40.2336330  23.1444220  62.6304550  40.6012320  24.5286360
  63.0123130  44.6326640  25.8037530  62.7151420  44.0272110  25.1245310
  63.9622950  44.6703950  25.6926890  61.2570050  37.7202290  27.4197360
  61.8084640  37.8297630  26.6450610  61.7713560  38.0939890  28.1352590
  71.1008740  48.2058510  29.4660630  70.6239300  49.0130700  29.2733240
  70.4170530  47.5536840  29.6186840  62.1041560  44.3708330  32.4545330
  61.2070090  44.5948300  32.7018730  62.1294430  44.4943270  31.5056730
  69.1446780  41.2201450  18.3686590  69.5840060  40.3823880  18.2224410
  69.8575200  41.8530850  18.4550730  60.9312780  41.2421650  31.0302700
  60.7920550  42.1144450  31.3990100  60.0494140  40.8994460  30.8850640
  67.2542160  46.1597520  22.3367830  67.6938070  46.9021850  21.9223220
  67.1929050  46.4024090  23.2606790  62.7293130  47.1843350  33.2387850
  62.7008560  47.5886300  32.3716280  62.5658100  46.2553710  33.0759450
  72.7263920  32.4744260  16.6827630  72.4136580  32.5671090  17.5826700
  73.4876390  33.0525290  16.6325060  59.2446060  39.8404060  21.1404970
  59.1243660  40.5666150  20.5286240  58.9346950  39.0706970  20.6632880
  74.6807950  47.9670450  34.5352020  75.1567670  48.4453340  35.2141100
  75.3015110  47.8987940  33.8097520  56.8831430  43.0119200  26.9473610
  56.9611850  43.1467970  26.0029330  57.4973110  42.3035090  27.1401730
  58.1279060  44.7119390  23.3579790  57.7207140  44.8533980  22.5033390
  59.0192070  44.4279550  23.1551000  74.0841200  45.1583300  31.6952030
  74.2104260  44.9195180  30.7769210  74.1262580  44.3267840  32.1674110
  67.9457940  48.8611300  30.2646840  68.4602610  48.7719310  31.0669270
  67.1027020  49.2071000  30.5574750  69.9212340  49.1466640  19.6930840
  69.7613480  48.8569580  20.5912670  69.7559050  48.3706770  19.1576070
  62.4000720  48.9265170  21.4702460  62.2243200  48.0100710  21.2570260
  61.5456460  49.2852460  21.7100260  69.6238470  46.6554200  18.2528840
  68.9303630  46.6531490  17.5931120  70.3661330  46.2313520  17.8223010
  69.1888400  48.2816910  22.3277330  69.6445350  47.5006290  22.6415950
  69.5280920  48.9923730  22.8718510  73.9365210  37.2115760  32.6601770
  73.3209480  37.7195430  32.1317230  73.6161630  36.3114090  32.6027710
  56.9390950  44.0533370  29.4868070  57.1021990  43.5838730  28.6687440
  57.4043400  43.5456930  30.1516910  61.7109720  33.1839130  24.5228640
  61.2677870  33.9648670  24.1913160  62.2694710  33.5069020  25.2299580
  65.9979530  36.0507650  30.1263960  65.5358900  36.2590670  30.9383900
  65.5957640  35.2367000  29.8234630  70.9984040  37.2716600  31.2560620
  70.1477630  36.9722350  31.5769690  70.8385830  37.5158610  30.3444440
  68.0933750  38.7718350  33.3559410  68.4187160  37.9382100  33.0161640
  68.8814080  39.2946870  33.5037740  64.8268540  32.8049830  19.4034470
  64.2022720  32.8009700  20.1287780  64.7398660  31.9380790  19.0070440
  63.7485620  33.7286460  26.3818240  64.0457950  34.6349290  26.3010260
  64.2971180  33.2405240  25.7677810  61.5023940  38.3072700  22.2509890
  61.2764860  38.0909870  23.1556510  60.7216470  38.7401160  21.9055860
  68.7321700  38.3136070  20.8500540  68.1330590  39.0371870  20.6664160
  69.2801310  38.2512850  20.0676990  63.9423150  39.2058280  32.9170160
  63.8466750  38.2653010  32.7670560  64.7855130  39.4273350  32.5218230
  67.3386570  36.9499610  22.8803820  67.7316140  37.2671810  22.0672510
  67.7003420  36.0711490  22.9948340  59.0733690  35.6171950  31.0703940
  58.6797080  36.4647160  31.2776720  58.3852090  34.9798320  31.2612580
  65.6478740  35.7006920  34.1400680  64.9577060  35.5079120  34.7746770
  66.3911040  35.9841560  34.6724980  56.3750740  33.5400410  25.1034020
  56.0863790  34.1103270  25.8159000  57.1196500  33.0604860  25.4665250
  56.5620970  37.4820530  16.3136740  56.4795640  38.4251290  16.4551730
  56.2104030  37.3395440  15.4349090  67.9241710  39.5405360  26.9754600
  67.1922830  40.0492170  27.3244700  67.5266050  38.7235340  26.6743380
  64.3619100  36.2159560  25.3807090  64.3655160  35.7749510  24.5311630
  65.2570220  36.5376890  25.4878910  60.2121480  36.0986050  24.3401300
  59.8721530  36.5761280  25.0968350  59.4498800  35.6451170  23.9802400
  64.4239250  37.2171640  18.3713850  64.5452070  37.1758120  19.3199670
  64.0387760  38.0795790  18.2160580  68.3867620  34.9939040  26.3877540
  68.4040360  35.4447690  27.2319390  68.1383200  34.0944680  26.6010980
  63.4360750  39.5272780  17.7697150  62.8677650  39.0791030  17.1433060
  64.1449750  39.8865560  17.2362300  71.8138370  32.4071220  32.2263920
  72.1384140  31.6760880  32.7521900  71.8494880  32.0884860  31.3244910
  58.5129930  43.4284800  31.6463880  58.1284720  42.7878470  32.2446840
  58.8242120  44.1320920  32.2158610  64.6627070  40.2761340  27.1272500
  65.0297200  39.8019910  27.8733840  64.4732130  41.1502910  27.4680840
  57.5267560  35.0205030  23.2565970  57.2414480  34.6560700  24.0944590
  57.4646420  34.2885490  22.6429110  62.4526440  39.3169980  29.4456710
  62.1483510  40.1961960  29.6707070  63.4072900  39.3769770  29.4814150
  60.9808230  43.5230970  20.0423560  60.2070490  42.9828590  19.8822280
  61.7102860  43.0037580  19.7041320  71.7396210  42.5196330  25.8349950
  72.4595330  43.0151620  25.4446060  71.5378030  41.8414220  25.1903820
  67.2006150  33.9134290  19.9779340  66.3870760  33.4147460  19.9024650
  67.0068100  34.7532540  19.5615690  67.1215010  42.5905390  31.7218950
  67.0552320  41.6701060  31.4676540  66.4920150  42.6880830  32.4363590
  69.9154540  38.2853940  18.2741500  70.8034160  38.5971170  18.0992840
  69.8859630  37.4126190  17.8822080  61.0245630  43.1911350  23.6802370
  61.5424300  42.3879610  23.6259260  60.5729650  43.1290490  24.5219200
  65.9115130  44.4577630  18.9529670  66.2530830  45.2019860  18.4572990
  65.0827840  44.7708750  19.3154500  58.5090170  40.1572720  30.5928070
  58.1505110  40.8226570  31.1801410  58.2144730  39.3256270  30.9640690
  61.7103290  40.6156960  33.4767620  61.4103430  40.7614140  32.5795440
  62.4814530  40.0562250  33.3841010  67.0531740  45.4125960  31.4722750
  67.0676280  44.4806920  31.2541660  66.3456840  45.4985720  32.1112520
  72.1868810  39.5965780  17.7421360  72.1032530  40.0280000  16.8917800
  72.9063000  40.0564130  18.1748180  73.2642950  42.0533300  30.8191330
  72.5391140  42.6462080  30.6220720  73.7918410  42.0456840  30.0204700
  73.2156060  46.4508040  20.4703490  72.5732220  45.7963660  20.7447210
  72.8286720  46.8563130  19.6944160  68.7942540  43.7793470  24.3175180
  69.1466360  43.1821600  23.6576550  67.9104870  43.4537700  24.4883430
  64.8805820  44.5391160  21.7245590  65.5676950  45.0860370  22.1053180
  64.0938240  45.0831890  21.7595200  57.0198220  40.1563980  17.2162670
  57.8893070  40.4388780  17.4998590  56.5288540  40.9699850  17.1011480
  64.1833030  41.5437190  21.3370950  64.6395810  42.3542440  21.5631140
  63.8321240  41.2260330  22.1689440  66.4865640  47.0543530  28.5663250
  67.1307860  47.2602910  29.2436670  66.8495080  46.2931930  28.1134100
  60.0844810  31.8874840  21.8093470  59.9559440  31.8792740  22.7578390
  59.2606830  32.2257930  21.4584480  67.7597720  45.0575880  27.2840700
  68.4019950  44.3569040  27.3972870  68.2847070  45.8374320  27.1037590
  71.6053440  45.3424500  17.0079840  71.3791020  44.6254940  17.6004480
  71.2149640  45.0936940  16.1701590  69.5335340  45.8570780  30.4876760
  69.8691580  46.4437470  31.1654680  68.6135680  45.7263490  30.7174550
  57.3869470  49.3691360  17.7824300  57.7467110  49.9680700  17.1281570
  57.2461810  49.9151250  18.5559330  57.0838740  33.6465960  31.2700170
  56.3697260  33.8462880  31.8752780  57.5033780  32.8705530  31.6414970
  71.1869690  43.2596440  18.6694000  70.8991390  43.7209130  19.4571880
  71.9821860  42.7994210  18.9378220  57.3711330  47.6346220  32.2566700
  57.4802450  46.6940960  32.1162090  56.7191890  47.9000970  31.6080430
  65.3623920  45.9062110  33.6564820  65.0420790  45.1871350  34.2010510
  64.6882280  46.5817180  33.7300880  63.4038090  46.7522560  18.5997970
  63.3948190  47.4852250  17.9842480  62.4836450  46.5054140  18.6924930
  59.0044730  41.9737450  19.3444730  58.3972680  42.7136350  19.3540030
  59.4794080  42.0636810  18.5182930  68.5777520  36.1388270  29.0201620
  68.9458340  35.3183480  29.3481190  67.7175720  36.1990160  29.4357270
  71.9439550  35.0945210  19.8289180  71.3152710  35.1990880  19.1147410
  71.4491470  35.3141990  20.6183060  66.3897690  46.8150800  17.2623160
  66.4909670  46.6114790  16.3325140  65.4899430  46.5609080  17.4670940
  63.9123580  37.3731160  21.2447060  63.2039730  37.8417500  21.6860670
  64.1968060  36.7153170  21.8792250  65.5379510  38.7927860  29.2439590
  66.0364760  39.2673680  29.9091440  65.6802460  37.8691380  29.4509620
  67.9439010  34.0981820  22.6842850  67.8206790  34.1167950  21.7352360
  68.8923570  34.1460760  22.8041250  65.0315800  49.3337120  21.9570830
  65.2857300  49.2958510  21.0350200  64.0828280  49.2070450  21.9499080
  62.1158600  35.6816240  18.6197770  62.9649130  36.1186390  18.5537960
  61.7489870  35.9936500  19.4469830  72.7446370  35.0095820  30.0867980
  72.2419970  35.7501220  30.4261790  73.5603030  35.3979820  29.7704770
  71.0368380  40.2529000  23.5329340  70.0958520  40.2679230  23.7077030
  71.3512450  39.4664960  23.9789640  61.0150020  41.9348600  17.0933300
  61.7813290  41.8229960  17.6558730  61.0924710  41.2386570  16.4410070
  59.7096780  39.3673670  17.7766190  59.7900370  38.4201180  17.8883590
  60.6016530  39.6980550  17.8826850  73.0393960  47.4237850  25.2083600
  73.1641380  48.2469020  25.6807410  73.9059520  47.2128580  24.8607750
  60.5111490  49.5169060  24.8800730  61.2473970  48.9684520  25.1509300
  60.8952410  50.3825070  24.7406720  57.3956970  45.5842630  20.7542240
  56.4696750  45.8263770  20.7447650  57.8613400  46.4116890  20.6326990
  59.5169770  48.7015130  34.0686310  60.3182500  49.0227180  34.4821710
  59.0021590  48.3410710  34.7906220  63.6213800  48.6899370  16.7026300
  64.4142410  48.9788200  16.2508090  63.1018150  48.2591540  16.0238780
  68.3534400  44.8095000  34.0161720  67.7472560  44.8326600  33.2757470
  68.0488510  44.0778040  34.5528970  69.7834770  48.5375290  32.6271130
  70.7356520  48.4533310  32.5771370  69.6362990  49.2017000  33.3004920
  72.6743970  47.9169500  18.1263040  72.3885480  47.5034640  17.3117220
  72.4763520  48.8457210  18.0063560  57.2367580  41.1888590  33.0122360
  57.7406600  40.6095870  33.5838590  56.4975000  41.4728820  33.5498730
  64.1391200  43.9102780  16.5668650  64.0341840  43.2955130  17.2930030
  63.9715420  43.3868670  15.7831660  64.2905520  42.5959580  32.5457880
  63.5251190  43.1644580  32.4612550  64.4721480  42.3035790  31.6526110
  67.3793930  42.9722810  17.1710640  66.8304030  43.4192110  17.8153380
  68.0013190  42.4672060  17.6948310  71.4328870  44.3264910  33.1032900
  72.1738340  44.6640670  32.6000360  70.6701550  44.4956970  32.5502670
  59.2690660  39.3318180  33.9072430  59.3096000  39.0332050  34.8157660
  60.1236160  39.7325790  33.7479950  63.0469050  41.9313730  19.0675940
  63.4685470  41.7653600  19.9107330  63.1719890  41.1213960  18.5731080
  61.2096470  37.9110280  31.8746920  60.6792930  37.4201230  31.2470260
  61.8784540  38.3394480  31.3404850  65.5596690  40.9551340  16.3153040
  66.0802350  40.2400360  15.9494190  66.2065090  41.5937210  16.6153550
  70.1074530  42.3779740  31.6388110  70.5215550  42.5324820  32.4878530
  69.1725530  42.5034960  31.8013890  70.5796700  39.7175900  33.6427260
  71.1617470  38.9628220  33.5547740  70.7558470  40.2483340  32.8658740
  61.6968770  34.8772650  31.9544210  61.6025640  34.2593400  31.2295080
  61.1166160  35.6038940  31.7274120  64.4630210  33.4345890  28.9871600
  64.0147510  33.4570150  28.1417150  63.8295410  33.0364910  29.5841900
  64.8689760  42.3300220  29.6084040  65.2877870  43.1732950  29.4360280
  63.9498390  42.4672260  29.3790820  67.2053660  40.0616400  30.9921880
  67.3249870  39.4657540  31.7316720  68.0647660  40.0986090  30.5723180
  69.5441560  40.6153590  29.5684390  69.0176780  41.1396210  28.9649530
  69.8872900  41.2480980  30.1994120  61.9427950  38.0046960  16.0134100
  61.7417010  37.1414320  16.3747440  61.7720000  37.9180320  15.0755700
  62.7197180  48.6353230  30.7241770  62.1818270  49.3599290  30.4050470
  62.9731140  48.1583570  29.9339110  63.9722430  36.6037750  32.2497700
  64.5622120  36.2953600  32.9375520  63.1542670  36.1317500  32.4057600
  68.7915860  36.2203560  32.4830720  68.1031380  35.5585100  32.4180710
  69.5121880  35.7741830  32.9279180  69.4216260  32.8155190  18.5420980
  69.7018550  31.9723090  18.8980400  68.6481990  33.0478300  19.0559730
  60.7410750  35.1047580  16.0011980  61.0436650  35.1115010  15.0931130
  61.4805340  34.7545440  16.4979640  65.5759390  49.8704440  30.9828420
  65.5018090  50.7739580  31.2900790  64.6738230  49.5516340  30.9550490
  63.9595680  34.0482200  16.9868180  63.6117680  33.3706190  16.4070630
  64.1608450  33.5871710  17.8011570  66.1244720  49.0362950  18.6054780
  67.0195510  49.3747920  18.6273540  66.1562350  48.3142360  17.9779060
  59.7640880  44.4090000  16.8341780  60.2015750  44.9519670  17.4899360
  60.2488610  43.5836950  16.8438120  56.9786680  47.1979030  24.2862040
  57.3089690  46.3300090  24.0540680  57.4077680  47.4037550  25.1167000
  61.5748600  45.5288040  21.9464010  61.2744140  45.4053010  22.8467920
  61.4686090  44.6696630  21.5379740  57.4676890  48.0649620  27.0243670
  57.0307880  48.2450420  27.8567820  58.0354570  48.8224240  26.8825390
  73.1039070  47.5666620  31.3120980  72.5041060  47.6259180  30.5684900
  73.2332970  46.6271600  31.4417830  74.3440520  45.3084440  16.6490690
  73.5133480  45.3761090  17.1197920  74.5212350  46.1988560  16.3457550
  73.7996980  42.0531920  19.1524890  74.5615890  42.6228570  19.2584580
  73.8151350  41.4859120  19.9233200  57.3001320  40.5769850  23.3832550
  56.6450160  40.3081490  22.7392250  58.1379270  40.4674330  22.9334530
  74.8056950  42.9082020  23.9966820  75.1765780  42.1249340  23.5902790
  75.4458880  43.5971120  23.8184120  71.7890710  44.2918600  29.4097140
  70.9750550  44.7215760  29.6722930  72.1964910  44.9037010  28.7966190
  73.8516150  42.3466290  16.3097410  74.1264990  43.2545170  16.1816630
  73.6626890  42.2828820  17.2459400  70.2491760  35.3711140  17.6051040
  70.6676640  35.1842120  16.7647700  69.9427820  34.5190190  17.9153970
  73.7481490  40.2835280  21.3026840  73.3725090  39.5163210  20.8708130
  73.0184610  40.6657980  21.7901770  58.3377250  40.9622420  27.9235890
  58.7050290  40.8749820  28.8031910  57.7688070  40.1988970  27.8242750
  73.1381110  39.4306800  30.9366360  72.9067200  39.2019550  30.0364310
  73.3985660  40.3506350  30.8911250  57.8893250  37.8731510  31.8294310
  56.9949300  37.8398270  32.1688020  58.4290800  38.0718300  32.5945560
  71.5769180  34.6563230  33.7146060  72.4539360  34.6646630  34.0980060
  71.5890020  33.9194070  33.1038410  56.5139400  37.7868780  19.3257880
  55.6103480  38.0498980  19.1509540  56.9980020  38.0579950  18.5457840
  73.0232450  38.5092770  24.6034080  73.5469930  38.0155420  23.9724250
  73.6091870  38.6443130  25.3481650  73.2022170  38.5932640  28.1253630
  72.2524880  38.5596180  28.2398620  73.3835180  39.5032750  27.8903400
  59.0566610  36.8434320  17.2352260  59.7658310  36.4217540  16.7499540
  58.3406550  36.9109550  16.6035610  58.7040770  32.8973650  16.2754910
  59.4268900  33.4382590  16.5936130  58.9765290  32.6237070  15.3996450
  72.5132420  37.7666120  20.5426490  73.0091540  37.5336990  21.3275370
  72.3148490  36.9277960  20.1264130  58.3932960  32.1479840  26.1777530
  59.0409150  31.5977220  25.7372690  58.8134800  32.4022990  26.9993340
  73.9419580  36.4027070  23.0764170  73.8318860  36.2483110  24.0146440
  74.7027170  35.8748010  22.8339580  72.2885300  32.3421200  29.5347170
  72.9257520  32.9555340  29.9006360  72.4360190  32.3781860  28.5896400
  74.8309850  34.2334990  16.3170310  75.7559160  34.1016170  16.1088600
  74.8085640  34.3127810  17.2706760  74.9048340  35.0045650  18.9427020
  74.1099840  34.9390770  19.4719930  75.1091620  35.9396290  18.9312370
  71.8466760  49.0437200  22.9365410  72.4425830  48.7221770  22.2599830
  72.1044910  48.5709020  23.7278680  58.1464960  32.3035510  28.9202850
  57.7979780  32.7599330  29.6861030  57.8152660  31.4092640  29.0025280
  59.7529330  45.4755110  33.0856040  59.7098960  45.1048020  33.9670500
  59.8840340  46.4132680  33.2257860  63.4535360  47.0314700  28.6865760
  63.2126720  47.2989260  27.7996280  64.3938000  47.2020430  28.7416620
  65.6589780  33.4947390  32.4422270  65.5978670  34.0869220  33.1917680
  66.5990160  33.3873350  32.2972530  68.2964340  33.1517450  32.0814560
  68.9104750  33.4696740  31.4195640  68.8413900  32.6666040  32.7010420
  74.7139520  49.0509080  29.4876400  74.2197800  49.4477950  28.7703530
  74.1052810  48.4258290  29.8813680  58.8185600  31.8311710  32.1953620
  59.3668590  31.6499760  31.4319730  58.8840910  31.0405820  32.7309930
  59.5917360  48.4217360  30.2053820  58.9977680  48.2902060  30.9443860
  59.5841200  47.5855500  29.7395920  69.0372380  31.7149590  28.4083850
  68.1632220  32.0484700  28.2056780  68.9283130  31.2422770  29.2335720
  69.9444360  33.9220460  29.7925570  69.6157720  33.1072220  29.4127300
  70.8926660  33.8790270  29.6691260  72.3978970  49.6932500  26.7663140
  71.9381940  50.4448310  26.3921160  71.7691430  48.9738970  26.7077940
  59.2229590  45.7875740  29.1561860  58.4963650  45.1681030  29.0887810
  59.2838740  46.1816350  28.2859940  62.8274690  48.0020740  25.9411270
  63.3439710  47.3908100  25.4159530  63.4772070  48.5049520  26.4322280
  65.5670190  48.8929230  26.7680250  65.8548000  48.6383530  25.8913260
  66.0793410  48.3406590  27.3585820  66.7847200  32.6319430  27.3476760
  66.0018990  33.1064930  27.6273520  66.4910130  31.7274260  27.2389940
  71.3368270  33.3342530  25.3925850  71.7776360  33.2787630  24.5447450
  71.0675860  34.2500540  25.4636030  73.2006840  32.9657770  23.4034670
  73.1395240  32.0218990  23.2565690  73.9798870  33.0737860  23.9488130
  57.5059590  49.1050130  22.3658620  57.3381630  48.4720810  23.0640510
  56.6394100  49.3109530  22.0152810  58.1287610  32.9366910  19.8690480
  58.8866970  33.0495790  19.2954510  57.6664780  33.7736110  19.8233910
  64.6701420  35.0506180  22.8592790  63.8575930  34.6763070  22.5188670
  65.1743060  34.2951260  23.1613980  69.1726400  31.7148630  24.0975860
  69.7755770  32.2868840  24.5724380  68.4319390  32.2788070  23.8749760
  72.3161000  32.1170190  19.3716140  72.5111630  33.0153640  19.6383570
  71.5290870  31.8857270  19.8649090  59.1122290  47.7983360  19.8108760
  58.5869910  48.1791390  19.1070720  59.0366870  48.4234130  20.5318470
  60.5012760  33.4630960  18.4092450  61.0305520  32.6760760  18.2800400
  61.1341080  34.1422150  18.6427980  62.6950600  33.2006100  21.4637840
  62.0653340  32.4993410  21.6307970  62.1555740  33.9610230  21.2471000
  65.6342550  49.8145330  34.1348450  66.5609860  49.5789600  34.1784410
  65.6192980  50.6417330  33.6534480  73.8687610  49.3570900  21.1322700
  74.0439800  48.6708640  20.4883620  73.1709180  49.8817950  20.7399370
  62.8206160  32.4790080  33.8990330  62.5390430  32.9823680  33.1351150
  63.2025860  31.6811830  33.5332460  61.7115260  49.7465740  18.6858010
  62.4434080  49.4625020  18.1381900  61.9708930  49.5079020  19.5757390
  60.8730050  45.8630470  18.6904340  60.2438930  46.3315570  19.2390170
  60.9877880  45.0179690  19.1250530  69.4221620  31.8943660  34.4770800
  69.3087070  32.2138270  35.3722320  70.2391360  32.2956170  34.1808080
  72.2020110  49.0415190  33.9589490  72.9945430  48.5464420  33.7515450
  72.4953260  49.7205330  34.5665100  68.3279770  39.9136130   4.8405540
  68.2473820  38.9990740   4.5697250  67.9144190  40.4103200   4.1345250
  66.4597810  41.6915150   6.7214810  65.6839910  41.2115590   7.0113380
  67.1110740  41.0120800   6.5470970  60.4763640  42.0034960   7.5990570
  59.6448520  41.7483670   7.9987080  61.0844620  42.0745730   8.3348490
  70.4805240  46.0975340   5.5013940  70.0186770  45.3262580   5.8301110
  71.2930790  46.1241410   6.0066390  60.4564900  46.0375050   7.7948590
  60.7592940  45.1472790   7.6158810  61.2008490  46.5945270   7.5670840
  56.8488600  39.5642500   7.2672660  57.4204710  38.7964700   7.2676300
  56.8490140  39.8631260   6.3579270  66.7068550  48.3833350   5.1217930
  66.0879990  48.8390850   4.5512370  67.5620330  48.5384810   4.7207630
  65.9006800  44.3672340   6.7284970  65.8315080  43.4262280   6.5674100
  66.6626660  44.4573750   7.3007540  58.0913470  34.9726860   9.0541590
  57.9116310  34.0752610   9.3344350  57.6893550  35.5198730   9.7288540
  66.9311970  37.1742720   6.9553900  67.3076790  36.3014600   6.8427570
  66.8331480  37.5101420   6.0644340  61.0616980  35.5468350   2.4171340
  61.1683730  36.4472080   2.7240100  60.1509340  35.4986320   2.1265990
  70.7136090  34.6693160   3.8882240  71.5345710  34.1789730   3.9307720
  70.7470170  35.2590820   4.6414080  58.7100140  37.4687360   7.6623930
  59.3910250  37.7325730   8.2811330  58.3948190  36.6288230   7.9961940
  62.9024710  38.5154720   6.7496520  63.4102930  39.0135690   7.3901540
  63.4337950  37.7389920   6.5735880  75.0035640  36.6859910  10.4525870
  74.2987810  37.0741620   9.9340980  75.2693560  37.3810200  11.0546800
  61.1860810  33.1553280  11.0159940  61.1879250  33.6725670  10.2105840
  60.3565120  32.6783460  10.9929870  67.5731900  43.2672590   2.5149840
  66.9549170  43.7322040   1.9512560  68.0855150  43.9600070   2.9319350
  62.4363660  42.7948460   9.1933440  62.1033040  43.4217380   9.8354510
  62.6130340  43.3210340   8.4135110  70.9497570  36.6093540   6.6609780
  70.2453140  36.8978430   7.2412890  71.3109730  37.4193650   6.3009340
  60.8676140  34.8663240   9.0230390  61.2092950  35.7105290   8.7284260
  59.9291950  35.0146980   9.1395730  61.6482760  44.7629260  11.0082620
  62.2656760  45.4380340  10.7267070  60.7875880  45.1717240  10.9170120
  72.5660350  46.2268670   8.9237260  71.8823870  46.8967780   8.9153930
  73.1054640  46.4249320   8.1582120  74.0184490  36.0548330   7.0518990
  73.0709400  36.0887310   7.1834420  74.3434480  36.8687280   7.4368350
  64.5504030  32.3545510   5.3474980  64.8579010  31.7992400   4.6310480
  63.6204730  32.4889970   5.1647970  70.1019090  48.0712800   7.6382440
  70.1146250  47.6675090   6.7704700  69.5494310  48.8460090   7.5343870
  71.3964510  44.7929020   2.7272610  71.2860840  43.8503350   2.8522030
  71.3932760  45.1544660   3.6135370  69.5004530  42.9742640   8.9665050
  69.9173320  42.7602750   8.1318510  70.2244350  43.2315430   9.5373670
  66.9384790  40.4194340   2.0835100  66.0114070  40.3531720   2.3123570
  67.0909610  41.3574470   1.9690340  73.4466630  41.3729860   9.0581290
  72.6185260  41.4422950   8.5831420  74.0417110  41.9584170   8.5897120
  70.9682080  41.9814640   2.5870350  70.3494500  41.6434190   1.9396650
  70.9506530  41.3374400   3.2949540  70.4108640  38.1599180  10.0036160
  69.9979820  38.9852890  10.2576150  69.6784590  37.5744220   9.8112520
  62.5441430  40.9459080   4.8654830  62.1398430  40.2336330   4.3700730
  62.6304550  40.6012320   5.7542870  63.0123130  44.6326640   7.0294040
  62.7151420  44.0272110   6.3501820  63.9622950  44.6703950   6.9183400
  61.2570050  37.7202290   8.6453870  61.8084640  37.8297630   7.8707120
  61.7713560  38.0939890   9.3609100  71.1008740  48.2058510  10.6917140
  70.6239300  49.0130700  10.4989750  70.4170530  47.5536840  10.8443350
  62.1041560  44.3708330  13.6801840  61.2070090  44.5948300  13.9275240
  62.1294430  44.4943270  12.7313240  60.9312780  41.2421650  12.2559210
  60.7920550  42.1144450  12.6246610  60.0494140  40.8994460  12.1107150
  67.2542160  46.1597520   3.5624340  67.6938070  46.9021850   3.1479730
  67.1929050  46.4024090   4.4863300  62.7293130  47.1843350  14.4644360
  62.7008560  47.5886300  13.5972790  62.5658100  46.2553710  14.3015960
  59.2446060  39.8404060   2.3661480  59.1243660  40.5666150   1.7542750
  58.9346950  39.0706970   1.8889390  74.6807950  47.9670450  15.7608530
  75.1567670  48.4453340  16.4397610  75.3015110  47.8987940  15.0354030
  56.8831430  43.0119200   8.1730120  56.9611850  43.1467970   7.2285840
  57.4973110  42.3035090   8.3658240  58.1279060  44.7119390   4.5836300
  57.7207140  44.8533980   3.7289900  59.0192070  44.4279550   4.3807510
  74.0841200  45.1583300  12.9208540  74.2104260  44.9195180  12.0025720
  74.1262580  44.3267840  13.3930620  67.9457940  48.8611300  11.4903350
  68.4602610  48.7719310  12.2925780  67.1027020  49.2071000  11.7831260
  62.4000720  48.9265170   2.6958970  62.2243200  48.0100710   2.4826770
  61.5456460  49.2852460   2.9356770  69.1888400  48.2816910   3.5533840
  69.6445350  47.5006290   3.8672460  69.5280920  48.9923730   4.0975020
  73.9365210  37.2115760  13.8858280  73.3209480  37.7195430  13.3573740
  73.6161630  36.3114090  13.8284220  56.9390950  44.0533370  10.7124580
  57.1021990  43.5838730   9.8943950  57.4043400  43.5456930  11.3773420
  61.7109720  33.1839130   5.7485150  61.2677870  33.9648670   5.4169670
  62.2694710  33.5069020   6.4556090  65.9979530  36.0507650  11.3520470
  65.5358900  36.2590670  12.1640410  65.5957640  35.2367000  11.0491140
  70.9984040  37.2716600  12.4817130  70.1477630  36.9722350  12.8026200
  70.8385830  37.5158610  11.5700950  68.0933750  38.7718350  14.5815920
  68.4187160  37.9382100  14.2418150  68.8814080  39.2946870  14.7294250
  63.7485620  33.7286460   7.6074750  64.0457950  34.6349290   7.5266770
  64.2971180  33.2405240   6.9934320  61.5023940  38.3072700   3.4766400
  61.2764860  38.0909870   4.3813020  60.7216470  38.7401160   3.1312370
  68.7321700  38.3136070   2.0757050  68.1330590  39.0371870   1.8920670
  69.2801310  38.2512850   1.2933500  63.9423150  39.2058280  14.1426670
  63.8466750  38.2653010  13.9927070  64.7855130  39.4273350  13.7474740
  67.3386570  36.9499610   4.1060330  67.7316140  37.2671810   3.2929020
  67.7003420  36.0711490   4.2204850  59.0733690  35.6171950  12.2960450
  58.6797080  36.4647160  12.5033230  58.3852090  34.9798320  12.4869090
  65.6478740  35.7006920  15.3657190  64.9577060  35.5079120  16.0003280
  66.3911040  35.9841560  15.8981490  56.3750740  33.5400410   6.3290530
  56.0863790  34.1103270   7.0415510  57.1196500  33.0604860   6.6921760
  67.9241710  39.5405360   8.2011110  67.1922830  40.0492170   8.5501210
  67.5266050  38.7235340   7.8999890  64.3619100  36.2159560   6.6063600
  64.3655160  35.7749510   5.7568140  65.2570220  36.5376890   6.7135420
  60.2121480  36.0986050   5.5657810  59.8721530  36.5761280   6.3224860
  59.4498800  35.6451170   5.2058910  68.3867620  34.9939040   7.6134050
  68.4040360  35.4447690   8.4575900  68.1383200  34.0944680   7.8267490
  71.8138370  32.4071220  13.4520430  72.1384140  31.6760880  13.9778410
  71.8494880  32.0884860  12.5501420  58.5129930  43.4284800  12.8720390
  58.1284720  42.7878470  13.4703350  58.8242120  44.1320920  13.4415120
  64.6627070  40.2761340   8.3529010  65.0297200  39.8019910   9.0990350
  64.4732130  41.1502910   8.6937350  57.5267560  35.0205030   4.4822480
  57.2414480  34.6560700   5.3201100  57.4646420  34.2885490   3.8685620
  62.4526440  39.3169980  10.6713220  62.1483510  40.1961960  10.8963580
  63.4072900  39.3769770  10.7070660  71.7396210  42.5196330   7.0606460
  72.4595330  43.0151620   6.6702570  71.5378030  41.8414220   6.4160330
  67.1215010  42.5905390  12.9475460  67.0552320  41.6701060  12.6933050
  66.4920150  42.6880830  13.6620100  61.0245630  43.1911350   4.9058880
  61.5424300  42.3879610   4.8515770  60.5729650  43.1290490   5.7475710
  58.5090170  40.1572720  11.8184580  58.1505110  40.8226570  12.4057920
  58.2144730  39.3256270  12.1897200  61.7103290  40.6156960  14.7024130
  61.4103430  40.7614140  13.8051950  62.4814530  40.0562250  14.6097520
  67.0531740  45.4125960  12.6979260  67.0676280  44.4806920  12.4798170
  66.3456840  45.4985720  13.3369030  73.2642950  42.0533300  12.0447840
  72.5391140  42.6462080  11.8477230  73.7918410  42.0456840  11.2461210
  68.7942540  43.7793470   5.5431690  69.1466360  43.1821600   4.8833060
  67.9104870  43.4537700   5.7139940  64.8805820  44.5391160   2.9502100
  65.5676950  45.0860370   3.3309690  64.0938240  45.0831890   2.9851710
  64.1833030  41.5437190   2.5627460  64.6395810  42.3542440   2.7887650
  63.8321240  41.2260330   3.3945950  66.4865640  47.0543530   9.7919760
  67.1307860  47.2602910  10.4693180  66.8495080  46.2931930   9.3390610
  60.0844810  31.8874840   3.0349980  59.9559440  31.8792740   3.9834900
  59.2606830  32.2257930   2.6840990  67.7597720  45.0575880   8.5097210
  68.4019950  44.3569040   8.6229380  68.2847070  45.8374320   8.3294100
  69.5335340  45.8570780  11.7133270  69.8691580  46.4437470  12.3911190
  68.6135680  45.7263490  11.9431060  57.0838740  33.6465960  12.4956680
  56.3697260  33.8462880  13.1009290  57.5033780  32.8705530  12.8671480
  57.3711330  47.6346220  13.4823210  57.4802450  46.6940960  13.3418600
  56.7191890  47.9000970  12.8336940  65.3623920  45.9062110  14.8821330
  65.0420790  45.1871350  15.4267020  64.6882280  46.5817180  14.9557390
  68.5777520  36.1388270  10.2458130  68.9458340  35.3183480  10.5737700
  67.7175720  36.1990160  10.6613780  63.9123580  37.3731160   2.4703570
  63.2039730  37.8417500   2.9117180  64.1968060  36.7153170   3.1048760
  65.5379510  38.7927860  10.4696100  66.0364760  39.2673680  11.1347950
  65.6802460  37.8691380  10.6766130  67.9439010  34.0981820   3.9099360
  67.8206790  34.1167950   2.9608870  68.8923570  34.1460760   4.0297760
  65.0315800  49.3337120   3.1827340  65.2857300  49.2958510   2.2606710
  64.0828280  49.2070450   3.1755590  72.7446370  35.0095820  11.3124490
  72.2419970  35.7501220  11.6518300  73.5603030  35.3979820  10.9961280
  71.0368380  40.2529000   4.7585850  70.0958520  40.2679230   4.9333540
  71.3512450  39.4664960   5.2046150  73.0393960  47.4237850   6.4340110
  73.1641380  48.2469020   6.9063920  73.9059520  47.2128580   6.0864260
  60.5111490  49.5169060   6.1057240  61.2473970  48.9684520   6.3765810
  60.8952410  50.3825070   5.9663230  57.3956970  45.5842630   1.9798750
  56.4696750  45.8263770   1.9704160  57.8613400  46.4116890   1.8583500
  59.5169770  48.7015130  15.2942820  60.3182500  49.0227180  15.7078220
  59.0021590  48.3410710  16.0162730  68.3534400  44.8095000  15.2418230
  67.7472560  44.8326600  14.5013980  68.0488510  44.0778040  15.7785480
  69.7834770  48.5375290  13.8527640  70.7356520  48.4533310  13.8027880
  69.6362990  49.2017000  14.5261430  57.2367580  41.1888590  14.2378870
  57.7406600  40.6095870  14.8095100  56.4975000  41.4728820  14.7755240
  64.2905520  42.5959580  13.7714390  63.5251190  43.1644580  13.6869060
  64.4721480  42.3035790  12.8782620  71.4328870  44.3264910  14.3289410
  72.1738340  44.6640670  13.8256870  70.6701550  44.4956970  13.7759180
  59.2690660  39.3318180  15.1328940  59.3096000  39.0332050  16.0414170
  60.1236160  39.7325790  14.9736460  61.2096470  37.9110280  13.1003430
  60.6792930  37.4201230  12.4726770  61.8784540  38.3394480  12.5661360
  70.1074530  42.3779740  12.8644620  70.5215550  42.5324820  13.7135040
  69.1725530  42.5034960  13.0270400  70.5796700  39.7175900  14.8683770
  71.1617470  38.9628220  14.7804250  70.7558470  40.2483340  14.0915250
  61.6968770  34.8772650  13.1800720  61.6025640  34.2593400  12.4551590
  61.1166160  35.6038940  12.9530630  64.4630210  33.4345890  10.2128110
  64.0147510  33.4570150   9.3673660  63.8295410  33.0364910  10.8098410
  64.8689760  42.3300220  10.8340550  65.2877870  43.1732950  10.6616790
  63.9498390  42.4672260  10.6047330  67.2053660  40.0616400  12.2178390
  67.3249870  39.4657540  12.9573230  68.0647660  40.0986090  11.7979690
  69.5441560  40.6153590  10.7940900  69.0176780  41.1396210  10.1906040
  69.8872900  41.2480980  11.4250630  62.7197180  48.6353230  11.9498280
  62.1818270  49.3599290  11.6306980  62.9731140  48.1583570  11.1595620
  63.9722430  36.6037750  13.4754210  64.5622120  36.2953600  14.1632030
  63.1542670  36.1317500  13.6314110  68.7915860  36.2203560  13.7087230
  68.1031380  35.5585100  13.6437220  69.5121880  35.7741830  14.1535690
  65.5759390  49.8704440  12.2084930  65.5018090  50.7739580  12.5157300
  64.6738230  49.5516340  12.1807000  56.9786680  47.1979030   5.5118550
  57.3089690  46.3300090   5.2797190  57.4077680  47.4037550   6.3423510
  61.5748600  45.5288040   3.1720520  61.2744140  45.4053010   4.0724430
  61.4686090  44.6696630   2.7636250  57.4676890  48.0649620   8.2500180
  57.0307880  48.2450420   9.0824330  58.0354570  48.8224240   8.1081900
  73.1039070  47.5666620  12.5377490  72.5041060  47.6259180  11.7941410
  73.2332970  46.6271600  12.6674340  57.3001320  40.5769850   4.6089060
  56.6450160  40.3081490   3.9648760  58.1379270  40.4674330   4.1591040
  74.8056950  42.9082020   5.2223330  75.1765780  42.1249340   4.8159300
  75.4458880  43.5971120   5.0440630  71.7890710  44.2918600  10.6353650
  70.9750550  44.7215760  10.8979440  72.1964910  44.9037010  10.0222700
  73.7481490  40.2835280   2.5283350  73.3725090  39.5163210   2.0964640
  73.0184610  40.6657980   3.0158280  58.3377250  40.9622420   9.1492400
  58.7050290  40.8749820  10.0288420  57.7688070  40.1988970   9.0499260
  73.1381110  39.4306800  12.1622870  72.9067200  39.2019550  11.2620820
  73.3985660  40.3506350  12.1167760  57.8893250  37.8731510  13.0550820
  56.9949300  37.8398270  13.3944530  58.4290800  38.0718300  13.8202070
  71.5769180  34.6563230  14.9402570  72.4539360  34.6646630  15.3236570
  71.5890020  33.9194070  14.3294920  73.0232450  38.5092770   5.8290590
  73.5469930  38.0155420   5.1980760  73.6091870  38.6443130   6.5738160
  73.2022170  38.5932640   9.3510140  72.2524880  38.5596180   9.4655130
  73.3835180  39.5032750   9.1159910  72.5132420  37.7666120   1.7683000
  73.0091540  37.5336990   2.5531880  72.3148490  36.9277960   1.3520640
  58.3932960  32.1479840   7.4034040  59.0409150  31.5977220   6.9629200
  58.8134800  32.4022990   8.2249850  73.9419580  36.4027070   4.3020680
  73.8318860  36.2483110   5.2402950  74.7027170  35.8748010   4.0596090
  72.2885300  32.3421200  10.7603680  72.9257520  32.9555340  11.1262870
  72.4360190  32.3781860   9.8152910  71.8466760  49.0437200   4.1621920
  72.4425830  48.7221770   3.4856340  72.1044910  48.5709020   4.9535190
  58.1464960  32.3035510  10.1459360  57.7979780  32.7599330  10.9117540
  57.8152660  31.4092640  10.2281790  59.7529330  45.4755110  14.3112550
  59.7098960  45.1048020  15.1927010  59.8840340  46.4132680  14.4514370
  63.4535360  47.0314700   9.9122270  63.2126720  47.2989260   9.0252790
  64.3938000  47.2020430   9.9673130  65.6589780  33.4947390  13.6678780
  65.5978670  34.0869220  14.4174190  66.5990160  33.3873350  13.5229040
  68.2964340  33.1517450  13.3071070  68.9104750  33.4696740  12.6452150
  68.8413900  32.6666040  13.9266930  74.7139520  49.0509080  10.7132910
  74.2197800  49.4477950   9.9960040  74.1052810  48.4258290  11.1070190
  58.8185600  31.8311710  13.4210130  59.3668590  31.6499760  12.6576240
  58.8840910  31.0405820  13.9566440  59.5917360  48.4217360  11.4310330
  58.9977680  48.2902060  12.1700370  59.5841200  47.5855500  10.9652430
  69.0372380  31.7149590   9.6340360  68.1632220  32.0484700   9.4313290
  68.9283130  31.2422770  10.4592230  69.9444360  33.9220460  11.0182080
  69.6157720  33.1072220  10.6383810  70.8926660  33.8790270  10.8947770
  72.3978970  49.6932500   7.9919650  71.9381940  50.4448310   7.6177670
  71.7691430  48.9738970   7.9334450  59.2229590  45.7875740  10.3818370
  58.4963650  45.1681030  10.3144320  59.2838740  46.1816350   9.5116450
  62.8274690  48.0020740   7.1667780  63.3439710  47.3908100   6.6416040
  63.4772070  48.5049520   7.6578790  65.5670190  48.8929230   7.9936760
  65.8548000  48.6383530   7.1169770  66.0793410  48.3406590   8.5842330
  66.7847200  32.6319430   8.5733270  66.0018990  33.1064930   8.8530030
  66.4910130  31.7274260   8.4646450  71.3368270  33.3342530   6.6182360
  71.7776360  33.2787630   5.7703960  71.0675860  34.2500540   6.6892540
  73.2006840  32.9657770   4.6291180  73.1395240  32.0218990   4.4822200
  73.9798870  33.0737860   5.1744640  57.5059590  49.1050130   3.5915130
  57.3381630  48.4720810   4.2897020  56.6394100  49.3109530   3.2409320
  64.6701420  35.0506180   4.0849300  63.8575930  34.6763070   3.7445180
  65.1743060  34.2951260   4.3870490  69.1726400  31.7148630   5.3232370
  69.7755770  32.2868840   5.7980890  68.4319390  32.2788070   5.1006270
  62.6950600  33.2006100   2.6894350  62.0653340  32.4993410   2.8564480
  62.1555740  33.9610230   2.4727510  65.6342550  49.8145330  15.3604960
  66.5609860  49.5789600  15.4040920  65.6192980  50.6417330  14.8790990
  73.8687610  49.3570900   2.3579210  74.0439800  48.6708640   1.7140130
  73.1709180  49.8817950   1.9655880  62.8206160  32.4790080  15.1246840
  62.5390430  32.9823680  14.3607660  63.2025860  31.6811830  14.7588970
  69.4221620  31.8943660  15.7027310  69.3087070  32.2138270  16.5978830
  70.2391360  32.2956170  15.4064590  72.2020110  49.0415190  15.1846000
  72.9945430  48.5464420  14.9771960  72.4953260  49.7205330  15.7921610
  68.3279770  21.1392640  79.9379500  68.2473820  20.2247250  79.6671210
  67.9144190  21.6359710  79.2319210  66.4597810  22.9171660  81.8188770
  65.6839910  22.4372100  82.1087340  67.1110740  22.2377310  81.6444930
  60.4763640  23.2291470  82.6964530  59.6448520  22.9740180  83.0961040
  61.0844620  23.3002240  83.4322450  70.4805240  27.3231850  80.5987900
  70.0186770  26.5519090  80.9275070  71.2930790  27.3497920  81.1040350
  60.4564900  27.2631560  82.8922550  60.7592940  26.3729300  82.7132770
  61.2008490  27.8201780  82.6644800  58.8855590  18.1893360  76.4806920
  57.9972290  18.5309330  76.3786800  59.1696780  17.9893680  75.5887750
  56.8488600  20.7899010  82.3646620  57.4204710  20.0221210  82.3650260
  56.8490140  21.0887770  81.4553230  66.7068550  29.6089860  80.2191890
  66.0879990  30.0647360  79.6486330  67.5620330  29.7641320  79.8181590
  65.9006800  25.5928850  81.8258930  65.8315080  24.6518790  81.6648060
  66.6626660  25.6830260  82.3981500  58.0913470  16.1983370  84.1515550
  57.9116310  15.3009120  84.4318310  57.6893550  16.7455240  84.8262500
  66.9311970  18.3999230  82.0527860  67.3076790  17.5271110  81.9401530
  66.8331480  18.7357930  81.1618300  61.0616980  16.7724860  77.5145300
  61.1683730  17.6728590  77.8214060  60.1509340  16.7242830  77.2239950
  70.7136090  15.8949670  78.9856200  71.5345710  15.4046240  79.0281680
  70.7470170  16.4847330  79.7388040  58.7100140  18.6943870  82.7597890
  59.3910250  18.9582240  83.3785290  58.3948190  17.8544740  83.0935900
  62.9024710  19.7411230  81.8470480  63.4102930  20.2392200  82.4875500
  63.4337950  18.9646430  81.6709840  75.0035640  17.9116420  85.5499830
  74.2987810  18.2998130  85.0314940  75.2693560  18.6066710  86.1520760
  61.1860810  14.3809790  86.1133900  61.1879250  14.8982180  85.3079800
  60.3565120  13.9039970  86.0903830  67.5731900  24.4929100  77.6123800
  66.9549170  24.9578550  77.0486520  68.0855150  25.1856580  78.0293310
  62.4363660  24.0204970  84.2907400  62.1033040  24.6473890  84.9328470
  62.6130340  24.5466850  83.5109070  70.9497570  17.8350050  81.7583740
  70.2453140  18.1234940  82.3386850  71.3109730  18.6450160  81.3983300
  60.8676140  16.0919750  84.1204350  61.2092950  16.9361800  83.8258220
  59.9291950  16.2403490  84.2369690  61.6482760  25.9885770  86.1056580
  62.2656760  26.6636850  85.8241030  60.7875880  26.3973750  86.0144080
  56.9415100  25.1785630  74.9863430  56.5643080  25.6672730  74.2548330
  57.1988170  25.8510910  75.6169960  72.5660350  27.4525180  84.0211220
  71.8823870  28.1224290  84.0127890  73.1054640  27.6505830  83.2556080
  74.0184490  17.2804840  82.1492950  73.0709400  17.3143820  82.2808380
  74.3434480  18.0943790  82.5342310  64.5504030  13.5802020  80.4448940
  64.8579010  13.0248910  79.7284440  63.6204730  13.7146480  80.2621930
  70.1019090  29.2969310  82.7356400  70.1146250  28.8931600  81.8678660
  69.5494310  30.0716600  82.6317830  71.3964510  26.0185530  77.8246570
  71.2860840  25.0759860  77.9495990  71.3932760  26.3801170  78.7109330
  69.5004530  24.1999150  84.0639010  69.9173320  23.9859260  83.2292470
  70.2244350  24.4571940  84.6347630  66.9384790  21.6450850  77.1809060
  66.0114070  21.5788230  77.4097530  67.0909610  22.5830980  77.0664300
  66.9253870  17.9167850  74.1776220  65.9857540  18.0781810  74.2628680
  67.2437130  18.6353530  73.6312210  73.4466630  22.5986370  84.1555250
  72.6185260  22.6679460  83.6805380  74.0417110  23.1840680  83.6871080
  70.9682080  23.2071150  77.6844310  70.3494500  22.8690700  77.0370610
  70.9506530  22.5630910  78.3923500  70.4108640  19.3855690  85.1010120
  69.9979820  20.2109400  85.3550110  69.6784590  18.8000730  84.9086480
  62.5441430  22.1715590  79.9628790  62.1398430  21.4592840  79.4674690
  62.6304550  21.8268830  80.8516830  63.0123130  25.8583150  82.1268000
  62.7151420  25.2528620  81.4475780  63.9622950  25.8960460  82.0157360
  61.2570050  18.9458800  83.7427830  61.8084640  19.0554140  82.9681080
  61.7713560  19.3196400  84.4583060  71.1008740  29.4315020  85.7891100
  70.6239300  30.2387210  85.5963710  70.4170530  28.7793350  85.9417310
  69.1446780  22.4457960  74.6917060  69.5840060  21.6080390  74.5454880
  69.8575200  23.0787360  74.7781200  67.2542160  27.3854030  78.6598300
  67.6938070  28.1278360  78.2453690  67.1929050  27.6280600  79.5837260
  72.7263920  13.7000770  73.0058100  72.4136580  13.7927600  73.9057170
  73.4876390  14.2781800  72.9555530  59.2446060  21.0660570  77.4635440
  59.1243660  21.7922660  76.8516710  58.9346950  20.2963480  76.9863350
  56.8831430  24.2375710  83.2704080  56.9611850  24.3724480  82.3259800
  57.4973110  23.5291600  83.4632200  58.1279060  25.9375900  79.6810260
  57.7207140  26.0790490  78.8263860  59.0192070  25.6536060  79.4781470
  69.9212340  30.3723150  76.0161310  69.7613480  30.0826090  76.9143140
  69.7559050  29.5963280  75.4806540  62.4000720  30.1521680  77.7932930
  62.2243200  29.2357220  77.5800730  61.5456460  30.5108970  78.0330730
  69.6238470  27.8810710  74.5759310  68.9303630  27.8788000  73.9161590
  70.3661330  27.4570030  74.1453480  69.1888400  29.5073420  78.6507800
  69.6445350  28.7262800  78.9646420  69.5280920  30.2180240  79.1948980
  56.9390950  25.2789880  85.8098540  57.1021990  24.8095240  84.9917910
  57.4043400  24.7713440  86.4747380  61.7109720  14.4095640  80.8459110
  61.2677870  15.1905180  80.5143630  62.2694710  14.7325530  81.5530050
  64.8268540  14.0306340  75.7264940  64.2022720  14.0266210  76.4518250
  64.7398660  13.1637300  75.3300910  63.7485620  14.9542970  82.7048710
  64.0457950  15.8605800  82.6240730  64.2971180  14.4661750  82.0908280
  61.5023940  19.5329210  78.5740360  61.2764860  19.3166380  79.4786980
  60.7216470  19.9657670  78.2286330  68.7321700  19.5392580  77.1731010
  68.1330590  20.2628380  76.9894630  69.2801310  19.4769360  76.3907460
  67.3386570  18.1756120  79.2034290  67.7316140  18.4928320  78.3902980
  67.7003420  17.2968000  79.3178810  56.3750740  14.7656920  81.4264490
  56.0863790  15.3359780  82.1389470  57.1196500  14.2861370  81.7895720
  56.5620970  18.7077040  72.6367210  56.4795640  19.6507800  72.7782200
  56.2104030  18.5651950  71.7579560  67.9241710  20.7661870  83.2985070
  67.1922830  21.2748680  83.6475170  67.5266050  19.9491850  82.9973850
  64.3619100  17.4416070  81.7037560  64.3655160  17.0006020  80.8542100
  65.2570220  17.7633400  81.8109380  60.2121480  17.3242560  80.6631770
  59.8721530  17.8017790  81.4198820  59.4498800  16.8707680  80.3032870
  64.4239250  18.4428150  74.6944320  64.5452070  18.4014630  75.6430140
  64.0387760  19.3052300  74.5391050  68.3867620  16.2195550  82.7108010
  68.4040360  16.6704200  83.5549860  68.1383200  15.3201190  82.9241450
  63.4360750  20.7529290  74.0927620  62.8677650  20.3047540  73.4663530
  64.1449750  21.1122070  73.5592770  64.6627070  21.5017850  83.4502970
  65.0297200  21.0276420  84.1964310  64.4732130  22.3759420  83.7911310
  57.5267560  16.2461540  79.5796440  57.2414480  15.8817210  80.4175060
  57.4646420  15.5142000  78.9659580  62.4526440  20.5426490  85.7687180
  62.1483510  21.4218470  85.9937540  63.4072900  20.6026280  85.8044620
  60.9808230  24.7487480  76.3654030  60.2070490  24.2085100  76.2052750
  61.7102860  24.2294090  76.0271790  71.7396210  23.7452840  82.1580420
  72.4595330  24.2408130  81.7676530  71.5378030  23.0670730  81.5134290
  67.2006150  15.1390800  76.3009810  66.3870760  14.6403970  76.2255120
  67.0068100  15.9789050  75.8846160  69.9154540  19.5110450  74.5971970
  70.8034160  19.8227680  74.4223310  69.8859630  18.6382700  74.2052550
  61.0245630  24.4167860  80.0032840  61.5424300  23.6136120  79.9489730
  60.5729650  24.3547000  80.8449670  65.9115130  25.6834140  75.2760140
  66.2530830  26.4276370  74.7803460  65.0827840  25.9965260  75.6384970
  72.1868810  20.8222290  74.0651830  72.1032530  21.2536510  73.2148270
  72.9063000  21.2820640  74.4978650  73.2156060  27.6764550  76.7933960
  72.5732220  27.0220170  77.0677680  72.8286720  28.0819640  76.0174630
  68.7942540  25.0049980  80.6405650  69.1466360  24.4078110  79.9807020
  67.9104870  24.6794210  80.8113900  64.8805820  25.7647670  78.0476060
  65.5676950  26.3116880  78.4283650  64.0938240  26.3088400  78.0825670
  57.0198220  21.3820490  73.5393140  57.8893070  21.6645290  73.8229060
  56.5288540  22.1956360  73.4241950  64.1833030  22.7693700  77.6601420
  64.6395810  23.5798950  77.8861610  63.8321240  22.4516840  78.4919910
  66.4865640  28.2800040  84.8893720  67.1307860  28.4859420  85.5667140
  66.8495080  27.5188440  84.4364570  60.0844810  13.1131350  78.1323940
  59.9559440  13.1049250  79.0808860  59.2606830  13.4514440  77.7814950
  67.7597720  26.2832390  83.6071170  68.4019950  25.5825550  83.7203340
  68.2847070  27.0630830  83.4268060  71.6053440  26.5681010  73.3310310
  71.3791020  25.8511450  73.9234950  71.2149640  26.3193450  72.4932060
  57.3869470  30.5947870  74.1054770  57.7467110  31.1937210  73.4512040
  57.2461810  31.1407760  74.8789800  71.1869690  24.4852950  74.9924470
  70.8991390  24.9465640  75.7802350  71.9821860  24.0250720  75.2608690
  63.4038090  27.9779070  74.9228440  63.3948190  28.7108760  74.3072950
  62.4836450  27.7310650  75.0155400  59.0044730  23.1993960  75.6675200
  58.3972680  23.9392860  75.6770500  59.4794080  23.2893320  74.8413400
  68.5777520  17.3644780  85.3432090  68.9458340  16.5439990  85.6711660
  67.7175720  17.4246670  85.7587740  71.9439550  16.3201720  76.1519650
  71.3152710  16.4247390  75.4377880  71.4491470  16.5398500  76.9413530
  66.3897690  28.0407310  73.5853630  66.4909670  27.8371300  72.6555610
  65.4899430  27.7865590  73.7901410  63.9123580  18.5987670  77.5677530
  63.2039730  19.0674010  78.0091140  64.1968060  17.9409680  78.2022720
  65.5379510  20.0184370  85.5670060  66.0364760  20.4930190  86.2321910
  65.6802460  19.0947890  85.7740090  67.9439010  15.3238330  79.0073320
  67.8206790  15.3424460  78.0582830  68.8923570  15.3717270  79.1271720
  65.0315800  30.5593630  78.2801300  65.2857300  30.5215020  77.3580670
  64.0828280  30.4326960  78.2729550  62.1158600  16.9072750  74.9428240
  62.9649130  17.3442900  74.8768430  61.7489870  17.2193010  75.7700300
  72.7446370  16.2352330  86.4098450  72.2419970  16.9757730  86.7492260
  73.5603030  16.6236330  86.0935240  71.0368380  21.4785510  79.8559810
  70.0958520  21.4935740  80.0307500  71.3512450  20.6921470  80.3020110
  61.0150020  23.1605110  73.4163770  61.7813290  23.0486470  73.9789200
  61.0924710  22.4643080  72.7640540  59.7096780  20.5930180  74.0996660
  59.7900370  19.6457690  74.2114060  60.6016530  20.9237060  74.2057320
  73.0393960  28.6494360  81.5314070  73.1641380  29.4725530  82.0037880
  73.9059520  28.4385090  81.1838220  60.5111490  30.7425570  81.2031200
  61.2473970  30.1941030  81.4739770  60.8952410  31.6081580  81.0637190
  57.3956970  26.8099140  77.0772710  56.4696750  27.0520280  77.0678120
  57.8613400  27.6373400  76.9557460  63.6213800  29.9155880  73.0256770
  64.4142410  30.2044710  72.5738560  63.1018150  29.4848050  72.3469250
  72.6743970  29.1426010  74.4493510  72.3885480  28.7291150  73.6347690
  72.4763520  30.0713720  74.3294030  64.1391200  25.1359290  72.8899120
  64.0341840  24.5211640  73.6160500  63.9715420  24.6125180  72.1062130
  67.3793930  24.1979320  73.4941110  66.8304030  24.6448620  74.1383850
  68.0013190  23.6928570  74.0178780  63.0469050  23.1570240  75.3906410
  63.4685470  22.9910110  76.2337800  63.1719890  22.3470470  74.8961550
  65.5596690  22.1807850  72.6383510  66.0802350  21.4656870  72.2724660
  66.2065090  22.8193720  72.9384020  64.4630210  14.6602400  85.3102070
  64.0147510  14.6826660  84.4647620  63.8295410  14.2621420  85.9072370
  64.8689760  23.5556730  85.9314510  65.2877870  24.3989460  85.7590750
  63.9498390  23.6928770  85.7021290  69.5441560  21.8410100  85.8914860
  69.0176780  22.3652720  85.2880000  69.8872900  22.4737490  86.5224590
  61.9427950  19.2303470  72.3364570  61.7417010  18.3670830  72.6977910
  61.7720000  19.1436830  71.3986170  69.4216260  14.0411700  74.8651450
  69.7018550  13.1979600  75.2210870  68.6481990  14.2734810  75.3790200
  60.7410750  16.3304090  72.3242450  61.0436650  16.3371520  71.4161600
  61.4805340  15.9801950  72.8210110  63.9595680  15.2738710  73.3098650
  63.6117680  14.5962700  72.7301100  64.1608450  14.8128220  74.1242040
  66.1244720  30.2619460  74.9285250  67.0195510  30.6004430  74.9504010
  66.1562350  29.5398870  74.3009530  59.7640880  25.6346510  73.1572250
  60.2015750  26.1776180  73.8129830  60.2488610  24.8093460  73.1668590
  56.9786680  28.4235540  80.6092510  57.3089690  27.5556600  80.3771150
  57.4077680  28.6294060  81.4397470  61.5748600  26.7544550  78.2694480
  61.2744140  26.6309520  79.1698390  61.4686090  25.8953140  77.8610210
  57.4676890  29.2906130  83.3474140  57.0307880  29.4706930  84.1798290
  58.0354570  30.0480750  83.2055860  74.3440520  26.5340950  72.9721160
  73.5133480  26.6017600  73.4428390  74.5212350  27.4245070  72.6688020
  73.7996980  23.2788430  75.4755360  74.5615890  23.8485080  75.5815050
  73.8151350  22.7115630  76.2463670  57.3001320  21.8026360  79.7063020
  56.6450160  21.5338000  79.0622720  58.1379270  21.6930840  79.2565000
  74.8056950  24.1338530  80.3197290  75.1765780  23.3505850  79.9133260
  75.4458880  24.8227630  80.1414590  71.7890710  25.5175110  85.7327610
  70.9750550  25.9472270  85.9953400  72.1964910  26.1293520  85.1196660
  73.8516150  23.5722800  72.6327880  74.1264990  24.4801680  72.5047100
  73.6626890  23.5085330  73.5689870  70.2491760  16.5967650  73.9281510
  70.6676640  16.4098630  73.0878170  69.9427820  15.7446700  74.2384440
  73.7481490  21.5091790  77.6257310  73.3725090  20.7419720  77.1938600
  73.0184610  21.8914490  78.1132240  58.3377250  22.1878930  84.2466360
  58.7050290  22.1006330  85.1262380  57.7688070  21.4245480  84.1473220
  56.5139400  19.0125290  75.6488350  55.6103480  19.2755490  75.4740010
  56.9980020  19.2836460  74.8688310  73.0232450  19.7349280  80.9264550
  73.5469930  19.2411930  80.2954720  73.6091870  19.8699640  81.6712120
  73.2022170  19.8189150  84.4484100  72.2524880  19.7852690  84.5629090
  73.3835180  20.7289260  84.2133870  59.0566610  18.0690830  73.5582730
  59.7658310  17.6474050  73.0730010  58.3406550  18.1366060  72.9266080
  58.7040770  14.1230160  72.5985380  59.4268900  14.6639100  72.9166600
  58.9765290  13.8493580  71.7226920  72.5132420  18.9922630  76.8656960
  73.0091540  18.7593500  77.6505840  72.3148490  18.1534470  76.4494600
  58.3932960  13.3736350  82.5008000  59.0409150  12.8233730  82.0603160
  58.8134800  13.6279500  83.3223810  73.9419580  17.6283580  79.3994640
  73.8318860  17.4739620  80.3376910  74.7027170  17.1004520  79.1570050
  72.2885300  13.5677710  85.8577640  72.9257520  14.1811850  86.2236830
  72.4360190  13.6038370  84.9126870  74.8309850  15.4591500  72.6400780
  75.7559160  15.3272680  72.4319070  74.8085640  15.5384320  73.5937230
  74.9048340  16.2302160  75.2657490  74.1099840  16.1647280  75.7950400
  75.1091620  17.1652800  75.2542840  71.8466760  30.2693710  79.2595880
  72.4425830  29.9478280  78.5830300  72.1044910  29.7965530  80.0509150
  58.1464960  13.5292020  85.2433320  57.7979780  13.9855840  86.0091500
  57.8152660  12.6349150  85.3255750  63.4535360  28.2571210  85.0096230
  63.2126720  28.5245770  84.1226750  64.3938000  28.4276940  85.0647090
  74.7139520  30.2765590  85.8106870  74.2197800  30.6734460  85.0934000
  74.1052810  29.6514800  86.2044150  69.0372380  12.9406100  84.7314320
  68.1632220  13.2741210  84.5287250  68.9283130  12.4679280  85.5566190
  69.9444360  15.1476970  86.1156040  69.6157720  14.3328730  85.7357770
  70.8926660  15.1046780  85.9921730  72.3978970  30.9189010  83.0893610
  71.9381940  31.6704820  82.7151630  71.7691430  30.1995480  83.0308410
  59.2229590  27.0132250  85.4792330  58.4963650  26.3937540  85.4118280
  59.2838740  27.4072860  84.6090410  62.8274690  29.2277250  82.2641740
  63.3439710  28.6164610  81.7390000  63.4772070  29.7306030  82.7552750
  65.5670190  30.1185740  83.0910720  65.8548000  29.8640040  82.2143730
  66.0793410  29.5663100  83.6816290  66.7847200  13.8575940  83.6707230
  66.0018990  14.3321440  83.9503990  66.4910130  12.9530770  83.5620410
  71.3368270  14.5599040  81.7156320  71.7776360  14.5044140  80.8677920
  71.0675860  15.4757050  81.7866500  73.2006840  14.1914280  79.7265140
  73.1395240  13.2475500  79.5796160  73.9798870  14.2994370  80.2718600
  57.5059590  30.3306640  78.6889090  57.3381630  29.6977320  79.3870980
  56.6394100  30.5366040  78.3383280  58.1287610  14.1623420  76.1920950
  58.8866970  14.2752300  75.6184980  57.6664780  14.9992620  76.1464380
  64.6701420  16.2762690  79.1823260  63.8575930  15.9019580  78.8419140
  65.1743060  15.5207770  79.4844450  69.1726400  12.9405140  80.4206330
  69.7755770  13.5125350  80.8954850  68.4319390  13.5044580  80.1980230
  72.3161000  13.3426700  75.6946610  72.5111630  14.2410150  75.9614040
  71.5290870  13.1113780  76.1879560  59.1122290  29.0239870  76.1339230
  58.5869910  29.4047900  75.4301190  59.0366870  29.6490640  76.8548940
  60.5012760  14.6887470  74.7322920  61.0305520  13.9017270  74.6030870
  61.1341080  15.3678660  74.9658450  62.6950600  14.4262610  77.7868310
  62.0653340  13.7249920  77.9538440  62.1555740  15.1866740  77.5701470
  73.8687610  30.5827410  77.4553170  74.0439800  29.8965150  76.8114090
  73.1709180  31.1074460  77.0629840  61.7115260  30.9722250  75.0088480
  62.4434080  30.6881530  74.4612370  61.9708930  30.7335530  75.8987860
  60.8730050  27.0886980  75.0134810  60.2438930  27.5572080  75.5620640
  60.9877880  26.2436200  75.4481000  68.3279770  21.1392640  61.1636010
  68.2473820  20.2247250  60.8927720  67.9144190  21.6359710  60.4575720
  66.4597810  22.9171660  63.0445280  65.6839910  22.4372100  63.3343850
  67.1110740  22.2377310  62.8701440  60.4763640  23.2291470  63.9221040
  59.6448520  22.9740180  64.3217550  61.0844620  23.3002240  64.6578960
  70.4805240  27.3231850  61.8244410  70.0186770  26.5519090  62.1531580
  71.2930790  27.3497920  62.3296860  60.4564900  27.2631560  64.1179060
  60.7592940  26.3729300  63.9389280  61.2008490  27.8201780  63.8901310
  58.8855590  18.1893360  57.7063430  57.9972290  18.5309330  57.6043310
  59.1696780  17.9893680  56.8144260  56.8488600  20.7899010  63.5903130
  57.4204710  20.0221210  63.5906770  56.8490140  21.0887770  62.6809740
  66.7068550  29.6089860  61.4448400  66.0879990  30.0647360  60.8742840
  67.5620330  29.7641320  61.0438100  65.9006800  25.5928850  63.0515440
  65.8315080  24.6518790  62.8904570  66.6626660  25.6830260  63.6238010
  58.0913470  16.1983370  65.3772060  57.9116310  15.3009120  65.6574820
  57.6893550  16.7455240  66.0519010  66.9311970  18.3999230  63.2784370
  67.3076790  17.5271110  63.1658040  66.8331480  18.7357930  62.3874810
  61.0616980  16.7724860  58.7401810  61.1683730  17.6728590  59.0470570
  60.1509340  16.7242830  58.4496460  70.7136090  15.8949670  60.2112710
  71.5345710  15.4046240  60.2538190  70.7470170  16.4847330  60.9644550
  58.7100140  18.6943870  63.9854400  59.3910250  18.9582240  64.6041800
  58.3948190  17.8544740  64.3192410  62.9024710  19.7411230  63.0726990
  63.4102930  20.2392200  63.7132010  63.4337950  18.9646430  62.8966350
  75.0035640  17.9116420  66.7756340  74.2987810  18.2998130  66.2571450
  75.2693560  18.6066710  67.3777270  61.1860810  14.3809790  67.3390410
  61.1879250  14.8982180  66.5336310  60.3565120  13.9039970  67.3160340
  67.5731900  24.4929100  58.8380310  66.9549170  24.9578550  58.2743030
  68.0855150  25.1856580  59.2549820  62.4363660  24.0204970  65.5163910
  62.1033040  24.6473890  66.1584980  62.6130340  24.5466850  64.7365580
  70.9497570  17.8350050  62.9840250  70.2453140  18.1234940  63.5643360
  71.3109730  18.6450160  62.6239810  60.8676140  16.0919750  65.3460860
  61.2092950  16.9361800  65.0514730  59.9291950  16.2403490  65.4626200
  61.6482760  25.9885770  67.3313090  62.2656760  26.6636850  67.0497540
  60.7875880  26.3973750  67.2400590  56.9415100  25.1785630  56.2119940
  56.5643080  25.6672730  55.4804840  57.1988170  25.8510910  56.8426470
  72.5660350  27.4525180  65.2467730  71.8823870  28.1224290  65.2384400
  73.1054640  27.6505830  64.4812590  74.0184490  17.2804840  63.3749460
  73.0709400  17.3143820  63.5064890  74.3434480  18.0943790  63.7598820
  64.5504030  13.5802020  61.6705450  64.8579010  13.0248910  60.9540950
  63.6204730  13.7146480  61.4878440  70.1019090  29.2969310  63.9612910
  70.1146250  28.8931600  63.0935170  69.5494310  30.0716600  63.8574340
  71.3964510  26.0185530  59.0503080  71.2860840  25.0759860  59.1752500
  71.3932760  26.3801170  59.9365840  69.5004530  24.1999150  65.2895520
  69.9173320  23.9859260  64.4548980  70.2244350  24.4571940  65.8604140
  66.9384790  21.6450850  58.4065570  66.0114070  21.5788230  58.6354040
  67.0909610  22.5830980  58.2920810  66.9253870  17.9167850  55.4032730
  65.9857540  18.0781810  55.4885190  67.2437130  18.6353530  54.8568720
  73.4466630  22.5986370  65.3811760  72.6185260  22.6679460  64.9061890
  74.0417110  23.1840680  64.9127590  70.9682080  23.2071150  58.9100820
  70.3494500  22.8690700  58.2627120  70.9506530  22.5630910  59.6180010
  70.4108640  19.3855690  66.3266630  69.9979820  20.2109400  66.5806620
  69.6784590  18.8000730  66.1342990  62.5441430  22.1715590  61.1885300
  62.1398430  21.4592840  60.6931200  62.6304550  21.8268830  62.0773340
  63.0123130  25.8583150  63.3524510  62.7151420  25.2528620  62.6732290
  63.9622950  25.8960460  63.2413870  61.2570050  18.9458800  64.9684340
  61.8084640  19.0554140  64.1937590  61.7713560  19.3196400  65.6839570
  71.1008740  29.4315020  67.0147610  70.6239300  30.2387210  66.8220220
  70.4170530  28.7793350  67.1673820  62.1041560  25.5964840  70.0032310
  61.2070090  25.8204810  70.2505710  62.1294430  25.7199780  69.0543710
  69.1446780  22.4457960  55.9173570  69.5840060  21.6080390  55.7711390
  69.8575200  23.0787360  56.0037710  60.9312780  22.4678160  68.5789680
  60.7920550  23.3400960  68.9477080  60.0494140  22.1250970  68.4337620
  67.2542160  27.3854030  59.8854810  67.6938070  28.1278360  59.4710200
  67.1929050  27.6280600  60.8093770  62.7293130  28.4099860  70.7874830
  62.7008560  28.8142810  69.9203260  62.5658100  27.4810220  70.6246430
  72.7263920  13.7000770  54.2314610  72.4136580  13.7927600  55.1313680
  73.4876390  14.2781800  54.1812040  59.2446060  21.0660570  58.6891950
  59.1243660  21.7922660  58.0773220  58.9346950  20.2963480  58.2119860
  74.6807950  29.1926960  72.0839000  75.1567670  29.6709850  72.7628080
  75.3015110  29.1244450  71.3584500  56.8831430  24.2375710  64.4960590
  56.9611850  24.3724480  63.5516310  57.4973110  23.5291600  64.6888710
  58.1279060  25.9375900  60.9066770  57.7207140  26.0790490  60.0520370
  59.0192070  25.6536060  60.7037980  74.0841200  26.3839810  69.2439010
  74.2104260  26.1451690  68.3256190  74.1262580  25.5524350  69.7161090
  67.9457940  30.0867810  67.8133820  68.4602610  29.9975820  68.6156250
  67.1027020  30.4327510  68.1061730  69.9212340  30.3723150  57.2417820
  69.7613480  30.0826090  58.1399650  69.7559050  29.5963280  56.7063050
  62.4000720  30.1521680  59.0189440  62.2243200  29.2357220  58.8057240
  61.5456460  30.5108970  59.2587240  69.6238470  27.8810710  55.8015820
  68.9303630  27.8788000  55.1418100  70.3661330  27.4570030  55.3709990
  69.1888400  29.5073420  59.8764310  69.6445350  28.7262800  60.1902930
  69.5280920  30.2180240  60.4205490  73.9365210  18.4372270  70.2088750
  73.3209480  18.9451940  69.6804210  73.6161630  17.5370600  70.1514690
  56.9390950  25.2789880  67.0355050  57.1021990  24.8095240  66.2174420
  57.4043400  24.7713440  67.7003890  61.7109720  14.4095640  62.0715620
  61.2677870  15.1905180  61.7400140  62.2694710  14.7325530  62.7786560
  65.9979530  17.2764160  67.6750940  65.5358900  17.4847180  68.4870880
  65.5957640  16.4623510  67.3721610  70.9984040  18.4973110  68.8047600
  70.1477630  18.1978860  69.1256670  70.8385830  18.7415120  67.8931420
  68.0933750  19.9974860  70.9046390  68.4187160  19.1638610  70.5648620
  68.8814080  20.5203380  71.0524720  64.8268540  14.0306340  56.9521450
  64.2022720  14.0266210  57.6774760  64.7398660  13.1637300  56.5557420
  63.7485620  14.9542970  63.9305220  64.0457950  15.8605800  63.8497240
  64.2971180  14.4661750  63.3164790  61.5023940  19.5329210  59.7996870
  61.2764860  19.3166380  60.7043490  60.7216470  19.9657670  59.4542840
  68.7321700  19.5392580  58.3987520  68.1330590  20.2628380  58.2151140
  69.2801310  19.4769360  57.6163970  63.9423150  20.4314790  70.4657140
  63.8466750  19.4909520  70.3157540  64.7855130  20.6529860  70.0705210
  67.3386570  18.1756120  60.4290800  67.7316140  18.4928320  59.6159490
  67.7003420  17.2968000  60.5435320  59.0733690  16.8428460  68.6190920
  58.6797080  17.6903670  68.8263700  58.3852090  16.2054830  68.8099560
  65.6478740  16.9263430  71.6887660  64.9577060  16.7335630  72.3233750
  66.3911040  17.2098070  72.2211960  56.3750740  14.7656920  62.6521000
  56.0863790  15.3359780  63.3645980  57.1196500  14.2861370  63.0152230
  56.5620970  18.7077040  53.8623720  56.4795640  19.6507800  54.0038710
  56.2104030  18.5651950  52.9836070  67.9241710  20.7661870  64.5241580
  67.1922830  21.2748680  64.8731680  67.5266050  19.9491850  64.2230360
  64.3619100  17.4416070  62.9294070  64.3655160  17.0006020  62.0798610
  65.2570220  17.7633400  63.0365890  60.2121480  17.3242560  61.8888280
  59.8721530  17.8017790  62.6455330  59.4498800  16.8707680  61.5289380
  64.4239250  18.4428150  55.9200830  64.5452070  18.4014630  56.8686650
  64.0387760  19.3052300  55.7647560  68.3867620  16.2195550  63.9364520
  68.4040360  16.6704200  64.7806370  68.1383200  15.3201190  64.1497960
  63.4360750  20.7529290  55.3184130  62.8677650  20.3047540  54.6920040
  64.1449750  21.1122070  54.7849280  71.8138370  13.6327730  69.7750900
  72.1384140  12.9017390  70.3008880  71.8494880  13.3141370  68.8731890
  58.5129930  24.6541310  69.1950860  58.1284720  24.0134980  69.7933820
  58.8242120  25.3577430  69.7645590  64.6627070  21.5017850  64.6759480
  65.0297200  21.0276420  65.4220820  64.4732130  22.3759420  65.0167820
  57.5267560  16.2461540  60.8052950  57.2414480  15.8817210  61.6431570
  57.4646420  15.5142000  60.1916090  62.4526440  20.5426490  66.9943690
  62.1483510  21.4218470  67.2194050  63.4072900  20.6026280  67.0301130
  60.9808230  24.7487480  57.5910540  60.2070490  24.2085100  57.4309260
  61.7102860  24.2294090  57.2528300  71.7396210  23.7452840  63.3836930
  72.4595330  24.2408130  62.9933040  71.5378030  23.0670730  62.7390800
  67.2006150  15.1390800  57.5266320  66.3870760  14.6403970  57.4511630
  67.0068100  15.9789050  57.1102670  67.1215010  23.8161900  69.2705930
  67.0552320  22.8957570  69.0163520  66.4920150  23.9137340  69.9850570
  69.9154540  19.5110450  55.8228480  70.8034160  19.8227680  55.6479820
  69.8859630  18.6382700  55.4309060  61.0245630  24.4167860  61.2289350
  61.5424300  23.6136120  61.1746240  60.5729650  24.3547000  62.0706180
  65.9115130  25.6834140  56.5016650  66.2530830  26.4276370  56.0059970
  65.0827840  25.9965260  56.8641480  58.5090170  21.3829230  68.1415050
  58.1505110  22.0483080  68.7288390  58.2144730  20.5512780  68.5127670
  61.7103290  21.8413470  71.0254600  61.4103430  21.9870650  70.1282420
  62.4814530  21.2818760  70.9327990  67.0531740  26.6382470  69.0209730
  67.0676280  25.7063430  68.8028640  66.3456840  26.7242230  69.6599500
  72.1868810  20.8222290  55.2908340  72.1032530  21.2536510  54.4404780
  72.9063000  21.2820640  55.7235160  73.2642950  23.2789810  68.3678310
  72.5391140  23.8718590  68.1707700  73.7918410  23.2713350  67.5691680
  73.2156060  27.6764550  58.0190470  72.5732220  27.0220170  58.2934190
  72.8286720  28.0819640  57.2431140  68.7942540  25.0049980  61.8662160
  69.1466360  24.4078110  61.2063530  67.9104870  24.6794210  62.0370410
  64.8805820  25.7647670  59.2732570  65.5676950  26.3116880  59.6540160
  64.0938240  26.3088400  59.3082180  57.0198220  21.3820490  54.7649650
  57.8893070  21.6645290  55.0485570  56.5288540  22.1956360  54.6498460
  64.1833030  22.7693700  58.8857930  64.6395810  23.5798950  59.1118120
  63.8321240  22.4516840  59.7176420  66.4865640  28.2800040  66.1150230
  67.1307860  28.4859420  66.7923650  66.8495080  27.5188440  65.6621080
  60.0844810  13.1131350  59.3580450  59.9559440  13.1049250  60.3065370
  59.2606830  13.4514440  59.0071460  67.7597720  26.2832390  64.8327680
  68.4019950  25.5825550  64.9459850  68.2847070  27.0630830  64.6524570
  71.6053440  26.5681010  54.5566820  71.3791020  25.8511450  55.1491460
  71.2149640  26.3193450  53.7188570  69.5335340  27.0827290  68.0363740
  69.8691580  27.6693980  68.7141660  68.6135680  26.9520000  68.2661530
  57.3869470  30.5947870  55.3311280  57.7467110  31.1937210  54.6768550
  57.2461810  31.1407760  56.1046310  57.0838740  14.8722470  68.8187150
  56.3697260  15.0719390  69.4239760  57.5033780  14.0962040  69.1901950
  71.1869690  24.4852950  56.2180980  70.8991390  24.9465640  57.0058860
  71.9821860  24.0250720  56.4865200  57.3711330  28.8602730  69.8053680
  57.4802450  27.9197470  69.6649070  56.7191890  29.1257480  69.1567410
  65.3623920  27.1318620  71.2051800  65.0420790  26.4127860  71.7497490
  64.6882280  27.8073690  71.2787860  63.4038090  27.9779070  56.1484950
  63.3948190  28.7108760  55.5329460  62.4836450  27.7310650  56.2411910
  59.0044730  23.1993960  56.8931710  58.3972680  23.9392860  56.9027010
  59.4794080  23.2893320  56.0669910  68.5777520  17.3644780  66.5688600
  68.9458340  16.5439990  66.8968170  67.7175720  17.4246670  66.9844250
  71.9439550  16.3201720  57.3776160  71.3152710  16.4247390  56.6634390
  71.4491470  16.5398500  58.1670040  66.3897690  28.0407310  54.8110140
  66.4909670  27.8371300  53.8812120  65.4899430  27.7865590  55.0157920
  63.9123580  18.5987670  58.7934040  63.2039730  19.0674010  59.2347650
  64.1968060  17.9409680  59.4279230  65.5379510  20.0184370  66.7926570
  66.0364760  20.4930190  67.4578420  65.6802460  19.0947890  66.9996600
  67.9439010  15.3238330  60.2329830  67.8206790  15.3424460  59.2839340
  68.8923570  15.3717270  60.3528230  65.0315800  30.5593630  59.5057810
  65.2857300  30.5215020  58.5837180  64.0828280  30.4326960  59.4986060
  62.1158600  16.9072750  56.1684750  62.9649130  17.3442900  56.1024940
  61.7489870  17.2193010  56.9956810  72.7446370  16.2352330  67.6354960
  72.2419970  16.9757730  67.9748770  73.5603030  16.6236330  67.3191750
  71.0368380  21.4785510  61.0816320  70.0958520  21.4935740  61.2564010
  71.3512450  20.6921470  61.5276620  61.0150020  23.1605110  54.6420280
  61.7813290  23.0486470  55.2045710  61.0924710  22.4643080  53.9897050
  59.7096780  20.5930180  55.3253170  59.7900370  19.6457690  55.4370570
  60.6016530  20.9237060  55.4313830  73.0393960  28.6494360  62.7570580
  73.1641380  29.4725530  63.2294390  73.9059520  28.4385090  62.4094730
  60.5111490  30.7425570  62.4287710  61.2473970  30.1941030  62.6996280
  60.8952410  31.6081580  62.2893700  57.3956970  26.8099140  58.3029220
  56.4696750  27.0520280  58.2934630  57.8613400  27.6373400  58.1813970
  59.5169770  29.9271640  71.6173290  60.3182500  30.2483690  72.0308690
  59.0021590  29.5667220  72.3393200  63.6213800  29.9155880  54.2513280
  64.4142410  30.2044710  53.7995070  63.1018150  29.4848050  53.5725760
  68.3534400  26.0351510  71.5648700  67.7472560  26.0583110  70.8244450
  68.0488510  25.3034550  72.1015950  69.7834770  29.7631800  70.1758110
  70.7356520  29.6789820  70.1258350  69.6362990  30.4273510  70.8491900
  72.6743970  29.1426010  55.6750020  72.3885480  28.7291150  54.8604200
  72.4763520  30.0713720  55.5550540  57.2367580  22.4145100  70.5609340
  57.7406600  21.8352380  71.1325570  56.4975000  22.6985330  71.0985710
  64.1391200  25.1359290  54.1155630  64.0341840  24.5211640  54.8417010
  63.9715420  24.6125180  53.3318640  64.2905520  23.8216090  70.0944860
  63.5251190  24.3901090  70.0099530  64.4721480  23.5292300  69.2013090
  67.3793930  24.1979320  54.7197620  66.8304030  24.6448620  55.3640360
  68.0013190  23.6928570  55.2435290  71.4328870  25.5521420  70.6519880
  72.1738340  25.8897180  70.1487340  70.6701550  25.7213480  70.0989650
  59.2690660  20.5574690  71.4559410  59.3096000  20.2588560  72.3644640
  60.1236160  20.9582300  71.2966930  63.0469050  23.1570240  56.6162920
  63.4685470  22.9910110  57.4594310  63.1719890  22.3470470  56.1218060
  61.2096470  19.1366790  69.4233900  60.6792930  18.6457740  68.7957240
  61.8784540  19.5650990  68.8891830  65.5596690  22.1807850  53.8640020
  66.0802350  21.4656870  53.4981170  66.2065090  22.8193720  54.1640530
  70.1074530  23.6036250  69.1875090  70.5215550  23.7581330  70.0365510
  69.1725530  23.7291470  69.3500870  70.5796700  20.9432410  71.1914240
  71.1617470  20.1884730  71.1034720  70.7558470  21.4739850  70.4145720
  61.6968770  16.1029160  69.5031190  61.6025640  15.4849910  68.7782060
  61.1166160  16.8295450  69.2761100  64.4630210  14.6602400  66.5358580
  64.0147510  14.6826660  65.6904130  63.8295410  14.2621420  67.1328880
  64.8689760  23.5556730  67.1571020  65.2877870  24.3989460  66.9847260
  63.9498390  23.6928770  66.9277800  67.2053660  21.2872910  68.5408860
  67.3249870  20.6914050  69.2803700  68.0647660  21.3242600  68.1210160
  69.5441560  21.8410100  67.1171370  69.0176780  22.3652720  66.5136510
  69.8872900  22.4737490  67.7481100  61.9427950  19.2303470  53.5621080
  61.7417010  18.3670830  53.9234420  61.7720000  19.1436830  52.6242680
  62.7197180  29.8609740  68.2728750  62.1818270  30.5855800  67.9537450
  62.9731140  29.3840080  67.4826090  63.9722430  17.8294260  69.7984680
  64.5622120  17.5210110  70.4862500  63.1542670  17.3574010  69.9544580
  68.7915860  17.4460070  70.0317700  68.1031380  16.7841610  69.9667690
  69.5121880  16.9998340  70.4766160  69.4216260  14.0411700  56.0907960
  69.7018550  13.1979600  56.4467380  68.6481990  14.2734810  56.6046710
  60.7410750  16.3304090  53.5498960  61.0436650  16.3371520  52.6418110
  61.4805340  15.9801950  54.0466620  65.5759390  31.0960950  68.5315400
  65.5018090  31.9996090  68.8387770  64.6738230  30.7772850  68.5037470
  63.9595680  15.2738710  54.5355160  63.6117680  14.5962700  53.9557610
  64.1608450  14.8128220  55.3498550  66.1244720  30.2619460  56.1541760
  67.0195510  30.6004430  56.1760520  66.1562350  29.5398870  55.5266040
  59.7640880  25.6346510  54.3828760  60.2015750  26.1776180  55.0386340
  60.2488610  24.8093460  54.3925100  56.9786680  28.4235540  61.8349020
  57.3089690  27.5556600  61.6027660  57.4077680  28.6294060  62.6653980
  61.5748600  26.7544550  59.4950990  61.2744140  26.6309520  60.3954900
  61.4686090  25.8953140  59.0866720  57.4676890  29.2906130  64.5730650
  57.0307880  29.4706930  65.4054800  58.0354570  30.0480750  64.4312370
  73.1039070  28.7923130  68.8607960  72.5041060  28.8515690  68.1171880
  73.2332970  27.8528110  68.9904810  74.3440520  26.5340950  54.1977670
  73.5133480  26.6017600  54.6684900  74.5212350  27.4245070  53.8944530
  73.7996980  23.2788430  56.7011870  74.5615890  23.8485080  56.8071560
  73.8151350  22.7115630  57.4720180  57.3001320  21.8026360  60.9319530
  56.6450160  21.5338000  60.2879230  58.1379270  21.6930840  60.4821510
  74.8056950  24.1338530  61.5453800  75.1765780  23.3505850  61.1389770
  75.4458880  24.8227630  61.3671100  71.7890710  25.5175110  66.9584120
  70.9750550  25.9472270  67.2209910  72.1964910  26.1293520  66.3453170
  73.8516150  23.5722800  53.8584390  74.1264990  24.4801680  53.7303610
  73.6626890  23.5085330  54.7946380  70.2491760  16.5967650  55.1538020
  70.6676640  16.4098630  54.3134680  69.9427820  15.7446700  55.4640950
  73.7481490  21.5091790  58.8513820  73.3725090  20.7419720  58.4195110
  73.0184610  21.8914490  59.3388750  58.3377250  22.1878930  65.4722870
  58.7050290  22.1006330  66.3518890  57.7688070  21.4245480  65.3729730
  73.1381110  20.6563310  68.4853340  72.9067200  20.4276060  67.5851290
  73.3985660  21.5762860  68.4398230  57.8893250  19.0988020  69.3781290
  56.9949300  19.0654780  69.7175000  58.4290800  19.2974810  70.1432540
  71.5769180  15.8819740  71.2633040  72.4539360  15.8903140  71.6467040
  71.5890020  15.1450580  70.6525390  56.5139400  19.0125290  56.8744860
  55.6103480  19.2755490  56.6996520  56.9980020  19.2836460  56.0944820
  73.0232450  19.7349280  62.1521060  73.5469930  19.2411930  61.5211230
  73.6091870  19.8699640  62.8968630  73.2022170  19.8189150  65.6740610
  72.2524880  19.7852690  65.7885600  73.3835180  20.7289260  65.4390380
  59.0566610  18.0690830  54.7839240  59.7658310  17.6474050  54.2986520
  58.3406550  18.1366060  54.1522590  58.7040770  14.1230160  53.8241890
  59.4268900  14.6639100  54.1423110  58.9765290  13.8493580  52.9483430
  72.5132420  18.9922630  58.0913470  73.0091540  18.7593500  58.8762350
  72.3148490  18.1534470  57.6751110  58.3932960  13.3736350  63.7264510
  59.0409150  12.8233730  63.2859670  58.8134800  13.6279500  64.5480320
  73.9419580  17.6283580  60.6251150  73.8318860  17.4739620  61.5633420
  74.7027170  17.1004520  60.3826560  72.2885300  13.5677710  67.0834150
  72.9257520  14.1811850  67.4493340  72.4360190  13.6038370  66.1383380
  74.8309850  15.4591500  53.8657290  75.7559160  15.3272680  53.6575580
  74.8085640  15.5384320  54.8193740  74.9048340  16.2302160  56.4914000
  74.1099840  16.1647280  57.0206910  75.1091620  17.1652800  56.4799350
  71.8466760  30.2693710  60.4852390  72.4425830  29.9478280  59.8086810
  72.1044910  29.7965530  61.2765660  58.1464960  13.5292020  66.4689830
  57.7979780  13.9855840  67.2348010  57.8152660  12.6349150  66.5512260
  59.7529330  26.7011620  70.6343020  59.7098960  26.3304530  71.5157480
  59.8840340  27.6389190  70.7744840  63.4535360  28.2571210  66.2352740
  63.2126720  28.5245770  65.3483260  64.3938000  28.4276940  66.2903600
  65.6589780  14.7203900  69.9909250  65.5978670  15.3125730  70.7404660
  66.5990160  14.6129860  69.8459510  68.2964340  14.3773960  69.6301540
  68.9104750  14.6953250  68.9682620  68.8413900  13.8922550  70.2497400
  74.7139520  30.2765590  67.0363380  74.2197800  30.6734460  66.3190510
  74.1052810  29.6514800  67.4300660  58.8185600  13.0568220  69.7440600
  59.3668590  12.8756270  68.9806710  58.8840910  12.2662330  70.2796910
  59.5917360  29.6473870  67.7540800  58.9977680  29.5158570  68.4930840
  59.5841200  28.8112010  67.2882900  69.0372380  12.9406100  65.9570830
  68.1632220  13.2741210  65.7543760  68.9283130  12.4679280  66.7822700
  69.9444360  15.1476970  67.3412550  69.6157720  14.3328730  66.9614280
  70.8926660  15.1046780  67.2178240  72.3978970  30.9189010  64.3150120
  71.9381940  31.6704820  63.9408140  71.7691430  30.1995480  64.2564920
  59.2229590  27.0132250  66.7048840  58.4963650  26.3937540  66.6374790
  59.2838740  27.4072860  65.8346920  62.8274690  29.2277250  63.4898250
  63.3439710  28.6164610  62.9646510  63.4772070  29.7306030  63.9809260
  65.5670190  30.1185740  64.3167230  65.8548000  29.8640040  63.4400240
  66.0793410  29.5663100  64.9072800  66.7847200  13.8575940  64.8963740
  66.0018990  14.3321440  65.1760500  66.4910130  12.9530770  64.7876920
  71.3368270  14.5599040  62.9412830  71.7776360  14.5044140  62.0934430
  71.0675860  15.4757050  63.0123010  73.2006840  14.1914280  60.9521650
  73.1395240  13.2475500  60.8052670  73.9798870  14.2994370  61.4975110
  57.5059590  30.3306640  59.9145600  57.3381630  29.6977320  60.6127490
  56.6394100  30.5366040  59.5639790  58.1287610  14.1623420  57.4177460
  58.8866970  14.2752300  56.8441490  57.6664780  14.9992620  57.3720890
  64.6701420  16.2762690  60.4079770  63.8575930  15.9019580  60.0675650
  65.1743060  15.5207770  60.7100960  69.1726400  12.9405140  61.6462840
  69.7755770  13.5125350  62.1211360  68.4319390  13.5044580  61.4236740
  72.3161000  13.3426700  56.9203120  72.5111630  14.2410150  57.1870550
  71.5290870  13.1113780  57.4136070  59.1122290  29.0239870  57.3595740
  58.5869910  29.4047900  56.6557700  59.0366870  29.6490640  58.0805450
  60.5012760  14.6887470  55.9579430  61.0305520  13.9017270  55.8287380
  61.1341080  15.3678660  56.1914960  62.6950600  14.4262610  59.0124820
  62.0653340  13.7249920  59.1794950  62.1555740  15.1866740  58.7957980
  65.6342550  31.0401840  71.6835430  66.5609860  30.8046110  71.7271390
  65.6192980  31.8673840  71.2021460  73.8687610  30.5827410  58.6809680
  74.0439800  29.8965150  58.0370600  73.1709180  31.1074460  58.2886350
  62.8206160  13.7046590  71.4477310  62.5390430  14.2080190  70.6838130
  63.2025860  12.9068340  71.0819440  61.7115260  30.9722250  56.2344990
  62.4434080  30.6881530  55.6868880  61.9708930  30.7335530  57.1244370
  60.8730050  27.0886980  56.2391320  60.2438930  27.5572080  56.7877150
  60.9877880  26.2436200  56.6737510  69.4221620  13.1200170  72.0257780
  69.3087070  13.4394780  72.9209300  70.2391360  13.5212680  71.7295060
  72.2020110  30.2671700  71.5076470  72.9945430  29.7720930  71.3002430
  72.4953260  30.9461840  72.1152080  68.3279770  21.1392640  42.3892520
  68.2473820  20.2247250  42.1184230  67.9144190  21.6359710  41.6832230
  66.4597810  22.9171660  44.2701790  65.6839910  22.4372100  44.5600360
  67.1110740  22.2377310  44.0957950  60.4763640  23.2291470  45.1477550
  59.6448520  22.9740180  45.5474060  61.0844620  23.3002240  45.8835470
  70.4805240  27.3231850  43.0500920  70.0186770  26.5519090  43.3788090
  71.2930790  27.3497920  43.5553370  60.4564900  27.2631560  45.3435570
  60.7592940  26.3729300  45.1645790  61.2008490  27.8201780  45.1157820
  58.8855590  18.1893360  38.9319940  57.9972290  18.5309330  38.8299820
  59.1696780  17.9893680  38.0400770  56.8488600  20.7899010  44.8159640
  57.4204710  20.0221210  44.8163280  56.8490140  21.0887770  43.9066250
  66.7068550  29.6089860  42.6704910  66.0879990  30.0647360  42.0999350
  67.5620330  29.7641320  42.2694610  65.9006800  25.5928850  44.2771950
  65.8315080  24.6518790  44.1161080  66.6626660  25.6830260  44.8494520
  58.0913470  16.1983370  46.6028570  57.9116310  15.3009120  46.8831330
  57.6893550  16.7455240  47.2775520  66.9311970  18.3999230  44.5040880
  67.3076790  17.5271110  44.3914550  66.8331480  18.7357930  43.6131320
  61.0616980  16.7724860  39.9658320  61.1683730  17.6728590  40.2727080
  60.1509340  16.7242830  39.6752970  70.7136090  15.8949670  41.4369220
  71.5345710  15.4046240  41.4794700  70.7470170  16.4847330  42.1901060
  58.7100140  18.6943870  45.2110910  59.3910250  18.9582240  45.8298310
  58.3948190  17.8544740  45.5448920  62.9024710  19.7411230  44.2983500
  63.4102930  20.2392200  44.9388520  63.4337950  18.9646430  44.1222860
  75.0035640  17.9116420  48.0012850  74.2987810  18.2998130  47.4827960
  75.2693560  18.6066710  48.6033780  61.1860810  14.3809790  48.5646920
  61.1879250  14.8982180  47.7592820  60.3565120  13.9039970  48.5416850
  67.5731900  24.4929100  40.0636820  66.9549170  24.9578550  39.4999540
  68.0855150  25.1856580  40.4806330  62.4363660  24.0204970  46.7420420
  62.1033040  24.6473890  47.3841490  62.6130340  24.5466850  45.9622090
  70.9497570  17.8350050  44.2096760  70.2453140  18.1234940  44.7899870
  71.3109730  18.6450160  43.8496320  60.8676140  16.0919750  46.5717370
  61.2092950  16.9361800  46.2771240  59.9291950  16.2403490  46.6882710
  61.6482760  25.9885770  48.5569600  62.2656760  26.6636850  48.2754050
  60.7875880  26.3973750  48.4657100  56.9415100  25.1785630  37.4376450
  56.5643080  25.6672730  36.7061350  57.1988170  25.8510910  38.0682980
  72.5660350  27.4525180  46.4724240  71.8823870  28.1224290  46.4640910
  73.1054640  27.6505830  45.7069100  74.0184490  17.2804840  44.6005970
  73.0709400  17.3143820  44.7321400  74.3434480  18.0943790  44.9855330
  64.5504030  13.5802020  42.8961960  64.8579010  13.0248910  42.1797460
  63.6204730  13.7146480  42.7134950  70.1019090  29.2969310  45.1869420
  70.1146250  28.8931600  44.3191680  69.5494310  30.0716600  45.0830850
  71.3964510  26.0185530  40.2759590  71.2860840  25.0759860  40.4009010
  71.3932760  26.3801170  41.1622350  69.5004530  24.1999150  46.5152030
  69.9173320  23.9859260  45.6805490  70.2244350  24.4571940  47.0860650
  66.9384790  21.6450850  39.6322080  66.0114070  21.5788230  39.8610550
  67.0909610  22.5830980  39.5177320  66.9253870  17.9167850  36.6289240
  65.9857540  18.0781810  36.7141700  67.2437130  18.6353530  36.0825230
  73.4466630  22.5986370  46.6068270  72.6185260  22.6679460  46.1318400
  74.0417110  23.1840680  46.1384100  70.9682080  23.2071150  40.1357330
  70.3494500  22.8690700  39.4883630  70.9506530  22.5630910  40.8436520
  70.4108640  19.3855690  47.5523140  69.9979820  20.2109400  47.8063130
  69.6784590  18.8000730  47.3599500  62.5441430  22.1715590  42.4141810
  62.1398430  21.4592840  41.9187710  62.6304550  21.8268830  43.3029850
  63.0123130  25.8583150  44.5781020  62.7151420  25.2528620  43.8988800
  63.9622950  25.8960460  44.4670380  61.2570050  18.9458800  46.1940850
  61.8084640  19.0554140  45.4194100  61.7713560  19.3196400  46.9096080
  71.1008740  29.4315020  48.2404120  70.6239300  30.2387210  48.0476730
  70.4170530  28.7793350  48.3930330  62.1041560  25.5964840  51.2288820
  61.2070090  25.8204810  51.4762220  62.1294430  25.7199780  50.2800220
  69.1446780  22.4457960  37.1430080  69.5840060  21.6080390  36.9967900
  69.8575200  23.0787360  37.2294220  60.9312780  22.4678160  49.8046190
  60.7920550  23.3400960  50.1733590  60.0494140  22.1250970  49.6594130
  67.2542160  27.3854030  41.1111320  67.6938070  28.1278360  40.6966710
  67.1929050  27.6280600  42.0350280  62.7293130  28.4099860  52.0131340
  62.7008560  28.8142810  51.1459770  62.5658100  27.4810220  51.8502940
  72.7263920  13.7000770  35.4571120  72.4136580  13.7927600  36.3570190
  73.4876390  14.2781800  35.4068550  59.2446060  21.0660570  39.9148460
  59.1243660  21.7922660  39.3029730  58.9346950  20.2963480  39.4376370
  74.6807950  29.1926960  53.3095510  75.1567670  29.6709850  53.9884590
  75.3015110  29.1244450  52.5841010  56.8831430  24.2375710  45.7217100
  56.9611850  24.3724480  44.7772820  57.4973110  23.5291600  45.9145220
  58.1279060  25.9375900  42.1323280  57.7207140  26.0790490  41.2776880
  59.0192070  25.6536060  41.9294490  74.0841200  26.3839810  50.4695520
  74.2104260  26.1451690  49.5512700  74.1262580  25.5524350  50.9417600
  67.9457940  30.0867810  49.0390330  68.4602610  29.9975820  49.8412760
  67.1027020  30.4327510  49.3318240  69.9212340  30.3723150  38.4674330
  69.7613480  30.0826090  39.3656160  69.7559050  29.5963280  37.9319560
  62.4000720  30.1521680  40.2445950  62.2243200  29.2357220  40.0313750
  61.5456460  30.5108970  40.4843750  69.6238470  27.8810710  37.0272330
  68.9303630  27.8788000  36.3674610  70.3661330  27.4570030  36.5966500
  69.1888400  29.5073420  41.1020820  69.6445350  28.7262800  41.4159440
  69.5280920  30.2180240  41.6462000  73.9365210  18.4372270  51.4345260
  73.3209480  18.9451940  50.9060720  73.6161630  17.5370600  51.3771200
  56.9390950  25.2789880  48.2611560  57.1021990  24.8095240  47.4430930
  57.4043400  24.7713440  48.9260400  61.7109720  14.4095640  43.2972130
  61.2677870  15.1905180  42.9656650  62.2694710  14.7325530  44.0043070
  65.9979530  17.2764160  48.9007450  65.5358900  17.4847180  49.7127390
  65.5957640  16.4623510  48.5978120  70.9984040  18.4973110  50.0304110
  70.1477630  18.1978860  50.3513180  70.8385830  18.7415120  49.1187930
  68.0933750  19.9974860  52.1302900  68.4187160  19.1638610  51.7905130
  68.8814080  20.5203380  52.2781230  64.8268540  14.0306340  38.1777960
  64.2022720  14.0266210  38.9031270  64.7398660  13.1637300  37.7813930
  63.7485620  14.9542970  45.1561730  64.0457950  15.8605800  45.0753750
  64.2971180  14.4661750  44.5421300  61.5023940  19.5329210  41.0253380
  61.2764860  19.3166380  41.9300000  60.7216470  19.9657670  40.6799350
  68.7321700  19.5392580  39.6244030  68.1330590  20.2628380  39.4407650
  69.2801310  19.4769360  38.8420480  63.9423150  20.4314790  51.6913650
  63.8466750  19.4909520  51.5414050  64.7855130  20.6529860  51.2961720
  67.3386570  18.1756120  41.6547310  67.7316140  18.4928320  40.8416000
  67.7003420  17.2968000  41.7691830  59.0733690  16.8428460  49.8447430
  58.6797080  17.6903670  50.0520210  58.3852090  16.2054830  50.0356070
  65.6478740  16.9263430  52.9144170  64.9577060  16.7335630  53.5490260
  66.3911040  17.2098070  53.4468470  56.3750740  14.7656920  43.8777510
  56.0863790  15.3359780  44.5902490  57.1196500  14.2861370  44.2408740
  56.5620970  18.7077040  35.0880230  56.4795640  19.6507800  35.2295220
  56.2104030  18.5651950  34.2092580  67.9241710  20.7661870  45.7498090
  67.1922830  21.2748680  46.0988190  67.5266050  19.9491850  45.4486870
  64.3619100  17.4416070  44.1550580  64.3655160  17.0006020  43.3055120
  65.2570220  17.7633400  44.2622400  60.2121480  17.3242560  43.1144790
  59.8721530  17.8017790  43.8711840  59.4498800  16.8707680  42.7545890
  64.4239250  18.4428150  37.1457340  64.5452070  18.4014630  38.0943160
  64.0387760  19.3052300  36.9904070  68.3867620  16.2195550  45.1621030
  68.4040360  16.6704200  46.0062880  68.1383200  15.3201190  45.3754470
  63.4360750  20.7529290  36.5440640  62.8677650  20.3047540  35.9176550
  64.1449750  21.1122070  36.0105790  71.8138370  13.6327730  51.0007410
  72.1384140  12.9017390  51.5265390  71.8494880  13.3141370  50.0988400
  58.5129930  24.6541310  50.4207370  58.1284720  24.0134980  51.0190330
  58.8242120  25.3577430  50.9902100  64.6627070  21.5017850  45.9015990
  65.0297200  21.0276420  46.6477330  64.4732130  22.3759420  46.2424330
  57.5267560  16.2461540  42.0309460  57.2414480  15.8817210  42.8688080
  57.4646420  15.5142000  41.4172600  62.4526440  20.5426490  48.2200200
  62.1483510  21.4218470  48.4450560  63.4072900  20.6026280  48.2557640
  60.9808230  24.7487480  38.8167050  60.2070490  24.2085100  38.6565770
  61.7102860  24.2294090  38.4784810  71.7396210  23.7452840  44.6093440
  72.4595330  24.2408130  44.2189550  71.5378030  23.0670730  43.9647310
  67.2006150  15.1390800  38.7522830  66.3870760  14.6403970  38.6768140
  67.0068100  15.9789050  38.3359180  67.1215010  23.8161900  50.4962440
  67.0552320  22.8957570  50.2420030  66.4920150  23.9137340  51.2107080
  69.9154540  19.5110450  37.0484990  70.8034160  19.8227680  36.8736330
  69.8859630  18.6382700  36.6565570  61.0245630  24.4167860  42.4545860
  61.5424300  23.6136120  42.4002750  60.5729650  24.3547000  43.2962690
  65.9115130  25.6834140  37.7273160  66.2530830  26.4276370  37.2316480
  65.0827840  25.9965260  38.0897990  58.5090170  21.3829230  49.3671560
  58.1505110  22.0483080  49.9544900  58.2144730  20.5512780  49.7384180
  61.7103290  21.8413470  52.2511110  61.4103430  21.9870650  51.3538930
  62.4814530  21.2818760  52.1584500  67.0531740  26.6382470  50.2466240
  67.0676280  25.7063430  50.0285150  66.3456840  26.7242230  50.8856010
  72.1868810  20.8222290  36.5164850  72.1032530  21.2536510  35.6661290
  72.9063000  21.2820640  36.9491670  73.2642950  23.2789810  49.5934820
  72.5391140  23.8718590  49.3964210  73.7918410  23.2713350  48.7948190
  73.2156060  27.6764550  39.2446980  72.5732220  27.0220170  39.5190700
  72.8286720  28.0819640  38.4687650  68.7942540  25.0049980  43.0918670
  69.1466360  24.4078110  42.4320040  67.9104870  24.6794210  43.2626920
  64.8805820  25.7647670  40.4989080  65.5676950  26.3116880  40.8796670
  64.0938240  26.3088400  40.5338690  57.0198220  21.3820490  35.9906160
  57.8893070  21.6645290  36.2742080  56.5288540  22.1956360  35.8754970
  64.1833030  22.7693700  40.1114440  64.6395810  23.5798950  40.3374630
  63.8321240  22.4516840  40.9432930  66.4865640  28.2800040  47.3406740
  67.1307860  28.4859420  48.0180160  66.8495080  27.5188440  46.8877590
  60.0844810  13.1131350  40.5836960  59.9559440  13.1049250  41.5321880
  59.2606830  13.4514440  40.2327970  67.7597720  26.2832390  46.0584190
  68.4019950  25.5825550  46.1716360  68.2847070  27.0630830  45.8781080
  71.6053440  26.5681010  35.7823330  71.3791020  25.8511450  36.3747970
  71.2149640  26.3193450  34.9445080  69.5335340  27.0827290  49.2620250
  69.8691580  27.6693980  49.9398170  68.6135680  26.9520000  49.4918040
  57.3869470  30.5947870  36.5567790  57.7467110  31.1937210  35.9025060
  57.2461810  31.1407760  37.3302820  57.0838740  14.8722470  50.0443660
  56.3697260  15.0719390  50.6496270  57.5033780  14.0962040  50.4158460
  71.1869690  24.4852950  37.4437490  70.8991390  24.9465640  38.2315370
  71.9821860  24.0250720  37.7121710  57.3711330  28.8602730  51.0310190
  57.4802450  27.9197470  50.8905580  56.7191890  29.1257480  50.3823920
  65.3623920  27.1318620  52.4308310  65.0420790  26.4127860  52.9754000
  64.6882280  27.8073690  52.5044370  63.4038090  27.9779070  37.3741460
  63.3948190  28.7108760  36.7585970  62.4836450  27.7310650  37.4668420
  59.0044730  23.1993960  38.1188220  58.3972680  23.9392860  38.1283520
  59.4794080  23.2893320  37.2926420  68.5777520  17.3644780  47.7945110
  68.9458340  16.5439990  48.1224680  67.7175720  17.4246670  48.2100760
  71.9439550  16.3201720  38.6032670  71.3152710  16.4247390  37.8890900
  71.4491470  16.5398500  39.3926550  66.3897690  28.0407310  36.0366650
  66.4909670  27.8371300  35.1068630  65.4899430  27.7865590  36.2414430
  63.9123580  18.5987670  40.0190550  63.2039730  19.0674010  40.4604160
  64.1968060  17.9409680  40.6535740  65.5379510  20.0184370  48.0183080
  66.0364760  20.4930190  48.6834930  65.6802460  19.0947890  48.2253110
  67.9439010  15.3238330  41.4586340  67.8206790  15.3424460  40.5095850
  68.8923570  15.3717270  41.5784740  65.0315800  30.5593630  40.7314320
  65.2857300  30.5215020  39.8093690  64.0828280  30.4326960  40.7242570
  62.1158600  16.9072750  37.3941260  62.9649130  17.3442900  37.3281450
  61.7489870  17.2193010  38.2213320  72.7446370  16.2352330  48.8611470
  72.2419970  16.9757730  49.2005280  73.5603030  16.6236330  48.5448260
  71.0368380  21.4785510  42.3072830  70.0958520  21.4935740  42.4820520
  71.3512450  20.6921470  42.7533130  61.0150020  23.1605110  35.8676790
  61.7813290  23.0486470  36.4302220  61.0924710  22.4643080  35.2153560
  59.7096780  20.5930180  36.5509680  59.7900370  19.6457690  36.6627080
  60.6016530  20.9237060  36.6570340  73.0393960  28.6494360  43.9827090
  73.1641380  29.4725530  44.4550900  73.9059520  28.4385090  43.6351240
  60.5111490  30.7425570  43.6544220  61.2473970  30.1941030  43.9252790
  60.8952410  31.6081580  43.5150210  57.3956970  26.8099140  39.5285730
  56.4696750  27.0520280  39.5191140  57.8613400  27.6373400  39.4070480
  59.5169770  29.9271640  52.8429800  60.3182500  30.2483690  53.2565200
  59.0021590  29.5667220  53.5649710  63.6213800  29.9155880  35.4769790
  64.4142410  30.2044710  35.0251580  63.1018150  29.4848050  34.7982270
  68.3534400  26.0351510  52.7905210  67.7472560  26.0583110  52.0500960
  68.0488510  25.3034550  53.3272460  69.7834770  29.7631800  51.4014620
  70.7356520  29.6789820  51.3514860  69.6362990  30.4273510  52.0748410
  72.6743970  29.1426010  36.9006530  72.3885480  28.7291150  36.0860710
  72.4763520  30.0713720  36.7807050  57.2367580  22.4145100  51.7865850
  57.7406600  21.8352380  52.3582080  56.4975000  22.6985330  52.3242220
  64.1391200  25.1359290  35.3412140  64.0341840  24.5211640  36.0673520
  63.9715420  24.6125180  34.5575150  64.2905520  23.8216090  51.3201370
  63.5251190  24.3901090  51.2356040  64.4721480  23.5292300  50.4269600
  67.3793930  24.1979320  35.9454130  66.8304030  24.6448620  36.5896870
  68.0013190  23.6928570  36.4691800  71.4328870  25.5521420  51.8776390
  72.1738340  25.8897180  51.3743850  70.6701550  25.7213480  51.3246160
  59.2690660  20.5574690  52.6815920  59.3096000  20.2588560  53.5901150
  60.1236160  20.9582300  52.5223440  63.0469050  23.1570240  37.8419430
  63.4685470  22.9910110  38.6850820  63.1719890  22.3470470  37.3474570
  61.2096470  19.1366790  50.6490410  60.6792930  18.6457740  50.0213750
  61.8784540  19.5650990  50.1148340  65.5596690  22.1807850  35.0896530
  66.0802350  21.4656870  34.7237680  66.2065090  22.8193720  35.3897040
  70.1074530  23.6036250  50.4131600  70.5215550  23.7581330  51.2622020
  69.1725530  23.7291470  50.5757380  70.5796700  20.9432410  52.4170750
  71.1617470  20.1884730  52.3291230  70.7558470  21.4739850  51.6402230
  61.6968770  16.1029160  50.7287700  61.6025640  15.4849910  50.0038570
  61.1166160  16.8295450  50.5017610  64.4630210  14.6602400  47.7615090
  64.0147510  14.6826660  46.9160640  63.8295410  14.2621420  48.3585390
  64.8689760  23.5556730  48.3827530  65.2877870  24.3989460  48.2103770
  63.9498390  23.6928770  48.1534310  67.2053660  21.2872910  49.7665370
  67.3249870  20.6914050  50.5060210  68.0647660  21.3242600  49.3466670
  69.5441560  21.8410100  48.3427880  69.0176780  22.3652720  47.7393020
  69.8872900  22.4737490  48.9737610  61.9427950  19.2303470  34.7877590
  61.7417010  18.3670830  35.1490930  61.7720000  19.1436830  33.8499190
  62.7197180  29.8609740  49.4985260  62.1818270  30.5855800  49.1793960
  62.9731140  29.3840080  48.7082600  63.9722430  17.8294260  51.0241190
  64.5622120  17.5210110  51.7119010  63.1542670  17.3574010  51.1801090
  68.7915860  17.4460070  51.2574210  68.1031380  16.7841610  51.1924200
  69.5121880  16.9998340  51.7022670  69.4216260  14.0411700  37.3164470
  69.7018550  13.1979600  37.6723890  68.6481990  14.2734810  37.8303220
  60.7410750  16.3304090  34.7755470  61.0436650  16.3371520  33.8674620
  61.4805340  15.9801950  35.2723130  65.5759390  31.0960950  49.7571910
  65.5018090  31.9996090  50.0644280  64.6738230  30.7772850  49.7293980
  63.9595680  15.2738710  35.7611670  63.6117680  14.5962700  35.1814120
  64.1608450  14.8128220  36.5755060  66.1244720  30.2619460  37.3798270
  67.0195510  30.6004430  37.4017030  66.1562350  29.5398870  36.7522550
  59.7640880  25.6346510  35.6085270  60.2015750  26.1776180  36.2642850
  60.2488610  24.8093460  35.6181610  56.9786680  28.4235540  43.0605530
  57.3089690  27.5556600  42.8284170  57.4077680  28.6294060  43.8910490
  61.5748600  26.7544550  40.7207500  61.2744140  26.6309520  41.6211410
  61.4686090  25.8953140  40.3123230  57.4676890  29.2906130  45.7987160
  57.0307880  29.4706930  46.6311310  58.0354570  30.0480750  45.6568880
  73.1039070  28.7923130  50.0864470  72.5041060  28.8515690  49.3428390
  73.2332970  27.8528110  50.2161320  74.3440520  26.5340950  35.4234180
  73.5133480  26.6017600  35.8941410  74.5212350  27.4245070  35.1201040
  73.7996980  23.2788430  37.9268380  74.5615890  23.8485080  38.0328070
  73.8151350  22.7115630  38.6976690  57.3001320  21.8026360  42.1576040
  56.6450160  21.5338000  41.5135740  58.1379270  21.6930840  41.7078020
  74.8056950  24.1338530  42.7710310  75.1765780  23.3505850  42.3646280
  75.4458880  24.8227630  42.5927610  71.7890710  25.5175110  48.1840630
  70.9750550  25.9472270  48.4466420  72.1964910  26.1293520  47.5709680
  73.8516150  23.5722800  35.0840900  74.1264990  24.4801680  34.9560120
  73.6626890  23.5085330  36.0202890  70.2491760  16.5967650  36.3794530
  70.6676640  16.4098630  35.5391190  69.9427820  15.7446700  36.6897460
  73.7481490  21.5091790  40.0770330  73.3725090  20.7419720  39.6451620
  73.0184610  21.8914490  40.5645260  58.3377250  22.1878930  46.6979380
  58.7050290  22.1006330  47.5775400  57.7688070  21.4245480  46.5986240
  73.1381110  20.6563310  49.7109850  72.9067200  20.4276060  48.8107800
  73.3985660  21.5762860  49.6654740  57.8893250  19.0988020  50.6037800
  56.9949300  19.0654780  50.9431510  58.4290800  19.2974810  51.3689050
  71.5769180  15.8819740  52.4889550  72.4539360  15.8903140  52.8723550
  71.5890020  15.1450580  51.8781900  56.5139400  19.0125290  38.1001370
  55.6103480  19.2755490  37.9253030  56.9980020  19.2836460  37.3201330
  73.0232450  19.7349280  43.3777570  73.5469930  19.2411930  42.7467740
  73.6091870  19.8699640  44.1225140  73.2022170  19.8189150  46.8997120
  72.2524880  19.7852690  47.0142110  73.3835180  20.7289260  46.6646890
  59.0566610  18.0690830  36.0095750  59.7658310  17.6474050  35.5243030
  58.3406550  18.1366060  35.3779100  58.7040770  14.1230160  35.0498400
  59.4268900  14.6639100  35.3679620  58.9765290  13.8493580  34.1739940
  72.5132420  18.9922630  39.3169980  73.0091540  18.7593500  40.1018860
  72.3148490  18.1534470  38.9007620  58.3932960  13.3736350  44.9521020
  59.0409150  12.8233730  44.5116180  58.8134800  13.6279500  45.7736830
  73.9419580  17.6283580  41.8507660  73.8318860  17.4739620  42.7889930
  74.7027170  17.1004520  41.6083070  72.2885300  13.5677710  48.3090660
  72.9257520  14.1811850  48.6749850  72.4360190  13.6038370  47.3639890
  74.8309850  15.4591500  35.0913800  75.7559160  15.3272680  34.8832090
  74.8085640  15.5384320  36.0450250  74.9048340  16.2302160  37.7170510
  74.1099840  16.1647280  38.2463420  75.1091620  17.1652800  37.7055860
  71.8466760  30.2693710  41.7108900  72.4425830  29.9478280  41.0343320
  72.1044910  29.7965530  42.5022170  58.1464960  13.5292020  47.6946340
  57.7979780  13.9855840  48.4604520  57.8152660  12.6349150  47.7768770
  59.7529330  26.7011620  51.8599530  59.7098960  26.3304530  52.7413990
  59.8840340  27.6389190  52.0001350  63.4535360  28.2571210  47.4609250
  63.2126720  28.5245770  46.5739770  64.3938000  28.4276940  47.5160110
  65.6589780  14.7203900  51.2165760  65.5978670  15.3125730  51.9661170
  66.5990160  14.6129860  51.0716020  68.2964340  14.3773960  50.8558050
  68.9104750  14.6953250  50.1939130  68.8413900  13.8922550  51.4753910
  74.7139520  30.2765590  48.2619890  74.2197800  30.6734460  47.5447020
  74.1052810  29.6514800  48.6557170  58.8185600  13.0568220  50.9697110
  59.3668590  12.8756270  50.2063220  58.8840910  12.2662330  51.5053420
  59.5917360  29.6473870  48.9797310  58.9977680  29.5158570  49.7187350
  59.5841200  28.8112010  48.5139410  69.0372380  12.9406100  47.1827340
  68.1632220  13.2741210  46.9800270  68.9283130  12.4679280  48.0079210
  69.9444360  15.1476970  48.5669060  69.6157720  14.3328730  48.1870790
  70.8926660  15.1046780  48.4434750  72.3978970  30.9189010  45.5406630
  71.9381940  31.6704820  45.1664650  71.7691430  30.1995480  45.4821430
  59.2229590  27.0132250  47.9305350  58.4963650  26.3937540  47.8631300
  59.2838740  27.4072860  47.0603430  62.8274690  29.2277250  44.7154760
  63.3439710  28.6164610  44.1903020  63.4772070  29.7306030  45.2065770
  65.5670190  30.1185740  45.5423740  65.8548000  29.8640040  44.6656750
  66.0793410  29.5663100  46.1329310  66.7847200  13.8575940  46.1220250
  66.0018990  14.3321440  46.4017010  66.4910130  12.9530770  46.0133430
  71.3368270  14.5599040  44.1669340  71.7776360  14.5044140  43.3190940
  71.0675860  15.4757050  44.2379520  73.2006840  14.1914280  42.1778160
  73.1395240  13.2475500  42.0309180  73.9798870  14.2994370  42.7231620
  57.5059590  30.3306640  41.1402110  57.3381630  29.6977320  41.8384000
  56.6394100  30.5366040  40.7896300  58.1287610  14.1623420  38.6433970
  58.8866970  14.2752300  38.0698000  57.6664780  14.9992620  38.5977400
  64.6701420  16.2762690  41.6336280  63.8575930  15.9019580  41.2932160
  65.1743060  15.5207770  41.9357470  69.1726400  12.9405140  42.8719350
  69.7755770  13.5125350  43.3467870  68.4319390  13.5044580  42.6493250
  72.3161000  13.3426700  38.1459630  72.5111630  14.2410150  38.4127060
  71.5290870  13.1113780  38.6392580  59.1122290  29.0239870  38.5852250
  58.5869910  29.4047900  37.8814210  59.0366870  29.6490640  39.3061960
  60.5012760  14.6887470  37.1835940  61.0305520  13.9017270  37.0543890
  61.1341080  15.3678660  37.4171470  62.6950600  14.4262610  40.2381330
  62.0653340  13.7249920  40.4051460  62.1555740  15.1866740  40.0214490
  65.6342550  31.0401840  52.9091940  66.5609860  30.8046110  52.9527900
  65.6192980  31.8673840  52.4277970  73.8687610  30.5827410  39.9066190
  74.0439800  29.8965150  39.2627110  73.1709180  31.1074460  39.5142860
  62.8206160  13.7046590  52.6733820  62.5390430  14.2080190  51.9094640
  63.2025860  12.9068340  52.3075950  61.7115260  30.9722250  37.4601500
  62.4434080  30.6881530  36.9125390  61.9708930  30.7335530  38.3500880
  60.8730050  27.0886980  37.4647830  60.2438930  27.5572080  38.0133660
  60.9877880  26.2436200  37.8994020  69.4221620  13.1200170  53.2514290
  69.3087070  13.4394780  54.1465810  70.2391360  13.5212680  52.9551570
  72.2020110  30.2671700  52.7332980  72.9945430  29.7720930  52.5258940
  72.4953260  30.9461840  53.3408590  68.3279770  21.1392640  23.6149030
  68.2473820  20.2247250  23.3440740  67.9144190  21.6359710  22.9088740
  66.4597810  22.9171660  25.4958300  65.6839910  22.4372100  25.7856870
  67.1110740  22.2377310  25.3214460  60.4763640  23.2291470  26.3734060
  59.6448520  22.9740180  26.7730570  61.0844620  23.3002240  27.1091980
  70.4805240  27.3231850  24.2757430  70.0186770  26.5519090  24.6044600
  71.2930790  27.3497920  24.7809880  60.4564900  27.2631560  26.5692080
  60.7592940  26.3729300  26.3902300  61.2008490  27.8201780  26.3414330
  58.8855590  18.1893360  20.1576450  57.9972290  18.5309330  20.0556330
  59.1696780  17.9893680  19.2657280  56.8488600  20.7899010  26.0416150
  57.4204710  20.0221210  26.0419790  56.8490140  21.0887770  25.1322760
  66.7068550  29.6089860  23.8961420  66.0879990  30.0647360  23.3255860
  67.5620330  29.7641320  23.4951120  65.9006800  25.5928850  25.5028460
  65.8315080  24.6518790  25.3417590  66.6626660  25.6830260  26.0751030
  58.0913470  16.1983370  27.8285080  57.9116310  15.3009120  28.1087840
  57.6893550  16.7455240  28.5032030  66.9311970  18.3999230  25.7297390
  67.3076790  17.5271110  25.6171060  66.8331480  18.7357930  24.8387830
  61.0616980  16.7724860  21.1914830  61.1683730  17.6728590  21.4983590
  60.1509340  16.7242830  20.9009480  70.7136090  15.8949670  22.6625730
  71.5345710  15.4046240  22.7051210  70.7470170  16.4847330  23.4157570
  58.7100140  18.6943870  26.4367420  59.3910250  18.9582240  27.0554820
  58.3948190  17.8544740  26.7705430  62.9024710  19.7411230  25.5240010
  63.4102930  20.2392200  26.1645030  63.4337950  18.9646430  25.3479370
  75.0035640  17.9116420  29.2269360  74.2987810  18.2998130  28.7084470
  75.2693560  18.6066710  29.8290290  61.1860810  14.3809790  29.7903430
  61.1879250  14.8982180  28.9849330  60.3565120  13.9039970  29.7673360
  67.5731900  24.4929100  21.2893330  66.9549170  24.9578550  20.7256050
  68.0855150  25.1856580  21.7062840  62.4363660  24.0204970  27.9676930
  62.1033040  24.6473890  28.6098000  62.6130340  24.5466850  27.1878600
  70.9497570  17.8350050  25.4353270  70.2453140  18.1234940  26.0156380
  71.3109730  18.6450160  25.0752830  60.8676140  16.0919750  27.7973880
  61.2092950  16.9361800  27.5027750  59.9291950  16.2403490  27.9139220
  61.6482760  25.9885770  29.7826110  62.2656760  26.6636850  29.5010560
  60.7875880  26.3973750  29.6913610  56.9415100  25.1785630  18.6632960
  56.5643080  25.6672730  17.9317860  57.1988170  25.8510910  19.2939490
  72.5660350  27.4525180  27.6980750  71.8823870  28.1224290  27.6897420
  73.1054640  27.6505830  26.9325610  74.0184490  17.2804840  25.8262480
  73.0709400  17.3143820  25.9577910  74.3434480  18.0943790  26.2111840
  64.5504030  13.5802020  24.1218470  64.8579010  13.0248910  23.4053970
  63.6204730  13.7146480  23.9391460  70.1019090  29.2969310  26.4125930
  70.1146250  28.8931600  25.5448190  69.5494310  30.0716600  26.3087360
  71.3964510  26.0185530  21.5016100  71.2860840  25.0759860  21.6265520
  71.3932760  26.3801170  22.3878860  69.5004530  24.1999150  27.7408540
  69.9173320  23.9859260  26.9062000  70.2244350  24.4571940  28.3117160
  66.9384790  21.6450850  20.8578590  66.0114070  21.5788230  21.0867060
  67.0909610  22.5830980  20.7433830  66.9253870  17.9167850  17.8545750
  65.9857540  18.0781810  17.9398210  67.2437130  18.6353530  17.3081740
  73.4466630  22.5986370  27.8324780  72.6185260  22.6679460  27.3574910
  74.0417110  23.1840680  27.3640610  70.9682080  23.2071150  21.3613840
  70.3494500  22.8690700  20.7140140  70.9506530  22.5630910  22.0693030
  70.4108640  19.3855690  28.7779650  69.9979820  20.2109400  29.0319640
  69.6784590  18.8000730  28.5856010  62.5441430  22.1715590  23.6398320
  62.1398430  21.4592840  23.1444220  62.6304550  21.8268830  24.5286360
  63.0123130  25.8583150  25.8037530  62.7151420  25.2528620  25.1245310
  63.9622950  25.8960460  25.6926890  61.2570050  18.9458800  27.4197360
  61.8084640  19.0554140  26.6450610  61.7713560  19.3196400  28.1352590
  71.1008740  29.4315020  29.4660630  70.6239300  30.2387210  29.2733240
  70.4170530  28.7793350  29.6186840  62.1041560  25.5964840  32.4545330
  61.2070090  25.8204810  32.7018730  62.1294430  25.7199780  31.5056730
  69.1446780  22.4457960  18.3686590  69.5840060  21.6080390  18.2224410
  69.8575200  23.0787360  18.4550730  60.9312780  22.4678160  31.0302700
  60.7920550  23.3400960  31.3990100  60.0494140  22.1250970  30.8850640
  67.2542160  27.3854030  22.3367830  67.6938070  28.1278360  21.9223220
  67.1929050  27.6280600  23.2606790  62.7293130  28.4099860  33.2387850
  62.7008560  28.8142810  32.3716280  62.5658100  27.4810220  33.0759450
  72.7263920  13.7000770  16.6827630  72.4136580  13.7927600  17.5826700
  73.4876390  14.2781800  16.6325060  59.2446060  21.0660570  21.1404970
  59.1243660  21.7922660  20.5286240  58.9346950  20.2963480  20.6632880
  74.6807950  29.1926960  34.5352020  75.1567670  29.6709850  35.2141100
  75.3015110  29.1244450  33.8097520  56.8831430  24.2375710  26.9473610
  56.9611850  24.3724480  26.0029330  57.4973110  23.5291600  27.1401730
  58.1279060  25.9375900  23.3579790  57.7207140  26.0790490  22.5033390
  59.0192070  25.6536060  23.1551000  74.0841200  26.3839810  31.6952030
  74.2104260  26.1451690  30.7769210  74.1262580  25.5524350  32.1674110
  67.9457940  30.0867810  30.2646840  68.4602610  29.9975820  31.0669270
  67.1027020  30.4327510  30.5574750  69.9212340  30.3723150  19.6930840
  69.7613480  30.0826090  20.5912670  69.7559050  29.5963280  19.1576070
  62.4000720  30.1521680  21.4702460  62.2243200  29.2357220  21.2570260
  61.5456460  30.5108970  21.7100260  69.6238470  27.8810710  18.2528840
  68.9303630  27.8788000  17.5931120  70.3661330  27.4570030  17.8223010
  69.1888400  29.5073420  22.3277330  69.6445350  28.7262800  22.6415950
  69.5280920  30.2180240  22.8718510  73.9365210  18.4372270  32.6601770
  73.3209480  18.9451940  32.1317230  73.6161630  17.5370600  32.6027710
  56.9390950  25.2789880  29.4868070  57.1021990  24.8095240  28.6687440
  57.4043400  24.7713440  30.1516910  61.7109720  14.4095640  24.5228640
  61.2677870  15.1905180  24.1913160  62.2694710  14.7325530  25.2299580
  65.9979530  17.2764160  30.1263960  65.5358900  17.4847180  30.9383900
  65.5957640  16.4623510  29.8234630  70.9984040  18.4973110  31.2560620
  70.1477630  18.1978860  31.5769690  70.8385830  18.7415120  30.3444440
  68.0933750  19.9974860  33.3559410  68.4187160  19.1638610  33.0161640
  68.8814080  20.5203380  33.5037740  64.8268540  14.0306340  19.4034470
  64.2022720  14.0266210  20.1287780  64.7398660  13.1637300  19.0070440
  63.7485620  14.9542970  26.3818240  64.0457950  15.8605800  26.3010260
  64.2971180  14.4661750  25.7677810  61.5023940  19.5329210  22.2509890
  61.2764860  19.3166380  23.1556510  60.7216470  19.9657670  21.9055860
  68.7321700  19.5392580  20.8500540  68.1330590  20.2628380  20.6664160
  69.2801310  19.4769360  20.0676990  63.9423150  20.4314790  32.9170160
  63.8466750  19.4909520  32.7670560  64.7855130  20.6529860  32.5218230
  67.3386570  18.1756120  22.8803820  67.7316140  18.4928320  22.0672510
  67.7003420  17.2968000  22.9948340  59.0733690  16.8428460  31.0703940
  58.6797080  17.6903670  31.2776720  58.3852090  16.2054830  31.2612580
  65.6478740  16.9263430  34.1400680  64.9577060  16.7335630  34.7746770
  66.3911040  17.2098070  34.6724980  56.3750740  14.7656920  25.1034020
  56.0863790  15.3359780  25.8159000  57.1196500  14.2861370  25.4665250
  56.5620970  18.7077040  16.3136740  56.4795640  19.6507800  16.4551730
  56.2104030  18.5651950  15.4349090  67.9241710  20.7661870  26.9754600
  67.1922830  21.2748680  27.3244700  67.5266050  19.9491850  26.6743380
  64.3619100  17.4416070  25.3807090  64.3655160  17.0006020  24.5311630
  65.2570220  17.7633400  25.4878910  60.2121480  17.3242560  24.3401300
  59.8721530  17.8017790  25.0968350  59.4498800  16.8707680  23.9802400
  64.4239250  18.4428150  18.3713850  64.5452070  18.4014630  19.3199670
  64.0387760  19.3052300  18.2160580  68.3867620  16.2195550  26.3877540
  68.4040360  16.6704200  27.2319390  68.1383200  15.3201190  26.6010980
  63.4360750  20.7529290  17.7697150  62.8677650  20.3047540  17.1433060
  64.1449750  21.1122070  17.2362300  71.8138370  13.6327730  32.2263920
  72.1384140  12.9017390  32.7521900  71.8494880  13.3141370  31.3244910
  58.5129930  24.6541310  31.6463880  58.1284720  24.0134980  32.2446840
  58.8242120  25.3577430  32.2158610  64.6627070  21.5017850  27.1272500
  65.0297200  21.0276420  27.8733840  64.4732130  22.3759420  27.4680840
  57.5267560  16.2461540  23.2565970  57.2414480  15.8817210  24.0944590
  57.4646420  15.5142000  22.6429110  62.4526440  20.5426490  29.4456710
  62.1483510  21.4218470  29.6707070  63.4072900  20.6026280  29.4814150
  60.9808230  24.7487480  20.0423560  60.2070490  24.2085100  19.8822280
  61.7102860  24.2294090  19.7041320  71.7396210  23.7452840  25.8349950
  72.4595330  24.2408130  25.4446060  71.5378030  23.0670730  25.1903820
  67.2006150  15.1390800  19.9779340  66.3870760  14.6403970  19.9024650
  67.0068100  15.9789050  19.5615690  67.1215010  23.8161900  31.7218950
  67.0552320  22.8957570  31.4676540  66.4920150  23.9137340  32.4363590
  69.9154540  19.5110450  18.2741500  70.8034160  19.8227680  18.0992840
  69.8859630  18.6382700  17.8822080  61.0245630  24.4167860  23.6802370
  61.5424300  23.6136120  23.6259260  60.5729650  24.3547000  24.5219200
  65.9115130  25.6834140  18.9529670  66.2530830  26.4276370  18.4572990
  65.0827840  25.9965260  19.3154500  58.5090170  21.3829230  30.5928070
  58.1505110  22.0483080  31.1801410  58.2144730  20.5512780  30.9640690
  61.7103290  21.8413470  33.4767620  61.4103430  21.9870650  32.5795440
  62.4814530  21.2818760  33.3841010  67.0531740  26.6382470  31.4722750
  67.0676280  25.7063430  31.2541660  66.3456840  26.7242230  32.1112520
  72.1868810  20.8222290  17.7421360  72.1032530  21.2536510  16.8917800
  72.9063000  21.2820640  18.1748180  73.2642950  23.2789810  30.8191330
  72.5391140  23.8718590  30.6220720  73.7918410  23.2713350  30.0204700
  73.2156060  27.6764550  20.4703490  72.5732220  27.0220170  20.7447210
  72.8286720  28.0819640  19.6944160  68.7942540  25.0049980  24.3175180
  69.1466360  24.4078110  23.6576550  67.9104870  24.6794210  24.4883430
  64.8805820  25.7647670  21.7245590  65.5676950  26.3116880  22.1053180
  64.0938240  26.3088400  21.7595200  57.0198220  21.3820490  17.2162670
  57.8893070  21.6645290  17.4998590  56.5288540  22.1956360  17.1011480
  64.1833030  22.7693700  21.3370950  64.6395810  23.5798950  21.5631140
  63.8321240  22.4516840  22.1689440  66.4865640  28.2800040  28.5663250
  67.1307860  28.4859420  29.2436670  66.8495080  27.5188440  28.1134100
  60.0844810  13.1131350  21.8093470  59.9559440  13.1049250  22.7578390
  59.2606830  13.4514440  21.4584480  67.7597720  26.2832390  27.2840700
  68.4019950  25.5825550  27.3972870  68.2847070  27.0630830  27.1037590
  71.6053440  26.5681010  17.0079840  71.3791020  25.8511450  17.6004480
  71.2149640  26.3193450  16.1701590  69.5335340  27.0827290  30.4876760
  69.8691580  27.6693980  31.1654680  68.6135680  26.9520000  30.7174550
  57.3869470  30.5947870  17.7824300  57.7467110  31.1937210  17.1281570
  57.2461810  31.1407760  18.5559330  57.0838740  14.8722470  31.2700170
  56.3697260  15.0719390  31.8752780  57.5033780  14.0962040  31.6414970
  71.1869690  24.4852950  18.6694000  70.8991390  24.9465640  19.4571880
  71.9821860  24.0250720  18.9378220  57.3711330  28.8602730  32.2566700
  57.4802450  27.9197470  32.1162090  56.7191890  29.1257480  31.6080430
  65.3623920  27.1318620  33.6564820  65.0420790  26.4127860  34.2010510
  64.6882280  27.8073690  33.7300880  63.4038090  27.9779070  18.5997970
  63.3948190  28.7108760  17.9842480  62.4836450  27.7310650  18.6924930
  59.0044730  23.1993960  19.3444730  58.3972680  23.9392860  19.3540030
  59.4794080  23.2893320  18.5182930  68.5777520  17.3644780  29.0201620
  68.9458340  16.5439990  29.3481190  67.7175720  17.4246670  29.4357270
  71.9439550  16.3201720  19.8289180  71.3152710  16.4247390  19.1147410
  71.4491470  16.5398500  20.6183060  66.3897690  28.0407310  17.2623160
  66.4909670  27.8371300  16.3325140  65.4899430  27.7865590  17.4670940
  63.9123580  18.5987670  21.2447060  63.2039730  19.0674010  21.6860670
  64.1968060  17.9409680  21.8792250  65.5379510  20.0184370  29.2439590
  66.0364760  20.4930190  29.9091440  65.6802460  19.0947890  29.4509620
  67.9439010  15.3238330  22.6842850  67.8206790  15.3424460  21.7352360
  68.8923570  15.3717270  22.8041250  65.0315800  30.5593630  21.9570830
  65.2857300  30.5215020  21.0350200  64.0828280  30.4326960  21.9499080
  62.1158600  16.9072750  18.6197770  62.9649130  17.3442900  18.5537960
  61.7489870  17.2193010  19.4469830  72.7446370  16.2352330  30.0867980
  72.2419970  16.9757730  30.4261790  73.5603030  16.6236330  29.7704770
  71.0368380  21.4785510  23.5329340  70.0958520  21.4935740  23.7077030
  71.3512450  20.6921470  23.9789640  61.0150020  23.1605110  17.0933300
  61.7813290  23.0486470  17.6558730  61.0924710  22.4643080  16.4410070
  59.7096780  20.5930180  17.7766190  59.7900370  19.6457690  17.8883590
  60.6016530  20.9237060  17.8826850  73.0393960  28.6494360  25.2083600
  73.1641380  29.4725530  25.6807410  73.9059520  28.4385090  24.8607750
  60.5111490  30.7425570  24.8800730  61.2473970  30.1941030  25.1509300
  60.8952410  31.6081580  24.7406720  57.3956970  26.8099140  20.7542240
  56.4696750  27.0520280  20.7447650  57.8613400  27.6373400  20.6326990
  59.5169770  29.9271640  34.0686310  60.3182500  30.2483690  34.4821710
  59.0021590  29.5667220  34.7906220  63.6213800  29.9155880  16.7026300
  64.4142410  30.2044710  16.2508090  63.1018150  29.4848050  16.0238780
  68.3534400  26.0351510  34.0161720  67.7472560  26.0583110  33.2757470
  68.0488510  25.3034550  34.5528970  69.7834770  29.7631800  32.6271130
  70.7356520  29.6789820  32.5771370  69.6362990  30.4273510  33.3004920
  72.6743970  29.1426010  18.1263040  72.3885480  28.7291150  17.3117220
  72.4763520  30.0713720  18.0063560  57.2367580  22.4145100  33.0122360
  57.7406600  21.8352380  33.5838590  56.4975000  22.6985330  33.5498730
  64.1391200  25.1359290  16.5668650  64.0341840  24.5211640  17.2930030
  63.9715420  24.6125180  15.7831660  64.2905520  23.8216090  32.5457880
  63.5251190  24.3901090  32.4612550  64.4721480  23.5292300  31.6526110
  67.3793930  24.1979320  17.1710640  66.8304030  24.6448620  17.8153380
  68.0013190  23.6928570  17.6948310  71.4328870  25.5521420  33.1032900
  72.1738340  25.8897180  32.6000360  70.6701550  25.7213480  32.5502670
  59.2690660  20.5574690  33.9072430  59.3096000  20.2588560  34.8157660
  60.1236160  20.9582300  33.7479950  63.0469050  23.1570240  19.0675940
  63.4685470  22.9910110  19.9107330  63.1719890  22.3470470  18.5731080
  61.2096470  19.1366790  31.8746920  60.6792930  18.6457740  31.2470260
  61.8784540  19.5650990  31.3404850  65.5596690  22.1807850  16.3153040
  66.0802350  21.4656870  15.9494190  66.2065090  22.8193720  16.6153550
  70.1074530  23.6036250  31.6388110  70.5215550  23.7581330  32.4878530
  69.1725530  23.7291470  31.8013890  70.5796700  20.9432410  33.6427260
  71.1617470  20.1884730  33.5547740  70.7558470  21.4739850  32.8658740
  61.6968770  16.1029160  31.9544210  61.6025640  15.4849910  31.2295080
  61.1166160  16.8295450  31.7274120  64.4630210  14.6602400  28.9871600
  64.0147510  14.6826660  28.1417150  63.8295410  14.2621420  29.5841900
  64.8689760  23.5556730  29.6084040  65.2877870  24.3989460  29.4360280
  63.9498390  23.6928770  29.3790820  67.2053660  21.2872910  30.9921880
  67.3249870  20.6914050  31.7316720  68.0647660  21.3242600  30.5723180
  69.5441560  21.8410100  29.5684390  69.0176780  22.3652720  28.9649530
  69.8872900  22.4737490  30.1994120  61.9427950  19.2303470  16.0134100
  61.7417010  18.3670830  16.3747440  61.7720000  19.1436830  15.0755700
  62.7197180  29.8609740  30.7241770  62.1818270  30.5855800  30.4050470
  62.9731140  29.3840080  29.9339110  63.9722430  17.8294260  32.2497700
  64.5622120  17.5210110  32.9375520  63.1542670  17.3574010  32.4057600
  68.7915860  17.4460070  32.4830720  68.1031380  16.7841610  32.4180710
  69.5121880  16.9998340  32.9279180  69.4216260  14.0411700  18.5420980
  69.7018550  13.1979600  18.8980400  68.6481990  14.2734810  19.0559730
  60.7410750  16.3304090  16.0011980  61.0436650  16.3371520  15.0931130
  61.4805340  15.9801950  16.4979640  65.5759390  31.0960950  30.9828420
  65.5018090  31.9996090  31.2900790  64.6738230  30.7772850  30.9550490
  63.9595680  15.2738710  16.9868180  63.6117680  14.5962700  16.4070630
  64.1608450  14.8128220  17.8011570  66.1244720  30.2619460  18.6054780
  67.0195510  30.6004430  18.6273540  66.1562350  29.5398870  17.9779060
  59.7640880  25.6346510  16.8341780  60.2015750  26.1776180  17.4899360
  60.2488610  24.8093460  16.8438120  56.9786680  28.4235540  24.2862040
  57.3089690  27.5556600  24.0540680  57.4077680  28.6294060  25.1167000
  61.5748600  26.7544550  21.9464010  61.2744140  26.6309520  22.8467920
  61.4686090  25.8953140  21.5379740  57.4676890  29.2906130  27.0243670
  57.0307880  29.4706930  27.8567820  58.0354570  30.0480750  26.8825390
  73.1039070  28.7923130  31.3120980  72.5041060  28.8515690  30.5684900
  73.2332970  27.8528110  31.4417830  74.3440520  26.5340950  16.6490690
  73.5133480  26.6017600  17.1197920  74.5212350  27.4245070  16.3457550
  73.7996980  23.2788430  19.1524890  74.5615890  23.8485080  19.2584580
  73.8151350  22.7115630  19.9233200  57.3001320  21.8026360  23.3832550
  56.6450160  21.5338000  22.7392250  58.1379270  21.6930840  22.9334530
  74.8056950  24.1338530  23.9966820  75.1765780  23.3505850  23.5902790
  75.4458880  24.8227630  23.8184120  71.7890710  25.5175110  29.4097140
  70.9750550  25.9472270  29.6722930  72.1964910  26.1293520  28.7966190
  73.8516150  23.5722800  16.3097410  74.1264990  24.4801680  16.1816630
  73.6626890  23.5085330  17.2459400  70.2491760  16.5967650  17.6051040
  70.6676640  16.4098630  16.7647700  69.9427820  15.7446700  17.9153970
  73.7481490  21.5091790  21.3026840  73.3725090  20.7419720  20.8708130
  73.0184610  21.8914490  21.7901770  58.3377250  22.1878930  27.9235890
  58.7050290  22.1006330  28.8031910  57.7688070  21.4245480  27.8242750
  73.1381110  20.6563310  30.9366360  72.9067200  20.4276060  30.0364310
  73.3985660  21.5762860  30.8911250  57.8893250  19.0988020  31.8294310
  56.9949300  19.0654780  32.1688020  58.4290800  19.2974810  32.5945560
  71.5769180  15.8819740  33.7146060  72.4539360  15.8903140  34.0980060
  71.5890020  15.1450580  33.1038410  56.5139400  19.0125290  19.3257880
  55.6103480  19.2755490  19.1509540  56.9980020  19.2836460  18.5457840
  73.0232450  19.7349280  24.6034080  73.5469930  19.2411930  23.9724250
  73.6091870  19.8699640  25.3481650  73.2022170  19.8189150  28.1253630
  72.2524880  19.7852690  28.2398620  73.3835180  20.7289260  27.8903400
  59.0566610  18.0690830  17.2352260  59.7658310  17.6474050  16.7499540
  58.3406550  18.1366060  16.6035610  58.7040770  14.1230160  16.2754910
  59.4268900  14.6639100  16.5936130  58.9765290  13.8493580  15.3996450
  72.5132420  18.9922630  20.5426490  73.0091540  18.7593500  21.3275370
  72.3148490  18.1534470  20.1264130  58.3932960  13.3736350  26.1777530
  59.0409150  12.8233730  25.7372690  58.8134800  13.6279500  26.9993340
  73.9419580  17.6283580  23.0764170  73.8318860  17.4739620  24.0146440
  74.7027170  17.1004520  22.8339580  72.2885300  13.5677710  29.5347170
  72.9257520  14.1811850  29.9006360  72.4360190  13.6038370  28.5896400
  74.8309850  15.4591500  16.3170310  75.7559160  15.3272680  16.1088600
  74.8085640  15.5384320  17.2706760  74.9048340  16.2302160  18.9427020
  74.1099840  16.1647280  19.4719930  75.1091620  17.1652800  18.9312370
  71.8466760  30.2693710  22.9365410  72.4425830  29.9478280  22.2599830
  72.1044910  29.7965530  23.7278680  58.1464960  13.5292020  28.9202850
  57.7979780  13.9855840  29.6861030  57.8152660  12.6349150  29.0025280
  59.7529330  26.7011620  33.0856040  59.7098960  26.3304530  33.9670500
  59.8840340  27.6389190  33.2257860  63.4535360  28.2571210  28.6865760
  63.2126720  28.5245770  27.7996280  64.3938000  28.4276940  28.7416620
  65.6589780  14.7203900  32.4422270  65.5978670  15.3125730  33.1917680
  66.5990160  14.6129860  32.2972530  68.2964340  14.3773960  32.0814560
  68.9104750  14.6953250  31.4195640  68.8413900  13.8922550  32.7010420
  74.7139520  30.2765590  29.4876400  74.2197800  30.6734460  28.7703530
  74.1052810  29.6514800  29.8813680  58.8185600  13.0568220  32.1953620
  59.3668590  12.8756270  31.4319730  58.8840910  12.2662330  32.7309930
  59.5917360  29.6473870  30.2053820  58.9977680  29.5158570  30.9443860
  59.5841200  28.8112010  29.7395920  69.0372380  12.9406100  28.4083850
  68.1632220  13.2741210  28.2056780  68.9283130  12.4679280  29.2335720
  69.9444360  15.1476970  29.7925570  69.6157720  14.3328730  29.4127300
  70.8926660  15.1046780  29.6691260  72.3978970  30.9189010  26.7663140
  71.9381940  31.6704820  26.3921160  71.7691430  30.1995480  26.7077940
  59.2229590  27.0132250  29.1561860  58.4963650  26.3937540  29.0887810
  59.2838740  27.4072860  28.2859940  62.8274690  29.2277250  25.9411270
  63.3439710  28.6164610  25.4159530  63.4772070  29.7306030  26.4322280
  65.5670190  30.1185740  26.7680250  65.8548000  29.8640040  25.8913260
  66.0793410  29.5663100  27.3585820  66.7847200  13.8575940  27.3476760
  66.0018990  14.3321440  27.6273520  66.4910130  12.9530770  27.2389940
  71.3368270  14.5599040  25.3925850  71.7776360  14.5044140  24.5447450
  71.0675860  15.4757050  25.4636030  73.2006840  14.1914280  23.4034670
  73.1395240  13.2475500  23.2565690  73.9798870  14.2994370  23.9488130
  57.5059590  30.3306640  22.3658620  57.3381630  29.6977320  23.0640510
  56.6394100  30.5366040  22.0152810  58.1287610  14.1623420  19.8690480
  58.8866970  14.2752300  19.2954510  57.6664780  14.9992620  19.8233910
  64.6701420  16.2762690  22.8592790  63.8575930  15.9019580  22.5188670
  65.1743060  15.5207770  23.1613980  69.1726400  12.9405140  24.0975860
  69.7755770  13.5125350  24.5724380  68.4319390  13.5044580  23.8749760
  72.3161000  13.3426700  19.3716140  72.5111630  14.2410150  19.6383570
  71.5290870  13.1113780  19.8649090  59.1122290  29.0239870  19.8108760
  58.5869910  29.4047900  19.1070720  59.0366870  29.6490640  20.5318470
  60.5012760  14.6887470  18.4092450  61.0305520  13.9017270  18.2800400
  61.1341080  15.3678660  18.6427980  62.6950600  14.4262610  21.4637840
  62.0653340  13.7249920  21.6307970  62.1555740  15.1866740  21.2471000
  65.6342550  31.0401840  34.1348450  66.5609860  30.8046110  34.1784410
  65.6192980  31.8673840  33.6534480  73.8687610  30.5827410  21.1322700
  74.0439800  29.8965150  20.4883620  73.1709180  31.1074460  20.7399370
  62.8206160  13.7046590  33.8990330  62.5390430  14.2080190  33.1351150
  63.2025860  12.9068340  33.5332460  61.7115260  30.9722250  18.6858010
  62.4434080  30.6881530  18.1381900  61.9708930  30.7335530  19.5757390
  60.8730050  27.0886980  18.6904340  60.2438930  27.5572080  19.2390170
  60.9877880  26.2436200  19.1250530  69.4221620  13.1200170  34.4770800
  69.3087070  13.4394780  35.3722320  70.2391360  13.5212680  34.1808080
  72.2020110  30.2671700  33.9589490  72.9945430  29.7720930  33.7515450
  72.4953260  30.9461840  34.5665100  68.3279770  21.1392640   4.8405540
  68.2473820  20.2247250   4.5697250  67.9144190  21.6359710   4.1345250
  66.4597810  22.9171660   6.7214810  65.6839910  22.4372100   7.0113380
  67.1110740  22.2377310   6.5470970  60.4763640  23.2291470   7.5990570
  59.6448520  22.9740180   7.9987080  61.0844620  23.3002240   8.3348490
  70.4805240  27.3231850   5.5013940  70.0186770  26.5519090   5.8301110
  71.2930790  27.3497920   6.0066390  60.4564900  27.2631560   7.7948590
  60.7592940  26.3729300   7.6158810  61.2008490  27.8201780   7.5670840
  56.8488600  20.7899010   7.2672660  57.4204710  20.0221210   7.2676300
  56.8490140  21.0887770   6.3579270  66.7068550  29.6089860   5.1217930
  66.0879990  30.0647360   4.5512370  67.5620330  29.7641320   4.7207630
  65.9006800  25.5928850   6.7284970  65.8315080  24.6518790   6.5674100
  66.6626660  25.6830260   7.3007540  58.0913470  16.1983370   9.0541590
  57.9116310  15.3009120   9.3344350  57.6893550  16.7455240   9.7288540
  66.9311970  18.3999230   6.9553900  67.3076790  17.5271110   6.8427570
  66.8331480  18.7357930   6.0644340  61.0616980  16.7724860   2.4171340
  61.1683730  17.6728590   2.7240100  60.1509340  16.7242830   2.1265990
  70.7136090  15.8949670   3.8882240  71.5345710  15.4046240   3.9307720
  70.7470170  16.4847330   4.6414080  58.7100140  18.6943870   7.6623930
  59.3910250  18.9582240   8.2811330  58.3948190  17.8544740   7.9961940
  62.9024710  19.7411230   6.7496520  63.4102930  20.2392200   7.3901540
  63.4337950  18.9646430   6.5735880  75.0035640  17.9116420  10.4525870
  74.2987810  18.2998130   9.9340980  75.2693560  18.6066710  11.0546800
  61.1860810  14.3809790  11.0159940  61.1879250  14.8982180  10.2105840
  60.3565120  13.9039970  10.9929870  67.5731900  24.4929100   2.5149840
  66.9549170  24.9578550   1.9512560  68.0855150  25.1856580   2.9319350
  62.4363660  24.0204970   9.1933440  62.1033040  24.6473890   9.8354510
  62.6130340  24.5466850   8.4135110  70.9497570  17.8350050   6.6609780
  70.2453140  18.1234940   7.2412890  71.3109730  18.6450160   6.3009340
  60.8676140  16.0919750   9.0230390  61.2092950  16.9361800   8.7284260
  59.9291950  16.2403490   9.1395730  61.6482760  25.9885770  11.0082620
  62.2656760  26.6636850  10.7267070  60.7875880  26.3973750  10.9170120
  72.5660350  27.4525180   8.9237260  71.8823870  28.1224290   8.9153930
  73.1054640  27.6505830   8.1582120  74.0184490  17.2804840   7.0518990
  73.0709400  17.3143820   7.1834420  74.3434480  18.0943790   7.4368350
  64.5504030  13.5802020   5.3474980  64.8579010  13.0248910   4.6310480
  63.6204730  13.7146480   5.1647970  70.1019090  29.2969310   7.6382440
  70.1146250  28.8931600   6.7704700  69.5494310  30.0716600   7.5343870
  71.3964510  26.0185530   2.7272610  71.2860840  25.0759860   2.8522030
  71.3932760  26.3801170   3.6135370  69.5004530  24.1999150   8.9665050
  69.9173320  23.9859260   8.1318510  70.2244350  24.4571940   9.5373670
  66.9384790  21.6450850   2.0835100  66.0114070  21.5788230   2.3123570
  67.0909610  22.5830980   1.9690340  73.4466630  22.5986370   9.0581290
  72.6185260  22.6679460   8.5831420  74.0417110  23.1840680   8.5897120
  70.9682080  23.2071150   2.5870350  70.3494500  22.8690700   1.9396650
  70.9506530  22.5630910   3.2949540  70.4108640  19.3855690  10.0036160
  69.9979820  20.2109400  10.2576150  69.6784590  18.8000730   9.8112520
  62.5441430  22.1715590   4.8654830  62.1398430  21.4592840   4.3700730
  62.6304550  21.8268830   5.7542870  63.0123130  25.8583150   7.0294040
  62.7151420  25.2528620   6.3501820  63.9622950  25.8960460   6.9183400
  61.2570050  18.9458800   8.6453870  61.8084640  19.0554140   7.8707120
  61.7713560  19.3196400   9.3609100  71.1008740  29.4315020  10.6917140
  70.6239300  30.2387210  10.4989750  70.4170530  28.7793350  10.8443350
  62.1041560  25.5964840  13.6801840  61.2070090  25.8204810  13.9275240
  62.1294430  25.7199780  12.7313240  60.9312780  22.4678160  12.2559210
  60.7920550  23.3400960  12.6246610  60.0494140  22.1250970  12.1107150
  67.2542160  27.3854030   3.5624340  67.6938070  28.1278360   3.1479730
  67.1929050  27.6280600   4.4863300  62.7293130  28.4099860  14.4644360
  62.7008560  28.8142810  13.5972790  62.5658100  27.4810220  14.3015960
  59.2446060  21.0660570   2.3661480  59.1243660  21.7922660   1.7542750
  58.9346950  20.2963480   1.8889390  74.6807950  29.1926960  15.7608530
  75.1567670  29.6709850  16.4397610  75.3015110  29.1244450  15.0354030
  56.8831430  24.2375710   8.1730120  56.9611850  24.3724480   7.2285840
  57.4973110  23.5291600   8.3658240  58.1279060  25.9375900   4.5836300
  57.7207140  26.0790490   3.7289900  59.0192070  25.6536060   4.3807510
  74.0841200  26.3839810  12.9208540  74.2104260  26.1451690  12.0025720
  74.1262580  25.5524350  13.3930620  67.9457940  30.0867810  11.4903350
  68.4602610  29.9975820  12.2925780  67.1027020  30.4327510  11.7831260
  62.4000720  30.1521680   2.6958970  62.2243200  29.2357220   2.4826770
  61.5456460  30.5108970   2.9356770  69.1888400  29.5073420   3.5533840
  69.6445350  28.7262800   3.8672460  69.5280920  30.2180240   4.0975020
  73.9365210  18.4372270  13.8858280  73.3209480  18.9451940  13.3573740
  73.6161630  17.5370600  13.8284220  56.9390950  25.2789880  10.7124580
  57.1021990  24.8095240   9.8943950  57.4043400  24.7713440  11.3773420
  61.7109720  14.4095640   5.7485150  61.2677870  15.1905180   5.4169670
  62.2694710  14.7325530   6.4556090  65.9979530  17.2764160  11.3520470
  65.5358900  17.4847180  12.1640410  65.5957640  16.4623510  11.0491140
  70.9984040  18.4973110  12.4817130  70.1477630  18.1978860  12.8026200
  70.8385830  18.7415120  11.5700950  68.0933750  19.9974860  14.5815920
  68.4187160  19.1638610  14.2418150  68.8814080  20.5203380  14.7294250
  63.7485620  14.9542970   7.6074750  64.0457950  15.8605800   7.5266770
  64.2971180  14.4661750   6.9934320  61.5023940  19.5329210   3.4766400
  61.2764860  19.3166380   4.3813020  60.7216470  19.9657670   3.1312370
  68.7321700  19.5392580   2.0757050  68.1330590  20.2628380   1.8920670
  69.2801310  19.4769360   1.2933500  63.9423150  20.4314790  14.1426670
  63.8466750  19.4909520  13.9927070  64.7855130  20.6529860  13.7474740
  67.3386570  18.1756120   4.1060330  67.7316140  18.4928320   3.2929020
  67.7003420  17.2968000   4.2204850  59.0733690  16.8428460  12.2960450
  58.6797080  17.6903670  12.5033230  58.3852090  16.2054830  12.4869090
  65.6478740  16.9263430  15.3657190  64.9577060  16.7335630  16.0003280
  66.3911040  17.2098070  15.8981490  56.3750740  14.7656920   6.3290530
  56.0863790  15.3359780   7.0415510  57.1196500  14.2861370   6.6921760
  67.9241710  20.7661870   8.2011110  67.1922830  21.2748680   8.5501210
  67.5266050  19.9491850   7.8999890  64.3619100  17.4416070   6.6063600
  64.3655160  17.0006020   5.7568140  65.2570220  17.7633400   6.7135420
  60.2121480  17.3242560   5.5657810  59.8721530  17.8017790   6.3224860
  59.4498800  16.8707680   5.2058910  68.3867620  16.2195550   7.6134050
  68.4040360  16.6704200   8.4575900  68.1383200  15.3201190   7.8267490
  71.8138370  13.6327730  13.4520430  72.1384140  12.9017390  13.9778410
  71.8494880  13.3141370  12.5501420  58.5129930  24.6541310  12.8720390
  58.1284720  24.0134980  13.4703350  58.8242120  25.3577430  13.4415120
  64.6627070  21.5017850   8.3529010  65.0297200  21.0276420   9.0990350
  64.4732130  22.3759420   8.6937350  57.5267560  16.2461540   4.4822480
  57.2414480  15.8817210   5.3201100  57.4646420  15.5142000   3.8685620
  62.4526440  20.5426490  10.6713220  62.1483510  21.4218470  10.8963580
  63.4072900  20.6026280  10.7070660  71.7396210  23.7452840   7.0606460
  72.4595330  24.2408130   6.6702570  71.5378030  23.0670730   6.4160330
  67.1215010  23.8161900  12.9475460  67.0552320  22.8957570  12.6933050
  66.4920150  23.9137340  13.6620100  61.0245630  24.4167860   4.9058880
  61.5424300  23.6136120   4.8515770  60.5729650  24.3547000   5.7475710
  58.5090170  21.3829230  11.8184580  58.1505110  22.0483080  12.4057920
  58.2144730  20.5512780  12.1897200  61.7103290  21.8413470  14.7024130
  61.4103430  21.9870650  13.8051950  62.4814530  21.2818760  14.6097520
  67.0531740  26.6382470  12.6979260  67.0676280  25.7063430  12.4798170
  66.3456840  26.7242230  13.3369030  73.2642950  23.2789810  12.0447840
  72.5391140  23.8718590  11.8477230  73.7918410  23.2713350  11.2461210
  68.7942540  25.0049980   5.5431690  69.1466360  24.4078110   4.8833060
  67.9104870  24.6794210   5.7139940  64.8805820  25.7647670   2.9502100
  65.5676950  26.3116880   3.3309690  64.0938240  26.3088400   2.9851710
  64.1833030  22.7693700   2.5627460  64.6395810  23.5798950   2.7887650
  63.8321240  22.4516840   3.3945950  66.4865640  28.2800040   9.7919760
  67.1307860  28.4859420  10.4693180  66.8495080  27.5188440   9.3390610
  60.0844810  13.1131350   3.0349980  59.9559440  13.1049250   3.9834900
  59.2606830  13.4514440   2.6840990  67.7597720  26.2832390   8.5097210
  68.4019950  25.5825550   8.6229380  68.2847070  27.0630830   8.3294100
  69.5335340  27.0827290  11.7133270  69.8691580  27.6693980  12.3911190
  68.6135680  26.9520000  11.9431060  57.0838740  14.8722470  12.4956680
  56.3697260  15.0719390  13.1009290  57.5033780  14.0962040  12.8671480
  57.3711330  28.8602730  13.4823210  57.4802450  27.9197470  13.3418600
  56.7191890  29.1257480  12.8336940  65.3623920  27.1318620  14.8821330
  65.0420790  26.4127860  15.4267020  64.6882280  27.8073690  14.9557390
  68.5777520  17.3644780  10.2458130  68.9458340  16.5439990  10.5737700
  67.7175720  17.4246670  10.6613780  63.9123580  18.5987670   2.4703570
  63.2039730  19.0674010   2.9117180  64.1968060  17.9409680   3.1048760
  65.5379510  20.0184370  10.4696100  66.0364760  20.4930190  11.1347950
  65.6802460  19.0947890  10.6766130  67.9439010  15.3238330   3.9099360
  67.8206790  15.3424460   2.9608870  68.8923570  15.3717270   4.0297760
  65.0315800  30.5593630   3.1827340  65.2857300  30.5215020   2.2606710
  64.0828280  30.4326960   3.1755590  72.7446370  16.2352330  11.3124490
  72.2419970  16.9757730  11.6518300  73.5603030  16.6236330  10.9961280
  71.0368380  21.4785510   4.7585850  70.0958520  21.4935740   4.9333540
  71.3512450  20.6921470   5.2046150  73.0393960  28.6494360   6.4340110
  73.1641380  29.4725530   6.9063920  73.9059520  28.4385090   6.0864260
  60.5111490  30.7425570   6.1057240  61.2473970  30.1941030   6.3765810
  60.8952410  31.6081580   5.9663230  57.3956970  26.8099140   1.9798750
  56.4696750  27.0520280   1.9704160  57.8613400  27.6373400   1.8583500
  59.5169770  29.9271640  15.2942820  60.3182500  30.2483690  15.7078220
  59.0021590  29.5667220  16.0162730  68.3534400  26.0351510  15.2418230
  67.7472560  26.0583110  14.5013980  68.0488510  25.3034550  15.7785480
  69.7834770  29.7631800  13.8527640  70.7356520  29.6789820  13.8027880
  69.6362990  30.4273510  14.5261430  57.2367580  22.4145100  14.2378870
  57.7406600  21.8352380  14.8095100  56.4975000  22.6985330  14.7755240
  64.2905520  23.8216090  13.7714390  63.5251190  24.3901090  13.6869060
  64.4721480  23.5292300  12.8782620  71.4328870  25.5521420  14.3289410
  72.1738340  25.8897180  13.8256870  70.6701550  25.7213480  13.7759180
  59.2690660  20.5574690  15.1328940  59.3096000  20.2588560  16.0414170
  60.1236160  20.9582300  14.9736460  61.2096470  19.1366790  13.1003430
  60.6792930  18.6457740  12.4726770  61.8784540  19.5650990  12.5661360
  70.1074530  23.6036250  12.8644620  70.5215550  23.7581330  13.7135040
  69.1725530  23.7291470  13.0270400  70.5796700  20.9432410  14.8683770
  71.1617470  20.1884730  14.7804250  70.7558470  21.4739850  14.0915250
  61.6968770  16.1029160  13.1800720  61.6025640  15.4849910  12.4551590
  61.1166160  16.8295450  12.9530630  64.4630210  14.6602400  10.2128110
  64.0147510  14.6826660   9.3673660  63.8295410  14.2621420  10.8098410
  64.8689760  23.5556730  10.8340550  65.2877870  24.3989460  10.6616790
  63.9498390  23.6928770  10.6047330  67.2053660  21.2872910  12.2178390
  67.3249870  20.6914050  12.9573230  68.0647660  21.3242600  11.7979690
  69.5441560  21.8410100  10.7940900  69.0176780  22.3652720  10.1906040
  69.8872900  22.4737490  11.4250630  62.7197180  29.8609740  11.9498280
  62.1818270  30.5855800  11.6306980  62.9731140  29.3840080  11.1595620
  63.9722430  17.8294260  13.4754210  64.5622120  17.5210110  14.1632030
  63.1542670  17.3574010  13.6314110  68.7915860  17.4460070  13.7087230
  68.1031380  16.7841610  13.6437220  69.5121880  16.9998340  14.1535690
  65.5759390  31.0960950  12.2084930  65.5018090  31.9996090  12.5157300
  64.6738230  30.7772850  12.1807000  56.9786680  28.4235540   5.5118550
  57.3089690  27.5556600   5.2797190  57.4077680  28.6294060   6.3423510
  61.5748600  26.7544550   3.1720520  61.2744140  26.6309520   4.0724430
  61.4686090  25.8953140   2.7636250  57.4676890  29.2906130   8.2500180
  57.0307880  29.4706930   9.0824330  58.0354570  30.0480750   8.1081900
  73.1039070  28.7923130  12.5377490  72.5041060  28.8515690  11.7941410
  73.2332970  27.8528110  12.6674340  57.3001320  21.8026360   4.6089060
  56.6450160  21.5338000   3.9648760  58.1379270  21.6930840   4.1591040
  74.8056950  24.1338530   5.2223330  75.1765780  23.3505850   4.8159300
  75.4458880  24.8227630   5.0440630  71.7890710  25.5175110  10.6353650
  70.9750550  25.9472270  10.8979440  72.1964910  26.1293520  10.0222700
  73.7481490  21.5091790   2.5283350  73.3725090  20.7419720   2.0964640
  73.0184610  21.8914490   3.0158280  58.3377250  22.1878930   9.1492400
  58.7050290  22.1006330  10.0288420  57.7688070  21.4245480   9.0499260
  73.1381110  20.6563310  12.1622870  72.9067200  20.4276060  11.2620820
  73.3985660  21.5762860  12.1167760  57.8893250  19.0988020  13.0550820
  56.9949300  19.0654780  13.3944530  58.4290800  19.2974810  13.8202070
  71.5769180  15.8819740  14.9402570  72.4539360  15.8903140  15.3236570
  71.5890020  15.1450580  14.3294920  73.0232450  19.7349280   5.8290590
  73.5469930  19.2411930   5.1980760  73.6091870  19.8699640   6.5738160
  73.2022170  19.8189150   9.3510140  72.2524880  19.7852690   9.4655130
  73.3835180  20.7289260   9.1159910  72.5132420  18.9922630   1.7683000
  73.0091540  18.7593500   2.5531880  72.3148490  18.1534470   1.3520640
  58.3932960  13.3736350   7.4034040  59.0409150  12.8233730   6.9629200
  58.8134800  13.6279500   8.2249850  73.9419580  17.6283580   4.3020680
  73.8318860  17.4739620   5.2402950  74.7027170  17.1004520   4.0596090
  72.2885300  13.5677710  10.7603680  72.9257520  14.1811850  11.1262870
  72.4360190  13.6038370   9.8152910  71.8466760  30.2693710   4.1621920
  72.4425830  29.9478280   3.4856340  72.1044910  29.7965530   4.9535190
  58.1464960  13.5292020  10.1459360  57.7979780  13.9855840  10.9117540
  57.8152660  12.6349150  10.2281790  59.7529330  26.7011620  14.3112550
  59.7098960  26.3304530  15.1927010  59.8840340  27.6389190  14.4514370
  63.4535360  28.2571210   9.9122270  63.2126720  28.5245770   9.0252790
  64.3938000  28.4276940   9.9673130  65.6589780  14.7203900  13.6678780
  65.5978670  15.3125730  14.4174190  66.5990160  14.6129860  13.5229040
  68.2964340  14.3773960  13.3071070  68.9104750  14.6953250  12.6452150
  68.8413900  13.8922550  13.9266930  74.7139520  30.2765590  10.7132910
  74.2197800  30.6734460   9.9960040  74.1052810  29.6514800  11.1070190
  58.8185600  13.0568220  13.4210130  59.3668590  12.8756270  12.6576240
  58.8840910  12.2662330  13.9566440  59.5917360  29.6473870  11.4310330
  58.9977680  29.5158570  12.1700370  59.5841200  28.8112010  10.9652430
  69.0372380  12.9406100   9.6340360  68.1632220  13.2741210   9.4313290
  68.9283130  12.4679280  10.4592230  69.9444360  15.1476970  11.0182080
  69.6157720  14.3328730  10.6383810  70.8926660  15.1046780  10.8947770
  72.3978970  30.9189010   7.9919650  71.9381940  31.6704820   7.6177670
  71.7691430  30.1995480   7.9334450  59.2229590  27.0132250  10.3818370
  58.4963650  26.3937540  10.3144320  59.2838740  27.4072860   9.5116450
  62.8274690  29.2277250   7.1667780  63.3439710  28.6164610   6.6416040
  63.4772070  29.7306030   7.6578790  65.5670190  30.1185740   7.9936760
  65.8548000  29.8640040   7.1169770  66.0793410  29.5663100   8.5842330
  66.7847200  13.8575940   8.5733270  66.0018990  14.3321440   8.8530030
  66.4910130  12.9530770   8.4646450  71.3368270  14.5599040   6.6182360
  71.7776360  14.5044140   5.7703960  71.0675860  15.4757050   6.6892540
  73.2006840  14.1914280   4.6291180  73.1395240  13.2475500   4.4822200
  73.9798870  14.2994370   5.1744640  57.5059590  30.3306640   3.5915130
  57.3381630  29.6977320   4.2897020  56.6394100  30.5366040   3.2409320
  64.6701420  16.2762690   4.0849300  63.8575930  15.9019580   3.7445180
  65.1743060  15.5207770   4.3870490  69.1726400  12.9405140   5.3232370
  69.7755770  13.5125350   5.7980890  68.4319390  13.5044580   5.1006270
  62.6950600  14.4262610   2.6894350  62.0653340  13.7249920   2.8564480
  62.1555740  15.1866740   2.4727510  65.6342550  31.0401840  15.3604960
  66.5609860  30.8046110  15.4040920  65.6192980  31.8673840  14.8790990
  73.8687610  30.5827410   2.3579210  74.0439800  29.8965150   1.7140130
  73.1709180  31.1074460   1.9655880  62.8206160  13.7046590  15.1246840
  62.5390430  14.2080190  14.3607660  63.2025860  12.9068340  14.7588970
  69.4221620  13.1200170  15.7027310  69.3087070  13.4394780  16.5978830
  70.2391360  13.5212680  15.4064590  72.2020110  30.2671700  15.1846000
  72.9945430  29.7720930  14.9771960  72.4953260  30.9461840  15.7921610
  66.4597810   4.1428170  81.8188770  65.6839910   3.6628610  82.1087340
  67.1110740   3.4633820  81.6444930  60.4763640   4.4547980  82.6964530
  59.6448520   4.1996690  83.0961040  61.0844620   4.5258750  83.4322450
  70.4805240   8.5488360  80.5987900  70.0186770   7.7775600  80.9275070
  71.2930790   8.5754430  81.1040350  60.4564900   8.4888070  82.8922550
  60.7592940   7.5985810  82.7132770  61.2008490   9.0458290  82.6644800
  66.7068550  10.8346370  80.2191890  66.0879990  11.2903870  79.6486330
  67.5620330  10.9897830  79.8181590  65.9006800   6.8185360  81.8258930
  65.8315080   5.8775300  81.6648060  66.6626660   6.9086770  82.3981500
  67.5731900   5.7185610  77.6123800  66.9549170   6.1835060  77.0486520
  68.0855150   6.4113090  78.0293310  62.4363660   5.2461480  84.2907400
  62.1033040   5.8730400  84.9328470  62.6130340   5.7723360  83.5109070
  61.6482760   7.2142280  86.1056580  62.2656760   7.8893360  85.8241030
  60.7875880   7.6230260  86.0144080  56.9415100   6.4042140  74.9863430
  56.5643080   6.8929240  74.2548330  57.1988170   7.0767420  75.6169960
  72.5660350   8.6781690  84.0211220  71.8823870   9.3480800  84.0127890
  73.1054640   8.8762340  83.2556080  70.1019090  10.5225820  82.7356400
  70.1146250  10.1188110  81.8678660  69.5494310  11.2973110  82.6317830
  71.3964510   7.2442040  77.8246570  71.2860840   6.3016370  77.9495990
  71.3932760   7.6057680  78.7109330  69.5004530   5.4255660  84.0639010
  69.9173320   5.2115770  83.2292470  70.2244350   5.6828450  84.6347630
  66.9384790   2.8707360  77.1809060  66.0114070   2.8044740  77.4097530
  67.0909610   3.8087490  77.0664300  73.4466630   3.8242880  84.1555250
  72.6185260   3.8935970  83.6805380  74.0417110   4.4097190  83.6871080
  70.9682080   4.4327660  77.6844310  70.3494500   4.0947210  77.0370610
  70.9506530   3.7887420  78.3923500  62.5441430   3.3972100  79.9628790
  62.1398430   2.6849350  79.4674690  62.6304550   3.0525340  80.8516830
  63.0123130   7.0839660  82.1268000  62.7151420   6.4785130  81.4475780
  63.9622950   7.1216970  82.0157360  71.1008740  10.6571530  85.7891100
  70.6239300  11.4643720  85.5963710  70.4170530  10.0049860  85.9417310
  69.1446780   3.6714470  74.6917060  69.5840060   2.8336900  74.5454880
  69.8575200   4.3043870  74.7781200  67.2542160   8.6110540  78.6598300
  67.6938070   9.3534870  78.2453690  67.1929050   8.8537110  79.5837260
  59.2446060   2.2917080  77.4635440  59.1243660   3.0179170  76.8516710
  58.9346950   1.5219990  76.9863350  56.8831430   5.4632220  83.2704080
  56.9611850   5.5980990  82.3259800  57.4973110   4.7548110  83.4632200
  58.1279060   7.1632410  79.6810260  57.7207140   7.3047000  78.8263860
  59.0192070   6.8792570  79.4781470  69.9212340  11.5979660  76.0161310
  69.7613480  11.3082600  76.9143140  69.7559050  10.8219790  75.4806540
  62.4000720  11.3778190  77.7932930  62.2243200  10.4613730  77.5800730
  61.5456460  11.7365480  78.0330730  69.6238470   9.1067220  74.5759310
  68.9303630   9.1044510  73.9161590  70.3661330   8.6826540  74.1453480
  69.1888400  10.7329930  78.6507800  69.6445350   9.9519310  78.9646420
  69.5280920  11.4436750  79.1948980  56.9390950   6.5046390  85.8098540
  57.1021990   6.0351750  84.9917910  57.4043400   5.9969950  86.4747380
  63.4360750   1.9785800  74.0927620  62.8677650   1.5304050  73.4663530
  64.1449750   2.3378580  73.5592770  64.6627070   2.7274360  83.4502970
  65.0297200   2.2532930  84.1964310  64.4732130   3.6015930  83.7911310
  62.4526440   1.7683000  85.7687180  62.1483510   2.6474980  85.9937540
  63.4072900   1.8282790  85.8044620  60.9808230   5.9743990  76.3654030
  60.2070490   5.4341610  76.2052750  61.7102860   5.4550600  76.0271790
  71.7396210   4.9709350  82.1580420  72.4595330   5.4664640  81.7676530
  71.5378030   4.2927240  81.5134290  61.0245630   5.6424370  80.0032840
  61.5424300   4.8392630  79.9489730  60.5729650   5.5803510  80.8449670
  65.9115130   6.9090650  75.2760140  66.2530830   7.6532880  74.7803460
  65.0827840   7.2221770  75.6384970  72.1868810   2.0478800  74.0651830
  72.1032530   2.4793020  73.2148270  72.9063000   2.5077150  74.4978650
  73.2156060   8.9021060  76.7933960  72.5732220   8.2476680  77.0677680
  72.8286720   9.3076150  76.0174630  68.7942540   6.2306490  80.6405650
  69.1466360   5.6334620  79.9807020  67.9104870   5.9050720  80.8113900
  64.8805820   6.9904180  78.0476060  65.5676950   7.5373390  78.4283650
  64.0938240   7.5344910  78.0825670  57.0198220   2.6077000  73.5393140
  57.8893070   2.8901800  73.8229060  56.5288540   3.4212870  73.4241950
  64.1833030   3.9950210  77.6601420  64.6395810   4.8055460  77.8861610
  63.8321240   3.6773350  78.4919910  66.4865640   9.5056550  84.8893720
  67.1307860   9.7115930  85.5667140  66.8495080   8.7444950  84.4364570
  67.7597720   7.5088900  83.6071170  68.4019950   6.8082060  83.7203340
  68.2847070   8.2887340  83.4268060  71.6053440   7.7937520  73.3310310
  71.3791020   7.0767960  73.9234950  71.2149640   7.5449960  72.4932060
  57.3869470  11.8204380  74.1054770  57.7467110  12.4193720  73.4512040
  57.2461810  12.3664270  74.8789800  71.1869690   5.7109460  74.9924470
  70.8991390   6.1722150  75.7802350  71.9821860   5.2507230  75.2608690
  63.4038090   9.2035580  74.9228440  63.3948190   9.9365270  74.3072950
  62.4836450   8.9567160  75.0155400  59.0044730   4.4250470  75.6675200
  58.3972680   5.1649370  75.6770500  59.4794080   4.5149830  74.8413400
  66.3897690   9.2663820  73.5853630  66.4909670   9.0627810  72.6555610
  65.4899430   9.0122100  73.7901410  65.0315800  11.7850140  78.2801300
  65.2857300  11.7471530  77.3580670  64.0828280  11.6583470  78.2729550
  71.0368380   2.7042020  79.8559810  70.0958520   2.7192250  80.0307500
  71.3512450   1.9177980  80.3020110  61.0150020   4.3861620  73.4163770
  61.7813290   4.2742980  73.9789200  61.0924710   3.6899590  72.7640540
  73.0393960   9.8750870  81.5314070  73.1641380  10.6982040  82.0037880
  73.9059520   9.6641600  81.1838220  60.5111490  11.9682080  81.2031200
  61.2473970  11.4197540  81.4739770  60.8952410  12.8338090  81.0637190
  57.3956970   8.0355650  77.0772710  56.4696750   8.2776790  77.0678120
  57.8613400   8.8629910  76.9557460  63.6213800  11.1412390  73.0256770
  64.4142410  11.4301220  72.5738560  63.1018150  10.7104560  72.3469250
  72.6743970  10.3682520  74.4493510  72.3885480   9.9547660  73.6347690
  72.4763520  11.2970230  74.3294030  64.1391200   6.3615800  72.8899120
  64.0341840   5.7468150  73.6160500  63.9715420   5.8381690  72.1062130
  67.3793930   5.4235830  73.4941110  66.8304030   5.8705130  74.1383850
  68.0013190   4.9185080  74.0178780  63.0469050   4.3826750  75.3906410
  63.4685470   4.2166620  76.2337800  63.1719890   3.5726980  74.8961550
  65.5596690   3.4064360  72.6383510  66.0802350   2.6913380  72.2724660
  66.2065090   4.0450230  72.9384020  64.8689760   4.7813240  85.9314510
  65.2877870   5.6245970  85.7590750  63.9498390   4.9185280  85.7021290
  69.5441560   3.0666610  85.8914860  69.0176780   3.5909230  85.2880000
  69.8872900   3.6994000  86.5224590  66.1244720  11.4875970  74.9285250
  67.0195510  11.8260940  74.9504010  66.1562350  10.7655380  74.3009530
  59.7640880   6.8603020  73.1572250  60.2015750   7.4032690  73.8129830
  60.2488610   6.0349970  73.1668590  56.9786680   9.6492050  80.6092510
  57.3089690   8.7813110  80.3771150  57.4077680   9.8550570  81.4397470
  61.5748600   7.9801060  78.2694480  61.2744140   7.8566030  79.1698390
  61.4686090   7.1209650  77.8610210  57.4676890  10.5162640  83.3474140
  57.0307880  10.6963440  84.1798290  58.0354570  11.2737260  83.2055860
  74.3440520   7.7597460  72.9721160  73.5133480   7.8274110  73.4428390
  74.5212350   8.6501580  72.6688020  73.7996980   4.5044940  75.4755360
  74.5615890   5.0741590  75.5815050  73.8151350   3.9372140  76.2463670
  57.3001320   3.0282870  79.7063020  56.6450160   2.7594510  79.0622720
  58.1379270   2.9187350  79.2565000  74.8056950   5.3595040  80.3197290
  75.1765780   4.5762360  79.9133260  75.4458880   6.0484140  80.1414590
  71.7890710   6.7431620  85.7327610  70.9750550   7.1728780  85.9953400
  72.1964910   7.3550030  85.1196660  73.8516150   4.7979310  72.6327880
  74.1264990   5.7058190  72.5047100  73.6626890   4.7341840  73.5689870
  73.7481490   2.7348300  77.6257310  73.3725090   1.9676230  77.1938600
  73.0184610   3.1171000  78.1132240  58.3377250   3.4135440  84.2466360
  58.7050290   3.3262840  85.1262380  57.7688070   2.6501990  84.1473220
  71.8466760  11.4950220  79.2595880  72.4425830  11.1734790  78.5830300
  72.1044910  11.0222040  80.0509150  63.4535360   9.4827720  85.0096230
  63.2126720   9.7502280  84.1226750  64.3938000   9.6533450  85.0647090
  74.7139520  11.5022100  85.8106870  74.2197800  11.8990970  85.0934000
  74.1052810  10.8771310  86.2044150  72.3978970  12.1445520  83.0893610
  71.9381940  12.8961330  82.7151630  71.7691430  11.4251990  83.0308410
  59.2229590   8.2388760  85.4792330  58.4963650   7.6194050  85.4118280
  59.2838740   8.6329370  84.6090410  62.8274690  10.4533760  82.2641740
  63.3439710   9.8421120  81.7390000  63.4772070  10.9562540  82.7552750
  65.5670190  11.3442250  83.0910720  65.8548000  11.0896550  82.2143730
  66.0793410  10.7919610  83.6816290  57.5059590  11.5563150  78.6889090
  57.3381630  10.9233830  79.3870980  56.6394100  11.7622550  78.3383280
  59.1122290  10.2496380  76.1339230  58.5869910  10.6304410  75.4301190
  59.0366870  10.8747150  76.8548940  73.8687610  11.8083920  77.4553170
  74.0439800  11.1221660  76.8114090  73.1709180  12.3330970  77.0629840
  61.7115260  12.1978760  75.0088480  62.4434080  11.9138040  74.4612370
  61.9708930  11.9592040  75.8987860  60.8730050   8.3143490  75.0134810
  60.2438930   8.7828590  75.5620640  60.9877880   7.4692710  75.4481000
  66.4597810   4.1428170  63.0445280  65.6839910   3.6628610  63.3343850
  67.1110740   3.4633820  62.8701440  60.4763640   4.4547980  63.9221040
  59.6448520   4.1996690  64.3217550  61.0844620   4.5258750  64.6578960
  70.4805240   8.5488360  61.8244410  70.0186770   7.7775600  62.1531580
  71.2930790   8.5754430  62.3296860  60.4564900   8.4888070  64.1179060
  60.7592940   7.5985810  63.9389280  61.2008490   9.0458290  63.8901310
  66.7068550  10.8346370  61.4448400  66.0879990  11.2903870  60.8742840
  67.5620330  10.9897830  61.0438100  65.9006800   6.8185360  63.0515440
  65.8315080   5.8775300  62.8904570  66.6626660   6.9086770  63.6238010
  67.5731900   5.7185610  58.8380310  66.9549170   6.1835060  58.2743030
  68.0855150   6.4113090  59.2549820  62.4363660   5.2461480  65.5163910
  62.1033040   5.8730400  66.1584980  62.6130340   5.7723360  64.7365580
  61.6482760   7.2142280  67.3313090  62.2656760   7.8893360  67.0497540
  60.7875880   7.6230260  67.2400590  56.9415100   6.4042140  56.2119940
  56.5643080   6.8929240  55.4804840  57.1988170   7.0767420  56.8426470
  72.5660350   8.6781690  65.2467730  71.8823870   9.3480800  65.2384400
  73.1054640   8.8762340  64.4812590  70.1019090  10.5225820  63.9612910
  70.1146250  10.1188110  63.0935170  69.5494310  11.2973110  63.8574340
  71.3964510   7.2442040  59.0503080  71.2860840   6.3016370  59.1752500
  71.3932760   7.6057680  59.9365840  69.5004530   5.4255660  65.2895520
  69.9173320   5.2115770  64.4548980  70.2244350   5.6828450  65.8604140
  66.9384790   2.8707360  58.4065570  66.0114070   2.8044740  58.6354040
  67.0909610   3.8087490  58.2920810  73.4466630   3.8242880  65.3811760
  72.6185260   3.8935970  64.9061890  74.0417110   4.4097190  64.9127590
  70.9682080   4.4327660  58.9100820  70.3494500   4.0947210  58.2627120
  70.9506530   3.7887420  59.6180010  62.5441430   3.3972100  61.1885300
  62.1398430   2.6849350  60.6931200  62.6304550   3.0525340  62.0773340
  63.0123130   7.0839660  63.3524510  62.7151420   6.4785130  62.6732290
  63.9622950   7.1216970  63.2413870  71.1008740  10.6571530  67.0147610
  70.6239300  11.4643720  66.8220220  70.4170530  10.0049860  67.1673820
  62.1041560   6.8221350  70.0032310  61.2070090   7.0461320  70.2505710
  62.1294430   6.9456290  69.0543710  69.1446780   3.6714470  55.9173570
  69.5840060   2.8336900  55.7711390  69.8575200   4.3043870  56.0037710
  60.9312780   3.6934670  68.5789680  60.7920550   4.5657470  68.9477080
  60.0494140   3.3507480  68.4337620  67.2542160   8.6110540  59.8854810
  67.6938070   9.3534870  59.4710200  67.1929050   8.8537110  60.8093770
  62.7293130   9.6356370  70.7874830  62.7008560  10.0399320  69.9203260
  62.5658100   8.7066730  70.6246430  59.2446060   2.2917080  58.6891950
  59.1243660   3.0179170  58.0773220  58.9346950   1.5219990  58.2119860
  74.6807950  10.4183470  72.0839000  75.1567670  10.8966360  72.7628080
  75.3015110  10.3500960  71.3584500  56.8831430   5.4632220  64.4960590
  56.9611850   5.5980990  63.5516310  57.4973110   4.7548110  64.6888710
  58.1279060   7.1632410  60.9066770  57.7207140   7.3047000  60.0520370
  59.0192070   6.8792570  60.7037980  74.0841200   7.6096320  69.2439010
  74.2104260   7.3708200  68.3256190  74.1262580   6.7780860  69.7161090
  67.9457940  11.3124320  67.8133820  68.4602610  11.2232330  68.6156250
  67.1027020  11.6584020  68.1061730  69.9212340  11.5979660  57.2417820
  69.7613480  11.3082600  58.1399650  69.7559050  10.8219790  56.7063050
  62.4000720  11.3778190  59.0189440  62.2243200  10.4613730  58.8057240
  61.5456460  11.7365480  59.2587240  69.6238470   9.1067220  55.8015820
  68.9303630   9.1044510  55.1418100  70.3661330   8.6826540  55.3709990
  69.1888400  10.7329930  59.8764310  69.6445350   9.9519310  60.1902930
  69.5280920  11.4436750  60.4205490  56.9390950   6.5046390  67.0355050
  57.1021990   6.0351750  66.2174420  57.4043400   5.9969950  67.7003890
  63.4360750   1.9785800  55.3184130  62.8677650   1.5304050  54.6920040
  64.1449750   2.3378580  54.7849280  58.5129930   5.8797820  69.1950860
  58.1284720   5.2391490  69.7933820  58.8242120   6.5833940  69.7645590
  64.6627070   2.7274360  64.6759480  65.0297200   2.2532930  65.4220820
  64.4732130   3.6015930  65.0167820  62.4526440   1.7683000  66.9943690
  62.1483510   2.6474980  67.2194050  63.4072900   1.8282790  67.0301130
  60.9808230   5.9743990  57.5910540  60.2070490   5.4341610  57.4309260
  61.7102860   5.4550600  57.2528300  71.7396210   4.9709350  63.3836930
  72.4595330   5.4664640  62.9933040  71.5378030   4.2927240  62.7390800
  67.1215010   5.0418410  69.2705930  67.0552320   4.1214080  69.0163520
  66.4920150   5.1393850  69.9850570  61.0245630   5.6424370  61.2289350
  61.5424300   4.8392630  61.1746240  60.5729650   5.5803510  62.0706180
  65.9115130   6.9090650  56.5016650  66.2530830   7.6532880  56.0059970
  65.0827840   7.2221770  56.8641480  58.5090170   2.6085740  68.1415050
  58.1505110   3.2739590  68.7288390  58.2144730   1.7769290  68.5127670
  61.7103290   3.0669980  71.0254600  61.4103430   3.2127160  70.1282420
  62.4814530   2.5075270  70.9327990  67.0531740   7.8638980  69.0209730
  67.0676280   6.9319940  68.8028640  66.3456840   7.9498740  69.6599500
  72.1868810   2.0478800  55.2908340  72.1032530   2.4793020  54.4404780
  72.9063000   2.5077150  55.7235160  73.2642950   4.5046320  68.3678310
  72.5391140   5.0975100  68.1707700  73.7918410   4.4969860  67.5691680
  73.2156060   8.9021060  58.0190470  72.5732220   8.2476680  58.2934190
  72.8286720   9.3076150  57.2431140  68.7942540   6.2306490  61.8662160
  69.1466360   5.6334620  61.2063530  67.9104870   5.9050720  62.0370410
  64.8805820   6.9904180  59.2732570  65.5676950   7.5373390  59.6540160
  64.0938240   7.5344910  59.3082180  57.0198220   2.6077000  54.7649650
  57.8893070   2.8901800  55.0485570  56.5288540   3.4212870  54.6498460
  64.1833030   3.9950210  58.8857930  64.6395810   4.8055460  59.1118120
  63.8321240   3.6773350  59.7176420  66.4865640   9.5056550  66.1150230
  67.1307860   9.7115930  66.7923650  66.8495080   8.7444950  65.6621080
  67.7597720   7.5088900  64.8327680  68.4019950   6.8082060  64.9459850
  68.2847070   8.2887340  64.6524570  71.6053440   7.7937520  54.5566820
  71.3791020   7.0767960  55.1491460  71.2149640   7.5449960  53.7188570
  69.5335340   8.3083800  68.0363740  69.8691580   8.8950490  68.7141660
  68.6135680   8.1776510  68.2661530  57.3869470  11.8204380  55.3311280
  57.7467110  12.4193720  54.6768550  57.2461810  12.3664270  56.1046310
  71.1869690   5.7109460  56.2180980  70.8991390   6.1722150  57.0058860
  71.9821860   5.2507230  56.4865200  57.3711330  10.0859240  69.8053680
  57.4802450   9.1453980  69.6649070  56.7191890  10.3513990  69.1567410
  65.3623920   8.3575130  71.2051800  65.0420790   7.6384370  71.7497490
  64.6882280   9.0330200  71.2787860  63.4038090   9.2035580  56.1484950
  63.3948190   9.9365270  55.5329460  62.4836450   8.9567160  56.2411910
  59.0044730   4.4250470  56.8931710  58.3972680   5.1649370  56.9027010
  59.4794080   4.5149830  56.0669910  66.3897690   9.2663820  54.8110140
  66.4909670   9.0627810  53.8812120  65.4899430   9.0122100  55.0157920
  65.0315800  11.7850140  59.5057810  65.2857300  11.7471530  58.5837180
  64.0828280  11.6583470  59.4986060  71.0368380   2.7042020  61.0816320
  70.0958520   2.7192250  61.2564010  71.3512450   1.9177980  61.5276620
  61.0150020   4.3861620  54.6420280  61.7813290   4.2742980  55.2045710
  61.0924710   3.6899590  53.9897050  73.0393960   9.8750870  62.7570580
  73.1641380  10.6982040  63.2294390  73.9059520   9.6641600  62.4094730
  60.5111490  11.9682080  62.4287710  61.2473970  11.4197540  62.6996280
  60.8952410  12.8338090  62.2893700  57.3956970   8.0355650  58.3029220
  56.4696750   8.2776790  58.2934630  57.8613400   8.8629910  58.1813970
  59.5169770  11.1528150  71.6173290  60.3182500  11.4740200  72.0308690
  59.0021590  10.7923730  72.3393200  63.6213800  11.1412390  54.2513280
  64.4142410  11.4301220  53.7995070  63.1018150  10.7104560  53.5725760
  68.3534400   7.2608020  71.5648700  67.7472560   7.2839620  70.8244450
  68.0488510   6.5291060  72.1015950  69.7834770  10.9888310  70.1758110
  70.7356520  10.9046330  70.1258350  69.6362990  11.6530020  70.8491900
  72.6743970  10.3682520  55.6750020  72.3885480   9.9547660  54.8604200
  72.4763520  11.2970230  55.5550540  57.2367580   3.6401610  70.5609340
  57.7406600   3.0608890  71.1325570  56.4975000   3.9241840  71.0985710
  64.1391200   6.3615800  54.1155630  64.0341840   5.7468150  54.8417010
  63.9715420   5.8381690  53.3318640  64.2905520   5.0472600  70.0944860
  63.5251190   5.6157600  70.0099530  64.4721480   4.7548810  69.2013090
  67.3793930   5.4235830  54.7197620  66.8304030   5.8705130  55.3640360
  68.0013190   4.9185080  55.2435290  71.4328870   6.7777930  70.6519880
  72.1738340   7.1153690  70.1487340  70.6701550   6.9469990  70.0989650
  59.2690660   1.7831200  71.4559410  59.3096000   1.4845070  72.3644640
  60.1236160   2.1838810  71.2966930  63.0469050   4.3826750  56.6162920
  63.4685470   4.2166620  57.4594310  63.1719890   3.5726980  56.1218060
  65.5596690   3.4064360  53.8640020  66.0802350   2.6913380  53.4981170
  66.2065090   4.0450230  54.1640530  70.1074530   4.8292760  69.1875090
  70.5215550   4.9837840  70.0365510  69.1725530   4.9547980  69.3500870
  64.8689760   4.7813240  67.1571020  65.2877870   5.6245970  66.9847260
  63.9498390   4.9185280  66.9277800  67.2053660   2.5129420  68.5408860
  67.3249870   1.9170560  69.2803700  68.0647660   2.5499110  68.1210160
  69.5441560   3.0666610  67.1171370  69.0176780   3.5909230  66.5136510
  69.8872900   3.6994000  67.7481100  62.7197180  11.0866250  68.2728750
  62.1818270  11.8112310  67.9537450  62.9731140  10.6096590  67.4826090
  65.5759390  12.3217460  68.5315400  65.5018090  13.2252600  68.8387770
  64.6738230  12.0029360  68.5037470  66.1244720  11.4875970  56.1541760
  67.0195510  11.8260940  56.1760520  66.1562350  10.7655380  55.5266040
  59.7640880   6.8603020  54.3828760  60.2015750   7.4032690  55.0386340
  60.2488610   6.0349970  54.3925100  56.9786680   9.6492050  61.8349020
  57.3089690   8.7813110  61.6027660  57.4077680   9.8550570  62.6653980
  61.5748600   7.9801060  59.4950990  61.2744140   7.8566030  60.3954900
  61.4686090   7.1209650  59.0866720  57.4676890  10.5162640  64.5730650
  57.0307880  10.6963440  65.4054800  58.0354570  11.2737260  64.4312370
  73.1039070  10.0179640  68.8607960  72.5041060  10.0772200  68.1171880
  73.2332970   9.0784620  68.9904810  74.3440520   7.7597460  54.1977670
  73.5133480   7.8274110  54.6684900  74.5212350   8.6501580  53.8944530
  73.7996980   4.5044940  56.7011870  74.5615890   5.0741590  56.8071560
  73.8151350   3.9372140  57.4720180  57.3001320   3.0282870  60.9319530
  56.6450160   2.7594510  60.2879230  58.1379270   2.9187350  60.4821510
  74.8056950   5.3595040  61.5453800  75.1765780   4.5762360  61.1389770
  75.4458880   6.0484140  61.3671100  71.7890710   6.7431620  66.9584120
  70.9750550   7.1728780  67.2209910  72.1964910   7.3550030  66.3453170
  73.8516150   4.7979310  53.8584390  74.1264990   5.7058190  53.7303610
  73.6626890   4.7341840  54.7946380  73.7481490   2.7348300  58.8513820
  73.3725090   1.9676230  58.4195110  73.0184610   3.1171000  59.3388750
  58.3377250   3.4135440  65.4722870  58.7050290   3.3262840  66.3518890
  57.7688070   2.6501990  65.3729730  73.1381110   1.8819820  68.4853340
  72.9067200   1.6532570  67.5851290  73.3985660   2.8019370  68.4398230
  71.8466760  11.4950220  60.4852390  72.4425830  11.1734790  59.8086810
  72.1044910  11.0222040  61.2765660  59.7529330   7.9268130  70.6343020
  59.7098960   7.5561040  71.5157480  59.8840340   8.8645700  70.7744840
  63.4535360   9.4827720  66.2352740  63.2126720   9.7502280  65.3483260
  64.3938000   9.6533450  66.2903600  74.7139520  11.5022100  67.0363380
  74.2197800  11.8990970  66.3190510  74.1052810  10.8771310  67.4300660
  59.5917360  10.8730380  67.7540800  58.9977680  10.7415080  68.4930840
  59.5841200  10.0368520  67.2882900  72.3978970  12.1445520  64.3150120
  71.9381940  12.8961330  63.9408140  71.7691430  11.4251990  64.2564920
  59.2229590   8.2388760  66.7048840  58.4963650   7.6194050  66.6374790
  59.2838740   8.6329370  65.8346920  62.8274690  10.4533760  63.4898250
  63.3439710   9.8421120  62.9646510  63.4772070  10.9562540  63.9809260
  65.5670190  11.3442250  64.3167230  65.8548000  11.0896550  63.4400240
  66.0793410  10.7919610  64.9072800  57.5059590  11.5563150  59.9145600
  57.3381630  10.9233830  60.6127490  56.6394100  11.7622550  59.5639790
  59.1122290  10.2496380  57.3595740  58.5869910  10.6304410  56.6557700
  59.0366870  10.8747150  58.0805450  65.6342550  12.2658350  71.6835430
  66.5609860  12.0302620  71.7271390  65.6192980  13.0930350  71.2021460
  73.8687610  11.8083920  58.6809680  74.0439800  11.1221660  58.0370600
  73.1709180  12.3330970  58.2886350  61.7115260  12.1978760  56.2344990
  62.4434080  11.9138040  55.6868880  61.9708930  11.9592040  57.1244370
  60.8730050   8.3143490  56.2391320  60.2438930   8.7828590  56.7877150
  60.9877880   7.4692710  56.6737510  72.2020110  11.4928210  71.5076470
  72.9945430  10.9977440  71.3002430  72.4953260  12.1718350  72.1152080
  66.4597810   4.1428170  44.2701790  65.6839910   3.6628610  44.5600360
  67.1110740   3.4633820  44.0957950  60.4763640   4.4547980  45.1477550
  59.6448520   4.1996690  45.5474060  61.0844620   4.5258750  45.8835470
  70.4805240   8.5488360  43.0500920  70.0186770   7.7775600  43.3788090
  71.2930790   8.5754430  43.5553370  60.4564900   8.4888070  45.3435570
  60.7592940   7.5985810  45.1645790  61.2008490   9.0458290  45.1157820
  66.7068550  10.8346370  42.6704910  66.0879990  11.2903870  42.0999350
  67.5620330  10.9897830  42.2694610  65.9006800   6.8185360  44.2771950
  65.8315080   5.8775300  44.1161080  66.6626660   6.9086770  44.8494520
  67.5731900   5.7185610  40.0636820  66.9549170   6.1835060  39.4999540
  68.0855150   6.4113090  40.4806330  62.4363660   5.2461480  46.7420420
  62.1033040   5.8730400  47.3841490  62.6130340   5.7723360  45.9622090
  61.6482760   7.2142280  48.5569600  62.2656760   7.8893360  48.2754050
  60.7875880   7.6230260  48.4657100  56.9415100   6.4042140  37.4376450
  56.5643080   6.8929240  36.7061350  57.1988170   7.0767420  38.0682980
  72.5660350   8.6781690  46.4724240  71.8823870   9.3480800  46.4640910
  73.1054640   8.8762340  45.7069100  70.1019090  10.5225820  45.1869420
  70.1146250  10.1188110  44.3191680  69.5494310  11.2973110  45.0830850
  71.3964510   7.2442040  40.2759590  71.2860840   6.3016370  40.4009010
  71.3932760   7.6057680  41.1622350  69.5004530   5.4255660  46.5152030
  69.9173320   5.2115770  45.6805490  70.2244350   5.6828450  47.0860650
  66.9384790   2.8707360  39.6322080  66.0114070   2.8044740  39.8610550
  67.0909610   3.8087490  39.5177320  73.4466630   3.8242880  46.6068270
  72.6185260   3.8935970  46.1318400  74.0417110   4.4097190  46.1384100
  70.9682080   4.4327660  40.1357330  70.3494500   4.0947210  39.4883630
  70.9506530   3.7887420  40.8436520  62.5441430   3.3972100  42.4141810
  62.1398430   2.6849350  41.9187710  62.6304550   3.0525340  43.3029850
  63.0123130   7.0839660  44.5781020  62.7151420   6.4785130  43.8988800
  63.9622950   7.1216970  44.4670380  71.1008740  10.6571530  48.2404120
  70.6239300  11.4643720  48.0476730  70.4170530  10.0049860  48.3930330
  62.1041560   6.8221350  51.2288820  61.2070090   7.0461320  51.4762220
  62.1294430   6.9456290  50.2800220  69.1446780   3.6714470  37.1430080
  69.5840060   2.8336900  36.9967900  69.8575200   4.3043870  37.2294220
  60.9312780   3.6934670  49.8046190  60.7920550   4.5657470  50.1733590
  60.0494140   3.3507480  49.6594130  67.2542160   8.6110540  41.1111320
  67.6938070   9.3534870  40.6966710  67.1929050   8.8537110  42.0350280
  62.7293130   9.6356370  52.0131340  62.7008560  10.0399320  51.1459770
  62.5658100   8.7066730  51.8502940  59.2446060   2.2917080  39.9148460
  59.1243660   3.0179170  39.3029730  58.9346950   1.5219990  39.4376370
  74.6807950  10.4183470  53.3095510  75.1567670  10.8966360  53.9884590
  75.3015110  10.3500960  52.5841010  56.8831430   5.4632220  45.7217100
  56.9611850   5.5980990  44.7772820  57.4973110   4.7548110  45.9145220
  58.1279060   7.1632410  42.1323280  57.7207140   7.3047000  41.2776880
  59.0192070   6.8792570  41.9294490  74.0841200   7.6096320  50.4695520
  74.2104260   7.3708200  49.5512700  74.1262580   6.7780860  50.9417600
  67.9457940  11.3124320  49.0390330  68.4602610  11.2232330  49.8412760
  67.1027020  11.6584020  49.3318240  69.9212340  11.5979660  38.4674330
  69.7613480  11.3082600  39.3656160  69.7559050  10.8219790  37.9319560
  62.4000720  11.3778190  40.2445950  62.2243200  10.4613730  40.0313750
  61.5456460  11.7365480  40.4843750  69.6238470   9.1067220  37.0272330
  68.9303630   9.1044510  36.3674610  70.3661330   8.6826540  36.5966500
  69.1888400  10.7329930  41.1020820  69.6445350   9.9519310  41.4159440
  69.5280920  11.4436750  41.6462000  56.9390950   6.5046390  48.2611560
  57.1021990   6.0351750  47.4430930  57.4043400   5.9969950  48.9260400
  63.4360750   1.9785800  36.5440640  62.8677650   1.5304050  35.9176550
  64.1449750   2.3378580  36.0105790  58.5129930   5.8797820  50.4207370
  58.1284720   5.2391490  51.0190330  58.8242120   6.5833940  50.9902100
  64.6627070   2.7274360  45.9015990  65.0297200   2.2532930  46.6477330
  64.4732130   3.6015930  46.2424330  62.4526440   1.7683000  48.2200200
  62.1483510   2.6474980  48.4450560  63.4072900   1.8282790  48.2557640
  60.9808230   5.9743990  38.8167050  60.2070490   5.4341610  38.6565770
  61.7102860   5.4550600  38.4784810  71.7396210   4.9709350  44.6093440
  72.4595330   5.4664640  44.2189550  71.5378030   4.2927240  43.9647310
  67.1215010   5.0418410  50.4962440  67.0552320   4.1214080  50.2420030
  66.4920150   5.1393850  51.2107080  61.0245630   5.6424370  42.4545860
  61.5424300   4.8392630  42.4002750  60.5729650   5.5803510  43.2962690
  65.9115130   6.9090650  37.7273160  66.2530830   7.6532880  37.2316480
  65.0827840   7.2221770  38.0897990  58.5090170   2.6085740  49.3671560
  58.1505110   3.2739590  49.9544900  58.2144730   1.7769290  49.7384180
  61.7103290   3.0669980  52.2511110  61.4103430   3.2127160  51.3538930
  62.4814530   2.5075270  52.1584500  67.0531740   7.8638980  50.2466240
  67.0676280   6.9319940  50.0285150  66.3456840   7.9498740  50.8856010
  72.1868810   2.0478800  36.5164850  72.1032530   2.4793020  35.6661290
  72.9063000   2.5077150  36.9491670  73.2642950   4.5046320  49.5934820
  72.5391140   5.0975100  49.3964210  73.7918410   4.4969860  48.7948190
  73.2156060   8.9021060  39.2446980  72.5732220   8.2476680  39.5190700
  72.8286720   9.3076150  38.4687650  68.7942540   6.2306490  43.0918670
  69.1466360   5.6334620  42.4320040  67.9104870   5.9050720  43.2626920
  64.8805820   6.9904180  40.4989080  65.5676950   7.5373390  40.8796670
  64.0938240   7.5344910  40.5338690  57.0198220   2.6077000  35.9906160
  57.8893070   2.8901800  36.2742080  56.5288540   3.4212870  35.8754970
  64.1833030   3.9950210  40.1114440  64.6395810   4.8055460  40.3374630
  63.8321240   3.6773350  40.9432930  66.4865640   9.5056550  47.3406740
  67.1307860   9.7115930  48.0180160  66.8495080   8.7444950  46.8877590
  67.7597720   7.5088900  46.0584190  68.4019950   6.8082060  46.1716360
  68.2847070   8.2887340  45.8781080  71.6053440   7.7937520  35.7823330
  71.3791020   7.0767960  36.3747970  71.2149640   7.5449960  34.9445080
  69.5335340   8.3083800  49.2620250  69.8691580   8.8950490  49.9398170
  68.6135680   8.1776510  49.4918040  57.3869470  11.8204380  36.5567790
  57.7467110  12.4193720  35.9025060  57.2461810  12.3664270  37.3302820
  71.1869690   5.7109460  37.4437490  70.8991390   6.1722150  38.2315370
  71.9821860   5.2507230  37.7121710  57.3711330  10.0859240  51.0310190
  57.4802450   9.1453980  50.8905580  56.7191890  10.3513990  50.3823920
  65.3623920   8.3575130  52.4308310  65.0420790   7.6384370  52.9754000
  64.6882280   9.0330200  52.5044370  63.4038090   9.2035580  37.3741460
  63.3948190   9.9365270  36.7585970  62.4836450   8.9567160  37.4668420
  59.0044730   4.4250470  38.1188220  58.3972680   5.1649370  38.1283520
  59.4794080   4.5149830  37.2926420  66.3897690   9.2663820  36.0366650
  66.4909670   9.0627810  35.1068630  65.4899430   9.0122100  36.2414430
  65.0315800  11.7850140  40.7314320  65.2857300  11.7471530  39.8093690
  64.0828280  11.6583470  40.7242570  71.0368380   2.7042020  42.3072830
  70.0958520   2.7192250  42.4820520  71.3512450   1.9177980  42.7533130
  61.0150020   4.3861620  35.8676790  61.7813290   4.2742980  36.4302220
  61.0924710   3.6899590  35.2153560  73.0393960   9.8750870  43.9827090
  73.1641380  10.6982040  44.4550900  73.9059520   9.6641600  43.6351240
  60.5111490  11.9682080  43.6544220  61.2473970  11.4197540  43.9252790
  60.8952410  12.8338090  43.5150210  57.3956970   8.0355650  39.5285730
  56.4696750   8.2776790  39.5191140  57.8613400   8.8629910  39.4070480
  59.5169770  11.1528150  52.8429800  60.3182500  11.4740200  53.2565200
  59.0021590  10.7923730  53.5649710  63.6213800  11.1412390  35.4769790
  64.4142410  11.4301220  35.0251580  63.1018150  10.7104560  34.7982270
  68.3534400   7.2608020  52.7905210  67.7472560   7.2839620  52.0500960
  68.0488510   6.5291060  53.3272460  69.7834770  10.9888310  51.4014620
  70.7356520  10.9046330  51.3514860  69.6362990  11.6530020  52.0748410
  72.6743970  10.3682520  36.9006530  72.3885480   9.9547660  36.0860710
  72.4763520  11.2970230  36.7807050  57.2367580   3.6401610  51.7865850
  57.7406600   3.0608890  52.3582080  56.4975000   3.9241840  52.3242220
  64.1391200   6.3615800  35.3412140  64.0341840   5.7468150  36.0673520
  63.9715420   5.8381690  34.5575150  64.2905520   5.0472600  51.3201370
  63.5251190   5.6157600  51.2356040  64.4721480   4.7548810  50.4269600
  67.3793930   5.4235830  35.9454130  66.8304030   5.8705130  36.5896870
  68.0013190   4.9185080  36.4691800  71.4328870   6.7777930  51.8776390
  72.1738340   7.1153690  51.3743850  70.6701550   6.9469990  51.3246160
  59.2690660   1.7831200  52.6815920  59.3096000   1.4845070  53.5901150
  60.1236160   2.1838810  52.5223440  63.0469050   4.3826750  37.8419430
  63.4685470   4.2166620  38.6850820  63.1719890   3.5726980  37.3474570
  65.5596690   3.4064360  35.0896530  66.0802350   2.6913380  34.7237680
  66.2065090   4.0450230  35.3897040  70.1074530   4.8292760  50.4131600
  70.5215550   4.9837840  51.2622020  69.1725530   4.9547980  50.5757380
  64.8689760   4.7813240  48.3827530  65.2877870   5.6245970  48.2103770
  63.9498390   4.9185280  48.1534310  67.2053660   2.5129420  49.7665370
  67.3249870   1.9170560  50.5060210  68.0647660   2.5499110  49.3466670
  69.5441560   3.0666610  48.3427880  69.0176780   3.5909230  47.7393020
  69.8872900   3.6994000  48.9737610  62.7197180  11.0866250  49.4985260
  62.1818270  11.8112310  49.1793960  62.9731140  10.6096590  48.7082600
  65.5759390  12.3217460  49.7571910  65.5018090  13.2252600  50.0644280
  64.6738230  12.0029360  49.7293980  66.1244720  11.4875970  37.3798270
  67.0195510  11.8260940  37.4017030  66.1562350  10.7655380  36.7522550
  59.7640880   6.8603020  35.6085270  60.2015750   7.4032690  36.2642850
  60.2488610   6.0349970  35.6181610  56.9786680   9.6492050  43.0605530
  57.3089690   8.7813110  42.8284170  57.4077680   9.8550570  43.8910490
  61.5748600   7.9801060  40.7207500  61.2744140   7.8566030  41.6211410
  61.4686090   7.1209650  40.3123230  57.4676890  10.5162640  45.7987160
  57.0307880  10.6963440  46.6311310  58.0354570  11.2737260  45.6568880
  73.1039070  10.0179640  50.0864470  72.5041060  10.0772200  49.3428390
  73.2332970   9.0784620  50.2161320  74.3440520   7.7597460  35.4234180
  73.5133480   7.8274110  35.8941410  74.5212350   8.6501580  35.1201040
  73.7996980   4.5044940  37.9268380  74.5615890   5.0741590  38.0328070
  73.8151350   3.9372140  38.6976690  57.3001320   3.0282870  42.1576040
  56.6450160   2.7594510  41.5135740  58.1379270   2.9187350  41.7078020
  74.8056950   5.3595040  42.7710310  75.1765780   4.5762360  42.3646280
  75.4458880   6.0484140  42.5927610  71.7890710   6.7431620  48.1840630
  70.9750550   7.1728780  48.4466420  72.1964910   7.3550030  47.5709680
  73.8516150   4.7979310  35.0840900  74.1264990   5.7058190  34.9560120
  73.6626890   4.7341840  36.0202890  73.7481490   2.7348300  40.0770330
  73.3725090   1.9676230  39.6451620  73.0184610   3.1171000  40.5645260
  58.3377250   3.4135440  46.6979380  58.7050290   3.3262840  47.5775400
  57.7688070   2.6501990  46.5986240  73.1381110   1.8819820  49.7109850
  72.9067200   1.6532570  48.8107800  73.3985660   2.8019370  49.6654740
  71.8466760  11.4950220  41.7108900  72.4425830  11.1734790  41.0343320
  72.1044910  11.0222040  42.5022170  59.7529330   7.9268130  51.8599530
  59.7098960   7.5561040  52.7413990  59.8840340   8.8645700  52.0001350
  63.4535360   9.4827720  47.4609250  63.2126720   9.7502280  46.5739770
  64.3938000   9.6533450  47.5160110  74.7139520  11.5022100  48.2619890
  74.2197800  11.8990970  47.5447020  74.1052810  10.8771310  48.6557170
  59.5917360  10.8730380  48.9797310  58.9977680  10.7415080  49.7187350
  59.5841200  10.0368520  48.5139410  72.3978970  12.1445520  45.5406630
  71.9381940  12.8961330  45.1664650  71.7691430  11.4251990  45.4821430
  59.2229590   8.2388760  47.9305350  58.4963650   7.6194050  47.8631300
  59.2838740   8.6329370  47.0603430  62.8274690  10.4533760  44.7154760
  63.3439710   9.8421120  44.1903020  63.4772070  10.9562540  45.2065770
  65.5670190  11.3442250  45.5423740  65.8548000  11.0896550  44.6656750
  66.0793410  10.7919610  46.1329310  57.5059590  11.5563150  41.1402110
  57.3381630  10.9233830  41.8384000  56.6394100  11.7622550  40.7896300
  59.1122290  10.2496380  38.5852250  58.5869910  10.6304410  37.8814210
  59.0366870  10.8747150  39.3061960  65.6342550  12.2658350  52.9091940
  66.5609860  12.0302620  52.9527900  65.6192980  13.0930350  52.4277970
  73.8687610  11.8083920  39.9066190  74.0439800  11.1221660  39.2627110
  73.1709180  12.3330970  39.5142860  61.7115260  12.1978760  37.4601500
  62.4434080  11.9138040  36.9125390  61.9708930  11.9592040  38.3500880
  60.8730050   8.3143490  37.4647830  60.2438930   8.7828590  38.0133660
  60.9877880   7.4692710  37.8994020  72.2020110  11.4928210  52.7332980
  72.9945430  10.9977440  52.5258940  72.4953260  12.1718350  53.3408590
  66.4597810   4.1428170  25.4958300  65.6839910   3.6628610  25.7856870
  67.1110740   3.4633820  25.3214460  60.4763640   4.4547980  26.3734060
  59.6448520   4.1996690  26.7730570  61.0844620   4.5258750  27.1091980
  70.4805240   8.5488360  24.2757430  70.0186770   7.7775600  24.6044600
  71.2930790   8.5754430  24.7809880  60.4564900   8.4888070  26.5692080
  60.7592940   7.5985810  26.3902300  61.2008490   9.0458290  26.3414330
  66.7068550  10.8346370  23.8961420  66.0879990  11.2903870  23.3255860
  67.5620330  10.9897830  23.4951120  65.9006800   6.8185360  25.5028460
  65.8315080   5.8775300  25.3417590  66.6626660   6.9086770  26.0751030
  67.5731900   5.7185610  21.2893330  66.9549170   6.1835060  20.7256050
  68.0855150   6.4113090  21.7062840  62.4363660   5.2461480  27.9676930
  62.1033040   5.8730400  28.6098000  62.6130340   5.7723360  27.1878600
  61.6482760   7.2142280  29.7826110  62.2656760   7.8893360  29.5010560
  60.7875880   7.6230260  29.6913610  56.9415100   6.4042140  18.6632960
  56.5643080   6.8929240  17.9317860  57.1988170   7.0767420  19.2939490
  72.5660350   8.6781690  27.6980750  71.8823870   9.3480800  27.6897420
  73.1054640   8.8762340  26.9325610  70.1019090  10.5225820  26.4125930
  70.1146250  10.1188110  25.5448190  69.5494310  11.2973110  26.3087360
  71.3964510   7.2442040  21.5016100  71.2860840   6.3016370  21.6265520
  71.3932760   7.6057680  22.3878860  69.5004530   5.4255660  27.7408540
  69.9173320   5.2115770  26.9062000  70.2244350   5.6828450  28.3117160
  66.9384790   2.8707360  20.8578590  66.0114070   2.8044740  21.0867060
  67.0909610   3.8087490  20.7433830  73.4466630   3.8242880  27.8324780
  72.6185260   3.8935970  27.3574910  74.0417110   4.4097190  27.3640610
  70.9682080   4.4327660  21.3613840  70.3494500   4.0947210  20.7140140
  70.9506530   3.7887420  22.0693030  62.5441430   3.3972100  23.6398320
  62.1398430   2.6849350  23.1444220  62.6304550   3.0525340  24.5286360
  63.0123130   7.0839660  25.8037530  62.7151420   6.4785130  25.1245310
  63.9622950   7.1216970  25.6926890  71.1008740  10.6571530  29.4660630
  70.6239300  11.4643720  29.2733240  70.4170530  10.0049860  29.6186840
  62.1041560   6.8221350  32.4545330  61.2070090   7.0461320  32.7018730
  62.1294430   6.9456290  31.5056730  69.1446780   3.6714470  18.3686590
  69.5840060   2.8336900  18.2224410  69.8575200   4.3043870  18.4550730
  60.9312780   3.6934670  31.0302700  60.7920550   4.5657470  31.3990100
  60.0494140   3.3507480  30.8850640  67.2542160   8.6110540  22.3367830
  67.6938070   9.3534870  21.9223220  67.1929050   8.8537110  23.2606790
  62.7293130   9.6356370  33.2387850  62.7008560  10.0399320  32.3716280
  62.5658100   8.7066730  33.0759450  59.2446060   2.2917080  21.1404970
  59.1243660   3.0179170  20.5286240  58.9346950   1.5219990  20.6632880
  74.6807950  10.4183470  34.5352020  75.1567670  10.8966360  35.2141100
  75.3015110  10.3500960  33.8097520  56.8831430   5.4632220  26.9473610
  56.9611850   5.5980990  26.0029330  57.4973110   4.7548110  27.1401730
  58.1279060   7.1632410  23.3579790  57.7207140   7.3047000  22.5033390
  59.0192070   6.8792570  23.1551000  74.0841200   7.6096320  31.6952030
  74.2104260   7.3708200  30.7769210  74.1262580   6.7780860  32.1674110
  67.9457940  11.3124320  30.2646840  68.4602610  11.2232330  31.0669270
  67.1027020  11.6584020  30.5574750  69.9212340  11.5979660  19.6930840
  69.7613480  11.3082600  20.5912670  69.7559050  10.8219790  19.1576070
  62.4000720  11.3778190  21.4702460  62.2243200  10.4613730  21.2570260
  61.5456460  11.7365480  21.7100260  69.6238470   9.1067220  18.2528840
  68.9303630   9.1044510  17.5931120  70.3661330   8.6826540  17.8223010
  69.1888400  10.7329930  22.3277330  69.6445350   9.9519310  22.6415950
  69.5280920  11.4436750  22.8718510  56.9390950   6.5046390  29.4868070
  57.1021990   6.0351750  28.6687440  57.4043400   5.9969950  30.1516910
  63.4360750   1.9785800  17.7697150  62.8677650   1.5304050  17.1433060
  64.1449750   2.3378580  17.2362300  58.5129930   5.8797820  31.6463880
  58.1284720   5.2391490  32.2446840  58.8242120   6.5833940  32.2158610
  64.6627070   2.7274360  27.1272500  65.0297200   2.2532930  27.8733840
  64.4732130   3.6015930  27.4680840  62.4526440   1.7683000  29.4456710
  62.1483510   2.6474980  29.6707070  63.4072900   1.8282790  29.4814150
  60.9808230   5.9743990  20.0423560  60.2070490   5.4341610  19.8822280
  61.7102860   5.4550600  19.7041320  71.7396210   4.9709350  25.8349950
  72.4595330   5.4664640  25.4446060  71.5378030   4.2927240  25.1903820
  67.1215010   5.0418410  31.7218950  67.0552320   4.1214080  31.4676540
  66.4920150   5.1393850  32.4363590  61.0245630   5.6424370  23.6802370
  61.5424300   4.8392630  23.6259260  60.5729650   5.5803510  24.5219200
  65.9115130   6.9090650  18.9529670  66.2530830   7.6532880  18.4572990
  65.0827840   7.2221770  19.3154500  58.5090170   2.6085740  30.5928070
  58.1505110   3.2739590  31.1801410  58.2144730   1.7769290  30.9640690
  61.7103290   3.0669980  33.4767620  61.4103430   3.2127160  32.5795440
  62.4814530   2.5075270  33.3841010  67.0531740   7.8638980  31.4722750
  67.0676280   6.9319940  31.2541660  66.3456840   7.9498740  32.1112520
  72.1868810   2.0478800  17.7421360  72.1032530   2.4793020  16.8917800
  72.9063000   2.5077150  18.1748180  73.2642950   4.5046320  30.8191330
  72.5391140   5.0975100  30.6220720  73.7918410   4.4969860  30.0204700
  73.2156060   8.9021060  20.4703490  72.5732220   8.2476680  20.7447210
  72.8286720   9.3076150  19.6944160  68.7942540   6.2306490  24.3175180
  69.1466360   5.6334620  23.6576550  67.9104870   5.9050720  24.4883430
  64.8805820   6.9904180  21.7245590  65.5676950   7.5373390  22.1053180
  64.0938240   7.5344910  21.7595200  57.0198220   2.6077000  17.2162670
  57.8893070   2.8901800  17.4998590  56.5288540   3.4212870  17.1011480
  64.1833030   3.9950210  21.3370950  64.6395810   4.8055460  21.5631140
  63.8321240   3.6773350  22.1689440  66.4865640   9.5056550  28.5663250
  67.1307860   9.7115930  29.2436670  66.8495080   8.7444950  28.1134100
  67.7597720   7.5088900  27.2840700  68.4019950   6.8082060  27.3972870
  68.2847070   8.2887340  27.1037590  71.6053440   7.7937520  17.0079840
  71.3791020   7.0767960  17.6004480  71.2149640   7.5449960  16.1701590
  69.5335340   8.3083800  30.4876760  69.8691580   8.8950490  31.1654680
  68.6135680   8.1776510  30.7174550  57.3869470  11.8204380  17.7824300
  57.7467110  12.4193720  17.1281570  57.2461810  12.3664270  18.5559330
  71.1869690   5.7109460  18.6694000  70.8991390   6.1722150  19.4571880
  71.9821860   5.2507230  18.9378220  57.3711330  10.0859240  32.2566700
  57.4802450   9.1453980  32.1162090  56.7191890  10.3513990  31.6080430
  65.3623920   8.3575130  33.6564820  65.0420790   7.6384370  34.2010510
  64.6882280   9.0330200  33.7300880  63.4038090   9.2035580  18.5997970
  63.3948190   9.9365270  17.9842480  62.4836450   8.9567160  18.6924930
  59.0044730   4.4250470  19.3444730  58.3972680   5.1649370  19.3540030
  59.4794080   4.5149830  18.5182930  66.3897690   9.2663820  17.2623160
  66.4909670   9.0627810  16.3325140  65.4899430   9.0122100  17.4670940
  65.0315800  11.7850140  21.9570830  65.2857300  11.7471530  21.0350200
  64.0828280  11.6583470  21.9499080  71.0368380   2.7042020  23.5329340
  70.0958520   2.7192250  23.7077030  71.3512450   1.9177980  23.9789640
  61.0150020   4.3861620  17.0933300  61.7813290   4.2742980  17.6558730
  61.0924710   3.6899590  16.4410070  73.0393960   9.8750870  25.2083600
  73.1641380  10.6982040  25.6807410  73.9059520   9.6641600  24.8607750
  60.5111490  11.9682080  24.8800730  61.2473970  11.4197540  25.1509300
  60.8952410  12.8338090  24.7406720  57.3956970   8.0355650  20.7542240
  56.4696750   8.2776790  20.7447650  57.8613400   8.8629910  20.6326990
  59.5169770  11.1528150  34.0686310  60.3182500  11.4740200  34.4821710
  59.0021590  10.7923730  34.7906220  63.6213800  11.1412390  16.7026300
  64.4142410  11.4301220  16.2508090  63.1018150  10.7104560  16.0238780
  68.3534400   7.2608020  34.0161720  67.7472560   7.2839620  33.2757470
  68.0488510   6.5291060  34.5528970  69.7834770  10.9888310  32.6271130
  70.7356520  10.9046330  32.5771370  69.6362990  11.6530020  33.3004920
  72.6743970  10.3682520  18.1263040  72.3885480   9.9547660  17.3117220
  72.4763520  11.2970230  18.0063560  57.2367580   3.6401610  33.0122360
  57.7406600   3.0608890  33.5838590  56.4975000   3.9241840  33.5498730
  64.1391200   6.3615800  16.5668650  64.0341840   5.7468150  17.2930030
  63.9715420   5.8381690  15.7831660  64.2905520   5.0472600  32.5457880
  63.5251190   5.6157600  32.4612550  64.4721480   4.7548810  31.6526110
  67.3793930   5.4235830  17.1710640  66.8304030   5.8705130  17.8153380
  68.0013190   4.9185080  17.6948310  71.4328870   6.7777930  33.1032900
  72.1738340   7.1153690  32.6000360  70.6701550   6.9469990  32.5502670
  59.2690660   1.7831200  33.9072430  59.3096000   1.4845070  34.8157660
  60.1236160   2.1838810  33.7479950  63.0469050   4.3826750  19.0675940
  63.4685470   4.2166620  19.9107330  63.1719890   3.5726980  18.5731080
  65.5596690   3.4064360  16.3153040  66.0802350   2.6913380  15.9494190
  66.2065090   4.0450230  16.6153550  70.1074530   4.8292760  31.6388110
  70.5215550   4.9837840  32.4878530  69.1725530   4.9547980  31.8013890
  64.8689760   4.7813240  29.6084040  65.2877870   5.6245970  29.4360280
  63.9498390   4.9185280  29.3790820  67.2053660   2.5129420  30.9921880
  67.3249870   1.9170560  31.7316720  68.0647660   2.5499110  30.5723180
  69.5441560   3.0666610  29.5684390  69.0176780   3.5909230  28.9649530
  69.8872900   3.6994000  30.1994120  62.7197180  11.0866250  30.7241770
  62.1818270  11.8112310  30.4050470  62.9731140  10.6096590  29.9339110
  65.5759390  12.3217460  30.9828420  65.5018090  13.2252600  31.2900790
  64.6738230  12.0029360  30.9550490  66.1244720  11.4875970  18.6054780
  67.0195510  11.8260940  18.6273540  66.1562350  10.7655380  17.9779060
  59.7640880   6.8603020  16.8341780  60.2015750   7.4032690  17.4899360
  60.2488610   6.0349970  16.8438120  56.9786680   9.6492050  24.2862040
  57.3089690   8.7813110  24.0540680  57.4077680   9.8550570  25.1167000
  61.5748600   7.9801060  21.9464010  61.2744140   7.8566030  22.8467920
  61.4686090   7.1209650  21.5379740  57.4676890  10.5162640  27.0243670
  57.0307880  10.6963440  27.8567820  58.0354570  11.2737260  26.8825390
  73.1039070  10.0179640  31.3120980  72.5041060  10.0772200  30.5684900
  73.2332970   9.0784620  31.4417830  74.3440520   7.7597460  16.6490690
  73.5133480   7.8274110  17.1197920  74.5212350   8.6501580  16.3457550
  73.7996980   4.5044940  19.1524890  74.5615890   5.0741590  19.2584580
  73.8151350   3.9372140  19.9233200  57.3001320   3.0282870  23.3832550
  56.6450160   2.7594510  22.7392250  58.1379270   2.9187350  22.9334530
  74.8056950   5.3595040  23.9966820  75.1765780   4.5762360  23.5902790
  75.4458880   6.0484140  23.8184120  71.7890710   6.7431620  29.4097140
  70.9750550   7.1728780  29.6722930  72.1964910   7.3550030  28.7966190
  73.8516150   4.7979310  16.3097410  74.1264990   5.7058190  16.1816630
  73.6626890   4.7341840  17.2459400  73.7481490   2.7348300  21.3026840
  73.3725090   1.9676230  20.8708130  73.0184610   3.1171000  21.7901770
  58.3377250   3.4135440  27.9235890  58.7050290   3.3262840  28.8031910
  57.7688070   2.6501990  27.8242750  73.1381110   1.8819820  30.9366360
  72.9067200   1.6532570  30.0364310  73.3985660   2.8019370  30.8911250
  71.8466760  11.4950220  22.9365410  72.4425830  11.1734790  22.2599830
  72.1044910  11.0222040  23.7278680  59.7529330   7.9268130  33.0856040
  59.7098960   7.5561040  33.9670500  59.8840340   8.8645700  33.2257860
  63.4535360   9.4827720  28.6865760  63.2126720   9.7502280  27.7996280
  64.3938000   9.6533450  28.7416620  74.7139520  11.5022100  29.4876400
  74.2197800  11.8990970  28.7703530  74.1052810  10.8771310  29.8813680
  59.5917360  10.8730380  30.2053820  58.9977680  10.7415080  30.9443860
  59.5841200  10.0368520  29.7395920  72.3978970  12.1445520  26.7663140
  71.9381940  12.8961330  26.3921160  71.7691430  11.4251990  26.7077940
  59.2229590   8.2388760  29.1561860  58.4963650   7.6194050  29.0887810
  59.2838740   8.6329370  28.2859940  62.8274690  10.4533760  25.9411270
  63.3439710   9.8421120  25.4159530  63.4772070  10.9562540  26.4322280
  65.5670190  11.3442250  26.7680250  65.8548000  11.0896550  25.8913260
  66.0793410  10.7919610  27.3585820  57.5059590  11.5563150  22.3658620
  57.3381630  10.9233830  23.0640510  56.6394100  11.7622550  22.0152810
  59.1122290  10.2496380  19.8108760  58.5869910  10.6304410  19.1070720
  59.0366870  10.8747150  20.5318470  65.6342550  12.2658350  34.1348450
  66.5609860  12.0302620  34.1784410  65.6192980  13.0930350  33.6534480
  73.8687610  11.8083920  21.1322700  74.0439800  11.1221660  20.4883620
  73.1709180  12.3330970  20.7399370  61.7115260  12.1978760  18.6858010
  62.4434080  11.9138040  18.1381900  61.9708930  11.9592040  19.5757390
  60.8730050   8.3143490  18.6904340  60.2438930   8.7828590  19.2390170
  60.9877880   7.4692710  19.1250530  72.2020110  11.4928210  33.9589490
  72.9945430  10.9977440  33.7515450  72.4953260  12.1718350  34.5665100
  66.4597810   4.1428170   6.7214810  65.6839910   3.6628610   7.0113380
  67.1110740   3.4633820   6.5470970  60.4763640   4.4547980   7.5990570
  59.6448520   4.1996690   7.9987080  61.0844620   4.5258750   8.3348490
  70.4805240   8.5488360   5.5013940  70.0186770   7.7775600   5.8301110
  71.2930790   8.5754430   6.0066390  60.4564900   8.4888070   7.7948590
  60.7592940   7.5985810   7.6158810  61.2008490   9.0458290   7.5670840
  66.7068550  10.8346370   5.1217930  66.0879990  11.2903870   4.5512370
  67.5620330  10.9897830   4.7207630  65.9006800   6.8185360   6.7284970
  65.8315080   5.8775300   6.5674100  66.6626660   6.9086770   7.3007540
  67.5731900   5.7185610   2.5149840  66.9549170   6.1835060   1.9512560
  68.0855150   6.4113090   2.9319350  62.4363660   5.2461480   9.1933440
  62.1033040   5.8730400   9.8354510  62.6130340   5.7723360   8.4135110
  61.6482760   7.2142280  11.0082620  62.2656760   7.8893360  10.7267070
  60.7875880   7.6230260  10.9170120  72.5660350   8.6781690   8.9237260
  71.8823870   9.3480800   8.9153930  73.1054640   8.8762340   8.1582120
  70.1019090  10.5225820   7.6382440  70.1146250  10.1188110   6.7704700
  69.5494310  11.2973110   7.5343870  71.3964510   7.2442040   2.7272610
  71.2860840   6.3016370   2.8522030  71.3932760   7.6057680   3.6135370
  69.5004530   5.4255660   8.9665050  69.9173320   5.2115770   8.1318510
  70.2244350   5.6828450   9.5373670  66.9384790   2.8707360   2.0835100
  66.0114070   2.8044740   2.3123570  67.0909610   3.8087490   1.9690340
  73.4466630   3.8242880   9.0581290  72.6185260   3.8935970   8.5831420
  74.0417110   4.4097190   8.5897120  70.9682080   4.4327660   2.5870350
  70.3494500   4.0947210   1.9396650  70.9506530   3.7887420   3.2949540
  62.5441430   3.3972100   4.8654830  62.1398430   2.6849350   4.3700730
  62.6304550   3.0525340   5.7542870  63.0123130   7.0839660   7.0294040
  62.7151420   6.4785130   6.3501820  63.9622950   7.1216970   6.9183400
  71.1008740  10.6571530  10.6917140  70.6239300  11.4643720  10.4989750
  70.4170530  10.0049860  10.8443350  62.1041560   6.8221350  13.6801840
  61.2070090   7.0461320  13.9275240  62.1294430   6.9456290  12.7313240
  60.9312780   3.6934670  12.2559210  60.7920550   4.5657470  12.6246610
  60.0494140   3.3507480  12.1107150  67.2542160   8.6110540   3.5624340
  67.6938070   9.3534870   3.1479730  67.1929050   8.8537110   4.4863300
  62.7293130   9.6356370  14.4644360  62.7008560  10.0399320  13.5972790
  62.5658100   8.7066730  14.3015960  59.2446060   2.2917080   2.3661480
  59.1243660   3.0179170   1.7542750  58.9346950   1.5219990   1.8889390
  74.6807950  10.4183470  15.7608530  75.1567670  10.8966360  16.4397610
  75.3015110  10.3500960  15.0354030  56.8831430   5.4632220   8.1730120
  56.9611850   5.5980990   7.2285840  57.4973110   4.7548110   8.3658240
  58.1279060   7.1632410   4.5836300  57.7207140   7.3047000   3.7289900
  59.0192070   6.8792570   4.3807510  74.0841200   7.6096320  12.9208540
  74.2104260   7.3708200  12.0025720  74.1262580   6.7780860  13.3930620
  67.9457940  11.3124320  11.4903350  68.4602610  11.2232330  12.2925780
  67.1027020  11.6584020  11.7831260  62.4000720  11.3778190   2.6958970
  62.2243200  10.4613730   2.4826770  61.5456460  11.7365480   2.9356770
  69.1888400  10.7329930   3.5533840  69.6445350   9.9519310   3.8672460
  69.5280920  11.4436750   4.0975020  56.9390950   6.5046390  10.7124580
  57.1021990   6.0351750   9.8943950  57.4043400   5.9969950  11.3773420
  58.5129930   5.8797820  12.8720390  58.1284720   5.2391490  13.4703350
  58.8242120   6.5833940  13.4415120  64.6627070   2.7274360   8.3529010
  65.0297200   2.2532930   9.0990350  64.4732130   3.6015930   8.6937350
  62.4526440   1.7683000  10.6713220  62.1483510   2.6474980  10.8963580
  63.4072900   1.8282790  10.7070660  71.7396210   4.9709350   7.0606460
  72.4595330   5.4664640   6.6702570  71.5378030   4.2927240   6.4160330
  67.1215010   5.0418410  12.9475460  67.0552320   4.1214080  12.6933050
  66.4920150   5.1393850  13.6620100  61.0245630   5.6424370   4.9058880
  61.5424300   4.8392630   4.8515770  60.5729650   5.5803510   5.7475710
  58.5090170   2.6085740  11.8184580  58.1505110   3.2739590  12.4057920
  58.2144730   1.7769290  12.1897200  61.7103290   3.0669980  14.7024130
  61.4103430   3.2127160  13.8051950  62.4814530   2.5075270  14.6097520
  67.0531740   7.8638980  12.6979260  67.0676280   6.9319940  12.4798170
  66.3456840   7.9498740  13.3369030  73.2642950   4.5046320  12.0447840
  72.5391140   5.0975100  11.8477230  73.7918410   4.4969860  11.2461210
  68.7942540   6.2306490   5.5431690  69.1466360   5.6334620   4.8833060
  67.9104870   5.9050720   5.7139940  64.8805820   6.9904180   2.9502100
  65.5676950   7.5373390   3.3309690  64.0938240   7.5344910   2.9851710
  64.1833030   3.9950210   2.5627460  64.6395810   4.8055460   2.7887650
  63.8321240   3.6773350   3.3945950  66.4865640   9.5056550   9.7919760
  67.1307860   9.7115930  10.4693180  66.8495080   8.7444950   9.3390610
  67.7597720   7.5088900   8.5097210  68.4019950   6.8082060   8.6229380
  68.2847070   8.2887340   8.3294100  69.5335340   8.3083800  11.7133270
  69.8691580   8.8950490  12.3911190  68.6135680   8.1776510  11.9431060
  57.3711330  10.0859240  13.4823210  57.4802450   9.1453980  13.3418600
  56.7191890  10.3513990  12.8336940  65.3623920   8.3575130  14.8821330
  65.0420790   7.6384370  15.4267020  64.6882280   9.0330200  14.9557390
  65.0315800  11.7850140   3.1827340  65.2857300  11.7471530   2.2606710
  64.0828280  11.6583470   3.1755590  71.0368380   2.7042020   4.7585850
  70.0958520   2.7192250   4.9333540  71.3512450   1.9177980   5.2046150
  73.0393960   9.8750870   6.4340110  73.1641380  10.6982040   6.9063920
  73.9059520   9.6641600   6.0864260  60.5111490  11.9682080   6.1057240
  61.2473970  11.4197540   6.3765810  60.8952410  12.8338090   5.9663230
  57.3956970   8.0355650   1.9798750  56.4696750   8.2776790   1.9704160
  57.8613400   8.8629910   1.8583500  59.5169770  11.1528150  15.2942820
  60.3182500  11.4740200  15.7078220  59.0021590  10.7923730  16.0162730
  68.3534400   7.2608020  15.2418230  67.7472560   7.2839620  14.5013980
  68.0488510   6.5291060  15.7785480  69.7834770  10.9888310  13.8527640
  70.7356520  10.9046330  13.8027880  69.6362990  11.6530020  14.5261430
  57.2367580   3.6401610  14.2378870  57.7406600   3.0608890  14.8095100
  56.4975000   3.9241840  14.7755240  64.2905520   5.0472600  13.7714390
  63.5251190   5.6157600  13.6869060  64.4721480   4.7548810  12.8782620
  71.4328870   6.7777930  14.3289410  72.1738340   7.1153690  13.8256870
  70.6701550   6.9469990  13.7759180  59.2690660   1.7831200  15.1328940
  59.3096000   1.4845070  16.0414170  60.1236160   2.1838810  14.9736460
  70.1074530   4.8292760  12.8644620  70.5215550   4.9837840  13.7135040
  69.1725530   4.9547980  13.0270400  64.8689760   4.7813240  10.8340550
  65.2877870   5.6245970  10.6616790  63.9498390   4.9185280  10.6047330
  67.2053660   2.5129420  12.2178390  67.3249870   1.9170560  12.9573230
  68.0647660   2.5499110  11.7979690  69.5441560   3.0666610  10.7940900
  69.0176780   3.5909230  10.1906040  69.8872900   3.6994000  11.4250630
  62.7197180  11.0866250  11.9498280  62.1818270  11.8112310  11.6306980
  62.9731140  10.6096590  11.1595620  65.5759390  12.3217460  12.2084930
  65.5018090  13.2252600  12.5157300  64.6738230  12.0029360  12.1807000
  56.9786680   9.6492050   5.5118550  57.3089690   8.7813110   5.2797190
  57.4077680   9.8550570   6.3423510  61.5748600   7.9801060   3.1720520
  61.2744140   7.8566030   4.0724430  61.4686090   7.1209650   2.7636250
  57.4676890  10.5162640   8.2500180  57.0307880  10.6963440   9.0824330
  58.0354570  11.2737260   8.1081900  73.1039070  10.0179640  12.5377490
  72.5041060  10.0772200  11.7941410  73.2332970   9.0784620  12.6674340
  57.3001320   3.0282870   4.6089060  56.6450160   2.7594510   3.9648760
  58.1379270   2.9187350   4.1591040  74.8056950   5.3595040   5.2223330
  75.1765780   4.5762360   4.8159300  75.4458880   6.0484140   5.0440630
  71.7890710   6.7431620  10.6353650  70.9750550   7.1728780  10.8979440
  72.1964910   7.3550030  10.0222700  73.7481490   2.7348300   2.5283350
  73.3725090   1.9676230   2.0964640  73.0184610   3.1171000   3.0158280
  58.3377250   3.4135440   9.1492400  58.7050290   3.3262840  10.0288420
  57.7688070   2.6501990   9.0499260  73.1381110   1.8819820  12.1622870
  72.9067200   1.6532570  11.2620820  73.3985660   2.8019370  12.1167760
  71.8466760  11.4950220   4.1621920  72.4425830  11.1734790   3.4856340
  72.1044910  11.0222040   4.9535190  59.7529330   7.9268130  14.3112550
  59.7098960   7.5561040  15.1927010  59.8840340   8.8645700  14.4514370
  63.4535360   9.4827720   9.9122270  63.2126720   9.7502280   9.0252790
  64.3938000   9.6533450   9.9673130  74.7139520  11.5022100  10.7132910
  74.2197800  11.8990970   9.9960040  74.1052810  10.8771310  11.1070190
  59.5917360  10.8730380  11.4310330  58.9977680  10.7415080  12.1700370
  59.5841200  10.0368520  10.9652430  72.3978970  12.1445520   7.9919650
  71.9381940  12.8961330   7.6177670  71.7691430  11.4251990   7.9334450
  59.2229590   8.2388760  10.3818370  58.4963650   7.6194050  10.3144320
  59.2838740   8.6329370   9.5116450  62.8274690  10.4533760   7.1667780
  63.3439710   9.8421120   6.6416040  63.4772070  10.9562540   7.6578790
  65.5670190  11.3442250   7.9936760  65.8548000  11.0896550   7.1169770
  66.0793410  10.7919610   8.5842330  57.5059590  11.5563150   3.5915130
  57.3381630  10.9233830   4.2897020  56.6394100  11.7622550   3.2409320
  65.6342550  12.2658350  15.3604960  66.5609860  12.0302620  15.4040920
  65.6192980  13.0930350  14.8790990  73.8687610  11.8083920   2.3579210
  74.0439800  11.1221660   1.7140130  73.1709180  12.3330970   1.9655880
  72.2020110  11.4928210  15.1846000  72.9945430  10.9977440  14.9771960
  72.4953260  12.1718350  15.7921610  49.5536280  96.2366600  79.9379500
  49.4730330  95.3221210  79.6671210  49.1400700  96.7333670  79.2319210
  47.6854320  98.0145620  81.8188770  46.9096420  97.5346060  82.1087340
  48.3367250  97.3351270  81.6444930  41.7020150  98.3265430  82.6964530
  40.8705030  98.0714140  83.0961040  42.3101130  98.3976200  83.4322450
  40.1112100  93.2867320  76.4806920  39.2228800  93.6283290  76.3786800
  40.3953290  93.0867640  75.5887750  38.0745110  95.8872970  82.3646620
  38.6461220  95.1195170  82.3650260  38.0746650  96.1861730  81.4553230
  39.3169980  91.2957330  84.1515550  39.1372820  90.3983080  84.4318310
  38.9150060  91.8429200  84.8262500  48.1568480  93.4973190  82.0527860
  48.5333300  92.6245070  81.9401530  48.0587990  93.8331890  81.1618300
  42.2873490  91.8698820  77.5145300  42.3940240  92.7702550  77.8214060
  41.3765850  91.8216790  77.2239950  51.9392600  90.9923630  78.9856200
  52.7602220  90.5020200  79.0281680  51.9726680  91.5821290  79.7388040
  39.9356650  93.7917830  82.7597890  40.6166760  94.0556200  83.3785290
  39.6204700  92.9518700  83.0935900  44.1281220  94.8385190  81.8470480
  44.6359440  95.3366160  82.4875500  44.6594460  94.0620390  81.6709840
  56.2292150  93.0090380  85.5499830  55.5244320  93.3972090  85.0314940
  56.4950070  93.7040670  86.1520760  42.4117320  89.4783750  86.1133900
  42.4135760  89.9956140  85.3079800  41.5821630  89.0013930  86.0903830
  52.1754080  92.9324010  81.7583740  51.4709650  93.2208900  82.3386850
  52.5366240  93.7424120  81.3983300  42.0932650  91.1893710  84.1204350
  42.4349460  92.0335760  83.8258220  41.1548460  91.3377450  84.2369690
  55.2441000  92.3778800  82.1492950  54.2965910  92.4117780  82.2808380
  55.5690990  93.1917750  82.5342310  45.7760540  88.6775980  80.4448940
  46.0835520  88.1222870  79.7284440  44.8461240  88.8120440  80.2621930
  48.1641300  96.7424810  77.1809060  47.2370580  96.6762190  77.4097530
  48.3166120  97.6804940  77.0664300  48.1510380  93.0141810  74.1776220
  47.2114050  93.1755770  74.2628680  48.4693640  93.7327490  73.6312210
  54.6723140  97.6960330  84.1555250  53.8441770  97.7653420  83.6805380
  55.2673620  98.2814640  83.6871080  52.1938590  98.3045110  77.6844310
  51.5751010  97.9664660  77.0370610  52.1763040  97.6604870  78.3923500
  51.6365150  94.4829650  85.1010120  51.2236330  95.3083360  85.3550110
  50.9041100  93.8974690  84.9086480  43.7697940  97.2689550  79.9628790
  43.3654940  96.5566800  79.4674690  43.8561060  96.9242790  80.8516830
  42.4826560  94.0432760  83.7427830  43.0341150  94.1528100  82.9681080
  42.9970070  94.4170360  84.4583060  50.3703290  97.5431920  74.6917060
  50.8096570  96.7054350  74.5454880  51.0831710  98.1761320  74.7781200
  53.9520430  88.7974730  73.0058100  53.6393090  88.8901560  73.9057170
  54.7132900  89.3755760  72.9555530  40.4702570  96.1634530  77.4635440
  40.3500170  96.8896620  76.8516710  40.1603460  95.3937440  76.9863350
  42.9366230  89.5069600  80.8459110  42.4934380  90.2879140  80.5143630
  43.4951220  89.8299490  81.5530050  46.0525050  89.1280300  75.7264940
  45.4279230  89.1240170  76.4518250  45.9655170  88.2611260  75.3300910
  44.9742130  90.0516930  82.7048710  45.2714460  90.9579760  82.6240730
  45.5227690  89.5635710  82.0908280  42.7280450  94.6303170  78.5740360
  42.5021370  94.4140340  79.4786980  41.9472980  95.0631630  78.2286330
  49.9578210  94.6366540  77.1731010  49.3587100  95.3602340  76.9894630
  50.5057820  94.5743320  76.3907460  48.5643080  93.2730080  79.2034290
  48.9572650  93.5902280  78.3902980  48.9259930  92.3941960  79.3178810
  37.6007250  89.8630880  81.4264490  37.3120300  90.4333740  82.1389470
  38.3453010  89.3835330  81.7895720  37.7877480  93.8051000  72.6367210
  37.7052150  94.7481760  72.7782200  37.4360540  93.6625910  71.7579560
  49.1498220  95.8635830  83.2985070  48.4179340  96.3722640  83.6475170
  48.7522560  95.0465810  82.9973850  45.5875610  92.5390030  81.7037560
  45.5911670  92.0979980  80.8542100  46.4826730  92.8607360  81.8109380
  41.4377990  92.4216520  80.6631770  41.0978040  92.8991750  81.4198820
  40.6755310  91.9681640  80.3032870  45.6495760  93.5402110  74.6944320
  45.7708580  93.4988590  75.6430140  45.2644270  94.4026260  74.5391050
  49.6124130  91.3169510  82.7108010  49.6296870  91.7678160  83.5549860
  49.3639710  90.4175150  82.9241450  44.6617260  95.8503250  74.0927620
  44.0934160  95.4021500  73.4663530  45.3706260  96.2096030  73.5592770
  45.8883580  96.5991810  83.4502970  46.2553710  96.1250380  84.1964310
  45.6988640  97.4733380  83.7911310  38.7524070  91.3435500  79.5796440
  38.4670990  90.9791170  80.4175060  38.6902930  90.6115960  78.9659580
  43.6782950  95.6400450  85.7687180  43.3740020  96.5192430  85.9937540
  44.6329410  95.7000240  85.8044620  48.4262660  90.2364760  76.3009810
  47.6127270  89.7377930  76.2255120  48.2324610  91.0763010  75.8846160
  51.1411050  94.6084410  74.5971970  52.0290670  94.9201640  74.4223310
  51.1116140  93.7356660  74.2052550  53.4125320  95.9196250  74.0651830
  53.3289040  96.3510470  73.2148270  54.1319510  96.3794600  74.4978650
  38.2454730  96.4794450  73.5393140  39.1149580  96.7619250  73.8229060
  37.7545050  97.2930320  73.4241950  45.4089540  97.8667660  77.6601420
  45.8652320  98.6772910  77.8861610  45.0577750  97.5490800  78.4919910
  41.3101320  88.2105310  78.1323940  41.1815950  88.2023210  79.0808860
  40.4863340  88.5488400  77.7814950  49.8034030  92.4618740  85.3432090
  50.1714850  91.6413950  85.6711660  48.9432230  92.5220630  85.7587740
  53.1696060  91.4175680  76.1519650  52.5409220  91.5221350  75.4377880
  52.6747980  91.6372460  76.9413530  45.1380090  93.6961630  77.5677530
  44.4296240  94.1647970  78.0091140  45.4224570  93.0383640  78.2022720
  46.7636020  95.1158330  85.5670060  47.2621270  95.5904150  86.2321910
  46.9058970  94.1921850  85.7740090  49.1695520  90.4212290  79.0073320
  49.0463300  90.4398420  78.0582830  50.1180080  90.4691230  79.1271720
  43.3415110  92.0046710  74.9428240  44.1905640  92.4416860  74.8768430
  42.9746380  92.3166970  75.7700300  53.9702880  91.3326290  86.4098450
  53.4676480  92.0731690  86.7492260  54.7859540  91.7210290  86.0935240
  52.2624890  96.5759470  79.8559810  51.3215030  96.5909700  80.0307500
  52.5768960  95.7895430  80.3020110  42.2406530  98.2579070  73.4163770
  43.0069800  98.1460430  73.9789200  42.3181220  97.5617040  72.7640540
  40.9353290  95.6904140  74.0996660  41.0156880  94.7431650  74.2114060
  41.8273040  96.0211020  74.2057320  44.2725560  98.2544200  75.3906410
  44.6941980  98.0884070  76.2337800  44.3976400  97.4444430  74.8961550
  46.7853200  97.2781810  72.6383510  47.3058860  96.5630830  72.2724660
  47.4321600  97.9167680  72.9384020  45.6886720  89.7576360  85.3102070
  45.2404020  89.7800620  84.4647620  45.0551920  89.3595380  85.9072370
  50.7698070  96.9384060  85.8914860  50.2433290  97.4626680  85.2880000
  51.1129410  97.5711450  86.5224590  43.1684460  94.3277430  72.3364570
  42.9673520  93.4644790  72.6977910  42.9976510  94.2410790  71.3986170
  50.6472770  89.1385660  74.8651450  50.9275060  88.2953560  75.2210870
  49.8738500  89.3708770  75.3790200  41.9667260  91.4278050  72.3242450
  42.2693160  91.4345480  71.4161600  42.7061850  91.0775910  72.8210110
  45.1852190  90.3712670  73.3098650  44.8374190  89.6936660  72.7301100
  45.3864960  89.9102180  74.1242040  38.5257830  96.9000320  79.7063020
  37.8706670  96.6311960  79.0622720  39.3635780  96.7904800  79.2565000
  51.4748270  91.6941610  73.9281510  51.8933150  91.5072590  73.0878170
  51.1684330  90.8420660  74.2384440  54.9738000  96.6065750  77.6257310
  54.5981600  95.8393680  77.1938600  54.2441120  96.9888450  78.1132240
  39.5633760  97.2852890  84.2466360  39.9306800  97.1980290  85.1262380
  38.9944580  96.5219440  84.1473220  37.7395910  94.1099250  75.6488350
  36.8359990  94.3729450  75.4740010  38.2236530  94.3810420  74.8688310
  54.2488960  94.8323240  80.9264550  54.7726440  94.3385890  80.2954720
  54.8348380  94.9673600  81.6712120  54.4278680  94.9163110  84.4484100
  53.4781390  94.8826650  84.5629090  54.6091690  95.8263220  84.2133870
  40.2823120  93.1664790  73.5582730  40.9914820  92.7448010  73.0730010
  39.5663060  93.2340020  72.9266080  39.9297280  89.2204120  72.5985380
  40.6525410  89.7613060  72.9166600  40.2021800  88.9467540  71.7226920
  53.7388930  94.0896590  76.8656960  54.2348050  93.8567460  77.6505840
  53.5405000  93.2508430  76.4494600  39.6189470  88.4710310  82.5008000
  40.2665660  87.9207690  82.0603160  40.0391310  88.7253460  83.3223810
  55.1676090  92.7257540  79.3994640  55.0575370  92.5713580  80.3376910
  55.9283680  92.1978480  79.1570050  53.5141810  88.6651670  85.8577640
  54.1514030  89.2785810  86.2236830  53.6616700  88.7012330  84.9126870
  56.0566360  90.5565460  72.6400780  56.9815670  90.4246640  72.4319070
  56.0342150  90.6358280  73.5937230  56.1304850  91.3276120  75.2657490
  55.3356350  91.2621240  75.7950400  56.3348130  92.2626760  75.2542840
  39.3721470  88.6265980  85.2433320  39.0236290  89.0829800  86.0091500
  39.0409170  87.7323110  85.3255750  50.2628890  88.0380060  84.7314320
  49.3888730  88.3715170  84.5287250  50.1539640  87.5653240  85.5566190
  51.1700870  90.2450930  86.1156040  50.8414230  89.4302690  85.7357770
  52.1183170  90.2020740  85.9921730  48.0103710  88.9549900  83.6707230
  47.2275500  89.4295400  83.9503990  47.7166640  88.0504730  83.5620410
  52.5624780  89.6573000  81.7156320  53.0032870  89.6018100  80.8677920
  52.2932370  90.5731010  81.7866500  54.4263350  89.2888240  79.7265140
  54.3651750  88.3449460  79.5796160  55.2055380  89.3968330  80.2718600
  39.3544120  89.2597380  76.1920950  40.1123480  89.3726260  75.6184980
  38.8921290  90.0966580  76.1464380  45.8957930  91.3736650  79.1823260
  45.0832440  90.9993540  78.8419140  46.3999570  90.6181730  79.4844450
  50.3982910  88.0379100  80.4206330  51.0012280  88.6099310  80.8954850
  49.6575900  88.6018540  80.1980230  53.5417510  88.4400660  75.6946610
  53.7368140  89.3384110  75.9614040  52.7547380  88.2087740  76.1879560
  41.7269270  89.7861430  74.7322920  42.2562030  88.9991230  74.6030870
  42.3597590  90.4652620  74.9658450  43.9207110  89.5236570  77.7868310
  43.2909850  88.8223880  77.9538440  43.3812250  90.2840700  77.5701470
  49.5536280  96.2366600  61.1636010  49.4730330  95.3221210  60.8927720
  49.1400700  96.7333670  60.4575720  47.6854320  98.0145620  63.0445280
  46.9096420  97.5346060  63.3343850  48.3367250  97.3351270  62.8701440
  41.7020150  98.3265430  63.9221040  40.8705030  98.0714140  64.3217550
  42.3101130  98.3976200  64.6578960  40.1112100  93.2867320  57.7063430
  39.2228800  93.6283290  57.6043310  40.3953290  93.0867640  56.8144260
  38.0745110  95.8872970  63.5903130  38.6461220  95.1195170  63.5906770
  38.0746650  96.1861730  62.6809740  39.3169980  91.2957330  65.3772060
  39.1372820  90.3983080  65.6574820  38.9150060  91.8429200  66.0519010
  48.1568480  93.4973190  63.2784370  48.5333300  92.6245070  63.1658040
  48.0587990  93.8331890  62.3874810  42.2873490  91.8698820  58.7401810
  42.3940240  92.7702550  59.0470570  41.3765850  91.8216790  58.4496460
  51.9392600  90.9923630  60.2112710  52.7602220  90.5020200  60.2538190
  51.9726680  91.5821290  60.9644550  39.9356650  93.7917830  63.9854400
  40.6166760  94.0556200  64.6041800  39.6204700  92.9518700  64.3192410
  44.1281220  94.8385190  63.0726990  44.6359440  95.3366160  63.7132010
  44.6594460  94.0620390  62.8966350  56.2292150  93.0090380  66.7756340
  55.5244320  93.3972090  66.2571450  56.4950070  93.7040670  67.3777270
  42.4117320  89.4783750  67.3390410  42.4135760  89.9956140  66.5336310
  41.5821630  89.0013930  67.3160340  52.1754080  92.9324010  62.9840250
  51.4709650  93.2208900  63.5643360  52.5366240  93.7424120  62.6239810
  42.0932650  91.1893710  65.3460860  42.4349460  92.0335760  65.0514730
  41.1548460  91.3377450  65.4626200  55.2441000  92.3778800  63.3749460
  54.2965910  92.4117780  63.5064890  55.5690990  93.1917750  63.7598820
  45.7760540  88.6775980  61.6705450  46.0835520  88.1222870  60.9540950
  44.8461240  88.8120440  61.4878440  48.1641300  96.7424810  58.4065570
  47.2370580  96.6762190  58.6354040  48.3166120  97.6804940  58.2920810
  48.1510380  93.0141810  55.4032730  47.2114050  93.1755770  55.4885190
  48.4693640  93.7327490  54.8568720  54.6723140  97.6960330  65.3811760
  53.8441770  97.7653420  64.9061890  55.2673620  98.2814640  64.9127590
  52.1938590  98.3045110  58.9100820  51.5751010  97.9664660  58.2627120
  52.1763040  97.6604870  59.6180010  51.6365150  94.4829650  66.3266630
  51.2236330  95.3083360  66.5806620  50.9041100  93.8974690  66.1342990
  43.7697940  97.2689550  61.1885300  43.3654940  96.5566800  60.6931200
  43.8561060  96.9242790  62.0773340  42.4826560  94.0432760  64.9684340
  43.0341150  94.1528100  64.1937590  42.9970070  94.4170360  65.6839570
  50.3703290  97.5431920  55.9173570  50.8096570  96.7054350  55.7711390
  51.0831710  98.1761320  56.0037710  42.1569290  97.5652120  68.5789680
  42.0177060  98.4374920  68.9477080  41.2750650  97.2224930  68.4337620
  53.9520430  88.7974730  54.2314610  53.6393090  88.8901560  55.1313680
  54.7132900  89.3755760  54.1812040  40.4702570  96.1634530  58.6891950
  40.3500170  96.8896620  58.0773220  40.1603460  95.3937440  58.2119860
  55.1621720  93.5346230  70.2088750  54.5465990  94.0425900  69.6804210
  54.8418140  92.6344560  70.1514690  42.9366230  89.5069600  62.0715620
  42.4934380  90.2879140  61.7400140  43.4951220  89.8299490  62.7786560
  47.2236040  92.3738120  67.6750940  46.7615410  92.5821140  68.4870880
  46.8214150  91.5597470  67.3721610  52.2240550  93.5947070  68.8047600
  51.3734140  93.2952820  69.1256670  52.0642340  93.8389080  67.8931420
  49.3190260  95.0948820  70.9046390  49.6443670  94.2612570  70.5648620
  50.1070590  95.6177340  71.0524720  46.0525050  89.1280300  56.9521450
  45.4279230  89.1240170  57.6774760  45.9655170  88.2611260  56.5557420
  44.9742130  90.0516930  63.9305220  45.2714460  90.9579760  63.8497240
  45.5227690  89.5635710  63.3164790  42.7280450  94.6303170  59.7996870
  42.5021370  94.4140340  60.7043490  41.9472980  95.0631630  59.4542840
  49.9578210  94.6366540  58.3987520  49.3587100  95.3602340  58.2151140
  50.5057820  94.5743320  57.6163970  45.1679660  95.5288750  70.4657140
  45.0723260  94.5883480  70.3157540  46.0111640  95.7503820  70.0705210
  48.5643080  93.2730080  60.4290800  48.9572650  93.5902280  59.6159490
  48.9259930  92.3941960  60.5435320  40.2990200  91.9402420  68.6190920
  39.9053590  92.7877630  68.8263700  39.6108600  91.3028790  68.8099560
  46.8735250  92.0237390  71.6887660  46.1833570  91.8309590  72.3233750
  47.6167550  92.3072030  72.2211960  37.6007250  89.8630880  62.6521000
  37.3120300  90.4333740  63.3645980  38.3453010  89.3835330  63.0152230
  37.7877480  93.8051000  53.8623720  37.7052150  94.7481760  54.0038710
  37.4360540  93.6625910  52.9836070  49.1498220  95.8635830  64.5241580
  48.4179340  96.3722640  64.8731680  48.7522560  95.0465810  64.2230360
  45.5875610  92.5390030  62.9294070  45.5911670  92.0979980  62.0798610
  46.4826730  92.8607360  63.0365890  41.4377990  92.4216520  61.8888280
  41.0978040  92.8991750  62.6455330  40.6755310  91.9681640  61.5289380
  45.6495760  93.5402110  55.9200830  45.7708580  93.4988590  56.8686650
  45.2644270  94.4026260  55.7647560  49.6124130  91.3169510  63.9364520
  49.6296870  91.7678160  64.7806370  49.3639710  90.4175150  64.1497960
  44.6617260  95.8503250  55.3184130  44.0934160  95.4021500  54.6920040
  45.3706260  96.2096030  54.7849280  53.0394880  88.7301690  69.7750900
  53.3640650  87.9991350  70.3008880  53.0751390  88.4115330  68.8731890
  45.8883580  96.5991810  64.6759480  46.2553710  96.1250380  65.4220820
  45.6988640  97.4733380  65.0167820  38.7524070  91.3435500  60.8052950
  38.4670990  90.9791170  61.6431570  38.6902930  90.6115960  60.1916090
  43.6782950  95.6400450  66.9943690  43.3740020  96.5192430  67.2194050
  44.6329410  95.7000240  67.0301130  48.4262660  90.2364760  57.5266320
  47.6127270  89.7377930  57.4511630  48.2324610  91.0763010  57.1102670
  51.1411050  94.6084410  55.8228480  52.0290670  94.9201640  55.6479820
  51.1116140  93.7356660  55.4309060  39.7346680  96.4803190  68.1415050
  39.3761620  97.1457040  68.7288390  39.4401240  95.6486740  68.5127670
  42.9359800  96.9387430  71.0254600  42.6359940  97.0844610  70.1282420
  43.7071040  96.3792720  70.9327990  53.4125320  95.9196250  55.2908340
  53.3289040  96.3510470  54.4404780  54.1319510  96.3794600  55.7235160
  38.2454730  96.4794450  54.7649650  39.1149580  96.7619250  55.0485570
  37.7545050  97.2930320  54.6498460  45.4089540  97.8667660  58.8857930
  45.8652320  98.6772910  59.1118120  45.0577750  97.5490800  59.7176420
  41.3101320  88.2105310  59.3580450  41.1815950  88.2023210  60.3065370
  40.4863340  88.5488400  59.0071460  38.3095250  89.9696430  68.8187150
  37.5953770  90.1693350  69.4239760  38.7290290  89.1936000  69.1901950
  49.8034030  92.4618740  66.5688600  50.1714850  91.6413950  66.8968170
  48.9432230  92.5220630  66.9844250  53.1696060  91.4175680  57.3776160
  52.5409220  91.5221350  56.6634390  52.6747980  91.6372460  58.1670040
  45.1380090  93.6961630  58.7934040  44.4296240  94.1647970  59.2347650
  45.4224570  93.0383640  59.4279230  46.7636020  95.1158330  66.7926570
  47.2621270  95.5904150  67.4578420  46.9058970  94.1921850  66.9996600
  49.1695520  90.4212290  60.2329830  49.0463300  90.4398420  59.2839340
  50.1180080  90.4691230  60.3528230  43.3415110  92.0046710  56.1684750
  44.1905640  92.4416860  56.1024940  42.9746380  92.3166970  56.9956810
  53.9702880  91.3326290  67.6354960  53.4676480  92.0731690  67.9748770
  54.7859540  91.7210290  67.3191750  52.2624890  96.5759470  61.0816320
  51.3215030  96.5909700  61.2564010  52.5768960  95.7895430  61.5276620
  42.2406530  98.2579070  54.6420280  43.0069800  98.1460430  55.2045710
  42.3181220  97.5617040  53.9897050  40.9353290  95.6904140  55.3253170
  41.0156880  94.7431650  55.4370570  41.8273040  96.0211020  55.4313830
  38.4624090  97.5119060  70.5609340  38.9663110  96.9326340  71.1325570
  37.7231510  97.7959290  71.0985710  40.4947170  95.6548650  71.4559410
  40.5352510  95.3562520  72.3644640  41.3492670  96.0556260  71.2966930
  44.2725560  98.2544200  56.6162920  44.6941980  98.0884070  57.4594310
  44.3976400  97.4444430  56.1218060  42.4352980  94.2340750  69.4233900
  41.9049440  93.7431700  68.7957240  43.1041050  94.6624950  68.8891830
  46.7853200  97.2781810  53.8640020  47.3058860  96.5630830  53.4981170
  47.4321600  97.9167680  54.1640530  51.8053210  96.0406370  71.1914240
  52.3873980  95.2858690  71.1034720  51.9814980  96.5713810  70.4145720
  42.9225280  91.2003120  69.5031190  42.8282150  90.5823870  68.7782060
  42.3422670  91.9269410  69.2761100  45.6886720  89.7576360  66.5358580
  45.2404020  89.7800620  65.6904130  45.0551920  89.3595380  67.1328880
  48.4310170  96.3846870  68.5408860  48.5506380  95.7888010  69.2803700
  49.2904170  96.4216560  68.1210160  50.7698070  96.9384060  67.1171370
  50.2433290  97.4626680  66.5136510  51.1129410  97.5711450  67.7481100
  43.1684460  94.3277430  53.5621080  42.9673520  93.4644790  53.9234420
  42.9976510  94.2410790  52.6242680  45.1978940  92.9268220  69.7984680
  45.7878630  92.6184070  70.4862500  44.3799180  92.4547970  69.9544580
  50.0172370  92.5434030  70.0317700  49.3287890  91.8815570  69.9667690
  50.7378390  92.0972300  70.4766160  50.6472770  89.1385660  56.0907960
  50.9275060  88.2953560  56.4467380  49.8738500  89.3708770  56.6046710
  41.9667260  91.4278050  53.5498960  42.2693160  91.4345480  52.6418110
  42.7061850  91.0775910  54.0466620  45.1852190  90.3712670  54.5355160
  44.8374190  89.6936660  53.9557610  45.3864960  89.9102180  55.3498550
  38.5257830  96.9000320  60.9319530  37.8706670  96.6311960  60.2879230
  39.3635780  96.7904800  60.4821510  51.4748270  91.6941610  55.1538020
  51.8933150  91.5072590  54.3134680  51.1684330  90.8420660  55.4640950
  54.9738000  96.6065750  58.8513820  54.5981600  95.8393680  58.4195110
  54.2441120  96.9888450  59.3388750  39.5633760  97.2852890  65.4722870
  39.9306800  97.1980290  66.3518890  38.9944580  96.5219440  65.3729730
  54.3637620  95.7537270  68.4853340  54.1323710  95.5250020  67.5851290
  54.6242170  96.6736820  68.4398230  39.1149760  94.1961980  69.3781290
  38.2205810  94.1628740  69.7175000  39.6547310  94.3948770  70.1432540
  52.8025690  90.9793700  71.2633040  53.6795870  90.9877100  71.6467040
  52.8146530  90.2424540  70.6525390  37.7395910  94.1099250  56.8744860
  36.8359990  94.3729450  56.6996520  38.2236530  94.3810420  56.0944820
  54.2488960  94.8323240  62.1521060  54.7726440  94.3385890  61.5211230
  54.8348380  94.9673600  62.8968630  54.4278680  94.9163110  65.6740610
  53.4781390  94.8826650  65.7885600  54.6091690  95.8263220  65.4390380
  40.2823120  93.1664790  54.7839240  40.9914820  92.7448010  54.2986520
  39.5663060  93.2340020  54.1522590  39.9297280  89.2204120  53.8241890
  40.6525410  89.7613060  54.1423110  40.2021800  88.9467540  52.9483430
  53.7388930  94.0896590  58.0913470  54.2348050  93.8567460  58.8762350
  53.5405000  93.2508430  57.6751110  39.6189470  88.4710310  63.7264510
  40.2665660  87.9207690  63.2859670  40.0391310  88.7253460  64.5480320
  55.1676090  92.7257540  60.6251150  55.0575370  92.5713580  61.5633420
  55.9283680  92.1978480  60.3826560  53.5141810  88.6651670  67.0834150
  54.1514030  89.2785810  67.4493340  53.6616700  88.7012330  66.1383380
  56.0566360  90.5565460  53.8657290  56.9815670  90.4246640  53.6575580
  56.0342150  90.6358280  54.8193740  56.1304850  91.3276120  56.4914000
  55.3356350  91.2621240  57.0206910  56.3348130  92.2626760  56.4799350
  39.3721470  88.6265980  66.4689830  39.0236290  89.0829800  67.2348010
  39.0409170  87.7323110  66.5512260  46.8846290  89.8177860  69.9909250
  46.8235180  90.4099690  70.7404660  47.8246670  89.7103820  69.8459510
  49.5220850  89.4747920  69.6301540  50.1361260  89.7927210  68.9682620
  50.0670410  88.9896510  70.2497400  40.0442110  88.1542180  69.7440600
  40.5925100  87.9730230  68.9806710  40.1097420  87.3636290  70.2796910
  50.2628890  88.0380060  65.9570830  49.3888730  88.3715170  65.7543760
  50.1539640  87.5653240  66.7822700  51.1700870  90.2450930  67.3412550
  50.8414230  89.4302690  66.9614280  52.1183170  90.2020740  67.2178240
  48.0103710  88.9549900  64.8963740  47.2275500  89.4295400  65.1760500
  47.7166640  88.0504730  64.7876920  52.5624780  89.6573000  62.9412830
  53.0032870  89.6018100  62.0934430  52.2932370  90.5731010  63.0123010
  54.4263350  89.2888240  60.9521650  54.3651750  88.3449460  60.8052670
  55.2055380  89.3968330  61.4975110  39.3544120  89.2597380  57.4177460
  40.1123480  89.3726260  56.8441490  38.8921290  90.0966580  57.3720890
  45.8957930  91.3736650  60.4079770  45.0832440  90.9993540  60.0675650
  46.3999570  90.6181730  60.7100960  50.3982910  88.0379100  61.6462840
  51.0012280  88.6099310  62.1211360  49.6575900  88.6018540  61.4236740
  53.5417510  88.4400660  56.9203120  53.7368140  89.3384110  57.1870550
  52.7547380  88.2087740  57.4136070  41.7269270  89.7861430  55.9579430
  42.2562030  88.9991230  55.8287380  42.3597590  90.4652620  56.1914960
  43.9207110  89.5236570  59.0124820  43.2909850  88.8223880  59.1794950
  43.3812250  90.2840700  58.7957980  44.0462670  88.8020550  71.4477310
  43.7646940  89.3054150  70.6838130  44.4282370  88.0042300  71.0819440
  50.6478130  88.2174130  72.0257780  50.5343580  88.5368740  72.9209300
  51.4647870  88.6186640  71.7295060  49.5536280  96.2366600  42.3892520
  49.4730330  95.3221210  42.1184230  49.1400700  96.7333670  41.6832230
  47.6854320  98.0145620  44.2701790  46.9096420  97.5346060  44.5600360
  48.3367250  97.3351270  44.0957950  41.7020150  98.3265430  45.1477550
  40.8705030  98.0714140  45.5474060  42.3101130  98.3976200  45.8835470
  40.1112100  93.2867320  38.9319940  39.2228800  93.6283290  38.8299820
  40.3953290  93.0867640  38.0400770  38.0745110  95.8872970  44.8159640
  38.6461220  95.1195170  44.8163280  38.0746650  96.1861730  43.9066250
  39.3169980  91.2957330  46.6028570  39.1372820  90.3983080  46.8831330
  38.9150060  91.8429200  47.2775520  48.1568480  93.4973190  44.5040880
  48.5333300  92.6245070  44.3914550  48.0587990  93.8331890  43.6131320
  42.2873490  91.8698820  39.9658320  42.3940240  92.7702550  40.2727080
  41.3765850  91.8216790  39.6752970  51.9392600  90.9923630  41.4369220
  52.7602220  90.5020200  41.4794700  51.9726680  91.5821290  42.1901060
  39.9356650  93.7917830  45.2110910  40.6166760  94.0556200  45.8298310
  39.6204700  92.9518700  45.5448920  44.1281220  94.8385190  44.2983500
  44.6359440  95.3366160  44.9388520  44.6594460  94.0620390  44.1222860
  56.2292150  93.0090380  48.0012850  55.5244320  93.3972090  47.4827960
  56.4950070  93.7040670  48.6033780  42.4117320  89.4783750  48.5646920
  42.4135760  89.9956140  47.7592820  41.5821630  89.0013930  48.5416850
  52.1754080  92.9324010  44.2096760  51.4709650  93.2208900  44.7899870
  52.5366240  93.7424120  43.8496320  42.0932650  91.1893710  46.5717370
  42.4349460  92.0335760  46.2771240  41.1548460  91.3377450  46.6882710
  55.2441000  92.3778800  44.6005970  54.2965910  92.4117780  44.7321400
  55.5690990  93.1917750  44.9855330  45.7760540  88.6775980  42.8961960
  46.0835520  88.1222870  42.1797460  44.8461240  88.8120440  42.7134950
  48.1641300  96.7424810  39.6322080  47.2370580  96.6762190  39.8610550
  48.3166120  97.6804940  39.5177320  48.1510380  93.0141810  36.6289240
  47.2114050  93.1755770  36.7141700  48.4693640  93.7327490  36.0825230
  54.6723140  97.6960330  46.6068270  53.8441770  97.7653420  46.1318400
  55.2673620  98.2814640  46.1384100  52.1938590  98.3045110  40.1357330
  51.5751010  97.9664660  39.4883630  52.1763040  97.6604870  40.8436520
  51.6365150  94.4829650  47.5523140  51.2236330  95.3083360  47.8063130
  50.9041100  93.8974690  47.3599500  43.7697940  97.2689550  42.4141810
  43.3654940  96.5566800  41.9187710  43.8561060  96.9242790  43.3029850
  42.4826560  94.0432760  46.1940850  43.0341150  94.1528100  45.4194100
  42.9970070  94.4170360  46.9096080  50.3703290  97.5431920  37.1430080
  50.8096570  96.7054350  36.9967900  51.0831710  98.1761320  37.2294220
  42.1569290  97.5652120  49.8046190  42.0177060  98.4374920  50.1733590
  41.2750650  97.2224930  49.6594130  53.9520430  88.7974730  35.4571120
  53.6393090  88.8901560  36.3570190  54.7132900  89.3755760  35.4068550
  40.4702570  96.1634530  39.9148460  40.3500170  96.8896620  39.3029730
  40.1603460  95.3937440  39.4376370  55.1621720  93.5346230  51.4345260
  54.5465990  94.0425900  50.9060720  54.8418140  92.6344560  51.3771200
  42.9366230  89.5069600  43.2972130  42.4934380  90.2879140  42.9656650
  43.4951220  89.8299490  44.0043070  47.2236040  92.3738120  48.9007450
  46.7615410  92.5821140  49.7127390  46.8214150  91.5597470  48.5978120
  52.2240550  93.5947070  50.0304110  51.3734140  93.2952820  50.3513180
  52.0642340  93.8389080  49.1187930  49.3190260  95.0948820  52.1302900
  49.6443670  94.2612570  51.7905130  50.1070590  95.6177340  52.2781230
  46.0525050  89.1280300  38.1777960  45.4279230  89.1240170  38.9031270
  45.9655170  88.2611260  37.7813930  44.9742130  90.0516930  45.1561730
  45.2714460  90.9579760  45.0753750  45.5227690  89.5635710  44.5421300
  42.7280450  94.6303170  41.0253380  42.5021370  94.4140340  41.9300000
  41.9472980  95.0631630  40.6799350  49.9578210  94.6366540  39.6244030
  49.3587100  95.3602340  39.4407650  50.5057820  94.5743320  38.8420480
  45.1679660  95.5288750  51.6913650  45.0723260  94.5883480  51.5414050
  46.0111640  95.7503820  51.2961720  48.5643080  93.2730080  41.6547310
  48.9572650  93.5902280  40.8416000  48.9259930  92.3941960  41.7691830
  40.2990200  91.9402420  49.8447430  39.9053590  92.7877630  50.0520210
  39.6108600  91.3028790  50.0356070  46.8735250  92.0237390  52.9144170
  46.1833570  91.8309590  53.5490260  47.6167550  92.3072030  53.4468470
  37.6007250  89.8630880  43.8777510  37.3120300  90.4333740  44.5902490
  38.3453010  89.3835330  44.2408740  37.7877480  93.8051000  35.0880230
  37.7052150  94.7481760  35.2295220  37.4360540  93.6625910  34.2092580
  49.1498220  95.8635830  45.7498090  48.4179340  96.3722640  46.0988190
  48.7522560  95.0465810  45.4486870  45.5875610  92.5390030  44.1550580
  45.5911670  92.0979980  43.3055120  46.4826730  92.8607360  44.2622400
  41.4377990  92.4216520  43.1144790  41.0978040  92.8991750  43.8711840
  40.6755310  91.9681640  42.7545890  45.6495760  93.5402110  37.1457340
  45.7708580  93.4988590  38.0943160  45.2644270  94.4026260  36.9904070
  49.6124130  91.3169510  45.1621030  49.6296870  91.7678160  46.0062880
  49.3639710  90.4175150  45.3754470  44.6617260  95.8503250  36.5440640
  44.0934160  95.4021500  35.9176550  45.3706260  96.2096030  36.0105790
  53.0394880  88.7301690  51.0007410  53.3640650  87.9991350  51.5265390
  53.0751390  88.4115330  50.0988400  45.8883580  96.5991810  45.9015990
  46.2553710  96.1250380  46.6477330  45.6988640  97.4733380  46.2424330
  38.7524070  91.3435500  42.0309460  38.4670990  90.9791170  42.8688080
  38.6902930  90.6115960  41.4172600  43.6782950  95.6400450  48.2200200
  43.3740020  96.5192430  48.4450560  44.6329410  95.7000240  48.2557640
  48.4262660  90.2364760  38.7522830  47.6127270  89.7377930  38.6768140
  48.2324610  91.0763010  38.3359180  51.1411050  94.6084410  37.0484990
  52.0290670  94.9201640  36.8736330  51.1116140  93.7356660  36.6565570
  39.7346680  96.4803190  49.3671560  39.3761620  97.1457040  49.9544900
  39.4401240  95.6486740  49.7384180  42.9359800  96.9387430  52.2511110
  42.6359940  97.0844610  51.3538930  43.7071040  96.3792720  52.1584500
  53.4125320  95.9196250  36.5164850  53.3289040  96.3510470  35.6661290
  54.1319510  96.3794600  36.9491670  38.2454730  96.4794450  35.9906160
  39.1149580  96.7619250  36.2742080  37.7545050  97.2930320  35.8754970
  45.4089540  97.8667660  40.1114440  45.8652320  98.6772910  40.3374630
  45.0577750  97.5490800  40.9432930  41.3101320  88.2105310  40.5836960
  41.1815950  88.2023210  41.5321880  40.4863340  88.5488400  40.2327970
  38.3095250  89.9696430  50.0443660  37.5953770  90.1693350  50.6496270
  38.7290290  89.1936000  50.4158460  49.8034030  92.4618740  47.7945110
  50.1714850  91.6413950  48.1224680  48.9432230  92.5220630  48.2100760
  53.1696060  91.4175680  38.6032670  52.5409220  91.5221350  37.8890900
  52.6747980  91.6372460  39.3926550  45.1380090  93.6961630  40.0190550
  44.4296240  94.1647970  40.4604160  45.4224570  93.0383640  40.6535740
  46.7636020  95.1158330  48.0183080  47.2621270  95.5904150  48.6834930
  46.9058970  94.1921850  48.2253110  49.1695520  90.4212290  41.4586340
  49.0463300  90.4398420  40.5095850  50.1180080  90.4691230  41.5784740
  43.3415110  92.0046710  37.3941260  44.1905640  92.4416860  37.3281450
  42.9746380  92.3166970  38.2213320  53.9702880  91.3326290  48.8611470
  53.4676480  92.0731690  49.2005280  54.7859540  91.7210290  48.5448260
  52.2624890  96.5759470  42.3072830  51.3215030  96.5909700  42.4820520
  52.5768960  95.7895430  42.7533130  42.2406530  98.2579070  35.8676790
  43.0069800  98.1460430  36.4302220  42.3181220  97.5617040  35.2153560
  40.9353290  95.6904140  36.5509680  41.0156880  94.7431650  36.6627080
  41.8273040  96.0211020  36.6570340  38.4624090  97.5119060  51.7865850
  38.9663110  96.9326340  52.3582080  37.7231510  97.7959290  52.3242220
  40.4947170  95.6548650  52.6815920  40.5352510  95.3562520  53.5901150
  41.3492670  96.0556260  52.5223440  44.2725560  98.2544200  37.8419430
  44.6941980  98.0884070  38.6850820  44.3976400  97.4444430  37.3474570
  42.4352980  94.2340750  50.6490410  41.9049440  93.7431700  50.0213750
  43.1041050  94.6624950  50.1148340  46.7853200  97.2781810  35.0896530
  47.3058860  96.5630830  34.7237680  47.4321600  97.9167680  35.3897040
  51.8053210  96.0406370  52.4170750  52.3873980  95.2858690  52.3291230
  51.9814980  96.5713810  51.6402230  42.9225280  91.2003120  50.7287700
  42.8282150  90.5823870  50.0038570  42.3422670  91.9269410  50.5017610
  45.6886720  89.7576360  47.7615090  45.2404020  89.7800620  46.9160640
  45.0551920  89.3595380  48.3585390  48.4310170  96.3846870  49.7665370
  48.5506380  95.7888010  50.5060210  49.2904170  96.4216560  49.3466670
  50.7698070  96.9384060  48.3427880  50.2433290  97.4626680  47.7393020
  51.1129410  97.5711450  48.9737610  43.1684460  94.3277430  34.7877590
  42.9673520  93.4644790  35.1490930  42.9976510  94.2410790  33.8499190
  45.1978940  92.9268220  51.0241190  45.7878630  92.6184070  51.7119010
  44.3799180  92.4547970  51.1801090  50.0172370  92.5434030  51.2574210
  49.3287890  91.8815570  51.1924200  50.7378390  92.0972300  51.7022670
  50.6472770  89.1385660  37.3164470  50.9275060  88.2953560  37.6723890
  49.8738500  89.3708770  37.8303220  41.9667260  91.4278050  34.7755470
  42.2693160  91.4345480  33.8674620  42.7061850  91.0775910  35.2723130
  45.1852190  90.3712670  35.7611670  44.8374190  89.6936660  35.1814120
  45.3864960  89.9102180  36.5755060  38.5257830  96.9000320  42.1576040
  37.8706670  96.6311960  41.5135740  39.3635780  96.7904800  41.7078020
  51.4748270  91.6941610  36.3794530  51.8933150  91.5072590  35.5391190
  51.1684330  90.8420660  36.6897460  54.9738000  96.6065750  40.0770330
  54.5981600  95.8393680  39.6451620  54.2441120  96.9888450  40.5645260
  39.5633760  97.2852890  46.6979380  39.9306800  97.1980290  47.5775400
  38.9944580  96.5219440  46.5986240  54.3637620  95.7537270  49.7109850
  54.1323710  95.5250020  48.8107800  54.6242170  96.6736820  49.6654740
  39.1149760  94.1961980  50.6037800  38.2205810  94.1628740  50.9431510
  39.6547310  94.3948770  51.3689050  52.8025690  90.9793700  52.4889550
  53.6795870  90.9877100  52.8723550  52.8146530  90.2424540  51.8781900
  37.7395910  94.1099250  38.1001370  36.8359990  94.3729450  37.9253030
  38.2236530  94.3810420  37.3201330  54.2488960  94.8323240  43.3777570
  54.7726440  94.3385890  42.7467740  54.8348380  94.9673600  44.1225140
  54.4278680  94.9163110  46.8997120  53.4781390  94.8826650  47.0142110
  54.6091690  95.8263220  46.6646890  40.2823120  93.1664790  36.0095750
  40.9914820  92.7448010  35.5243030  39.5663060  93.2340020  35.3779100
  39.9297280  89.2204120  35.0498400  40.6525410  89.7613060  35.3679620
  40.2021800  88.9467540  34.1739940  53.7388930  94.0896590  39.3169980
  54.2348050  93.8567460  40.1018860  53.5405000  93.2508430  38.9007620
  39.6189470  88.4710310  44.9521020  40.2665660  87.9207690  44.5116180
  40.0391310  88.7253460  45.7736830  55.1676090  92.7257540  41.8507660
  55.0575370  92.5713580  42.7889930  55.9283680  92.1978480  41.6083070
  53.5141810  88.6651670  48.3090660  54.1514030  89.2785810  48.6749850
  53.6616700  88.7012330  47.3639890  56.0566360  90.5565460  35.0913800
  56.9815670  90.4246640  34.8832090  56.0342150  90.6358280  36.0450250
  56.1304850  91.3276120  37.7170510  55.3356350  91.2621240  38.2463420
  56.3348130  92.2626760  37.7055860  39.3721470  88.6265980  47.6946340
  39.0236290  89.0829800  48.4604520  39.0409170  87.7323110  47.7768770
  46.8846290  89.8177860  51.2165760  46.8235180  90.4099690  51.9661170
  47.8246670  89.7103820  51.0716020  49.5220850  89.4747920  50.8558050
  50.1361260  89.7927210  50.1939130  50.0670410  88.9896510  51.4753910
  40.0442110  88.1542180  50.9697110  40.5925100  87.9730230  50.2063220
  40.1097420  87.3636290  51.5053420  50.2628890  88.0380060  47.1827340
  49.3888730  88.3715170  46.9800270  50.1539640  87.5653240  48.0079210
  51.1700870  90.2450930  48.5669060  50.8414230  89.4302690  48.1870790
  52.1183170  90.2020740  48.4434750  48.0103710  88.9549900  46.1220250
  47.2275500  89.4295400  46.4017010  47.7166640  88.0504730  46.0133430
  52.5624780  89.6573000  44.1669340  53.0032870  89.6018100  43.3190940
  52.2932370  90.5731010  44.2379520  54.4263350  89.2888240  42.1778160
  54.3651750  88.3449460  42.0309180  55.2055380  89.3968330  42.7231620
  39.3544120  89.2597380  38.6433970  40.1123480  89.3726260  38.0698000
  38.8921290  90.0966580  38.5977400  45.8957930  91.3736650  41.6336280
  45.0832440  90.9993540  41.2932160  46.3999570  90.6181730  41.9357470
  50.3982910  88.0379100  42.8719350  51.0012280  88.6099310  43.3467870
  49.6575900  88.6018540  42.6493250  53.5417510  88.4400660  38.1459630
  53.7368140  89.3384110  38.4127060  52.7547380  88.2087740  38.6392580
  41.7269270  89.7861430  37.1835940  42.2562030  88.9991230  37.0543890
  42.3597590  90.4652620  37.4171470  43.9207110  89.5236570  40.2381330
  43.2909850  88.8223880  40.4051460  43.3812250  90.2840700  40.0214490
  44.0462670  88.8020550  52.6733820  43.7646940  89.3054150  51.9094640
  44.4282370  88.0042300  52.3075950  50.6478130  88.2174130  53.2514290
  50.5343580  88.5368740  54.1465810  51.4647870  88.6186640  52.9551570
  49.5536280  96.2366600  23.6149030  49.4730330  95.3221210  23.3440740
  49.1400700  96.7333670  22.9088740  47.6854320  98.0145620  25.4958300
  46.9096420  97.5346060  25.7856870  48.3367250  97.3351270  25.3214460
  41.7020150  98.3265430  26.3734060  40.8705030  98.0714140  26.7730570
  42.3101130  98.3976200  27.1091980  40.1112100  93.2867320  20.1576450
  39.2228800  93.6283290  20.0556330  40.3953290  93.0867640  19.2657280
  38.0745110  95.8872970  26.0416150  38.6461220  95.1195170  26.0419790
  38.0746650  96.1861730  25.1322760  39.3169980  91.2957330  27.8285080
  39.1372820  90.3983080  28.1087840  38.9150060  91.8429200  28.5032030
  48.1568480  93.4973190  25.7297390  48.5333300  92.6245070  25.6171060
  48.0587990  93.8331890  24.8387830  42.2873490  91.8698820  21.1914830
  42.3940240  92.7702550  21.4983590  41.3765850  91.8216790  20.9009480
  51.9392600  90.9923630  22.6625730  52.7602220  90.5020200  22.7051210
  51.9726680  91.5821290  23.4157570  39.9356650  93.7917830  26.4367420
  40.6166760  94.0556200  27.0554820  39.6204700  92.9518700  26.7705430
  44.1281220  94.8385190  25.5240010  44.6359440  95.3366160  26.1645030
  44.6594460  94.0620390  25.3479370  56.2292150  93.0090380  29.2269360
  55.5244320  93.3972090  28.7084470  56.4950070  93.7040670  29.8290290
  42.4117320  89.4783750  29.7903430  42.4135760  89.9956140  28.9849330
  41.5821630  89.0013930  29.7673360  52.1754080  92.9324010  25.4353270
  51.4709650  93.2208900  26.0156380  52.5366240  93.7424120  25.0752830
  42.0932650  91.1893710  27.7973880  42.4349460  92.0335760  27.5027750
  41.1548460  91.3377450  27.9139220  55.2441000  92.3778800  25.8262480
  54.2965910  92.4117780  25.9577910  55.5690990  93.1917750  26.2111840
  45.7760540  88.6775980  24.1218470  46.0835520  88.1222870  23.4053970
  44.8461240  88.8120440  23.9391460  48.1641300  96.7424810  20.8578590
  47.2370580  96.6762190  21.0867060  48.3166120  97.6804940  20.7433830
  48.1510380  93.0141810  17.8545750  47.2114050  93.1755770  17.9398210
  48.4693640  93.7327490  17.3081740  54.6723140  97.6960330  27.8324780
  53.8441770  97.7653420  27.3574910  55.2673620  98.2814640  27.3640610
  52.1938590  98.3045110  21.3613840  51.5751010  97.9664660  20.7140140
  52.1763040  97.6604870  22.0693030  51.6365150  94.4829650  28.7779650
  51.2236330  95.3083360  29.0319640  50.9041100  93.8974690  28.5856010
  43.7697940  97.2689550  23.6398320  43.3654940  96.5566800  23.1444220
  43.8561060  96.9242790  24.5286360  42.4826560  94.0432760  27.4197360
  43.0341150  94.1528100  26.6450610  42.9970070  94.4170360  28.1352590
  50.3703290  97.5431920  18.3686590  50.8096570  96.7054350  18.2224410
  51.0831710  98.1761320  18.4550730  42.1569290  97.5652120  31.0302700
  42.0177060  98.4374920  31.3990100  41.2750650  97.2224930  30.8850640
  53.9520430  88.7974730  16.6827630  53.6393090  88.8901560  17.5826700
  54.7132900  89.3755760  16.6325060  40.4702570  96.1634530  21.1404970
  40.3500170  96.8896620  20.5286240  40.1603460  95.3937440  20.6632880
  55.1621720  93.5346230  32.6601770  54.5465990  94.0425900  32.1317230
  54.8418140  92.6344560  32.6027710  42.9366230  89.5069600  24.5228640
  42.4934380  90.2879140  24.1913160  43.4951220  89.8299490  25.2299580
  47.2236040  92.3738120  30.1263960  46.7615410  92.5821140  30.9383900
  46.8214150  91.5597470  29.8234630  52.2240550  93.5947070  31.2560620
  51.3734140  93.2952820  31.5769690  52.0642340  93.8389080  30.3444440
  49.3190260  95.0948820  33.3559410  49.6443670  94.2612570  33.0161640
  50.1070590  95.6177340  33.5037740  46.0525050  89.1280300  19.4034470
  45.4279230  89.1240170  20.1287780  45.9655170  88.2611260  19.0070440
  44.9742130  90.0516930  26.3818240  45.2714460  90.9579760  26.3010260
  45.5227690  89.5635710  25.7677810  42.7280450  94.6303170  22.2509890
  42.5021370  94.4140340  23.1556510  41.9472980  95.0631630  21.9055860
  49.9578210  94.6366540  20.8500540  49.3587100  95.3602340  20.6664160
  50.5057820  94.5743320  20.0676990  45.1679660  95.5288750  32.9170160
  45.0723260  94.5883480  32.7670560  46.0111640  95.7503820  32.5218230
  48.5643080  93.2730080  22.8803820  48.9572650  93.5902280  22.0672510
  48.9259930  92.3941960  22.9948340  40.2990200  91.9402420  31.0703940
  39.9053590  92.7877630  31.2776720  39.6108600  91.3028790  31.2612580
  46.8735250  92.0237390  34.1400680  46.1833570  91.8309590  34.7746770
  47.6167550  92.3072030  34.6724980  37.6007250  89.8630880  25.1034020
  37.3120300  90.4333740  25.8159000  38.3453010  89.3835330  25.4665250
  37.7877480  93.8051000  16.3136740  37.7052150  94.7481760  16.4551730
  37.4360540  93.6625910  15.4349090  49.1498220  95.8635830  26.9754600
  48.4179340  96.3722640  27.3244700  48.7522560  95.0465810  26.6743380
  45.5875610  92.5390030  25.3807090  45.5911670  92.0979980  24.5311630
  46.4826730  92.8607360  25.4878910  41.4377990  92.4216520  24.3401300
  41.0978040  92.8991750  25.0968350  40.6755310  91.9681640  23.9802400
  45.6495760  93.5402110  18.3713850  45.7708580  93.4988590  19.3199670
  45.2644270  94.4026260  18.2160580  49.6124130  91.3169510  26.3877540
  49.6296870  91.7678160  27.2319390  49.3639710  90.4175150  26.6010980
  44.6617260  95.8503250  17.7697150  44.0934160  95.4021500  17.1433060
  45.3706260  96.2096030  17.2362300  53.0394880  88.7301690  32.2263920
  53.3640650  87.9991350  32.7521900  53.0751390  88.4115330  31.3244910
  45.8883580  96.5991810  27.1272500  46.2553710  96.1250380  27.8733840
  45.6988640  97.4733380  27.4680840  38.7524070  91.3435500  23.2565970
  38.4670990  90.9791170  24.0944590  38.6902930  90.6115960  22.6429110
  43.6782950  95.6400450  29.4456710  43.3740020  96.5192430  29.6707070
  44.6329410  95.7000240  29.4814150  48.4262660  90.2364760  19.9779340
  47.6127270  89.7377930  19.9024650  48.2324610  91.0763010  19.5615690
  51.1411050  94.6084410  18.2741500  52.0290670  94.9201640  18.0992840
  51.1116140  93.7356660  17.8822080  39.7346680  96.4803190  30.5928070
  39.3761620  97.1457040  31.1801410  39.4401240  95.6486740  30.9640690
  42.9359800  96.9387430  33.4767620  42.6359940  97.0844610  32.5795440
  43.7071040  96.3792720  33.3841010  53.4125320  95.9196250  17.7421360
  53.3289040  96.3510470  16.8917800  54.1319510  96.3794600  18.1748180
  38.2454730  96.4794450  17.2162670  39.1149580  96.7619250  17.4998590
  37.7545050  97.2930320  17.1011480  45.4089540  97.8667660  21.3370950
  45.8652320  98.6772910  21.5631140  45.0577750  97.5490800  22.1689440
  41.3101320  88.2105310  21.8093470  41.1815950  88.2023210  22.7578390
  40.4863340  88.5488400  21.4584480  38.3095250  89.9696430  31.2700170
  37.5953770  90.1693350  31.8752780  38.7290290  89.1936000  31.6414970
  49.8034030  92.4618740  29.0201620  50.1714850  91.6413950  29.3481190
  48.9432230  92.5220630  29.4357270  53.1696060  91.4175680  19.8289180
  52.5409220  91.5221350  19.1147410  52.6747980  91.6372460  20.6183060
  45.1380090  93.6961630  21.2447060  44.4296240  94.1647970  21.6860670
  45.4224570  93.0383640  21.8792250  46.7636020  95.1158330  29.2439590
  47.2621270  95.5904150  29.9091440  46.9058970  94.1921850  29.4509620
  49.1695520  90.4212290  22.6842850  49.0463300  90.4398420  21.7352360
  50.1180080  90.4691230  22.8041250  43.3415110  92.0046710  18.6197770
  44.1905640  92.4416860  18.5537960  42.9746380  92.3166970  19.4469830
  53.9702880  91.3326290  30.0867980  53.4676480  92.0731690  30.4261790
  54.7859540  91.7210290  29.7704770  52.2624890  96.5759470  23.5329340
  51.3215030  96.5909700  23.7077030  52.5768960  95.7895430  23.9789640
  42.2406530  98.2579070  17.0933300  43.0069800  98.1460430  17.6558730
  42.3181220  97.5617040  16.4410070  40.9353290  95.6904140  17.7766190
  41.0156880  94.7431650  17.8883590  41.8273040  96.0211020  17.8826850
  38.4624090  97.5119060  33.0122360  38.9663110  96.9326340  33.5838590
  37.7231510  97.7959290  33.5498730  40.4947170  95.6548650  33.9072430
  40.5352510  95.3562520  34.8157660  41.3492670  96.0556260  33.7479950
  44.2725560  98.2544200  19.0675940  44.6941980  98.0884070  19.9107330
  44.3976400  97.4444430  18.5731080  42.4352980  94.2340750  31.8746920
  41.9049440  93.7431700  31.2470260  43.1041050  94.6624950  31.3404850
  46.7853200  97.2781810  16.3153040  47.3058860  96.5630830  15.9494190
  47.4321600  97.9167680  16.6153550  51.8053210  96.0406370  33.6427260
  52.3873980  95.2858690  33.5547740  51.9814980  96.5713810  32.8658740
  42.9225280  91.2003120  31.9544210  42.8282150  90.5823870  31.2295080
  42.3422670  91.9269410  31.7274120  45.6886720  89.7576360  28.9871600
  45.2404020  89.7800620  28.1417150  45.0551920  89.3595380  29.5841900
  48.4310170  96.3846870  30.9921880  48.5506380  95.7888010  31.7316720
  49.2904170  96.4216560  30.5723180  50.7698070  96.9384060  29.5684390
  50.2433290  97.4626680  28.9649530  51.1129410  97.5711450  30.1994120
  43.1684460  94.3277430  16.0134100  42.9673520  93.4644790  16.3747440
  42.9976510  94.2410790  15.0755700  45.1978940  92.9268220  32.2497700
  45.7878630  92.6184070  32.9375520  44.3799180  92.4547970  32.4057600
  50.0172370  92.5434030  32.4830720  49.3287890  91.8815570  32.4180710
  50.7378390  92.0972300  32.9279180  50.6472770  89.1385660  18.5420980
  50.9275060  88.2953560  18.8980400  49.8738500  89.3708770  19.0559730
  41.9667260  91.4278050  16.0011980  42.2693160  91.4345480  15.0931130
  42.7061850  91.0775910  16.4979640  45.1852190  90.3712670  16.9868180
  44.8374190  89.6936660  16.4070630  45.3864960  89.9102180  17.8011570
  38.5257830  96.9000320  23.3832550  37.8706670  96.6311960  22.7392250
  39.3635780  96.7904800  22.9334530  51.4748270  91.6941610  17.6051040
  51.8933150  91.5072590  16.7647700  51.1684330  90.8420660  17.9153970
  54.9738000  96.6065750  21.3026840  54.5981600  95.8393680  20.8708130
  54.2441120  96.9888450  21.7901770  39.5633760  97.2852890  27.9235890
  39.9306800  97.1980290  28.8031910  38.9944580  96.5219440  27.8242750
  54.3637620  95.7537270  30.9366360  54.1323710  95.5250020  30.0364310
  54.6242170  96.6736820  30.8911250  39.1149760  94.1961980  31.8294310
  38.2205810  94.1628740  32.1688020  39.6547310  94.3948770  32.5945560
  52.8025690  90.9793700  33.7146060  53.6795870  90.9877100  34.0980060
  52.8146530  90.2424540  33.1038410  37.7395910  94.1099250  19.3257880
  36.8359990  94.3729450  19.1509540  38.2236530  94.3810420  18.5457840
  54.2488960  94.8323240  24.6034080  54.7726440  94.3385890  23.9724250
  54.8348380  94.9673600  25.3481650  54.4278680  94.9163110  28.1253630
  53.4781390  94.8826650  28.2398620  54.6091690  95.8263220  27.8903400
  40.2823120  93.1664790  17.2352260  40.9914820  92.7448010  16.7499540
  39.5663060  93.2340020  16.6035610  39.9297280  89.2204120  16.2754910
  40.6525410  89.7613060  16.5936130  40.2021800  88.9467540  15.3996450
  53.7388930  94.0896590  20.5426490  54.2348050  93.8567460  21.3275370
  53.5405000  93.2508430  20.1264130  39.6189470  88.4710310  26.1777530
  40.2665660  87.9207690  25.7372690  40.0391310  88.7253460  26.9993340
  55.1676090  92.7257540  23.0764170  55.0575370  92.5713580  24.0146440
  55.9283680  92.1978480  22.8339580  53.5141810  88.6651670  29.5347170
  54.1514030  89.2785810  29.9006360  53.6616700  88.7012330  28.5896400
  56.0566360  90.5565460  16.3170310  56.9815670  90.4246640  16.1088600
  56.0342150  90.6358280  17.2706760  56.1304850  91.3276120  18.9427020
  55.3356350  91.2621240  19.4719930  56.3348130  92.2626760  18.9312370
  39.3721470  88.6265980  28.9202850  39.0236290  89.0829800  29.6861030
  39.0409170  87.7323110  29.0025280  46.8846290  89.8177860  32.4422270
  46.8235180  90.4099690  33.1917680  47.8246670  89.7103820  32.2972530
  49.5220850  89.4747920  32.0814560  50.1361260  89.7927210  31.4195640
  50.0670410  88.9896510  32.7010420  40.0442110  88.1542180  32.1953620
  40.5925100  87.9730230  31.4319730  40.1097420  87.3636290  32.7309930
  50.2628890  88.0380060  28.4083850  49.3888730  88.3715170  28.2056780
  50.1539640  87.5653240  29.2335720  51.1700870  90.2450930  29.7925570
  50.8414230  89.4302690  29.4127300  52.1183170  90.2020740  29.6691260
  48.0103710  88.9549900  27.3476760  47.2275500  89.4295400  27.6273520
  47.7166640  88.0504730  27.2389940  52.5624780  89.6573000  25.3925850
  53.0032870  89.6018100  24.5447450  52.2932370  90.5731010  25.4636030
  54.4263350  89.2888240  23.4034670  54.3651750  88.3449460  23.2565690
  55.2055380  89.3968330  23.9488130  39.3544120  89.2597380  19.8690480
  40.1123480  89.3726260  19.2954510  38.8921290  90.0966580  19.8233910
  45.8957930  91.3736650  22.8592790  45.0832440  90.9993540  22.5188670
  46.3999570  90.6181730  23.1613980  50.3982910  88.0379100  24.0975860
  51.0012280  88.6099310  24.5724380  49.6575900  88.6018540  23.8749760
  53.5417510  88.4400660  19.3716140  53.7368140  89.3384110  19.6383570
  52.7547380  88.2087740  19.8649090  41.7269270  89.7861430  18.4092450
  42.2562030  88.9991230  18.2800400  42.3597590  90.4652620  18.6427980
  43.9207110  89.5236570  21.4637840  43.2909850  88.8223880  21.6307970
  43.3812250  90.2840700  21.2471000  44.0462670  88.8020550  33.8990330
  43.7646940  89.3054150  33.1351150  44.4282370  88.0042300  33.5332460
  50.6478130  88.2174130  34.4770800  50.5343580  88.5368740  35.3722320
  51.4647870  88.6186640  34.1808080  49.5536280  96.2366600   4.8405540
  49.4730330  95.3221210   4.5697250  49.1400700  96.7333670   4.1345250
  47.6854320  98.0145620   6.7214810  46.9096420  97.5346060   7.0113380
  48.3367250  97.3351270   6.5470970  41.7020150  98.3265430   7.5990570
  40.8705030  98.0714140   7.9987080  42.3101130  98.3976200   8.3348490
  38.0745110  95.8872970   7.2672660  38.6461220  95.1195170   7.2676300
  38.0746650  96.1861730   6.3579270  39.3169980  91.2957330   9.0541590
  39.1372820  90.3983080   9.3344350  38.9150060  91.8429200   9.7288540
  48.1568480  93.4973190   6.9553900  48.5333300  92.6245070   6.8427570
  48.0587990  93.8331890   6.0644340  42.2873490  91.8698820   2.4171340
  42.3940240  92.7702550   2.7240100  41.3765850  91.8216790   2.1265990
  51.9392600  90.9923630   3.8882240  52.7602220  90.5020200   3.9307720
  51.9726680  91.5821290   4.6414080  39.9356650  93.7917830   7.6623930
  40.6166760  94.0556200   8.2811330  39.6204700  92.9518700   7.9961940
  44.1281220  94.8385190   6.7496520  44.6359440  95.3366160   7.3901540
  44.6594460  94.0620390   6.5735880  56.2292150  93.0090380  10.4525870
  55.5244320  93.3972090   9.9340980  56.4950070  93.7040670  11.0546800
  42.4117320  89.4783750  11.0159940  42.4135760  89.9956140  10.2105840
  41.5821630  89.0013930  10.9929870  52.1754080  92.9324010   6.6609780
  51.4709650  93.2208900   7.2412890  52.5366240  93.7424120   6.3009340
  42.0932650  91.1893710   9.0230390  42.4349460  92.0335760   8.7284260
  41.1548460  91.3377450   9.1395730  55.2441000  92.3778800   7.0518990
  54.2965910  92.4117780   7.1834420  55.5690990  93.1917750   7.4368350
  45.7760540  88.6775980   5.3474980  46.0835520  88.1222870   4.6310480
  44.8461240  88.8120440   5.1647970  48.1641300  96.7424810   2.0835100
  47.2370580  96.6762190   2.3123570  48.3166120  97.6804940   1.9690340
  54.6723140  97.6960330   9.0581290  53.8441770  97.7653420   8.5831420
  55.2673620  98.2814640   8.5897120  52.1938590  98.3045110   2.5870350
  51.5751010  97.9664660   1.9396650  52.1763040  97.6604870   3.2949540
  51.6365150  94.4829650  10.0036160  51.2236330  95.3083360  10.2576150
  50.9041100  93.8974690   9.8112520  43.7697940  97.2689550   4.8654830
  43.3654940  96.5566800   4.3700730  43.8561060  96.9242790   5.7542870
  42.4826560  94.0432760   8.6453870  43.0341150  94.1528100   7.8707120
  42.9970070  94.4170360   9.3609100  42.1569290  97.5652120  12.2559210
  42.0177060  98.4374920  12.6246610  41.2750650  97.2224930  12.1107150
  40.4702570  96.1634530   2.3661480  40.3500170  96.8896620   1.7542750
  40.1603460  95.3937440   1.8889390  55.1621720  93.5346230  13.8858280
  54.5465990  94.0425900  13.3573740  54.8418140  92.6344560  13.8284220
  42.9366230  89.5069600   5.7485150  42.4934380  90.2879140   5.4169670
  43.4951220  89.8299490   6.4556090  47.2236040  92.3738120  11.3520470
  46.7615410  92.5821140  12.1640410  46.8214150  91.5597470  11.0491140
  52.2240550  93.5947070  12.4817130  51.3734140  93.2952820  12.8026200
  52.0642340  93.8389080  11.5700950  49.3190260  95.0948820  14.5815920
  49.6443670  94.2612570  14.2418150  50.1070590  95.6177340  14.7294250
  44.9742130  90.0516930   7.6074750  45.2714460  90.9579760   7.5266770
  45.5227690  89.5635710   6.9934320  42.7280450  94.6303170   3.4766400
  42.5021370  94.4140340   4.3813020  41.9472980  95.0631630   3.1312370
  49.9578210  94.6366540   2.0757050  49.3587100  95.3602340   1.8920670
  50.5057820  94.5743320   1.2933500  45.1679660  95.5288750  14.1426670
  45.0723260  94.5883480  13.9927070  46.0111640  95.7503820  13.7474740
  48.5643080  93.2730080   4.1060330  48.9572650  93.5902280   3.2929020
  48.9259930  92.3941960   4.2204850  40.2990200  91.9402420  12.2960450
  39.9053590  92.7877630  12.5033230  39.6108600  91.3028790  12.4869090
  46.8735250  92.0237390  15.3657190  46.1833570  91.8309590  16.0003280
  47.6167550  92.3072030  15.8981490  37.6007250  89.8630880   6.3290530
  37.3120300  90.4333740   7.0415510  38.3453010  89.3835330   6.6921760
  49.1498220  95.8635830   8.2011110  48.4179340  96.3722640   8.5501210
  48.7522560  95.0465810   7.8999890  45.5875610  92.5390030   6.6063600
  45.5911670  92.0979980   5.7568140  46.4826730  92.8607360   6.7135420
  41.4377990  92.4216520   5.5657810  41.0978040  92.8991750   6.3224860
  40.6755310  91.9681640   5.2058910  49.6124130  91.3169510   7.6134050
  49.6296870  91.7678160   8.4575900  49.3639710  90.4175150   7.8267490
  53.0394880  88.7301690  13.4520430  53.3640650  87.9991350  13.9778410
  53.0751390  88.4115330  12.5501420  45.8883580  96.5991810   8.3529010
  46.2553710  96.1250380   9.0990350  45.6988640  97.4733380   8.6937350
  38.7524070  91.3435500   4.4822480  38.4670990  90.9791170   5.3201100
  38.6902930  90.6115960   3.8685620  43.6782950  95.6400450  10.6713220
  43.3740020  96.5192430  10.8963580  44.6329410  95.7000240  10.7070660
  39.7346680  96.4803190  11.8184580  39.3761620  97.1457040  12.4057920
  39.4401240  95.6486740  12.1897200  42.9359800  96.9387430  14.7024130
  42.6359940  97.0844610  13.8051950  43.7071040  96.3792720  14.6097520
  45.4089540  97.8667660   2.5627460  45.8652320  98.6772910   2.7887650
  45.0577750  97.5490800   3.3945950  41.3101320  88.2105310   3.0349980
  41.1815950  88.2023210   3.9834900  40.4863340  88.5488400   2.6840990
  38.3095250  89.9696430  12.4956680  37.5953770  90.1693350  13.1009290
  38.7290290  89.1936000  12.8671480  49.8034030  92.4618740  10.2458130
  50.1714850  91.6413950  10.5737700  48.9432230  92.5220630  10.6613780
  45.1380090  93.6961630   2.4703570  44.4296240  94.1647970   2.9117180
  45.4224570  93.0383640   3.1048760  46.7636020  95.1158330  10.4696100
  47.2621270  95.5904150  11.1347950  46.9058970  94.1921850  10.6766130
  49.1695520  90.4212290   3.9099360  49.0463300  90.4398420   2.9608870
  50.1180080  90.4691230   4.0297760  53.9702880  91.3326290  11.3124490
  53.4676480  92.0731690  11.6518300  54.7859540  91.7210290  10.9961280
  52.2624890  96.5759470   4.7585850  51.3215030  96.5909700   4.9333540
  52.5768960  95.7895430   5.2046150  38.4624090  97.5119060  14.2378870
  38.9663110  96.9326340  14.8095100  37.7231510  97.7959290  14.7755240
  40.4947170  95.6548650  15.1328940  40.5352510  95.3562520  16.0414170
  41.3492670  96.0556260  14.9736460  42.4352980  94.2340750  13.1003430
  41.9049440  93.7431700  12.4726770  43.1041050  94.6624950  12.5661360
  51.8053210  96.0406370  14.8683770  52.3873980  95.2858690  14.7804250
  51.9814980  96.5713810  14.0915250  42.9225280  91.2003120  13.1800720
  42.8282150  90.5823870  12.4551590  42.3422670  91.9269410  12.9530630
  45.6886720  89.7576360  10.2128110  45.2404020  89.7800620   9.3673660
  45.0551920  89.3595380  10.8098410  48.4310170  96.3846870  12.2178390
  48.5506380  95.7888010  12.9573230  49.2904170  96.4216560  11.7979690
  50.7698070  96.9384060  10.7940900  50.2433290  97.4626680  10.1906040
  51.1129410  97.5711450  11.4250630  45.1978940  92.9268220  13.4754210
  45.7878630  92.6184070  14.1632030  44.3799180  92.4547970  13.6314110
  50.0172370  92.5434030  13.7087230  49.3287890  91.8815570  13.6437220
  50.7378390  92.0972300  14.1535690  38.5257830  96.9000320   4.6089060
  37.8706670  96.6311960   3.9648760  39.3635780  96.7904800   4.1591040
  54.9738000  96.6065750   2.5283350  54.5981600  95.8393680   2.0964640
  54.2441120  96.9888450   3.0158280  39.5633760  97.2852890   9.1492400
  39.9306800  97.1980290  10.0288420  38.9944580  96.5219440   9.0499260
  54.3637620  95.7537270  12.1622870  54.1323710  95.5250020  11.2620820
  54.6242170  96.6736820  12.1167760  39.1149760  94.1961980  13.0550820
  38.2205810  94.1628740  13.3944530  39.6547310  94.3948770  13.8202070
  52.8025690  90.9793700  14.9402570  53.6795870  90.9877100  15.3236570
  52.8146530  90.2424540  14.3294920  54.2488960  94.8323240   5.8290590
  54.7726440  94.3385890   5.1980760  54.8348380  94.9673600   6.5738160
  54.4278680  94.9163110   9.3510140  53.4781390  94.8826650   9.4655130
  54.6091690  95.8263220   9.1159910  53.7388930  94.0896590   1.7683000
  54.2348050  93.8567460   2.5531880  53.5405000  93.2508430   1.3520640
  39.6189470  88.4710310   7.4034040  40.2665660  87.9207690   6.9629200
  40.0391310  88.7253460   8.2249850  55.1676090  92.7257540   4.3020680
  55.0575370  92.5713580   5.2402950  55.9283680  92.1978480   4.0596090
  53.5141810  88.6651670  10.7603680  54.1514030  89.2785810  11.1262870
  53.6616700  88.7012330   9.8152910  39.3721470  88.6265980  10.1459360
  39.0236290  89.0829800  10.9117540  39.0409170  87.7323110  10.2281790
  46.8846290  89.8177860  13.6678780  46.8235180  90.4099690  14.4174190
  47.8246670  89.7103820  13.5229040  49.5220850  89.4747920  13.3071070
  50.1361260  89.7927210  12.6452150  50.0670410  88.9896510  13.9266930
  40.0442110  88.1542180  13.4210130  40.5925100  87.9730230  12.6576240
  40.1097420  87.3636290  13.9566440  50.2628890  88.0380060   9.6340360
  49.3888730  88.3715170   9.4313290  50.1539640  87.5653240  10.4592230
  51.1700870  90.2450930  11.0182080  50.8414230  89.4302690  10.6383810
  52.1183170  90.2020740  10.8947770  48.0103710  88.9549900   8.5733270
  47.2275500  89.4295400   8.8530030  47.7166640  88.0504730   8.4646450
  52.5624780  89.6573000   6.6182360  53.0032870  89.6018100   5.7703960
  52.2932370  90.5731010   6.6892540  54.4263350  89.2888240   4.6291180
  54.3651750  88.3449460   4.4822200  55.2055380  89.3968330   5.1744640
  45.8957930  91.3736650   4.0849300  45.0832440  90.9993540   3.7445180
  46.3999570  90.6181730   4.3870490  50.3982910  88.0379100   5.3232370
  51.0012280  88.6099310   5.7980890  49.6575900  88.6018540   5.1006270
  43.9207110  89.5236570   2.6894350  43.2909850  88.8223880   2.8564480
  43.3812250  90.2840700   2.4727510  44.0462670  88.8020550  15.1246840
  43.7646940  89.3054150  14.3607660  44.4282370  88.0042300  14.7588970
  50.6478130  88.2174130  15.7027310  50.5343580  88.5368740  16.5978830
  51.4647870  88.6186640  15.4064590  49.5536280  77.4623110  79.9379500
  49.4730330  76.5477720  79.6671210  49.1400700  77.9590180  79.2319210
  47.6854320  79.2402130  81.8188770  46.9096420  78.7602570  82.1087340
  48.3367250  78.5607780  81.6444930  41.7020150  79.5521940  82.6964530
  40.8705030  79.2970650  83.0961040  42.3101130  79.6232710  83.4322450
  51.7061750  83.6462320  80.5987900  51.2443280  82.8749560  80.9275070
  52.5187300  83.6728390  81.1040350  41.6821410  83.5862030  82.8922550
  41.9849450  82.6959770  82.7132770  42.4265000  84.1432250  82.6644800
  40.1112100  74.5123830  76.4806920  39.2228800  74.8539800  76.3786800
  40.3953290  74.3124150  75.5887750  38.0745110  77.1129480  82.3646620
  38.6461220  76.3451680  82.3650260  38.0746650  77.4118240  81.4553230
  47.9325060  85.9320330  80.2191890  47.3136500  86.3877830  79.6486330
  48.7876840  86.0871790  79.8181590  47.1263310  81.9159320  81.8258930
  47.0571590  80.9749260  81.6648060  47.8883170  82.0060730  82.3981500
  39.3169980  72.5213840  84.1515550  39.1372820  71.6239590  84.4318310
  38.9150060  73.0685710  84.8262500  48.1568480  74.7229700  82.0527860
  48.5333300  73.8501580  81.9401530  48.0587990  75.0588400  81.1618300
  42.2873490  73.0955330  77.5145300  42.3940240  73.9959060  77.8214060
  41.3765850  73.0473300  77.2239950  51.9392600  72.2180140  78.9856200
  52.7602220  71.7276710  79.0281680  51.9726680  72.8077800  79.7388040
  39.9356650  75.0174340  82.7597890  40.6166760  75.2812710  83.3785290
  39.6204700  74.1775210  83.0935900  44.1281220  76.0641700  81.8470480
  44.6359440  76.5622670  82.4875500  44.6594460  75.2876900  81.6709840
  56.2292150  74.2346890  85.5499830  55.5244320  74.6228600  85.0314940
  56.4950070  74.9297180  86.1520760  42.4117320  70.7040260  86.1133900
  42.4135760  71.2212650  85.3079800  41.5821630  70.2270440  86.0903830
  48.7988410  80.8159570  77.6123800  48.1805680  81.2809020  77.0486520
  49.3111660  81.5087050  78.0293310  43.6620170  80.3435440  84.2907400
  43.3289550  80.9704360  84.9328470  43.8386850  80.8697320  83.5109070
  52.1754080  74.1580520  81.7583740  51.4709650  74.4465410  82.3386850
  52.5366240  74.9680630  81.3983300  42.0932650  72.4150220  84.1204350
  42.4349460  73.2592270  83.8258220  41.1548460  72.5633960  84.2369690
  42.8739270  82.3116240  86.1056580  43.4913270  82.9867320  85.8241030
  42.0132390  82.7204220  86.0144080  38.1671610  81.5016100  74.9863430
  37.7899590  81.9903200  74.2548330  38.4244680  82.1741380  75.6169960
  53.7916860  83.7755650  84.0211220  53.1080380  84.4454760  84.0127890
  54.3311150  83.9736300  83.2556080  55.2441000  73.6035310  82.1492950
  54.2965910  73.6374290  82.2808380  55.5690990  74.4174260  82.5342310
  45.7760540  69.9032490  80.4448940  46.0835520  69.3479380  79.7284440
  44.8461240  70.0376950  80.2621930  51.3275600  85.6199780  82.7356400
  51.3402760  85.2162070  81.8678660  50.7750820  86.3947070  82.6317830
  52.6221020  82.3416000  77.8246570  52.5117350  81.3990330  77.9495990
  52.6189270  82.7031640  78.7109330  50.7261040  80.5229620  84.0639010
  51.1429830  80.3089730  83.2292470  51.4500860  80.7802410  84.6347630
  48.1641300  77.9681320  77.1809060  47.2370580  77.9018700  77.4097530
  48.3166120  78.9061450  77.0664300  48.1510380  74.2398320  74.1776220
  47.2114050  74.4012280  74.2628680  48.4693640  74.9584000  73.6312210
  54.6723140  78.9216840  84.1555250  53.8441770  78.9909930  83.6805380
  55.2673620  79.5071150  83.6871080  52.1938590  79.5301620  77.6844310
  51.5751010  79.1921170  77.0370610  52.1763040  78.8861380  78.3923500
  51.6365150  75.7086160  85.1010120  51.2236330  76.5339870  85.3550110
  50.9041100  75.1231200  84.9086480  43.7697940  78.4946060  79.9628790
  43.3654940  77.7823310  79.4674690  43.8561060  78.1499300  80.8516830
  44.2379640  82.1813620  82.1268000  43.9407930  81.5759090  81.4475780
  45.1879460  82.2190930  82.0157360  42.4826560  75.2689270  83.7427830
  43.0341150  75.3784610  82.9681080  42.9970070  75.6426870  84.4583060
  52.3265250  85.7545490  85.7891100  51.8495810  86.5617680  85.5963710
  51.6427040  85.1023820  85.9417310  50.3703290  78.7688430  74.6917060
  50.8096570  77.9310860  74.5454880  51.0831710  79.4017830  74.7781200
  48.4798670  83.7084500  78.6598300  48.9194580  84.4508830  78.2453690
  48.4185560  83.9511070  79.5837260  53.9520430  70.0231240  73.0058100
  53.6393090  70.1158070  73.9057170  54.7132900  70.6012270  72.9555530
  40.4702570  77.3891040  77.4635440  40.3500170  78.1153130  76.8516710
  40.1603460  76.6193950  76.9863350  38.1087940  80.5606180  83.2704080
  38.1868360  80.6954950  82.3259800  38.7229620  79.8522070  83.4632200
  39.3535570  82.2606370  79.6810260  38.9463650  82.4020960  78.8263860
  40.2448580  81.9766530  79.4781470  51.1468850  86.6953620  76.0161310
  50.9869990  86.4056560  76.9143140  50.9815560  85.9193750  75.4806540
  43.6257230  86.4752150  77.7932930  43.4499710  85.5587690  77.5800730
  42.7712970  86.8339440  78.0330730  50.8494980  84.2041180  74.5759310
  50.1560140  84.2018470  73.9161590  51.5917840  83.7800500  74.1453480
  50.4144910  85.8303890  78.6507800  50.8701860  85.0493270  78.9646420
  50.7537430  86.5410710  79.1948980  38.1647460  81.6020350  85.8098540
  38.3278500  81.1325710  84.9917910  38.6299910  81.0943910  86.4747380
  42.9366230  70.7326110  80.8459110  42.4934380  71.5135650  80.5143630
  43.4951220  71.0556000  81.5530050  46.0525050  70.3536810  75.7264940
  45.4279230  70.3496680  76.4518250  45.9655170  69.4867770  75.3300910
  44.9742130  71.2773440  82.7048710  45.2714460  72.1836270  82.6240730
  45.5227690  70.7892220  82.0908280  42.7280450  75.8559680  78.5740360
  42.5021370  75.6396850  79.4786980  41.9472980  76.2888140  78.2286330
  49.9578210  75.8623050  77.1731010  49.3587100  76.5858850  76.9894630
  50.5057820  75.7999830  76.3907460  48.5643080  74.4986590  79.2034290
  48.9572650  74.8158790  78.3902980  48.9259930  73.6198470  79.3178810
  37.6007250  71.0887390  81.4264490  37.3120300  71.6590250  82.1389470
  38.3453010  70.6091840  81.7895720  37.7877480  75.0307510  72.6367210
  37.7052150  75.9738270  72.7782200  37.4360540  74.8882420  71.7579560
  49.1498220  77.0892340  83.2985070  48.4179340  77.5979150  83.6475170
  48.7522560  76.2722320  82.9973850  45.5875610  73.7646540  81.7037560
  45.5911670  73.3236490  80.8542100  46.4826730  74.0863870  81.8109380
  41.4377990  73.6473030  80.6631770  41.0978040  74.1248260  81.4198820
  40.6755310  73.1938150  80.3032870  45.6495760  74.7658620  74.6944320
  45.7708580  74.7245100  75.6430140  45.2644270  75.6282770  74.5391050
  49.6124130  72.5426020  82.7108010  49.6296870  72.9934670  83.5549860
  49.3639710  71.6431660  82.9241450  44.6617260  77.0759760  74.0927620
  44.0934160  76.6278010  73.4663530  45.3706260  77.4352540  73.5592770
  45.8883580  77.8248320  83.4502970  46.2553710  77.3506890  84.1964310
  45.6988640  78.6989890  83.7911310  38.7524070  72.5692010  79.5796440
  38.4670990  72.2047680  80.4175060  38.6902930  71.8372470  78.9659580
  43.6782950  76.8656960  85.7687180  43.3740020  77.7448940  85.9937540
  44.6329410  76.9256750  85.8044620  42.2064740  81.0717950  76.3654030
  41.4327000  80.5315570  76.2052750  42.9359370  80.5524560  76.0271790
  52.9652720  80.0683310  82.1580420  53.6851840  80.5638600  81.7676530
  52.7634540  79.3901200  81.5134290  48.4262660  71.4621270  76.3009810
  47.6127270  70.9634440  76.2255120  48.2324610  72.3019520  75.8846160
  51.1411050  75.8340920  74.5971970  52.0290670  76.1458150  74.4223310
  51.1116140  74.9613170  74.2052550  42.2502140  80.7398330  80.0032840
  42.7680810  79.9366590  79.9489730  41.7986160  80.6777470  80.8449670
  47.1371640  82.0064610  75.2760140  47.4787340  82.7506840  74.7803460
  46.3084350  82.3195730  75.6384970  53.4125320  77.1452760  74.0651830
  53.3289040  77.5766980  73.2148270  54.1319510  77.6051110  74.4978650
  54.4412570  83.9995020  76.7933960  53.7988730  83.3450640  77.0677680
  54.0543230  84.4050110  76.0174630  50.0199050  81.3280450  80.6405650
  50.3722870  80.7308580  79.9807020  49.1361380  81.0024680  80.8113900
  46.1062330  82.0878140  78.0476060  46.7933460  82.6347350  78.4283650
  45.3194750  82.6318870  78.0825670  38.2454730  77.7050960  73.5393140
  39.1149580  77.9875760  73.8229060  37.7545050  78.5186830  73.4241950
  45.4089540  79.0924170  77.6601420  45.8652320  79.9029420  77.8861610
  45.0577750  78.7747310  78.4919910  47.7122150  84.6030510  84.8893720
  48.3564370  84.8089890  85.5667140  48.0751590  83.8418910  84.4364570
  41.3101320  69.4361820  78.1323940  41.1815950  69.4279720  79.0808860
  40.4863340  69.7744910  77.7814950  48.9854230  82.6062860  83.6071170
  49.6276460  81.9056020  83.7203340  49.5103580  83.3861300  83.4268060
  52.8309950  82.8911480  73.3310310  52.6047530  82.1741920  73.9234950
  52.4406150  82.6423920  72.4932060  38.6125980  86.9178340  74.1054770
  38.9723620  87.5167680  73.4512040  38.4718320  87.4638230  74.8789800
  52.4126200  80.8083420  74.9924470  52.1247900  81.2696110  75.7802350
  53.2078370  80.3481190  75.2608690  44.6294600  84.3009540  74.9228440
  44.6204700  85.0339230  74.3072950  43.7092960  84.0541120  75.0155400
  40.2301240  79.5224430  75.6675200  39.6229190  80.2623330  75.6770500
  40.7050590  79.6123790  74.8413400  49.8034030  73.6875250  85.3432090
  50.1714850  72.8670460  85.6711660  48.9432230  73.7477140  85.7587740
  53.1696060  72.6432190  76.1519650  52.5409220  72.7477860  75.4377880
  52.6747980  72.8628970  76.9413530  47.6154200  84.3637780  73.5853630
  47.7166180  84.1601770  72.6555610  46.7155940  84.1096060  73.7901410
  45.1380090  74.9218140  77.5677530  44.4296240  75.3904480  78.0091140
  45.4224570  74.2640150  78.2022720  46.7636020  76.3414840  85.5670060
  47.2621270  76.8160660  86.2321910  46.9058970  75.4178360  85.7740090
  49.1695520  71.6468800  79.0073320  49.0463300  71.6654930  78.0582830
  50.1180080  71.6947740  79.1271720  46.2572310  86.8824100  78.2801300
  46.5113810  86.8445490  77.3580670  45.3084790  86.7557430  78.2729550
  43.3415110  73.2303220  74.9428240  44.1905640  73.6673370  74.8768430
  42.9746380  73.5423480  75.7700300  53.9702880  72.5582800  86.4098450
  53.4676480  73.2988200  86.7492260  54.7859540  72.9466800  86.0935240
  52.2624890  77.8015980  79.8559810  51.3215030  77.8166210  80.0307500
  52.5768960  77.0151940  80.3020110  42.2406530  79.4835580  73.4163770
  43.0069800  79.3716940  73.9789200  42.3181220  78.7873550  72.7640540
  40.9353290  76.9160650  74.0996660  41.0156880  75.9688160  74.2114060
  41.8273040  77.2467530  74.2057320  54.2650470  84.9724830  81.5314070
  54.3897890  85.7956000  82.0037880  55.1316030  84.7615560  81.1838220
  41.7368000  87.0656040  81.2031200  42.4730480  86.5171500  81.4739770
  42.1208920  87.9312050  81.0637190  38.6213480  83.1329610  77.0772710
  37.6953260  83.3750750  77.0678120  39.0869910  83.9603870  76.9557460
  44.8470310  86.2386350  73.0256770  45.6398920  86.5275180  72.5738560
  44.3274660  85.8078520  72.3469250  53.9000480  85.4656480  74.4493510
  53.6141990  85.0521620  73.6347690  53.7020030  86.3944190  74.3294030
  45.3647710  81.4589760  72.8899120  45.2598350  80.8442110  73.6160500
  45.1971930  80.9355650  72.1062130  48.6050440  80.5209790  73.4941110
  48.0560540  80.9679090  74.1383850  49.2269700  80.0159040  74.0178780
  44.2725560  79.4800710  75.3906410  44.6941980  79.3140580  76.2337800
  44.3976400  78.6700940  74.8961550  46.7853200  78.5038320  72.6383510
  47.3058860  77.7887340  72.2724660  47.4321600  79.1424190  72.9384020
  45.6886720  70.9832870  85.3102070  45.2404020  71.0057130  84.4647620
  45.0551920  70.5851890  85.9072370  46.0946270  79.8787200  85.9314510
  46.5134380  80.7219930  85.7590750  45.1754900  80.0159240  85.7021290
  50.7698070  78.1640570  85.8914860  50.2433290  78.6883190  85.2880000
  51.1129410  78.7967960  86.5224590  43.1684460  75.5533940  72.3364570
  42.9673520  74.6901300  72.6977910  42.9976510  75.4667300  71.3986170
  50.6472770  70.3642170  74.8651450  50.9275060  69.5210070  75.2210870
  49.8738500  70.5965280  75.3790200  41.9667260  72.6534560  72.3242450
  42.2693160  72.6601990  71.4161600  42.7061850  72.3032420  72.8210110
  45.1852190  71.5969180  73.3098650  44.8374190  70.9193170  72.7301100
  45.3864960  71.1358690  74.1242040  47.3501230  86.5849930  74.9285250
  48.2452020  86.9234900  74.9504010  47.3818860  85.8629340  74.3009530
  40.9897390  81.9576980  73.1572250  41.4272260  82.5006650  73.8129830
  41.4745120  81.1323930  73.1668590  38.2043190  84.7466010  80.6092510
  38.5346200  83.8787070  80.3771150  38.6334190  84.9524530  81.4397470
  42.8005110  83.0775020  78.2694480  42.5000650  82.9539990  79.1698390
  42.6942600  82.2183610  77.8610210  38.6933400  85.6136600  83.3474140
  38.2564390  85.7937400  84.1798290  39.2611080  86.3711220  83.2055860
  55.5697030  82.8571420  72.9721160  54.7389990  82.9248070  73.4428390
  55.7468860  83.7475540  72.6688020  55.0253490  79.6018900  75.4755360
  55.7872400  80.1715550  75.5815050  55.0407860  79.0346100  76.2463670
  38.5257830  78.1256830  79.7063020  37.8706670  77.8568470  79.0622720
  39.3635780  78.0161310  79.2565000  56.0313460  80.4569000  80.3197290
  56.4022290  79.6736320  79.9133260  56.6715390  81.1458100  80.1414590
  53.0147220  81.8405580  85.7327610  52.2007060  82.2702740  85.9953400
  53.4221420  82.4523990  85.1196660  55.0772660  79.8953270  72.6327880
  55.3521500  80.8032150  72.5047100  54.8883400  79.8315800  73.5689870
  51.4748270  72.9198120  73.9281510  51.8933150  72.7329100  73.0878170
  51.1684330  72.0677170  74.2384440  54.9738000  77.8322260  77.6257310
  54.5981600  77.0650190  77.1938600  54.2441120  78.2144960  78.1132240
  39.5633760  78.5109400  84.2466360  39.9306800  78.4236800  85.1262380
  38.9944580  77.7475950  84.1473220  37.7395910  75.3355760  75.6488350
  36.8359990  75.5985960  75.4740010  38.2236530  75.6066930  74.8688310
  54.2488960  76.0579750  80.9264550  54.7726440  75.5642400  80.2954720
  54.8348380  76.1930110  81.6712120  54.4278680  76.1419620  84.4484100
  53.4781390  76.1083160  84.5629090  54.6091690  77.0519730  84.2133870
  40.2823120  74.3921300  73.5582730  40.9914820  73.9704520  73.0730010
  39.5663060  74.4596530  72.9266080  39.9297280  70.4460630  72.5985380
  40.6525410  70.9869570  72.9166600  40.2021800  70.1724050  71.7226920
  53.7388930  75.3153100  76.8656960  54.2348050  75.0823970  77.6505840
  53.5405000  74.4764940  76.4494600  39.6189470  69.6966820  82.5008000
  40.2665660  69.1464200  82.0603160  40.0391310  69.9509970  83.3223810
  55.1676090  73.9514050  79.3994640  55.0575370  73.7970090  80.3376910
  55.9283680  73.4234990  79.1570050  53.5141810  69.8908180  85.8577640
  54.1514030  70.5042320  86.2236830  53.6616700  69.9268840  84.9126870
  56.0566360  71.7821970  72.6400780  56.9815670  71.6503150  72.4319070
  56.0342150  71.8614790  73.5937230  56.1304850  72.5532630  75.2657490
  55.3356350  72.4877750  75.7950400  56.3348130  73.4883270  75.2542840
  53.0723270  86.5924180  79.2595880  53.6682340  86.2708750  78.5830300
  53.3301420  86.1196000  80.0509150  39.3721470  69.8522490  85.2433320
  39.0236290  70.3086310  86.0091500  39.0409170  68.9579620  85.3255750
  44.6791870  84.5801680  85.0096230  44.4383230  84.8476240  84.1226750
  45.6194510  84.7507410  85.0647090  55.9396030  86.5996060  85.8106870
  55.4454310  86.9964930  85.0934000  55.3309320  85.9745270  86.2044150
  50.2628890  69.2636570  84.7314320  49.3888730  69.5971680  84.5287250
  50.1539640  68.7909750  85.5566190  51.1700870  71.4707440  86.1156040
  50.8414230  70.6559200  85.7357770  52.1183170  71.4277250  85.9921730
  53.6235480  87.2419480  83.0893610  53.1638450  87.9935290  82.7151630
  52.9947940  86.5225950  83.0308410  40.4486100  83.3362720  85.4792330
  39.7220160  82.7168010  85.4118280  40.5095250  83.7303330  84.6090410
  44.0531200  85.5507720  82.2641740  44.5696220  84.9395080  81.7390000
  44.7028580  86.0536500  82.7552750  46.7926700  86.4416210  83.0910720
  47.0804510  86.1870510  82.2143730  47.3049920  85.8893570  83.6816290
  48.0103710  70.1806410  83.6707230  47.2275500  70.6551910  83.9503990
  47.7166640  69.2761240  83.5620410  52.5624780  70.8829510  81.7156320
  53.0032870  70.8274610  80.8677920  52.2932370  71.7987520  81.7866500
  54.4263350  70.5144750  79.7265140  54.3651750  69.5705970  79.5796160
  55.2055380  70.6224840  80.2718600  38.7316100  86.6537110  78.6889090
  38.5638140  86.0207790  79.3870980  37.8650610  86.8596510  78.3383280
  39.3544120  70.4853890  76.1920950  40.1123480  70.5982770  75.6184980
  38.8921290  71.3223090  76.1464380  45.8957930  72.5993160  79.1823260
  45.0832440  72.2250050  78.8419140  46.3999570  71.8438240  79.4844450
  50.3982910  69.2635610  80.4206330  51.0012280  69.8355820  80.8954850
  49.6575900  69.8275050  80.1980230  53.5417510  69.6657170  75.6946610
  53.7368140  70.5640620  75.9614040  52.7547380  69.4344250  76.1879560
  40.3378800  85.3470340  76.1339230  39.8126420  85.7278370  75.4301190
  40.2623380  85.9721110  76.8548940  41.7269270  71.0117940  74.7322920
  42.2562030  70.2247740  74.6030870  42.3597590  71.6909130  74.9658450
  43.9207110  70.7493080  77.7868310  43.2909850  70.0480390  77.9538440
  43.3812250  71.5097210  77.5701470  55.0944120  86.9057880  77.4553170
  55.2696310  86.2195620  76.8114090  54.3965690  87.4304930  77.0629840
  42.9371770  87.2952720  75.0088480  43.6690590  87.0112000  74.4612370
  43.1965440  87.0566000  75.8987860  42.0986560  83.4117450  75.0134810
  41.4695440  83.8802550  75.5620640  42.2134390  82.5666670  75.4481000
  49.5536280  77.4623110  61.1636010  49.4730330  76.5477720  60.8927720
  49.1400700  77.9590180  60.4575720  47.6854320  79.2402130  63.0445280
  46.9096420  78.7602570  63.3343850  48.3367250  78.5607780  62.8701440
  41.7020150  79.5521940  63.9221040  40.8705030  79.2970650  64.3217550
  42.3101130  79.6232710  64.6578960  51.7061750  83.6462320  61.8244410
  51.2443280  82.8749560  62.1531580  52.5187300  83.6728390  62.3296860
  41.6821410  83.5862030  64.1179060  41.9849450  82.6959770  63.9389280
  42.4265000  84.1432250  63.8901310  40.1112100  74.5123830  57.7063430
  39.2228800  74.8539800  57.6043310  40.3953290  74.3124150  56.8144260
  38.0745110  77.1129480  63.5903130  38.6461220  76.3451680  63.5906770
  38.0746650  77.4118240  62.6809740  47.9325060  85.9320330  61.4448400
  47.3136500  86.3877830  60.8742840  48.7876840  86.0871790  61.0438100
  47.1263310  81.9159320  63.0515440  47.0571590  80.9749260  62.8904570
  47.8883170  82.0060730  63.6238010  39.3169980  72.5213840  65.3772060
  39.1372820  71.6239590  65.6574820  38.9150060  73.0685710  66.0519010
  48.1568480  74.7229700  63.2784370  48.5333300  73.8501580  63.1658040
  48.0587990  75.0588400  62.3874810  42.2873490  73.0955330  58.7401810
  42.3940240  73.9959060  59.0470570  41.3765850  73.0473300  58.4496460
  39.9356650  75.0174340  63.9854400  40.6166760  75.2812710  64.6041800
  39.6204700  74.1775210  64.3192410  44.1281220  76.0641700  63.0726990
  44.6359440  76.5622670  63.7132010  44.6594460  75.2876900  62.8966350
  56.2292150  74.2346890  66.7756340  55.5244320  74.6228600  66.2571450
  56.4950070  74.9297180  67.3777270  42.4117320  70.7040260  67.3390410
  42.4135760  71.2212650  66.5336310  41.5821630  70.2270440  67.3160340
  48.7988410  80.8159570  58.8380310  48.1805680  81.2809020  58.2743030
  49.3111660  81.5087050  59.2549820  43.6620170  80.3435440  65.5163910
  43.3289550  80.9704360  66.1584980  43.8386850  80.8697320  64.7365580
  42.0932650  72.4150220  65.3460860  42.4349460  73.2592270  65.0514730
  41.1548460  72.5633960  65.4626200  42.8739270  82.3116240  67.3313090
  43.4913270  82.9867320  67.0497540  42.0132390  82.7204220  67.2400590
  38.1671610  81.5016100  56.2119940  37.7899590  81.9903200  55.4804840
  38.4244680  82.1741380  56.8426470  53.7916860  83.7755650  65.2467730
  53.1080380  84.4454760  65.2384400  54.3311150  83.9736300  64.4812590
  51.3275600  85.6199780  63.9612910  51.3402760  85.2162070  63.0935170
  50.7750820  86.3947070  63.8574340  52.6221020  82.3416000  59.0503080
  52.5117350  81.3990330  59.1752500  52.6189270  82.7031640  59.9365840
  50.7261040  80.5229620  65.2895520  51.1429830  80.3089730  64.4548980
  51.4500860  80.7802410  65.8604140  48.1641300  77.9681320  58.4065570
  47.2370580  77.9018700  58.6354040  48.3166120  78.9061450  58.2920810
  48.1510380  74.2398320  55.4032730  47.2114050  74.4012280  55.4885190
  48.4693640  74.9584000  54.8568720  54.6723140  78.9216840  65.3811760
  53.8441770  78.9909930  64.9061890  55.2673620  79.5071150  64.9127590
  52.1938590  79.5301620  58.9100820  51.5751010  79.1921170  58.2627120
  52.1763040  78.8861380  59.6180010  51.6365150  75.7086160  66.3266630
  51.2236330  76.5339870  66.5806620  50.9041100  75.1231200  66.1342990
  43.7697940  78.4946060  61.1885300  43.3654940  77.7823310  60.6931200
  43.8561060  78.1499300  62.0773340  44.2379640  82.1813620  63.3524510
  43.9407930  81.5759090  62.6732290  45.1879460  82.2190930  63.2413870
  42.4826560  75.2689270  64.9684340  43.0341150  75.3784610  64.1937590
  42.9970070  75.6426870  65.6839570  52.3265250  85.7545490  67.0147610
  51.8495810  86.5617680  66.8220220  51.6427040  85.1023820  67.1673820
  43.3298070  81.9195310  70.0032310  42.4326600  82.1435280  70.2505710
  43.3550940  82.0430250  69.0543710  50.3703290  78.7688430  55.9173570
  50.8096570  77.9310860  55.7711390  51.0831710  79.4017830  56.0037710
  42.1569290  78.7908630  68.5789680  42.0177060  79.6631430  68.9477080
  41.2750650  78.4481440  68.4337620  48.4798670  83.7084500  59.8854810
  48.9194580  84.4508830  59.4710200  48.4185560  83.9511070  60.8093770
  43.9549640  84.7330330  70.7874830  43.9265070  85.1373280  69.9203260
  43.7914610  83.8040690  70.6246430  40.4702570  77.3891040  58.6891950
  40.3500170  78.1153130  58.0773220  40.1603460  76.6193950  58.2119860
  55.9064460  85.5157430  72.0839000  56.3824180  85.9940320  72.7628080
  56.5271620  85.4474920  71.3584500  38.1087940  80.5606180  64.4960590
  38.1868360  80.6954950  63.5516310  38.7229620  79.8522070  64.6888710
  39.3535570  82.2606370  60.9066770  38.9463650  82.4020960  60.0520370
  40.2448580  81.9766530  60.7037980  55.3097710  82.7070280  69.2439010
  55.4360770  82.4682160  68.3256190  55.3519090  81.8754820  69.7161090
  49.1714450  86.4098280  67.8133820  49.6859120  86.3206290  68.6156250
  48.3283530  86.7557980  68.1061730  51.1468850  86.6953620  57.2417820
  50.9869990  86.4056560  58.1399650  50.9815560  85.9193750  56.7063050
  43.6257230  86.4752150  59.0189440  43.4499710  85.5587690  58.8057240
  42.7712970  86.8339440  59.2587240  50.8494980  84.2041180  55.8015820
  50.1560140  84.2018470  55.1418100  51.5917840  83.7800500  55.3709990
  50.4144910  85.8303890  59.8764310  50.8701860  85.0493270  60.1902930
  50.7537430  86.5410710  60.4205490  55.1621720  74.7602740  70.2088750
  54.5465990  75.2682410  69.6804210  54.8418140  73.8601070  70.1514690
  38.1647460  81.6020350  67.0355050  38.3278500  81.1325710  66.2174420
  38.6299910  81.0943910  67.7003890  42.9366230  70.7326110  62.0715620
  42.4934380  71.5135650  61.7400140  43.4951220  71.0556000  62.7786560
  47.2236040  73.5994630  67.6750940  46.7615410  73.8077650  68.4870880
  46.8214150  72.7853980  67.3721610  52.2240550  74.8203580  68.8047600
  51.3734140  74.5209330  69.1256670  52.0642340  75.0645590  67.8931420
  49.3190260  76.3205330  70.9046390  49.6443670  75.4869080  70.5648620
  50.1070590  76.8433850  71.0524720  44.9742130  71.2773440  63.9305220
  45.2714460  72.1836270  63.8497240  45.5227690  70.7892220  63.3164790
  42.7280450  75.8559680  59.7996870  42.5021370  75.6396850  60.7043490
  41.9472980  76.2888140  59.4542840  49.9578210  75.8623050  58.3987520
  49.3587100  76.5858850  58.2151140  50.5057820  75.7999830  57.6163970
  45.1679660  76.7545260  70.4657140  45.0723260  75.8139990  70.3157540
  46.0111640  76.9760330  70.0705210  48.5643080  74.4986590  60.4290800
  48.9572650  74.8158790  59.6159490  48.9259930  73.6198470  60.5435320
  40.2990200  73.1658930  68.6190920  39.9053590  74.0134140  68.8263700
  39.6108600  72.5285300  68.8099560  46.8735250  73.2493900  71.6887660
  46.1833570  73.0566100  72.3233750  47.6167550  73.5328540  72.2211960
  37.6007250  71.0887390  62.6521000  37.3120300  71.6590250  63.3645980
  38.3453010  70.6091840  63.0152230  37.7877480  75.0307510  53.8623720
  37.7052150  75.9738270  54.0038710  37.4360540  74.8882420  52.9836070
  49.1498220  77.0892340  64.5241580  48.4179340  77.5979150  64.8731680
  48.7522560  76.2722320  64.2230360  45.5875610  73.7646540  62.9294070
  45.5911670  73.3236490  62.0798610  46.4826730  74.0863870  63.0365890
  41.4377990  73.6473030  61.8888280  41.0978040  74.1248260  62.6455330
  40.6755310  73.1938150  61.5289380  45.6495760  74.7658620  55.9200830
  45.7708580  74.7245100  56.8686650  45.2644270  75.6282770  55.7647560
  49.6124130  72.5426020  63.9364520  49.6296870  72.9934670  64.7806370
  49.3639710  71.6431660  64.1497960  44.6617260  77.0759760  55.3184130
  44.0934160  76.6278010  54.6920040  45.3706260  77.4352540  54.7849280
  53.0394880  69.9558200  69.7750900  53.3640650  69.2247860  70.3008880
  53.0751390  69.6371840  68.8731890  39.7386440  80.9771780  69.1950860
  39.3541230  80.3365450  69.7933820  40.0498630  81.6807900  69.7645590
  45.8883580  77.8248320  64.6759480  46.2553710  77.3506890  65.4220820
  45.6988640  78.6989890  65.0167820  38.7524070  72.5692010  60.8052950
  38.4670990  72.2047680  61.6431570  38.6902930  71.8372470  60.1916090
  43.6782950  76.8656960  66.9943690  43.3740020  77.7448940  67.2194050
  44.6329410  76.9256750  67.0301130  42.2064740  81.0717950  57.5910540
  41.4327000  80.5315570  57.4309260  42.9359370  80.5524560  57.2528300
  52.9652720  80.0683310  63.3836930  53.6851840  80.5638600  62.9933040
  52.7634540  79.3901200  62.7390800  48.3471520  80.1392370  69.2705930
  48.2808830  79.2188040  69.0163520  47.7176660  80.2367810  69.9850570
  42.2502140  80.7398330  61.2289350  42.7680810  79.9366590  61.1746240
  41.7986160  80.6777470  62.0706180  47.1371640  82.0064610  56.5016650
  47.4787340  82.7506840  56.0059970  46.3084350  82.3195730  56.8641480
  39.7346680  77.7059700  68.1415050  39.3761620  78.3713550  68.7288390
  39.4401240  76.8743250  68.5127670  42.9359800  78.1643940  71.0254600
  42.6359940  78.3101120  70.1282420  43.7071040  77.6049230  70.9327990
  48.2788250  82.9612940  69.0209730  48.2932790  82.0293900  68.8028640
  47.5713350  83.0472700  69.6599500  54.4899460  79.6020280  68.3678310
  53.7647650  80.1949060  68.1707700  55.0174920  79.5943820  67.5691680
  54.4412570  83.9995020  58.0190470  53.7988730  83.3450640  58.2934190
  54.0543230  84.4050110  57.2431140  50.0199050  81.3280450  61.8662160
  50.3722870  80.7308580  61.2063530  49.1361380  81.0024680  62.0370410
  46.1062330  82.0878140  59.2732570  46.7933460  82.6347350  59.6540160
  45.3194750  82.6318870  59.3082180  38.2454730  77.7050960  54.7649650
  39.1149580  77.9875760  55.0485570  37.7545050  78.5186830  54.6498460
  45.4089540  79.0924170  58.8857930  45.8652320  79.9029420  59.1118120
  45.0577750  78.7747310  59.7176420  47.7122150  84.6030510  66.1150230
  48.3564370  84.8089890  66.7923650  48.0751590  83.8418910  65.6621080
  48.9854230  82.6062860  64.8327680  49.6276460  81.9056020  64.9459850
  49.5103580  83.3861300  64.6524570  52.8309950  82.8911480  54.5566820
  52.6047530  82.1741920  55.1491460  52.4406150  82.6423920  53.7188570
  50.7591850  83.4057760  68.0363740  51.0948090  83.9924450  68.7141660
  49.8392190  83.2750470  68.2661530  38.6125980  86.9178340  55.3311280
  38.9723620  87.5167680  54.6768550  38.4718320  87.4638230  56.1046310
  38.3095250  71.1952940  68.8187150  37.5953770  71.3949860  69.4239760
  38.7290290  70.4192510  69.1901950  52.4126200  80.8083420  56.2180980
  52.1247900  81.2696110  57.0058860  53.2078370  80.3481190  56.4865200
  38.5967840  85.1833200  69.8053680  38.7058960  84.2427940  69.6649070
  37.9448400  85.4487950  69.1567410  46.5880430  83.4549090  71.2051800
  46.2677300  82.7358330  71.7497490  45.9138790  84.1304160  71.2787860
  44.6294600  84.3009540  56.1484950  44.6204700  85.0339230  55.5329460
  43.7092960  84.0541120  56.2411910  40.2301240  79.5224430  56.8931710
  39.6229190  80.2623330  56.9027010  40.7050590  79.6123790  56.0669910
  49.8034030  73.6875250  66.5688600  50.1714850  72.8670460  66.8968170
  48.9432230  73.7477140  66.9844250  47.6154200  84.3637780  54.8110140
  47.7166180  84.1601770  53.8812120  46.7155940  84.1096060  55.0157920
  45.1380090  74.9218140  58.7934040  44.4296240  75.3904480  59.2347650
  45.4224570  74.2640150  59.4279230  46.7636020  76.3414840  66.7926570
  47.2621270  76.8160660  67.4578420  46.9058970  75.4178360  66.9996600
  46.2572310  86.8824100  59.5057810  46.5113810  86.8445490  58.5837180
  45.3084790  86.7557430  59.4986060  43.3415110  73.2303220  56.1684750
  44.1905640  73.6673370  56.1024940  42.9746380  73.5423480  56.9956810
  53.9702880  72.5582800  67.6354960  53.4676480  73.2988200  67.9748770
  54.7859540  72.9466800  67.3191750  42.2406530  79.4835580  54.6420280
  43.0069800  79.3716940  55.2045710  42.3181220  78.7873550  53.9897050
  40.9353290  76.9160650  55.3253170  41.0156880  75.9688160  55.4370570
  41.8273040  77.2467530  55.4313830  54.2650470  84.9724830  62.7570580
  54.3897890  85.7956000  63.2294390  55.1316030  84.7615560  62.4094730
  41.7368000  87.0656040  62.4287710  42.4730480  86.5171500  62.6996280
  42.1208920  87.9312050  62.2893700  38.6213480  83.1329610  58.3029220
  37.6953260  83.3750750  58.2934630  39.0869910  83.9603870  58.1813970
  40.7426280  86.2502110  71.6173290  41.5439010  86.5714160  72.0308690
  40.2278100  85.8897690  72.3393200  44.8470310  86.2386350  54.2513280
  45.6398920  86.5275180  53.7995070  44.3274660  85.8078520  53.5725760
  49.5790910  82.3581980  71.5648700  48.9729070  82.3813580  70.8244450
  49.2745020  81.6265020  72.1015950  51.0091280  86.0862270  70.1758110
  51.9613030  86.0020290  70.1258350  50.8619500  86.7503980  70.8491900
  53.9000480  85.4656480  55.6750020  53.6141990  85.0521620  54.8604200
  53.7020030  86.3944190  55.5550540  38.4624090  78.7375570  70.5609340
  38.9663110  78.1582850  71.1325570  37.7231510  79.0215800  71.0985710
  45.3647710  81.4589760  54.1155630  45.2598350  80.8442110  54.8417010
  45.1971930  80.9355650  53.3318640  45.5162030  80.1446560  70.0944860
  44.7507700  80.7131560  70.0099530  45.6977990  79.8522770  69.2013090
  48.6050440  80.5209790  54.7197620  48.0560540  80.9679090  55.3640360
  49.2269700  80.0159040  55.2435290  52.6585380  81.8751890  70.6519880
  53.3994850  82.2127650  70.1487340  51.8958060  82.0443950  70.0989650
  40.4947170  76.8805160  71.4559410  40.5352510  76.5819030  72.3644640
  41.3492670  77.2812770  71.2966930  44.2725560  79.4800710  56.6162920
  44.6941980  79.3140580  57.4594310  44.3976400  78.6700940  56.1218060
  42.4352980  75.4597260  69.4233900  41.9049440  74.9688210  68.7957240
  43.1041050  75.8881460  68.8891830  46.7853200  78.5038320  53.8640020
  47.3058860  77.7887340  53.4981170  47.4321600  79.1424190  54.1640530
  51.3331040  79.9266720  69.1875090  51.7472060  80.0811800  70.0365510
  50.3982040  80.0521940  69.3500870  51.8053210  77.2662880  71.1914240
  52.3873980  76.5115200  71.1034720  51.9814980  77.7970320  70.4145720
  42.9225280  72.4259630  69.5031190  42.8282150  71.8080380  68.7782060
  42.3422670  73.1525920  69.2761100  45.6886720  70.9832870  66.5358580
  45.2404020  71.0057130  65.6904130  45.0551920  70.5851890  67.1328880
  46.0946270  79.8787200  67.1571020  46.5134380  80.7219930  66.9847260
  45.1754900  80.0159240  66.9277800  48.4310170  77.6103380  68.5408860
  48.5506380  77.0144520  69.2803700  49.2904170  77.6473070  68.1210160
  50.7698070  78.1640570  67.1171370  50.2433290  78.6883190  66.5136510
  51.1129410  78.7967960  67.7481100  43.1684460  75.5533940  53.5621080
  42.9673520  74.6901300  53.9234420  42.9976510  75.4667300  52.6242680
  43.9453690  86.1840210  68.2728750  43.4074780  86.9086270  67.9537450
  44.1987650  85.7070550  67.4826090  45.1978940  74.1524730  69.7984680
  45.7878630  73.8440580  70.4862500  44.3799180  73.6804480  69.9544580
  50.0172370  73.7690540  70.0317700  49.3287890  73.1072080  69.9667690
  50.7378390  73.3228810  70.4766160  41.9667260  72.6534560  53.5498960
  42.2693160  72.6601990  52.6418110  42.7061850  72.3032420  54.0466620
  46.8015900  87.4191420  68.5315400  46.7274600  88.3226560  68.8387770
  45.8994740  87.1003320  68.5037470  47.3501230  86.5849930  56.1541760
  48.2452020  86.9234900  56.1760520  47.3818860  85.8629340  55.5266040
  40.9897390  81.9576980  54.3828760  41.4272260  82.5006650  55.0386340
  41.4745120  81.1323930  54.3925100  38.2043190  84.7466010  61.8349020
  38.5346200  83.8787070  61.6027660  38.6334190  84.9524530  62.6653980
  42.8005110  83.0775020  59.4950990  42.5000650  82.9539990  60.3954900
  42.6942600  82.2183610  59.0866720  38.6933400  85.6136600  64.5730650
  38.2564390  85.7937400  65.4054800  39.2611080  86.3711220  64.4312370
  54.3295580  85.1153600  68.8607960  53.7297570  85.1746160  68.1171880
  54.4589480  84.1758580  68.9904810  55.5697030  82.8571420  54.1977670
  54.7389990  82.9248070  54.6684900  55.7468860  83.7475540  53.8944530
  38.5257830  78.1256830  60.9319530  37.8706670  77.8568470  60.2879230
  39.3635780  78.0161310  60.4821510  56.0313460  80.4569000  61.5453800
  56.4022290  79.6736320  61.1389770  56.6715390  81.1458100  61.3671100
  53.0147220  81.8405580  66.9584120  52.2007060  82.2702740  67.2209910
  53.4221420  82.4523990  66.3453170  39.5633760  78.5109400  65.4722870
  39.9306800  78.4236800  66.3518890  38.9944580  77.7475950  65.3729730
  54.3637620  76.9793780  68.4853340  54.1323710  76.7506530  67.5851290
  54.6242170  77.8993330  68.4398230  39.1149760  75.4218490  69.3781290
  38.2205810  75.3885250  69.7175000  39.6547310  75.6205280  70.1432540
  52.8025690  72.2050210  71.2633040  53.6795870  72.2133610  71.6467040
  52.8146530  71.4681050  70.6525390  37.7395910  75.3355760  56.8744860
  36.8359990  75.5985960  56.6996520  38.2236530  75.6066930  56.0944820
  54.4278680  76.1419620  65.6740610  53.4781390  76.1083160  65.7885600
  54.6091690  77.0519730  65.4390380  40.2823120  74.3921300  54.7839240
  40.9914820  73.9704520  54.2986520  39.5663060  74.4596530  54.1522590
  39.6189470  69.6966820  63.7264510  40.2665660  69.1464200  63.2859670
  40.0391310  69.9509970  64.5480320  53.5141810  69.8908180  67.0834150
  54.1514030  70.5042320  67.4493340  53.6616700  69.9268840  66.1383380
  53.0723270  86.5924180  60.4852390  53.6682340  86.2708750  59.8086810
  53.3301420  86.1196000  61.2765660  39.3721470  69.8522490  66.4689830
  39.0236290  70.3086310  67.2348010  39.0409170  68.9579620  66.5512260
  40.9785840  83.0242090  70.6343020  40.9355470  82.6535000  71.5157480
  41.1096850  83.9619660  70.7744840  44.6791870  84.5801680  66.2352740
  44.4383230  84.8476240  65.3483260  45.6194510  84.7507410  66.2903600
  46.8846290  71.0434370  69.9909250  46.8235180  71.6356200  70.7404660
  47.8246670  70.9360330  69.8459510  49.5220850  70.7004430  69.6301540
  50.1361260  71.0183720  68.9682620  50.0670410  70.2153020  70.2497400
  55.9396030  86.5996060  67.0363380  55.4454310  86.9964930  66.3190510
  55.3309320  85.9745270  67.4300660  40.0442110  69.3798690  69.7440600
  40.5925100  69.1986740  68.9806710  40.1097420  68.5892800  70.2796910
  40.8173870  85.9704340  67.7540800  40.2234190  85.8389040  68.4930840
  40.8097710  85.1342480  67.2882900  50.2628890  69.2636570  65.9570830
  49.3888730  69.5971680  65.7543760  50.1539640  68.7909750  66.7822700
  51.1700870  71.4707440  67.3412550  50.8414230  70.6559200  66.9614280
  52.1183170  71.4277250  67.2178240  53.6235480  87.2419480  64.3150120
  53.1638450  87.9935290  63.9408140  52.9947940  86.5225950  64.2564920
  40.4486100  83.3362720  66.7048840  39.7220160  82.7168010  66.6374790
  40.5095250  83.7303330  65.8346920  44.0531200  85.5507720  63.4898250
  44.5696220  84.9395080  62.9646510  44.7028580  86.0536500  63.9809260
  46.7926700  86.4416210  64.3167230  47.0804510  86.1870510  63.4400240
  47.3049920  85.8893570  64.9072800  48.0103710  70.1806410  64.8963740
  47.2275500  70.6551910  65.1760500  47.7166640  69.2761240  64.7876920
  38.7316100  86.6537110  59.9145600  38.5638140  86.0207790  60.6127490
  37.8650610  86.8596510  59.5639790  40.3378800  85.3470340  57.3595740
  39.8126420  85.7278370  56.6557700  40.2623380  85.9721110  58.0805450
  41.7269270  71.0117940  55.9579430  42.2562030  70.2247740  55.8287380
  42.3597590  71.6909130  56.1914960  46.8599060  87.3632310  71.6835430
  47.7866370  87.1276580  71.7271390  46.8449490  88.1904310  71.2021460
  55.0944120  86.9057880  58.6809680  55.2696310  86.2195620  58.0370600
  54.3965690  87.4304930  58.2886350  44.0462670  70.0277060  71.4477310
  43.7646940  70.5310660  70.6838130  44.4282370  69.2298810  71.0819440
  42.9371770  87.2952720  56.2344990  43.6690590  87.0112000  55.6868880
  43.1965440  87.0566000  57.1244370  42.0986560  83.4117450  56.2391320
  41.4695440  83.8802550  56.7877150  42.2134390  82.5666670  56.6737510
  50.6478130  69.4430640  72.0257780  50.5343580  69.7625250  72.9209300
  51.4647870  69.8443150  71.7295060  53.4276620  86.5902170  71.5076470
  54.2201940  86.0951400  71.3002430  53.7209770  87.2692310  72.1152080
  49.5536280  77.4623110  42.3892520  49.4730330  76.5477720  42.1184230
  49.1400700  77.9590180  41.6832230  47.6854320  79.2402130  44.2701790
  46.9096420  78.7602570  44.5600360  48.3367250  78.5607780  44.0957950
  41.7020150  79.5521940  45.1477550  40.8705030  79.2970650  45.5474060
  42.3101130  79.6232710  45.8835470  51.7061750  83.6462320  43.0500920
  51.2443280  82.8749560  43.3788090  52.5187300  83.6728390  43.5553370
  41.6821410  83.5862030  45.3435570  41.9849450  82.6959770  45.1645790
  42.4265000  84.1432250  45.1157820  40.1112100  74.5123830  38.9319940
  39.2228800  74.8539800  38.8299820  40.3953290  74.3124150  38.0400770
  38.0745110  77.1129480  44.8159640  38.6461220  76.3451680  44.8163280
  38.0746650  77.4118240  43.9066250  47.9325060  85.9320330  42.6704910
  47.3136500  86.3877830  42.0999350  48.7876840  86.0871790  42.2694610
  47.1263310  81.9159320  44.2771950  47.0571590  80.9749260  44.1161080
  47.8883170  82.0060730  44.8494520  39.3169980  72.5213840  46.6028570
  39.1372820  71.6239590  46.8831330  38.9150060  73.0685710  47.2775520
  48.1568480  74.7229700  44.5040880  48.5333300  73.8501580  44.3914550
  48.0587990  75.0588400  43.6131320  42.2873490  73.0955330  39.9658320
  42.3940240  73.9959060  40.2727080  41.3765850  73.0473300  39.6752970
  39.9356650  75.0174340  45.2110910  40.6166760  75.2812710  45.8298310
  39.6204700  74.1775210  45.5448920  44.1281220  76.0641700  44.2983500
  44.6359440  76.5622670  44.9388520  44.6594460  75.2876900  44.1222860
  48.7988410  80.8159570  40.0636820  48.1805680  81.2809020  39.4999540
  49.3111660  81.5087050  40.4806330  43.6620170  80.3435440  46.7420420
  43.3289550  80.9704360  47.3841490  43.8386850  80.8697320  45.9622090
  52.1754080  74.1580520  44.2096760  51.4709650  74.4465410  44.7899870
  52.5366240  74.9680630  43.8496320  42.0932650  72.4150220  46.5717370
  42.4349460  73.2592270  46.2771240  41.1548460  72.5633960  46.6882710
  42.8739270  82.3116240  48.5569600  43.4913270  82.9867320  48.2754050
  42.0132390  82.7204220  48.4657100  38.1671610  81.5016100  37.4376450
  37.7899590  81.9903200  36.7061350  38.4244680  82.1741380  38.0682980
  53.7916860  83.7755650  46.4724240  53.1080380  84.4454760  46.4640910
  54.3311150  83.9736300  45.7069100  51.3275600  85.6199780  45.1869420
  51.3402760  85.2162070  44.3191680  50.7750820  86.3947070  45.0830850
  52.6221020  82.3416000  40.2759590  52.5117350  81.3990330  40.4009010
  52.6189270  82.7031640  41.1622350  50.7261040  80.5229620  46.5152030
  51.1429830  80.3089730  45.6805490  51.4500860  80.7802410  47.0860650
  48.1641300  77.9681320  39.6322080  47.2370580  77.9018700  39.8610550
  48.3166120  78.9061450  39.5177320  48.1510380  74.2398320  36.6289240
  47.2114050  74.4012280  36.7141700  48.4693640  74.9584000  36.0825230
  52.1938590  79.5301620  40.1357330  51.5751010  79.1921170  39.4883630
  52.1763040  78.8861380  40.8436520  43.7697940  78.4946060  42.4141810
  43.3654940  77.7823310  41.9187710  43.8561060  78.1499300  43.3029850
  44.2379640  82.1813620  44.5781020  43.9407930  81.5759090  43.8988800
  45.1879460  82.2190930  44.4670380  42.4826560  75.2689270  46.1940850
  43.0341150  75.3784610  45.4194100  42.9970070  75.6426870  46.9096080
  52.3265250  85.7545490  48.2404120  51.8495810  86.5617680  48.0476730
  51.6427040  85.1023820  48.3930330  43.3298070  81.9195310  51.2288820
  42.4326600  82.1435280  51.4762220  43.3550940  82.0430250  50.2800220
  50.3703290  78.7688430  37.1430080  50.8096570  77.9310860  36.9967900
  51.0831710  79.4017830  37.2294220  42.1569290  78.7908630  49.8046190
  42.0177060  79.6631430  50.1733590  41.2750650  78.4481440  49.6594130
  48.4798670  83.7084500  41.1111320  48.9194580  84.4508830  40.6966710
  48.4185560  83.9511070  42.0350280  43.9549640  84.7330330  52.0131340
  43.9265070  85.1373280  51.1459770  43.7914610  83.8040690  51.8502940
  40.4702570  77.3891040  39.9148460  40.3500170  78.1153130  39.3029730
  40.1603460  76.6193950  39.4376370  55.9064460  85.5157430  53.3095510
  56.3824180  85.9940320  53.9884590  56.5271620  85.4474920  52.5841010
  38.1087940  80.5606180  45.7217100  38.1868360  80.6954950  44.7772820
  38.7229620  79.8522070  45.9145220  39.3535570  82.2606370  42.1323280
  38.9463650  82.4020960  41.2776880  40.2448580  81.9766530  41.9294490
  55.3097710  82.7070280  50.4695520  55.4360770  82.4682160  49.5512700
  55.3519090  81.8754820  50.9417600  49.1714450  86.4098280  49.0390330
  49.6859120  86.3206290  49.8412760  48.3283530  86.7557980  49.3318240
  51.1468850  86.6953620  38.4674330  50.9869990  86.4056560  39.3656160
  50.9815560  85.9193750  37.9319560  43.6257230  86.4752150  40.2445950
  43.4499710  85.5587690  40.0313750  42.7712970  86.8339440  40.4843750
  50.8494980  84.2041180  37.0272330  50.1560140  84.2018470  36.3674610
  51.5917840  83.7800500  36.5966500  50.4144910  85.8303890  41.1020820
  50.8701860  85.0493270  41.4159440  50.7537430  86.5410710  41.6462000
  38.1647460  81.6020350  48.2611560  38.3278500  81.1325710  47.4430930
  38.6299910  81.0943910  48.9260400  47.2236040  73.5994630  48.9007450
  46.7615410  73.8077650  49.7127390  46.8214150  72.7853980  48.5978120
  49.3190260  76.3205330  52.1302900  49.6443670  75.4869080  51.7905130
  50.1070590  76.8433850  52.2781230  42.7280450  75.8559680  41.0253380
  42.5021370  75.6396850  41.9300000  41.9472980  76.2888140  40.6799350
  49.9578210  75.8623050  39.6244030  49.3587100  76.5858850  39.4407650
  50.5057820  75.7999830  38.8420480  45.1679660  76.7545260  51.6913650
  45.0723260  75.8139990  51.5414050  46.0111640  76.9760330  51.2961720
  48.5643080  74.4986590  41.6547310  48.9572650  74.8158790  40.8416000
  48.9259930  73.6198470  41.7691830  40.2990200  73.1658930  49.8447430
  39.9053590  74.0134140  50.0520210  39.6108600  72.5285300  50.0356070
  46.8735250  73.2493900  52.9144170  46.1833570  73.0566100  53.5490260
  47.6167550  73.5328540  53.4468470  37.7877480  75.0307510  35.0880230
  37.7052150  75.9738270  35.2295220  37.4360540  74.8882420  34.2092580
  49.1498220  77.0892340  45.7498090  48.4179340  77.5979150  46.0988190
  48.7522560  76.2722320  45.4486870  45.5875610  73.7646540  44.1550580
  45.5911670  73.3236490  43.3055120  46.4826730  74.0863870  44.2622400
  41.4377990  73.6473030  43.1144790  41.0978040  74.1248260  43.8711840
  40.6755310  73.1938150  42.7545890  45.6495760  74.7658620  37.1457340
  45.7708580  74.7245100  38.0943160  45.2644270  75.6282770  36.9904070
  44.6617260  77.0759760  36.5440640  44.0934160  76.6278010  35.9176550
  45.3706260  77.4352540  36.0105790  39.7386440  80.9771780  50.4207370
  39.3541230  80.3365450  51.0190330  40.0498630  81.6807900  50.9902100
  45.8883580  77.8248320  45.9015990  46.2553710  77.3506890  46.6477330
  45.6988640  78.6989890  46.2424330  38.7524070  72.5692010  42.0309460
  38.4670990  72.2047680  42.8688080  38.6902930  71.8372470  41.4172600
  43.6782950  76.8656960  48.2200200  43.3740020  77.7448940  48.4450560
  44.6329410  76.9256750  48.2557640  42.2064740  81.0717950  38.8167050
  41.4327000  80.5315570  38.6565770  42.9359370  80.5524560  38.4784810
  52.9652720  80.0683310  44.6093440  53.6851840  80.5638600  44.2189550
  52.7634540  79.3901200  43.9647310  48.3471520  80.1392370  50.4962440
  48.2808830  79.2188040  50.2420030  47.7176660  80.2367810  51.2107080
  51.1411050  75.8340920  37.0484990  52.0290670  76.1458150  36.8736330
  51.1116140  74.9613170  36.6565570  42.2502140  80.7398330  42.4545860
  42.7680810  79.9366590  42.4002750  41.7986160  80.6777470  43.2962690
  47.1371640  82.0064610  37.7273160  47.4787340  82.7506840  37.2316480
  46.3084350  82.3195730  38.0897990  39.7346680  77.7059700  49.3671560
  39.3761620  78.3713550  49.9544900  39.4401240  76.8743250  49.7384180
  42.9359800  78.1643940  52.2511110  42.6359940  78.3101120  51.3538930
  43.7071040  77.6049230  52.1584500  48.2788250  82.9612940  50.2466240
  48.2932790  82.0293900  50.0285150  47.5713350  83.0472700  50.8856010
  54.4412570  83.9995020  39.2446980  53.7988730  83.3450640  39.5190700
  54.0543230  84.4050110  38.4687650  50.0199050  81.3280450  43.0918670
  50.3722870  80.7308580  42.4320040  49.1361380  81.0024680  43.2626920
  46.1062330  82.0878140  40.4989080  46.7933460  82.6347350  40.8796670
  45.3194750  82.6318870  40.5338690  38.2454730  77.7050960  35.9906160
  39.1149580  77.9875760  36.2742080  37.7545050  78.5186830  35.8754970
  45.4089540  79.0924170  40.1114440  45.8652320  79.9029420  40.3374630
  45.0577750  78.7747310  40.9432930  47.7122150  84.6030510  47.3406740
  48.3564370  84.8089890  48.0180160  48.0751590  83.8418910  46.8877590
  48.9854230  82.6062860  46.0584190  49.6276460  81.9056020  46.1716360
  49.5103580  83.3861300  45.8781080  52.8309950  82.8911480  35.7823330
  52.6047530  82.1741920  36.3747970  52.4406150  82.6423920  34.9445080
  50.7591850  83.4057760  49.2620250  51.0948090  83.9924450  49.9398170
  49.8392190  83.2750470  49.4918040  38.6125980  86.9178340  36.5567790
  38.9723620  87.5167680  35.9025060  38.4718320  87.4638230  37.3302820
  52.4126200  80.8083420  37.4437490  52.1247900  81.2696110  38.2315370
  53.2078370  80.3481190  37.7121710  38.5967840  85.1833200  51.0310190
  38.7058960  84.2427940  50.8905580  37.9448400  85.4487950  50.3823920
  46.5880430  83.4549090  52.4308310  46.2677300  82.7358330  52.9754000
  45.9138790  84.1304160  52.5044370  44.6294600  84.3009540  37.3741460
  44.6204700  85.0339230  36.7585970  43.7092960  84.0541120  37.4668420
  40.2301240  79.5224430  38.1188220  39.6229190  80.2623330  38.1283520
  40.7050590  79.6123790  37.2926420  49.8034030  73.6875250  47.7945110
  50.1714850  72.8670460  48.1224680  48.9432230  73.7477140  48.2100760
  47.6154200  84.3637780  36.0366650  47.7166180  84.1601770  35.1068630
  46.7155940  84.1096060  36.2414430  45.1380090  74.9218140  40.0190550
  44.4296240  75.3904480  40.4604160  45.4224570  74.2640150  40.6535740
  46.7636020  76.3414840  48.0183080  47.2621270  76.8160660  48.6834930
  46.9058970  75.4178360  48.2253110  46.2572310  86.8824100  40.7314320
  46.5113810  86.8445490  39.8093690  45.3084790  86.7557430  40.7242570
  43.3415110  73.2303220  37.3941260  44.1905640  73.6673370  37.3281450
  42.9746380  73.5423480  38.2213320  52.2624890  77.8015980  42.3072830
  51.3215030  77.8166210  42.4820520  52.5768960  77.0151940  42.7533130
  42.2406530  79.4835580  35.8676790  43.0069800  79.3716940  36.4302220
  42.3181220  78.7873550  35.2153560  40.9353290  76.9160650  36.5509680
  41.0156880  75.9688160  36.6627080  41.8273040  77.2467530  36.6570340
  54.2650470  84.9724830  43.9827090  54.3897890  85.7956000  44.4550900
  55.1316030  84.7615560  43.6351240  41.7368000  87.0656040  43.6544220
  42.4730480  86.5171500  43.9252790  42.1208920  87.9312050  43.5150210
  38.6213480  83.1329610  39.5285730  37.6953260  83.3750750  39.5191140
  39.0869910  83.9603870  39.4070480  40.7426280  86.2502110  52.8429800
  41.5439010  86.5714160  53.2565200  40.2278100  85.8897690  53.5649710
  44.8470310  86.2386350  35.4769790  45.6398920  86.5275180  35.0251580
  44.3274660  85.8078520  34.7982270  49.5790910  82.3581980  52.7905210
  48.9729070  82.3813580  52.0500960  49.2745020  81.6265020  53.3272460
  51.0091280  86.0862270  51.4014620  51.9613030  86.0020290  51.3514860
  50.8619500  86.7503980  52.0748410  53.9000480  85.4656480  36.9006530
  53.6141990  85.0521620  36.0860710  53.7020030  86.3944190  36.7807050
  38.4624090  78.7375570  51.7865850  38.9663110  78.1582850  52.3582080
  37.7231510  79.0215800  52.3242220  45.3647710  81.4589760  35.3412140
  45.2598350  80.8442110  36.0673520  45.1971930  80.9355650  34.5575150
  45.5162030  80.1446560  51.3201370  44.7507700  80.7131560  51.2356040
  45.6977990  79.8522770  50.4269600  48.6050440  80.5209790  35.9454130
  48.0560540  80.9679090  36.5896870  49.2269700  80.0159040  36.4691800
  52.6585380  81.8751890  51.8776390  53.3994850  82.2127650  51.3743850
  51.8958060  82.0443950  51.3246160  40.4947170  76.8805160  52.6815920
  40.5352510  76.5819030  53.5901150  41.3492670  77.2812770  52.5223440
  44.2725560  79.4800710  37.8419430  44.6941980  79.3140580  38.6850820
  44.3976400  78.6700940  37.3474570  42.4352980  75.4597260  50.6490410
  41.9049440  74.9688210  50.0213750  43.1041050  75.8881460  50.1148340
  46.7853200  78.5038320  35.0896530  47.3058860  77.7887340  34.7237680
  47.4321600  79.1424190  35.3897040  51.3331040  79.9266720  50.4131600
  51.7472060  80.0811800  51.2622020  50.3982040  80.0521940  50.5757380
  42.9225280  72.4259630  50.7287700  42.8282150  71.8080380  50.0038570
  42.3422670  73.1525920  50.5017610  46.0946270  79.8787200  48.3827530
  46.5134380  80.7219930  48.2103770  45.1754900  80.0159240  48.1534310
  48.4310170  77.6103380  49.7665370  48.5506380  77.0144520  50.5060210
  49.2904170  77.6473070  49.3466670  50.7698070  78.1640570  48.3427880
  50.2433290  78.6883190  47.7393020  51.1129410  78.7967960  48.9737610
  43.1684460  75.5533940  34.7877590  42.9673520  74.6901300  35.1490930
  42.9976510  75.4667300  33.8499190  43.9453690  86.1840210  49.4985260
  43.4074780  86.9086270  49.1793960  44.1987650  85.7070550  48.7082600
  45.1978940  74.1524730  51.0241190  45.7878630  73.8440580  51.7119010
  44.3799180  73.6804480  51.1801090  50.0172370  73.7690540  51.2574210
  49.3287890  73.1072080  51.1924200  50.7378390  73.3228810  51.7022670
  41.9667260  72.6534560  34.7755470  42.2693160  72.6601990  33.8674620
  42.7061850  72.3032420  35.2723130  46.8015900  87.4191420  49.7571910
  46.7274600  88.3226560  50.0644280  45.8994740  87.1003320  49.7293980
  47.3501230  86.5849930  37.3798270  48.2452020  86.9234900  37.4017030
  47.3818860  85.8629340  36.7522550  40.9897390  81.9576980  35.6085270
  41.4272260  82.5006650  36.2642850  41.4745120  81.1323930  35.6181610
  38.2043190  84.7466010  43.0605530  38.5346200  83.8787070  42.8284170
  38.6334190  84.9524530  43.8910490  42.8005110  83.0775020  40.7207500
  42.5000650  82.9539990  41.6211410  42.6942600  82.2183610  40.3123230
  38.6933400  85.6136600  45.7987160  38.2564390  85.7937400  46.6311310
  39.2611080  86.3711220  45.6568880  54.3295580  85.1153600  50.0864470
  53.7297570  85.1746160  49.3428390  54.4589480  84.1758580  50.2161320
  55.5697030  82.8571420  35.4234180  54.7389990  82.9248070  35.8941410
  55.7468860  83.7475540  35.1201040  55.0253490  79.6018900  37.9268380
  55.7872400  80.1715550  38.0328070  55.0407860  79.0346100  38.6976690
  38.5257830  78.1256830  42.1576040  37.8706670  77.8568470  41.5135740
  39.3635780  78.0161310  41.7078020  56.0313460  80.4569000  42.7710310
  56.4022290  79.6736320  42.3646280  56.6715390  81.1458100  42.5927610
  53.0147220  81.8405580  48.1840630  52.2007060  82.2702740  48.4466420
  53.4221420  82.4523990  47.5709680  55.0772660  79.8953270  35.0840900
  55.3521500  80.8032150  34.9560120  54.8883400  79.8315800  36.0202890
  51.4748270  72.9198120  36.3794530  51.8933150  72.7329100  35.5391190
  51.1684330  72.0677170  36.6897460  39.5633760  78.5109400  46.6979380
  39.9306800  78.4236800  47.5775400  38.9944580  77.7475950  46.5986240
  39.1149760  75.4218490  50.6037800  38.2205810  75.3885250  50.9431510
  39.6547310  75.6205280  51.3689050  37.7395910  75.3355760  38.1001370
  36.8359990  75.5985960  37.9253030  38.2236530  75.6066930  37.3201330
  40.2823120  74.3921300  36.0095750  40.9914820  73.9704520  35.5243030
  39.5663060  74.4596530  35.3779100  53.0723270  86.5924180  41.7108900
  53.6682340  86.2708750  41.0343320  53.3301420  86.1196000  42.5022170
  40.9785840  83.0242090  51.8599530  40.9355470  82.6535000  52.7413990
  41.1096850  83.9619660  52.0001350  44.6791870  84.5801680  47.4609250
  44.4383230  84.8476240  46.5739770  45.6194510  84.7507410  47.5160110
  55.9396030  86.5996060  48.2619890  55.4454310  86.9964930  47.5447020
  55.3309320  85.9745270  48.6557170  40.8173870  85.9704340  48.9797310
  40.2234190  85.8389040  49.7187350  40.8097710  85.1342480  48.5139410
  51.1700870  71.4707440  48.5669060  50.8414230  70.6559200  48.1870790
  52.1183170  71.4277250  48.4434750  53.6235480  87.2419480  45.5406630
  53.1638450  87.9935290  45.1664650  52.9947940  86.5225950  45.4821430
  40.4486100  83.3362720  47.9305350  39.7220160  82.7168010  47.8631300
  40.5095250  83.7303330  47.0603430  44.0531200  85.5507720  44.7154760
  44.5696220  84.9395080  44.1903020  44.7028580  86.0536500  45.2065770
  46.7926700  86.4416210  45.5423740  47.0804510  86.1870510  44.6656750
  47.3049920  85.8893570  46.1329310  38.7316100  86.6537110  41.1402110
  38.5638140  86.0207790  41.8384000  37.8650610  86.8596510  40.7896300
  40.3378800  85.3470340  38.5852250  39.8126420  85.7278370  37.8814210
  40.2623380  85.9721110  39.3061960  46.8599060  87.3632310  52.9091940
  47.7866370  87.1276580  52.9527900  46.8449490  88.1904310  52.4277970
  55.0944120  86.9057880  39.9066190  55.2696310  86.2195620  39.2627110
  54.3965690  87.4304930  39.5142860  42.9371770  87.2952720  37.4601500
  43.6690590  87.0112000  36.9125390  43.1965440  87.0566000  38.3500880
  42.0986560  83.4117450  37.4647830  41.4695440  83.8802550  38.0133660
  42.2134390  82.5666670  37.8994020  53.4276620  86.5902170  52.7332980
  54.2201940  86.0951400  52.5258940  53.7209770  87.2692310  53.3408590
  49.5536280  77.4623110  23.6149030  49.4730330  76.5477720  23.3440740
  49.1400700  77.9590180  22.9088740  47.6854320  79.2402130  25.4958300
  46.9096420  78.7602570  25.7856870  48.3367250  78.5607780  25.3214460
  41.7020150  79.5521940  26.3734060  40.8705030  79.2970650  26.7730570
  42.3101130  79.6232710  27.1091980  51.7061750  83.6462320  24.2757430
  51.2443280  82.8749560  24.6044600  52.5187300  83.6728390  24.7809880
  41.6821410  83.5862030  26.5692080  41.9849450  82.6959770  26.3902300
  42.4265000  84.1432250  26.3414330  40.1112100  74.5123830  20.1576450
  39.2228800  74.8539800  20.0556330  40.3953290  74.3124150  19.2657280
  38.0745110  77.1129480  26.0416150  38.6461220  76.3451680  26.0419790
  38.0746650  77.4118240  25.1322760  47.9325060  85.9320330  23.8961420
  47.3136500  86.3877830  23.3255860  48.7876840  86.0871790  23.4951120
  47.1263310  81.9159320  25.5028460  47.0571590  80.9749260  25.3417590
  47.8883170  82.0060730  26.0751030  48.1568480  74.7229700  25.7297390
  48.5333300  73.8501580  25.6171060  48.0587990  75.0588400  24.8387830
  42.2873490  73.0955330  21.1914830  42.3940240  73.9959060  21.4983590
  41.3765850  73.0473300  20.9009480  51.9392600  72.2180140  22.6625730
  52.7602220  71.7276710  22.7051210  51.9726680  72.8077800  23.4157570
  39.9356650  75.0174340  26.4367420  40.6166760  75.2812710  27.0554820
  39.6204700  74.1775210  26.7705430  44.1281220  76.0641700  25.5240010
  44.6359440  76.5622670  26.1645030  44.6594460  75.2876900  25.3479370
  48.7988410  80.8159570  21.2893330  48.1805680  81.2809020  20.7256050
  49.3111660  81.5087050  21.7062840  43.6620170  80.3435440  27.9676930
  43.3289550  80.9704360  28.6098000  43.8386850  80.8697320  27.1878600
  52.1754080  74.1580520  25.4353270  51.4709650  74.4465410  26.0156380
  52.5366240  74.9680630  25.0752830  42.0932650  72.4150220  27.7973880
  42.4349460  73.2592270  27.5027750  41.1548460  72.5633960  27.9139220
  42.8739270  82.3116240  29.7826110  43.4913270  82.9867320  29.5010560
  42.0132390  82.7204220  29.6913610  38.1671610  81.5016100  18.6632960
  37.7899590  81.9903200  17.9317860  38.4244680  82.1741380  19.2939490
  53.7916860  83.7755650  27.6980750  53.1080380  84.4454760  27.6897420
  54.3311150  83.9736300  26.9325610  51.3275600  85.6199780  26.4125930
  51.3402760  85.2162070  25.5448190  50.7750820  86.3947070  26.3087360
  52.6221020  82.3416000  21.5016100  52.5117350  81.3990330  21.6265520
  52.6189270  82.7031640  22.3878860  50.7261040  80.5229620  27.7408540
  51.1429830  80.3089730  26.9062000  51.4500860  80.7802410  28.3117160
  48.1641300  77.9681320  20.8578590  47.2370580  77.9018700  21.0867060
  48.3166120  78.9061450  20.7433830  48.1510380  74.2398320  17.8545750
  47.2114050  74.4012280  17.9398210  48.4693640  74.9584000  17.3081740
  54.6723140  78.9216840  27.8324780  53.8441770  78.9909930  27.3574910
  55.2673620  79.5071150  27.3640610  52.1938590  79.5301620  21.3613840
  51.5751010  79.1921170  20.7140140  52.1763040  78.8861380  22.0693030
  51.6365150  75.7086160  28.7779650  51.2236330  76.5339870  29.0319640
  50.9041100  75.1231200  28.5856010  43.7697940  78.4946060  23.6398320
  43.3654940  77.7823310  23.1444220  43.8561060  78.1499300  24.5286360
  44.2379640  82.1813620  25.8037530  43.9407930  81.5759090  25.1245310
  45.1879460  82.2190930  25.6926890  42.4826560  75.2689270  27.4197360
  43.0341150  75.3784610  26.6450610  42.9970070  75.6426870  28.1352590
  52.3265250  85.7545490  29.4660630  51.8495810  86.5617680  29.2733240
  51.6427040  85.1023820  29.6186840  43.3298070  81.9195310  32.4545330
  42.4326600  82.1435280  32.7018730  43.3550940  82.0430250  31.5056730
  50.3703290  78.7688430  18.3686590  50.8096570  77.9310860  18.2224410
  51.0831710  79.4017830  18.4550730  42.1569290  78.7908630  31.0302700
  42.0177060  79.6631430  31.3990100  41.2750650  78.4481440  30.8850640
  48.4798670  83.7084500  22.3367830  48.9194580  84.4508830  21.9223220
  48.4185560  83.9511070  23.2606790  43.9549640  84.7330330  33.2387850
  43.9265070  85.1373280  32.3716280  43.7914610  83.8040690  33.0759450
  53.9520430  70.0231240  16.6827630  53.6393090  70.1158070  17.5826700
  54.7132900  70.6012270  16.6325060  40.4702570  77.3891040  21.1404970
  40.3500170  78.1153130  20.5286240  40.1603460  76.6193950  20.6632880
  55.9064460  85.5157430  34.5352020  56.3824180  85.9940320  35.2141100
  56.5271620  85.4474920  33.8097520  38.1087940  80.5606180  26.9473610
  38.1868360  80.6954950  26.0029330  38.7229620  79.8522070  27.1401730
  39.3535570  82.2606370  23.3579790  38.9463650  82.4020960  22.5033390
  40.2448580  81.9766530  23.1551000  55.3097710  82.7070280  31.6952030
  55.4360770  82.4682160  30.7769210  55.3519090  81.8754820  32.1674110
  49.1714450  86.4098280  30.2646840  49.6859120  86.3206290  31.0669270
  48.3283530  86.7557980  30.5574750  51.1468850  86.6953620  19.6930840
  50.9869990  86.4056560  20.5912670  50.9815560  85.9193750  19.1576070
  43.6257230  86.4752150  21.4702460  43.4499710  85.5587690  21.2570260
  42.7712970  86.8339440  21.7100260  50.8494980  84.2041180  18.2528840
  50.1560140  84.2018470  17.5931120  51.5917840  83.7800500  17.8223010
  50.4144910  85.8303890  22.3277330  50.8701860  85.0493270  22.6415950
  50.7537430  86.5410710  22.8718510  38.1647460  81.6020350  29.4868070
  38.3278500  81.1325710  28.6687440  38.6299910  81.0943910  30.1516910
  52.2240550  74.8203580  31.2560620  51.3734140  74.5209330  31.5769690
  52.0642340  75.0645590  30.3444440  49.3190260  76.3205330  33.3559410
  49.6443670  75.4869080  33.0161640  50.1070590  76.8433850  33.5037740
  46.0525050  70.3536810  19.4034470  45.4279230  70.3496680  20.1287780
  45.9655170  69.4867770  19.0070440  42.7280450  75.8559680  22.2509890
  42.5021370  75.6396850  23.1556510  41.9472980  76.2888140  21.9055860
  49.9578210  75.8623050  20.8500540  49.3587100  76.5858850  20.6664160
  50.5057820  75.7999830  20.0676990  45.1679660  76.7545260  32.9170160
  45.0723260  75.8139990  32.7670560  46.0111640  76.9760330  32.5218230
  48.5643080  74.4986590  22.8803820  48.9572650  74.8158790  22.0672510
  48.9259930  73.6198470  22.9948340  40.2990200  73.1658930  31.0703940
  39.9053590  74.0134140  31.2776720  39.6108600  72.5285300  31.2612580
  46.8735250  73.2493900  34.1400680  46.1833570  73.0566100  34.7746770
  47.6167550  73.5328540  34.6724980  37.7877480  75.0307510  16.3136740
  37.7052150  75.9738270  16.4551730  37.4360540  74.8882420  15.4349090
  49.1498220  77.0892340  26.9754600  48.4179340  77.5979150  27.3244700
  48.7522560  76.2722320  26.6743380  45.5875610  73.7646540  25.3807090
  45.5911670  73.3236490  24.5311630  46.4826730  74.0863870  25.4878910
  41.4377990  73.6473030  24.3401300  41.0978040  74.1248260  25.0968350
  40.6755310  73.1938150  23.9802400  45.6495760  74.7658620  18.3713850
  45.7708580  74.7245100  19.3199670  45.2644270  75.6282770  18.2160580
  44.6617260  77.0759760  17.7697150  44.0934160  76.6278010  17.1433060
  45.3706260  77.4352540  17.2362300  39.7386440  80.9771780  31.6463880
  39.3541230  80.3365450  32.2446840  40.0498630  81.6807900  32.2158610
  45.8883580  77.8248320  27.1272500  46.2553710  77.3506890  27.8733840
  45.6988640  78.6989890  27.4680840  38.7524070  72.5692010  23.2565970
  38.4670990  72.2047680  24.0944590  38.6902930  71.8372470  22.6429110
  43.6782950  76.8656960  29.4456710  43.3740020  77.7448940  29.6707070
  44.6329410  76.9256750  29.4814150  42.2064740  81.0717950  20.0423560
  41.4327000  80.5315570  19.8822280  42.9359370  80.5524560  19.7041320
  52.9652720  80.0683310  25.8349950  53.6851840  80.5638600  25.4446060
  52.7634540  79.3901200  25.1903820  48.4262660  71.4621270  19.9779340
  47.6127270  70.9634440  19.9024650  48.2324610  72.3019520  19.5615690
  48.3471520  80.1392370  31.7218950  48.2808830  79.2188040  31.4676540
  47.7176660  80.2367810  32.4363590  51.1411050  75.8340920  18.2741500
  52.0290670  76.1458150  18.0992840  51.1116140  74.9613170  17.8822080
  42.2502140  80.7398330  23.6802370  42.7680810  79.9366590  23.6259260
  41.7986160  80.6777470  24.5219200  47.1371640  82.0064610  18.9529670
  47.4787340  82.7506840  18.4572990  46.3084350  82.3195730  19.3154500
  39.7346680  77.7059700  30.5928070  39.3761620  78.3713550  31.1801410
  39.4401240  76.8743250  30.9640690  42.9359800  78.1643940  33.4767620
  42.6359940  78.3101120  32.5795440  43.7071040  77.6049230  33.3841010
  48.2788250  82.9612940  31.4722750  48.2932790  82.0293900  31.2541660
  47.5713350  83.0472700  32.1112520  53.4125320  77.1452760  17.7421360
  53.3289040  77.5766980  16.8917800  54.1319510  77.6051110  18.1748180
  54.4899460  79.6020280  30.8191330  53.7647650  80.1949060  30.6220720
  55.0174920  79.5943820  30.0204700  54.4412570  83.9995020  20.4703490
  53.7988730  83.3450640  20.7447210  54.0543230  84.4050110  19.6944160
  50.0199050  81.3280450  24.3175180  50.3722870  80.7308580  23.6576550
  49.1361380  81.0024680  24.4883430  46.1062330  82.0878140  21.7245590
  46.7933460  82.6347350  22.1053180  45.3194750  82.6318870  21.7595200
  38.2454730  77.7050960  17.2162670  39.1149580  77.9875760  17.4998590
  37.7545050  78.5186830  17.1011480  45.4089540  79.0924170  21.3370950
  45.8652320  79.9029420  21.5631140  45.0577750  78.7747310  22.1689440
  47.7122150  84.6030510  28.5663250  48.3564370  84.8089890  29.2436670
  48.0751590  83.8418910  28.1134100  41.3101320  69.4361820  21.8093470
  41.1815950  69.4279720  22.7578390  40.4863340  69.7744910  21.4584480
  48.9854230  82.6062860  27.2840700  49.6276460  81.9056020  27.3972870
  49.5103580  83.3861300  27.1037590  52.8309950  82.8911480  17.0079840
  52.6047530  82.1741920  17.6004480  52.4406150  82.6423920  16.1701590
  50.7591850  83.4057760  30.4876760  51.0948090  83.9924450  31.1654680
  49.8392190  83.2750470  30.7174550  38.6125980  86.9178340  17.7824300
  38.9723620  87.5167680  17.1281570  38.4718320  87.4638230  18.5559330
  52.4126200  80.8083420  18.6694000  52.1247900  81.2696110  19.4571880
  53.2078370  80.3481190  18.9378220  38.5967840  85.1833200  32.2566700
  38.7058960  84.2427940  32.1162090  37.9448400  85.4487950  31.6080430
  46.5880430  83.4549090  33.6564820  46.2677300  82.7358330  34.2010510
  45.9138790  84.1304160  33.7300880  44.6294600  84.3009540  18.5997970
  44.6204700  85.0339230  17.9842480  43.7092960  84.0541120  18.6924930
  40.2301240  79.5224430  19.3444730  39.6229190  80.2623330  19.3540030
  40.7050590  79.6123790  18.5182930  49.8034030  73.6875250  29.0201620
  50.1714850  72.8670460  29.3481190  48.9432230  73.7477140  29.4357270
  53.1696060  72.6432190  19.8289180  52.5409220  72.7477860  19.1147410
  52.6747980  72.8628970  20.6183060  47.6154200  84.3637780  17.2623160
  47.7166180  84.1601770  16.3325140  46.7155940  84.1096060  17.4670940
  45.1380090  74.9218140  21.2447060  44.4296240  75.3904480  21.6860670
  45.4224570  74.2640150  21.8792250  46.7636020  76.3414840  29.2439590
  47.2621270  76.8160660  29.9091440  46.9058970  75.4178360  29.4509620
  49.1695520  71.6468800  22.6842850  49.0463300  71.6654930  21.7352360
  50.1180080  71.6947740  22.8041250  46.2572310  86.8824100  21.9570830
  46.5113810  86.8445490  21.0350200  45.3084790  86.7557430  21.9499080
  43.3415110  73.2303220  18.6197770  44.1905640  73.6673370  18.5537960
  42.9746380  73.5423480  19.4469830  52.2624890  77.8015980  23.5329340
  51.3215030  77.8166210  23.7077030  52.5768960  77.0151940  23.9789640
  42.2406530  79.4835580  17.0933300  43.0069800  79.3716940  17.6558730
  42.3181220  78.7873550  16.4410070  40.9353290  76.9160650  17.7766190
  41.0156880  75.9688160  17.8883590  41.8273040  77.2467530  17.8826850
  54.2650470  84.9724830  25.2083600  54.3897890  85.7956000  25.6807410
  55.1316030  84.7615560  24.8607750  41.7368000  87.0656040  24.8800730
  42.4730480  86.5171500  25.1509300  42.1208920  87.9312050  24.7406720
  38.6213480  83.1329610  20.7542240  37.6953260  83.3750750  20.7447650
  39.0869910  83.9603870  20.6326990  40.7426280  86.2502110  34.0686310
  41.5439010  86.5714160  34.4821710  40.2278100  85.8897690  34.7906220
  44.8470310  86.2386350  16.7026300  45.6398920  86.5275180  16.2508090
  44.3274660  85.8078520  16.0238780  49.5790910  82.3581980  34.0161720
  48.9729070  82.3813580  33.2757470  49.2745020  81.6265020  34.5528970
  51.0091280  86.0862270  32.6271130  51.9613030  86.0020290  32.5771370
  50.8619500  86.7503980  33.3004920  53.9000480  85.4656480  18.1263040
  53.6141990  85.0521620  17.3117220  53.7020030  86.3944190  18.0063560
  38.4624090  78.7375570  33.0122360  38.9663110  78.1582850  33.5838590
  37.7231510  79.0215800  33.5498730  45.3647710  81.4589760  16.5668650
  45.2598350  80.8442110  17.2930030  45.1971930  80.9355650  15.7831660
  45.5162030  80.1446560  32.5457880  44.7507700  80.7131560  32.4612550
  45.6977990  79.8522770  31.6526110  48.6050440  80.5209790  17.1710640
  48.0560540  80.9679090  17.8153380  49.2269700  80.0159040  17.6948310
  52.6585380  81.8751890  33.1032900  53.3994850  82.2127650  32.6000360
  51.8958060  82.0443950  32.5502670  40.4947170  76.8805160  33.9072430
  40.5352510  76.5819030  34.8157660  41.3492670  77.2812770  33.7479950
  44.2725560  79.4800710  19.0675940  44.6941980  79.3140580  19.9107330
  44.3976400  78.6700940  18.5731080  42.4352980  75.4597260  31.8746920
  41.9049440  74.9688210  31.2470260  43.1041050  75.8881460  31.3404850
  46.7853200  78.5038320  16.3153040  47.3058860  77.7887340  15.9494190
  47.4321600  79.1424190  16.6153550  51.3331040  79.9266720  31.6388110
  51.7472060  80.0811800  32.4878530  50.3982040  80.0521940  31.8013890
  51.8053210  77.2662880  33.6427260  52.3873980  76.5115200  33.5547740
  51.9814980  77.7970320  32.8658740  42.9225280  72.4259630  31.9544210
  42.8282150  71.8080380  31.2295080  42.3422670  73.1525920  31.7274120
  46.0946270  79.8787200  29.6084040  46.5134380  80.7219930  29.4360280
  45.1754900  80.0159240  29.3790820  48.4310170  77.6103380  30.9921880
  48.5506380  77.0144520  31.7316720  49.2904170  77.6473070  30.5723180
  50.7698070  78.1640570  29.5684390  50.2433290  78.6883190  28.9649530
  51.1129410  78.7967960  30.1994120  43.1684460  75.5533940  16.0134100
  42.9673520  74.6901300  16.3747440  42.9976510  75.4667300  15.0755700
  43.9453690  86.1840210  30.7241770  43.4074780  86.9086270  30.4050470
  44.1987650  85.7070550  29.9339110  45.1978940  74.1524730  32.2497700
  45.7878630  73.8440580  32.9375520  44.3799180  73.6804480  32.4057600
  50.0172370  73.7690540  32.4830720  49.3287890  73.1072080  32.4180710
  50.7378390  73.3228810  32.9279180  50.6472770  70.3642170  18.5420980
  50.9275060  69.5210070  18.8980400  49.8738500  70.5965280  19.0559730
  41.9667260  72.6534560  16.0011980  42.2693160  72.6601990  15.0931130
  42.7061850  72.3032420  16.4979640  46.8015900  87.4191420  30.9828420
  46.7274600  88.3226560  31.2900790  45.8994740  87.1003320  30.9550490
  45.1852190  71.5969180  16.9868180  44.8374190  70.9193170  16.4070630
  45.3864960  71.1358690  17.8011570  47.3501230  86.5849930  18.6054780
  48.2452020  86.9234900  18.6273540  47.3818860  85.8629340  17.9779060
  40.9897390  81.9576980  16.8341780  41.4272260  82.5006650  17.4899360
  41.4745120  81.1323930  16.8438120  38.2043190  84.7466010  24.2862040
  38.5346200  83.8787070  24.0540680  38.6334190  84.9524530  25.1167000
  42.8005110  83.0775020  21.9464010  42.5000650  82.9539990  22.8467920
  42.6942600  82.2183610  21.5379740  38.6933400  85.6136600  27.0243670
  38.2564390  85.7937400  27.8567820  39.2611080  86.3711220  26.8825390
  54.3295580  85.1153600  31.3120980  53.7297570  85.1746160  30.5684900
  54.4589480  84.1758580  31.4417830  55.5697030  82.8571420  16.6490690
  54.7389990  82.9248070  17.1197920  55.7468860  83.7475540  16.3457550
  55.0253490  79.6018900  19.1524890  55.7872400  80.1715550  19.2584580
  55.0407860  79.0346100  19.9233200  38.5257830  78.1256830  23.3832550
  37.8706670  77.8568470  22.7392250  39.3635780  78.0161310  22.9334530
  56.0313460  80.4569000  23.9966820  56.4022290  79.6736320  23.5902790
  56.6715390  81.1458100  23.8184120  53.0147220  81.8405580  29.4097140
  52.2007060  82.2702740  29.6722930  53.4221420  82.4523990  28.7966190
  55.0772660  79.8953270  16.3097410  55.3521500  80.8032150  16.1816630
  54.8883400  79.8315800  17.2459400  51.4748270  72.9198120  17.6051040
  51.8933150  72.7329100  16.7647700  51.1684330  72.0677170  17.9153970
  54.9738000  77.8322260  21.3026840  54.5981600  77.0650190  20.8708130
  54.2441120  78.2144960  21.7901770  39.5633760  78.5109400  27.9235890
  39.9306800  78.4236800  28.8031910  38.9944580  77.7475950  27.8242750
  39.1149760  75.4218490  31.8294310  38.2205810  75.3885250  32.1688020
  39.6547310  75.6205280  32.5945560  37.7395910  75.3355760  19.3257880
  36.8359990  75.5985960  19.1509540  38.2236530  75.6066930  18.5457840
  40.2823120  74.3921300  17.2352260  40.9914820  73.9704520  16.7499540
  39.5663060  74.4596530  16.6035610  39.9297280  70.4460630  16.2754910
  40.6525410  70.9869570  16.5936130  40.2021800  70.1724050  15.3996450
  53.7388930  75.3153100  20.5426490  54.2348050  75.0823970  21.3275370
  53.5405000  74.4764940  20.1264130  55.1676090  73.9514050  23.0764170
  55.0575370  73.7970090  24.0146440  55.9283680  73.4234990  22.8339580
  56.0566360  71.7821970  16.3170310  56.9815670  71.6503150  16.1088600
  56.0342150  71.8614790  17.2706760  56.1304850  72.5532630  18.9427020
  55.3356350  72.4877750  19.4719930  56.3348130  73.4883270  18.9312370
  53.0723270  86.5924180  22.9365410  53.6682340  86.2708750  22.2599830
  53.3301420  86.1196000  23.7278680  40.9785840  83.0242090  33.0856040
  40.9355470  82.6535000  33.9670500  41.1096850  83.9619660  33.2257860
  44.6791870  84.5801680  28.6865760  44.4383230  84.8476240  27.7996280
  45.6194510  84.7507410  28.7416620  55.9396030  86.5996060  29.4876400
  55.4454310  86.9964930  28.7703530  55.3309320  85.9745270  29.8813680
  40.8173870  85.9704340  30.2053820  40.2234190  85.8389040  30.9443860
  40.8097710  85.1342480  29.7395920  53.6235480  87.2419480  26.7663140
  53.1638450  87.9935290  26.3921160  52.9947940  86.5225950  26.7077940
  40.4486100  83.3362720  29.1561860  39.7220160  82.7168010  29.0887810
  40.5095250  83.7303330  28.2859940  44.0531200  85.5507720  25.9411270
  44.5696220  84.9395080  25.4159530  44.7028580  86.0536500  26.4322280
  46.7926700  86.4416210  26.7680250  47.0804510  86.1870510  25.8913260
  47.3049920  85.8893570  27.3585820  52.5624780  70.8829510  25.3925850
  53.0032870  70.8274610  24.5447450  52.2932370  71.7987520  25.4636030
  54.4263350  70.5144750  23.4034670  54.3651750  69.5705970  23.2565690
  55.2055380  70.6224840  23.9488130  38.7316100  86.6537110  22.3658620
  38.5638140  86.0207790  23.0640510  37.8650610  86.8596510  22.0152810
  39.3544120  70.4853890  19.8690480  40.1123480  70.5982770  19.2954510
  38.8921290  71.3223090  19.8233910  45.8957930  72.5993160  22.8592790
  45.0832440  72.2250050  22.5188670  46.3999570  71.8438240  23.1613980
  53.5417510  69.6657170  19.3716140  53.7368140  70.5640620  19.6383570
  52.7547380  69.4344250  19.8649090  40.3378800  85.3470340  19.8108760
  39.8126420  85.7278370  19.1070720  40.2623380  85.9721110  20.5318470
  41.7269270  71.0117940  18.4092450  42.2562030  70.2247740  18.2800400
  42.3597590  71.6909130  18.6427980  46.8599060  87.3632310  34.1348450
  47.7866370  87.1276580  34.1784410  46.8449490  88.1904310  33.6534480
  55.0944120  86.9057880  21.1322700  55.2696310  86.2195620  20.4883620
  54.3965690  87.4304930  20.7399370  42.9371770  87.2952720  18.6858010
  43.6690590  87.0112000  18.1381900  43.1965440  87.0566000  19.5757390
  42.0986560  83.4117450  18.6904340  41.4695440  83.8802550  19.2390170
  42.2134390  82.5666670  19.1250530  53.4276620  86.5902170  33.9589490
  54.2201940  86.0951400  33.7515450  53.7209770  87.2692310  34.5665100
  49.5536280  77.4623110   4.8405540  49.4730330  76.5477720   4.5697250
  49.1400700  77.9590180   4.1345250  47.6854320  79.2402130   6.7214810
  46.9096420  78.7602570   7.0113380  48.3367250  78.5607780   6.5470970
  41.7020150  79.5521940   7.5990570  40.8705030  79.2970650   7.9987080
  42.3101130  79.6232710   8.3348490  51.7061750  83.6462320   5.5013940
  51.2443280  82.8749560   5.8301110  52.5187300  83.6728390   6.0066390
  41.6821410  83.5862030   7.7948590  41.9849450  82.6959770   7.6158810
  42.4265000  84.1432250   7.5670840  38.0745110  77.1129480   7.2672660
  38.6461220  76.3451680   7.2676300  38.0746650  77.4118240   6.3579270
  47.9325060  85.9320330   5.1217930  47.3136500  86.3877830   4.5512370
  48.7876840  86.0871790   4.7207630  47.1263310  81.9159320   6.7284970
  47.0571590  80.9749260   6.5674100  47.8883170  82.0060730   7.3007540
  39.3169980  72.5213840   9.0541590  39.1372820  71.6239590   9.3344350
  38.9150060  73.0685710   9.7288540  48.1568480  74.7229700   6.9553900
  48.5333300  73.8501580   6.8427570  48.0587990  75.0588400   6.0644340
  42.2873490  73.0955330   2.4171340  42.3940240  73.9959060   2.7240100
  41.3765850  73.0473300   2.1265990  51.9392600  72.2180140   3.8882240
  52.7602220  71.7276710   3.9307720  51.9726680  72.8077800   4.6414080
  39.9356650  75.0174340   7.6623930  40.6166760  75.2812710   8.2811330
  39.6204700  74.1775210   7.9961940  44.1281220  76.0641700   6.7496520
  44.6359440  76.5622670   7.3901540  44.6594460  75.2876900   6.5735880
  56.2292150  74.2346890  10.4525870  55.5244320  74.6228600   9.9340980
  56.4950070  74.9297180  11.0546800  42.4117320  70.7040260  11.0159940
  42.4135760  71.2212650  10.2105840  41.5821630  70.2270440  10.9929870
  48.7988410  80.8159570   2.5149840  48.1805680  81.2809020   1.9512560
  49.3111660  81.5087050   2.9319350  43.6620170  80.3435440   9.1933440
  43.3289550  80.9704360   9.8354510  43.8386850  80.8697320   8.4135110
  52.1754080  74.1580520   6.6609780  51.4709650  74.4465410   7.2412890
  52.5366240  74.9680630   6.3009340  42.0932650  72.4150220   9.0230390
  42.4349460  73.2592270   8.7284260  41.1548460  72.5633960   9.1395730
  42.8739270  82.3116240  11.0082620  43.4913270  82.9867320  10.7267070
  42.0132390  82.7204220  10.9170120  53.7916860  83.7755650   8.9237260
  53.1080380  84.4454760   8.9153930  54.3311150  83.9736300   8.1582120
  55.2441000  73.6035310   7.0518990  54.2965910  73.6374290   7.1834420
  55.5690990  74.4174260   7.4368350  45.7760540  69.9032490   5.3474980
  46.0835520  69.3479380   4.6310480  44.8461240  70.0376950   5.1647970
  51.3275600  85.6199780   7.6382440  51.3402760  85.2162070   6.7704700
  50.7750820  86.3947070   7.5343870  52.6221020  82.3416000   2.7272610
  52.5117350  81.3990330   2.8522030  52.6189270  82.7031640   3.6135370
  50.7261040  80.5229620   8.9665050  51.1429830  80.3089730   8.1318510
  51.4500860  80.7802410   9.5373670  48.1641300  77.9681320   2.0835100
  47.2370580  77.9018700   2.3123570  48.3166120  78.9061450   1.9690340
  54.6723140  78.9216840   9.0581290  53.8441770  78.9909930   8.5831420
  55.2673620  79.5071150   8.5897120  52.1938590  79.5301620   2.5870350
  51.5751010  79.1921170   1.9396650  52.1763040  78.8861380   3.2949540
  51.6365150  75.7086160  10.0036160  51.2236330  76.5339870  10.2576150
  50.9041100  75.1231200   9.8112520  43.7697940  78.4946060   4.8654830
  43.3654940  77.7823310   4.3700730  43.8561060  78.1499300   5.7542870
  44.2379640  82.1813620   7.0294040  43.9407930  81.5759090   6.3501820
  45.1879460  82.2190930   6.9183400  42.4826560  75.2689270   8.6453870
  43.0341150  75.3784610   7.8707120  42.9970070  75.6426870   9.3609100
  52.3265250  85.7545490  10.6917140  51.8495810  86.5617680  10.4989750
  51.6427040  85.1023820  10.8443350  43.3298070  81.9195310  13.6801840
  42.4326600  82.1435280  13.9275240  43.3550940  82.0430250  12.7313240
  42.1569290  78.7908630  12.2559210  42.0177060  79.6631430  12.6246610
  41.2750650  78.4481440  12.1107150  48.4798670  83.7084500   3.5624340
  48.9194580  84.4508830   3.1479730  48.4185560  83.9511070   4.4863300
  43.9549640  84.7330330  14.4644360  43.9265070  85.1373280  13.5972790
  43.7914610  83.8040690  14.3015960  40.4702570  77.3891040   2.3661480
  40.3500170  78.1153130   1.7542750  40.1603460  76.6193950   1.8889390
  55.9064460  85.5157430  15.7608530  56.3824180  85.9940320  16.4397610
  56.5271620  85.4474920  15.0354030  38.1087940  80.5606180   8.1730120
  38.1868360  80.6954950   7.2285840  38.7229620  79.8522070   8.3658240
  39.3535570  82.2606370   4.5836300  38.9463650  82.4020960   3.7289900
  40.2448580  81.9766530   4.3807510  55.3097710  82.7070280  12.9208540
  55.4360770  82.4682160  12.0025720  55.3519090  81.8754820  13.3930620
  49.1714450  86.4098280  11.4903350  49.6859120  86.3206290  12.2925780
  48.3283530  86.7557980  11.7831260  43.6257230  86.4752150   2.6958970
  43.4499710  85.5587690   2.4826770  42.7712970  86.8339440   2.9356770
  50.4144910  85.8303890   3.5533840  50.8701860  85.0493270   3.8672460
  50.7537430  86.5410710   4.0975020  55.1621720  74.7602740  13.8858280
  54.5465990  75.2682410  13.3573740  54.8418140  73.8601070  13.8284220
  38.1647460  81.6020350  10.7124580  38.3278500  81.1325710   9.8943950
  38.6299910  81.0943910  11.3773420  42.9366230  70.7326110   5.7485150
  42.4934380  71.5135650   5.4169670  43.4951220  71.0556000   6.4556090
  47.2236040  73.5994630  11.3520470  46.7615410  73.8077650  12.1640410
  46.8214150  72.7853980  11.0491140  52.2240550  74.8203580  12.4817130
  51.3734140  74.5209330  12.8026200  52.0642340  75.0645590  11.5700950
  49.3190260  76.3205330  14.5815920  49.6443670  75.4869080  14.2418150
  50.1070590  76.8433850  14.7294250  44.9742130  71.2773440   7.6074750
  45.2714460  72.1836270   7.5266770  45.5227690  70.7892220   6.9934320
  42.7280450  75.8559680   3.4766400  42.5021370  75.6396850   4.3813020
  41.9472980  76.2888140   3.1312370  49.9578210  75.8623050   2.0757050
  49.3587100  76.5858850   1.8920670  50.5057820  75.7999830   1.2933500
  45.1679660  76.7545260  14.1426670  45.0723260  75.8139990  13.9927070
  46.0111640  76.9760330  13.7474740  48.5643080  74.4986590   4.1060330
  48.9572650  74.8158790   3.2929020  48.9259930  73.6198470   4.2204850
  40.2990200  73.1658930  12.2960450  39.9053590  74.0134140  12.5033230
  39.6108600  72.5285300  12.4869090  46.8735250  73.2493900  15.3657190
  46.1833570  73.0566100  16.0003280  47.6167550  73.5328540  15.8981490
  37.6007250  71.0887390   6.3290530  37.3120300  71.6590250   7.0415510
  38.3453010  70.6091840   6.6921760  49.1498220  77.0892340   8.2011110
  48.4179340  77.5979150   8.5501210  48.7522560  76.2722320   7.8999890
  45.5875610  73.7646540   6.6063600  45.5911670  73.3236490   5.7568140
  46.4826730  74.0863870   6.7135420  41.4377990  73.6473030   5.5657810
  41.0978040  74.1248260   6.3224860  40.6755310  73.1938150   5.2058910
  49.6124130  72.5426020   7.6134050  49.6296870  72.9934670   8.4575900
  49.3639710  71.6431660   7.8267490  53.0394880  69.9558200  13.4520430
  53.3640650  69.2247860  13.9778410  53.0751390  69.6371840  12.5501420
  39.7386440  80.9771780  12.8720390  39.3541230  80.3365450  13.4703350
  40.0498630  81.6807900  13.4415120  45.8883580  77.8248320   8.3529010
  46.2553710  77.3506890   9.0990350  45.6988640  78.6989890   8.6937350
  38.7524070  72.5692010   4.4822480  38.4670990  72.2047680   5.3201100
  38.6902930  71.8372470   3.8685620  43.6782950  76.8656960  10.6713220
  43.3740020  77.7448940  10.8963580  44.6329410  76.9256750  10.7070660
  52.9652720  80.0683310   7.0606460  53.6851840  80.5638600   6.6702570
  52.7634540  79.3901200   6.4160330  48.3471520  80.1392370  12.9475460
  48.2808830  79.2188040  12.6933050  47.7176660  80.2367810  13.6620100
  42.2502140  80.7398330   4.9058880  42.7680810  79.9366590   4.8515770
  41.7986160  80.6777470   5.7475710  39.7346680  77.7059700  11.8184580
  39.3761620  78.3713550  12.4057920  39.4401240  76.8743250  12.1897200
  42.9359800  78.1643940  14.7024130  42.6359940  78.3101120  13.8051950
  43.7071040  77.6049230  14.6097520  48.2788250  82.9612940  12.6979260
  48.2932790  82.0293900  12.4798170  47.5713350  83.0472700  13.3369030
  54.4899460  79.6020280  12.0447840  53.7647650  80.1949060  11.8477230
  55.0174920  79.5943820  11.2461210  50.0199050  81.3280450   5.5431690
  50.3722870  80.7308580   4.8833060  49.1361380  81.0024680   5.7139940
  46.1062330  82.0878140   2.9502100  46.7933460  82.6347350   3.3309690
  45.3194750  82.6318870   2.9851710  45.4089540  79.0924170   2.5627460
  45.8652320  79.9029420   2.7887650  45.0577750  78.7747310   3.3945950
  47.7122150  84.6030510   9.7919760  48.3564370  84.8089890  10.4693180
  48.0751590  83.8418910   9.3390610  41.3101320  69.4361820   3.0349980
  41.1815950  69.4279720   3.9834900  40.4863340  69.7744910   2.6840990
  48.9854230  82.6062860   8.5097210  49.6276460  81.9056020   8.6229380
  49.5103580  83.3861300   8.3294100  50.7591850  83.4057760  11.7133270
  51.0948090  83.9924450  12.3911190  49.8392190  83.2750470  11.9431060
  38.3095250  71.1952940  12.4956680  37.5953770  71.3949860  13.1009290
  38.7290290  70.4192510  12.8671480  38.5967840  85.1833200  13.4823210
  38.7058960  84.2427940  13.3418600  37.9448400  85.4487950  12.8336940
  46.5880430  83.4549090  14.8821330  46.2677300  82.7358330  15.4267020
  45.9138790  84.1304160  14.9557390  49.8034030  73.6875250  10.2458130
  50.1714850  72.8670460  10.5737700  48.9432230  73.7477140  10.6613780
  45.1380090  74.9218140   2.4703570  44.4296240  75.3904480   2.9117180
  45.4224570  74.2640150   3.1048760  46.7636020  76.3414840  10.4696100
  47.2621270  76.8160660  11.1347950  46.9058970  75.4178360  10.6766130
  49.1695520  71.6468800   3.9099360  49.0463300  71.6654930   2.9608870
  50.1180080  71.6947740   4.0297760  46.2572310  86.8824100   3.1827340
  46.5113810  86.8445490   2.2606710  45.3084790  86.7557430   3.1755590
  53.9702880  72.5582800  11.3124490  53.4676480  73.2988200  11.6518300
  54.7859540  72.9466800  10.9961280  52.2624890  77.8015980   4.7585850
  51.3215030  77.8166210   4.9333540  52.5768960  77.0151940   5.2046150
  54.2650470  84.9724830   6.4340110  54.3897890  85.7956000   6.9063920
  55.1316030  84.7615560   6.0864260  41.7368000  87.0656040   6.1057240
  42.4730480  86.5171500   6.3765810  42.1208920  87.9312050   5.9663230
  38.6213480  83.1329610   1.9798750  37.6953260  83.3750750   1.9704160
  39.0869910  83.9603870   1.8583500  40.7426280  86.2502110  15.2942820
  41.5439010  86.5714160  15.7078220  40.2278100  85.8897690  16.0162730
  49.5790910  82.3581980  15.2418230  48.9729070  82.3813580  14.5013980
  49.2745020  81.6265020  15.7785480  51.0091280  86.0862270  13.8527640
  51.9613030  86.0020290  13.8027880  50.8619500  86.7503980  14.5261430
  38.4624090  78.7375570  14.2378870  38.9663110  78.1582850  14.8095100
  37.7231510  79.0215800  14.7755240  45.5162030  80.1446560  13.7714390
  44.7507700  80.7131560  13.6869060  45.6977990  79.8522770  12.8782620
  52.6585380  81.8751890  14.3289410  53.3994850  82.2127650  13.8256870
  51.8958060  82.0443950  13.7759180  40.4947170  76.8805160  15.1328940
  40.5352510  76.5819030  16.0414170  41.3492670  77.2812770  14.9736460
  42.4352980  75.4597260  13.1003430  41.9049440  74.9688210  12.4726770
  43.1041050  75.8881460  12.5661360  51.3331040  79.9266720  12.8644620
  51.7472060  80.0811800  13.7135040  50.3982040  80.0521940  13.0270400
  51.8053210  77.2662880  14.8683770  52.3873980  76.5115200  14.7804250
  51.9814980  77.7970320  14.0915250  42.9225280  72.4259630  13.1800720
  42.8282150  71.8080380  12.4551590  42.3422670  73.1525920  12.9530630
  45.6886720  70.9832870  10.2128110  45.2404020  71.0057130   9.3673660
  45.0551920  70.5851890  10.8098410  46.0946270  79.8787200  10.8340550
  46.5134380  80.7219930  10.6616790  45.1754900  80.0159240  10.6047330
  48.4310170  77.6103380  12.2178390  48.5506380  77.0144520  12.9573230
  49.2904170  77.6473070  11.7979690  50.7698070  78.1640570  10.7940900
  50.2433290  78.6883190  10.1906040  51.1129410  78.7967960  11.4250630
  43.9453690  86.1840210  11.9498280  43.4074780  86.9086270  11.6306980
  44.1987650  85.7070550  11.1595620  45.1978940  74.1524730  13.4754210
  45.7878630  73.8440580  14.1632030  44.3799180  73.6804480  13.6314110
  50.0172370  73.7690540  13.7087230  49.3287890  73.1072080  13.6437220
  50.7378390  73.3228810  14.1535690  46.8015900  87.4191420  12.2084930
  46.7274600  88.3226560  12.5157300  45.8994740  87.1003320  12.1807000
  38.2043190  84.7466010   5.5118550  38.5346200  83.8787070   5.2797190
  38.6334190  84.9524530   6.3423510  42.8005110  83.0775020   3.1720520
  42.5000650  82.9539990   4.0724430  42.6942600  82.2183610   2.7636250
  38.6933400  85.6136600   8.2500180  38.2564390  85.7937400   9.0824330
  39.2611080  86.3711220   8.1081900  54.3295580  85.1153600  12.5377490
  53.7297570  85.1746160  11.7941410  54.4589480  84.1758580  12.6674340
  38.5257830  78.1256830   4.6089060  37.8706670  77.8568470   3.9648760
  39.3635780  78.0161310   4.1591040  56.0313460  80.4569000   5.2223330
  56.4022290  79.6736320   4.8159300  56.6715390  81.1458100   5.0440630
  53.0147220  81.8405580  10.6353650  52.2007060  82.2702740  10.8979440
  53.4221420  82.4523990  10.0222700  54.9738000  77.8322260   2.5283350
  54.5981600  77.0650190   2.0964640  54.2441120  78.2144960   3.0158280
  39.5633760  78.5109400   9.1492400  39.9306800  78.4236800  10.0288420
  38.9944580  77.7475950   9.0499260  54.3637620  76.9793780  12.1622870
  54.1323710  76.7506530  11.2620820  54.6242170  77.8993330  12.1167760
  39.1149760  75.4218490  13.0550820  38.2205810  75.3885250  13.3944530
  39.6547310  75.6205280  13.8202070  52.8025690  72.2050210  14.9402570
  53.6795870  72.2133610  15.3236570  52.8146530  71.4681050  14.3294920
  54.2488960  76.0579750   5.8290590  54.7726440  75.5642400   5.1980760
  54.8348380  76.1930110   6.5738160  54.4278680  76.1419620   9.3510140
  53.4781390  76.1083160   9.4655130  54.6091690  77.0519730   9.1159910
  53.7388930  75.3153100   1.7683000  54.2348050  75.0823970   2.5531880
  53.5405000  74.4764940   1.3520640  39.6189470  69.6966820   7.4034040
  40.2665660  69.1464200   6.9629200  40.0391310  69.9509970   8.2249850
  55.1676090  73.9514050   4.3020680  55.0575370  73.7970090   5.2402950
  55.9283680  73.4234990   4.0596090  53.5141810  69.8908180  10.7603680
  54.1514030  70.5042320  11.1262870  53.6616700  69.9268840   9.8152910
  53.0723270  86.5924180   4.1621920  53.6682340  86.2708750   3.4856340
  53.3301420  86.1196000   4.9535190  39.3721470  69.8522490  10.1459360
  39.0236290  70.3086310  10.9117540  39.0409170  68.9579620  10.2281790
  40.9785840  83.0242090  14.3112550  40.9355470  82.6535000  15.1927010
  41.1096850  83.9619660  14.4514370  44.6791870  84.5801680   9.9122270
  44.4383230  84.8476240   9.0252790  45.6194510  84.7507410   9.9673130
  46.8846290  71.0434370  13.6678780  46.8235180  71.6356200  14.4174190
  47.8246670  70.9360330  13.5229040  49.5220850  70.7004430  13.3071070
  50.1361260  71.0183720  12.6452150  50.0670410  70.2153020  13.9266930
  55.9396030  86.5996060  10.7132910  55.4454310  86.9964930   9.9960040
  55.3309320  85.9745270  11.1070190  40.0442110  69.3798690  13.4210130
  40.5925100  69.1986740  12.6576240  40.1097420  68.5892800  13.9566440
  40.8173870  85.9704340  11.4310330  40.2234190  85.8389040  12.1700370
  40.8097710  85.1342480  10.9652430  50.2628890  69.2636570   9.6340360
  49.3888730  69.5971680   9.4313290  50.1539640  68.7909750  10.4592230
  51.1700870  71.4707440  11.0182080  50.8414230  70.6559200  10.6383810
  52.1183170  71.4277250  10.8947770  53.6235480  87.2419480   7.9919650
  53.1638450  87.9935290   7.6177670  52.9947940  86.5225950   7.9334450
  40.4486100  83.3362720  10.3818370  39.7220160  82.7168010  10.3144320
  40.5095250  83.7303330   9.5116450  44.0531200  85.5507720   7.1667780
  44.5696220  84.9395080   6.6416040  44.7028580  86.0536500   7.6578790
  46.7926700  86.4416210   7.9936760  47.0804510  86.1870510   7.1169770
  47.3049920  85.8893570   8.5842330  48.0103710  70.1806410   8.5733270
  47.2275500  70.6551910   8.8530030  47.7166640  69.2761240   8.4646450
  52.5624780  70.8829510   6.6182360  53.0032870  70.8274610   5.7703960
  52.2932370  71.7987520   6.6892540  54.4263350  70.5144750   4.6291180
  54.3651750  69.5705970   4.4822200  55.2055380  70.6224840   5.1744640
  38.7316100  86.6537110   3.5915130  38.5638140  86.0207790   4.2897020
  37.8650610  86.8596510   3.2409320  45.8957930  72.5993160   4.0849300
  45.0832440  72.2250050   3.7445180  46.3999570  71.8438240   4.3870490
  50.3982910  69.2635610   5.3232370  51.0012280  69.8355820   5.7980890
  49.6575900  69.8275050   5.1006270  43.9207110  70.7493080   2.6894350
  43.2909850  70.0480390   2.8564480  43.3812250  71.5097210   2.4727510
  46.8599060  87.3632310  15.3604960  47.7866370  87.1276580  15.4040920
  46.8449490  88.1904310  14.8790990  55.0944120  86.9057880   2.3579210
  55.2696310  86.2195620   1.7140130  54.3965690  87.4304930   1.9655880
  44.0462670  70.0277060  15.1246840  43.7646940  70.5310660  14.3607660
  44.4282370  69.2298810  14.7588970  50.6478130  69.4430640  15.7027310
  50.5343580  69.7625250  16.5978830  51.4647870  69.8443150  15.4064590
  53.4276620  86.5902170  15.1846000  54.2201940  86.0951400  14.9771960
  53.7209770  87.2692310  15.7921610  49.5536280  58.6879620  79.9379500
  49.4730330  57.7734230  79.6671210  49.1400700  59.1846690  79.2319210
  47.6854320  60.4658640  81.8188770  46.9096420  59.9859080  82.1087340
  48.3367250  59.7864290  81.6444930  41.7020150  60.7778450  82.6964530
  40.8705030  60.5227160  83.0961040  42.3101130  60.8489220  83.4322450
  51.7061750  64.8718830  80.5987900  51.2443280  64.1006070  80.9275070
  52.5187300  64.8984900  81.1040350  41.6821410  64.8118540  82.8922550
  41.9849450  63.9216280  82.7132770  42.4265000  65.3688760  82.6644800
  40.1112100  55.7380340  76.4806920  39.2228800  56.0796310  76.3786800
  40.3953290  55.5380660  75.5887750  38.0745110  58.3385990  82.3646620
  38.6461220  57.5708190  82.3650260  38.0746650  58.6374750  81.4553230
  47.9325060  67.1576840  80.2191890  47.3136500  67.6134340  79.6486330
  48.7876840  67.3128300  79.8181590  47.1263310  63.1415830  81.8258930
  47.0571590  62.2005770  81.6648060  47.8883170  63.2317240  82.3981500
  39.3169980  53.7470350  84.1515550  39.1372820  52.8496100  84.4318310
  38.9150060  54.2942220  84.8262500  48.1568480  55.9486210  82.0527860
  48.5333300  55.0758090  81.9401530  48.0587990  56.2844910  81.1618300
  42.2873490  54.3211840  77.5145300  42.3940240  55.2215570  77.8214060
  41.3765850  54.2729810  77.2239950  51.9392600  53.4436650  78.9856200
  52.7602220  52.9533220  79.0281680  51.9726680  54.0334310  79.7388040
  39.9356650  56.2430850  82.7597890  40.6166760  56.5069220  83.3785290
  39.6204700  55.4031720  83.0935900  44.1281220  57.2898210  81.8470480
  44.6359440  57.7879180  82.4875500  44.6594460  56.5133410  81.6709840
  56.2292150  55.4603400  85.5499830  55.5244320  55.8485110  85.0314940
  56.4950070  56.1553690  86.1520760  42.4117320  51.9296770  86.1133900
  42.4135760  52.4469160  85.3079800  41.5821630  51.4526950  86.0903830
  48.7988410  62.0416080  77.6123800  48.1805680  62.5065530  77.0486520
  49.3111660  62.7343560  78.0293310  43.6620170  61.5691950  84.2907400
  43.3289550  62.1960870  84.9328470  43.8386850  62.0953830  83.5109070
  52.1754080  55.3837030  81.7583740  51.4709650  55.6721920  82.3386850
  52.5366240  56.1937140  81.3983300  42.0932650  53.6406730  84.1204350
  42.4349460  54.4848780  83.8258220  41.1548460  53.7890470  84.2369690
  42.8739270  63.5372750  86.1056580  43.4913270  64.2123830  85.8241030
  42.0132390  63.9460730  86.0144080  38.1671610  62.7272610  74.9863430
  37.7899590  63.2159710  74.2548330  38.4244680  63.3997890  75.6169960
  53.7916860  65.0012160  84.0211220  53.1080380  65.6711270  84.0127890
  54.3311150  65.1992810  83.2556080  55.2441000  54.8291820  82.1492950
  54.2965910  54.8630800  82.2808380  55.5690990  55.6430770  82.5342310
  45.7760540  51.1289000  80.4448940  46.0835520  50.5735890  79.7284440
  44.8461240  51.2633460  80.2621930  51.3275600  66.8456290  82.7356400
  51.3402760  66.4418580  81.8678660  50.7750820  67.6203580  82.6317830
  52.6221020  63.5672510  77.8246570  52.5117350  62.6246840  77.9495990
  52.6189270  63.9288150  78.7109330  50.7261040  61.7486130  84.0639010
  51.1429830  61.5346240  83.2292470  51.4500860  62.0058920  84.6347630
  48.1641300  59.1937830  77.1809060  47.2370580  59.1275210  77.4097530
  48.3166120  60.1317960  77.0664300  48.1510380  55.4654830  74.1776220
  47.2114050  55.6268790  74.2628680  48.4693640  56.1840510  73.6312210
  54.6723140  60.1473350  84.1555250  53.8441770  60.2166440  83.6805380
  55.2673620  60.7327660  83.6871080  52.1938590  60.7558130  77.6844310
  51.5751010  60.4177680  77.0370610  52.1763040  60.1117890  78.3923500
  51.6365150  56.9342670  85.1010120  51.2236330  57.7596380  85.3550110
  50.9041100  56.3487710  84.9086480  43.7697940  59.7202570  79.9628790
  43.3654940  59.0079820  79.4674690  43.8561060  59.3755810  80.8516830
  44.2379640  63.4070130  82.1268000  43.9407930  62.8015600  81.4475780
  45.1879460  63.4447440  82.0157360  42.4826560  56.4945780  83.7427830
  43.0341150  56.6041120  82.9681080  42.9970070  56.8683380  84.4583060
  52.3265250  66.9802000  85.7891100  51.8495810  67.7874190  85.5963710
  51.6427040  66.3280330  85.9417310  50.3703290  59.9944940  74.6917060
  50.8096570  59.1567370  74.5454880  51.0831710  60.6274340  74.7781200
  48.4798670  64.9341010  78.6598300  48.9194580  65.6765340  78.2453690
  48.4185560  65.1767580  79.5837260  53.9520430  51.2487750  73.0058100
  53.6393090  51.3414580  73.9057170  54.7132900  51.8268780  72.9555530
  40.4702570  58.6147550  77.4635440  40.3500170  59.3409640  76.8516710
  40.1603460  57.8450460  76.9863350  38.1087940  61.7862690  83.2704080
  38.1868360  61.9211460  82.3259800  38.7229620  61.0778580  83.4632200
  39.3535570  63.4862880  79.6810260  38.9463650  63.6277470  78.8263860
  40.2448580  63.2023040  79.4781470  51.1468850  67.9210130  76.0161310
  50.9869990  67.6313070  76.9143140  50.9815560  67.1450260  75.4806540
  43.6257230  67.7008660  77.7932930  43.4499710  66.7844200  77.5800730
  42.7712970  68.0595950  78.0330730  50.8494980  65.4297690  74.5759310
  50.1560140  65.4274980  73.9161590  51.5917840  65.0057010  74.1453480
  50.4144910  67.0560400  78.6507800  50.8701860  66.2749780  78.9646420
  50.7537430  67.7667220  79.1948980  38.1647460  62.8276860  85.8098540
  38.3278500  62.3582220  84.9917910  38.6299910  62.3200420  86.4747380
  42.9366230  51.9582620  80.8459110  42.4934380  52.7392160  80.5143630
  43.4951220  52.2812510  81.5530050  46.0525050  51.5793320  75.7264940
  45.4279230  51.5753190  76.4518250  45.9655170  50.7124280  75.3300910
  44.9742130  52.5029950  82.7048710  45.2714460  53.4092780  82.6240730
  45.5227690  52.0148730  82.0908280  42.7280450  57.0816190  78.5740360
  42.5021370  56.8653360  79.4786980  41.9472980  57.5144650  78.2286330
  49.9578210  57.0879560  77.1731010  49.3587100  57.8115360  76.9894630
  50.5057820  57.0256340  76.3907460  48.5643080  55.7243100  79.2034290
  48.9572650  56.0415300  78.3902980  48.9259930  54.8454980  79.3178810
  37.6007250  52.3143900  81.4264490  37.3120300  52.8846760  82.1389470
  38.3453010  51.8348350  81.7895720  37.7877480  56.2564020  72.6367210
  37.7052150  57.1994780  72.7782200  37.4360540  56.1138930  71.7579560
  49.1498220  58.3148850  83.2985070  48.4179340  58.8235660  83.6475170
  48.7522560  57.4978830  82.9973850  45.5875610  54.9903050  81.7037560
  45.5911670  54.5493000  80.8542100  46.4826730  55.3120380  81.8109380
  41.4377990  54.8729540  80.6631770  41.0978040  55.3504770  81.4198820
  40.6755310  54.4194660  80.3032870  45.6495760  55.9915130  74.6944320
  45.7708580  55.9501610  75.6430140  45.2644270  56.8539280  74.5391050
  49.6124130  53.7682530  82.7108010  49.6296870  54.2191180  83.5549860
  49.3639710  52.8688170  82.9241450  44.6617260  58.3016270  74.0927620
  44.0934160  57.8534520  73.4663530  45.3706260  58.6609050  73.5592770
  45.8883580  59.0504830  83.4502970  46.2553710  58.5763400  84.1964310
  45.6988640  59.9246400  83.7911310  38.7524070  53.7948520  79.5796440
  38.4670990  53.4304190  80.4175060  38.6902930  53.0628980  78.9659580
  43.6782950  58.0913470  85.7687180  43.3740020  58.9705450  85.9937540
  44.6329410  58.1513260  85.8044620  42.2064740  62.2974460  76.3654030
  41.4327000  61.7572080  76.2052750  42.9359370  61.7781070  76.0271790
  52.9652720  61.2939820  82.1580420  53.6851840  61.7895110  81.7676530
  52.7634540  60.6157710  81.5134290  48.4262660  52.6877780  76.3009810
  47.6127270  52.1890950  76.2255120  48.2324610  53.5276030  75.8846160
  51.1411050  57.0597430  74.5971970  52.0290670  57.3714660  74.4223310
  51.1116140  56.1869680  74.2052550  42.2502140  61.9654840  80.0032840
  42.7680810  61.1623100  79.9489730  41.7986160  61.9033980  80.8449670
  47.1371640  63.2321120  75.2760140  47.4787340  63.9763350  74.7803460
  46.3084350  63.5452240  75.6384970  53.4125320  58.3709270  74.0651830
  53.3289040  58.8023490  73.2148270  54.1319510  58.8307620  74.4978650
  54.4412570  65.2251530  76.7933960  53.7988730  64.5707150  77.0677680
  54.0543230  65.6306620  76.0174630  50.0199050  62.5536960  80.6405650
  50.3722870  61.9565090  79.9807020  49.1361380  62.2281190  80.8113900
  46.1062330  63.3134650  78.0476060  46.7933460  63.8603860  78.4283650
  45.3194750  63.8575380  78.0825670  38.2454730  58.9307470  73.5393140
  39.1149580  59.2132270  73.8229060  37.7545050  59.7443340  73.4241950
  45.4089540  60.3180680  77.6601420  45.8652320  61.1285930  77.8861610
  45.0577750  60.0003820  78.4919910  47.7122150  65.8287020  84.8893720
  48.3564370  66.0346400  85.5667140  48.0751590  65.0675420  84.4364570
  41.3101320  50.6618330  78.1323940  41.1815950  50.6536230  79.0808860
  40.4863340  51.0001420  77.7814950  48.9854230  63.8319370  83.6071170
  49.6276460  63.1312530  83.7203340  49.5103580  64.6117810  83.4268060
  52.8309950  64.1167990  73.3310310  52.6047530  63.3998430  73.9234950
  52.4406150  63.8680430  72.4932060  38.6125980  68.1434850  74.1054770
  38.9723620  68.7424190  73.4512040  38.4718320  68.6894740  74.8789800
  52.4126200  62.0339930  74.9924470  52.1247900  62.4952620  75.7802350
  53.2078370  61.5737700  75.2608690  44.6294600  65.5266050  74.9228440
  44.6204700  66.2595740  74.3072950  43.7092960  65.2797630  75.0155400
  40.2301240  60.7480940  75.6675200  39.6229190  61.4879840  75.6770500
  40.7050590  60.8380300  74.8413400  49.8034030  54.9131760  85.3432090
  50.1714850  54.0926970  85.6711660  48.9432230  54.9733650  85.7587740
  53.1696060  53.8688700  76.1519650  52.5409220  53.9734370  75.4377880
  52.6747980  54.0885480  76.9413530  47.6154200  65.5894290  73.5853630
  47.7166180  65.3858280  72.6555610  46.7155940  65.3352570  73.7901410
  45.1380090  56.1474650  77.5677530  44.4296240  56.6160990  78.0091140
  45.4224570  55.4896660  78.2022720  46.7636020  57.5671350  85.5670060
  47.2621270  58.0417170  86.2321910  46.9058970  56.6434870  85.7740090
  49.1695520  52.8725310  79.0073320  49.0463300  52.8911440  78.0582830
  50.1180080  52.9204250  79.1271720  46.2572310  68.1080610  78.2801300
  46.5113810  68.0702000  77.3580670  45.3084790  67.9813940  78.2729550
  43.3415110  54.4559730  74.9428240  44.1905640  54.8929880  74.8768430
  42.9746380  54.7679990  75.7700300  53.9702880  53.7839310  86.4098450
  53.4676480  54.5244710  86.7492260  54.7859540  54.1723310  86.0935240
  52.2624890  59.0272490  79.8559810  51.3215030  59.0422720  80.0307500
  52.5768960  58.2408450  80.3020110  42.2406530  60.7092090  73.4163770
  43.0069800  60.5973450  73.9789200  42.3181220  60.0130060  72.7640540
  40.9353290  58.1417160  74.0996660  41.0156880  57.1944670  74.2114060
  41.8273040  58.4724040  74.2057320  54.2650470  66.1981340  81.5314070
  54.3897890  67.0212510  82.0037880  55.1316030  65.9872070  81.1838220
  41.7368000  68.2912550  81.2031200  42.4730480  67.7428010  81.4739770
  42.1208920  69.1568560  81.0637190  38.6213480  64.3586120  77.0772710
  37.6953260  64.6007260  77.0678120  39.0869910  65.1860380  76.9557460
  44.8470310  67.4642860  73.0256770  45.6398920  67.7531690  72.5738560
  44.3274660  67.0335030  72.3469250  53.9000480  66.6912990  74.4493510
  53.6141990  66.2778130  73.6347690  53.7020030  67.6200700  74.3294030
  45.3647710  62.6846270  72.8899120  45.2598350  62.0698620  73.6160500
  45.1971930  62.1612160  72.1062130  48.6050440  61.7466300  73.4941110
  48.0560540  62.1935600  74.1383850  49.2269700  61.2415550  74.0178780
  44.2725560  60.7057220  75.3906410  44.6941980  60.5397090  76.2337800
  44.3976400  59.8957450  74.8961550  46.7853200  59.7294830  72.6383510
  47.3058860  59.0143850  72.2724660  47.4321600  60.3680700  72.9384020
  45.6886720  52.2089380  85.3102070  45.2404020  52.2313640  84.4647620
  45.0551920  51.8108400  85.9072370  46.0946270  61.1043710  85.9314510
  46.5134380  61.9476440  85.7590750  45.1754900  61.2415750  85.7021290
  50.7698070  59.3897080  85.8914860  50.2433290  59.9139700  85.2880000
  51.1129410  60.0224470  86.5224590  43.1684460  56.7790450  72.3364570
  42.9673520  55.9157810  72.6977910  42.9976510  56.6923810  71.3986170
  50.6472770  51.5898680  74.8651450  50.9275060  50.7466580  75.2210870
  49.8738500  51.8221790  75.3790200  41.9667260  53.8791070  72.3242450
  42.2693160  53.8858500  71.4161600  42.7061850  53.5288930  72.8210110
  45.1852190  52.8225690  73.3098650  44.8374190  52.1449680  72.7301100
  45.3864960  52.3615200  74.1242040  47.3501230  67.8106440  74.9285250
  48.2452020  68.1491410  74.9504010  47.3818860  67.0885850  74.3009530
  40.9897390  63.1833490  73.1572250  41.4272260  63.7263160  73.8129830
  41.4745120  62.3580440  73.1668590  38.2043190  65.9722520  80.6092510
  38.5346200  65.1043580  80.3771150  38.6334190  66.1781040  81.4397470
  42.8005110  64.3031530  78.2694480  42.5000650  64.1796500  79.1698390
  42.6942600  63.4440120  77.8610210  38.6933400  66.8393110  83.3474140
  38.2564390  67.0193910  84.1798290  39.2611080  67.5967730  83.2055860
  55.5697030  64.0827930  72.9721160  54.7389990  64.1504580  73.4428390
  55.7468860  64.9732050  72.6688020  55.0253490  60.8275410  75.4755360
  55.7872400  61.3972060  75.5815050  55.0407860  60.2602610  76.2463670
  38.5257830  59.3513340  79.7063020  37.8706670  59.0824980  79.0622720
  39.3635780  59.2417820  79.2565000  56.0313460  61.6825510  80.3197290
  56.4022290  60.8992830  79.9133260  56.6715390  62.3714610  80.1414590
  53.0147220  63.0662090  85.7327610  52.2007060  63.4959250  85.9953400
  53.4221420  63.6780500  85.1196660  55.0772660  61.1209780  72.6327880
  55.3521500  62.0288660  72.5047100  54.8883400  61.0572310  73.5689870
  51.4748270  54.1454630  73.9281510  51.8933150  53.9585610  73.0878170
  51.1684330  53.2933680  74.2384440  54.9738000  59.0578770  77.6257310
  54.5981600  58.2906700  77.1938600  54.2441120  59.4401470  78.1132240
  39.5633760  59.7365910  84.2466360  39.9306800  59.6493310  85.1262380
  38.9944580  58.9732460  84.1473220  37.7395910  56.5612270  75.6488350
  36.8359990  56.8242470  75.4740010  38.2236530  56.8323440  74.8688310
  54.2488960  57.2836260  80.9264550  54.7726440  56.7898910  80.2954720
  54.8348380  57.4186620  81.6712120  54.4278680  57.3676130  84.4484100
  53.4781390  57.3339670  84.5629090  54.6091690  58.2776240  84.2133870
  40.2823120  55.6177810  73.5582730  40.9914820  55.1961030  73.0730010
  39.5663060  55.6853040  72.9266080  39.9297280  51.6717140  72.5985380
  40.6525410  52.2126080  72.9166600  40.2021800  51.3980560  71.7226920
  53.7388930  56.5409610  76.8656960  54.2348050  56.3080480  77.6505840
  53.5405000  55.7021450  76.4494600  39.6189470  50.9223330  82.5008000
  40.2665660  50.3720710  82.0603160  40.0391310  51.1766480  83.3223810
  55.1676090  55.1770560  79.3994640  55.0575370  55.0226600  80.3376910
  55.9283680  54.6491500  79.1570050  53.5141810  51.1164690  85.8577640
  54.1514030  51.7298830  86.2236830  53.6616700  51.1525350  84.9126870
  56.0566360  53.0078480  72.6400780  56.9815670  52.8759660  72.4319070
  56.0342150  53.0871300  73.5937230  56.1304850  53.7789140  75.2657490
  55.3356350  53.7134260  75.7950400  56.3348130  54.7139780  75.2542840
  53.0723270  67.8180690  79.2595880  53.6682340  67.4965260  78.5830300
  53.3301420  67.3452510  80.0509150  39.3721470  51.0779000  85.2433320
  39.0236290  51.5342820  86.0091500  39.0409170  50.1836130  85.3255750
  44.6791870  65.8058190  85.0096230  44.4383230  66.0732750  84.1226750
  45.6194510  65.9763920  85.0647090  55.9396030  67.8252570  85.8106870
  55.4454310  68.2221440  85.0934000  55.3309320  67.2001780  86.2044150
  50.2628890  50.4893080  84.7314320  49.3888730  50.8228190  84.5287250
  50.1539640  50.0166260  85.5566190  51.1700870  52.6963950  86.1156040
  50.8414230  51.8815710  85.7357770  52.1183170  52.6533760  85.9921730
  53.6235480  68.4675990  83.0893610  53.1638450  69.2191800  82.7151630
  52.9947940  67.7482460  83.0308410  40.4486100  64.5619230  85.4792330
  39.7220160  63.9424520  85.4118280  40.5095250  64.9559840  84.6090410
  44.0531200  66.7764230  82.2641740  44.5696220  66.1651590  81.7390000
  44.7028580  67.2793010  82.7552750  46.7926700  67.6672720  83.0910720
  47.0804510  67.4127020  82.2143730  47.3049920  67.1150080  83.6816290
  48.0103710  51.4062920  83.6707230  47.2275500  51.8808420  83.9503990
  47.7166640  50.5017750  83.5620410  52.5624780  52.1086020  81.7156320
  53.0032870  52.0531120  80.8677920  52.2932370  53.0244030  81.7866500
  54.4263350  51.7401260  79.7265140  54.3651750  50.7962480  79.5796160
  55.2055380  51.8481350  80.2718600  38.7316100  67.8793620  78.6889090
  38.5638140  67.2464300  79.3870980  37.8650610  68.0853020  78.3383280
  39.3544120  51.7110400  76.1920950  40.1123480  51.8239280  75.6184980
  38.8921290  52.5479600  76.1464380  45.8957930  53.8249670  79.1823260
  45.0832440  53.4506560  78.8419140  46.3999570  53.0694750  79.4844450
  50.3982910  50.4892120  80.4206330  51.0012280  51.0612330  80.8954850
  49.6575900  51.0531560  80.1980230  53.5417510  50.8913680  75.6946610
  53.7368140  51.7897130  75.9614040  52.7547380  50.6600760  76.1879560
  40.3378800  66.5726850  76.1339230  39.8126420  66.9534880  75.4301190
  40.2623380  67.1977620  76.8548940  41.7269270  52.2374450  74.7322920
  42.2562030  51.4504250  74.6030870  42.3597590  52.9165640  74.9658450
  43.9207110  51.9749590  77.7868310  43.2909850  51.2736900  77.9538440
  43.3812250  52.7353720  77.5701470  55.0944120  68.1314390  77.4553170
  55.2696310  67.4452130  76.8114090  54.3965690  68.6561440  77.0629840
  42.9371770  68.5209230  75.0088480  43.6690590  68.2368510  74.4612370
  43.1965440  68.2822510  75.8987860  42.0986560  64.6373960  75.0134810
  41.4695440  65.1059060  75.5620640  42.2134390  63.7923180  75.4481000
  41.7020150  60.7778450  63.9221040  40.8705030  60.5227160  64.3217550
  42.3101130  60.8489220  64.6578960  39.3169980  53.7470350  65.3772060
  39.1372820  52.8496100  65.6574820  38.9150060  54.2942220  66.0519010
  39.9356650  56.2430850  63.9854400  40.6166760  56.5069220  64.6041800
  39.6204700  55.4031720  64.3192410  56.2292150  55.4603400  66.7756340
  55.5244320  55.8485110  66.2571450  56.4950070  56.1553690  67.3777270
  42.4117320  51.9296770  67.3390410  42.4135760  52.4469160  66.5336310
  41.5821630  51.4526950  67.3160340  43.6620170  61.5691950  65.5163910
  43.3289550  62.1960870  66.1584980  43.8386850  62.0953830  64.7365580
  42.0932650  53.6406730  65.3460860  42.4349460  54.4848780  65.0514730
  41.1548460  53.7890470  65.4626200  42.8739270  63.5372750  67.3313090
  43.4913270  64.2123830  67.0497540  42.0132390  63.9460730  67.2400590
  53.7916860  65.0012160  65.2467730  53.1080380  65.6711270  65.2384400
  54.3311150  65.1992810  64.4812590  55.2441000  54.8291820  63.3749460
  54.2965910  54.8630800  63.5064890  55.5690990  55.6430770  63.7598820
  50.7261040  61.7486130  65.2895520  51.1429830  61.5346240  64.4548980
  51.4500860  62.0058920  65.8604140  54.6723140  60.1473350  65.3811760
  53.8441770  60.2166440  64.9061890  55.2673620  60.7327660  64.9127590
  51.6365150  56.9342670  66.3266630  51.2236330  57.7596380  66.5806620
  50.9041100  56.3487710  66.1342990  42.4826560  56.4945780  64.9684340
  43.0341150  56.6041120  64.1937590  42.9970070  56.8683380  65.6839570
  52.3265250  66.9802000  67.0147610  51.8495810  67.7874190  66.8220220
  51.6427040  66.3280330  67.1673820  43.3298070  63.1451820  70.0032310
  42.4326600  63.3691790  70.2505710  43.3550940  63.2686760  69.0543710
  42.1569290  60.0165140  68.5789680  42.0177060  60.8887940  68.9477080
  41.2750650  59.6737950  68.4337620  43.9549640  65.9586840  70.7874830
  43.9265070  66.3629790  69.9203260  43.7914610  65.0297200  70.6246430
  53.9520430  51.2487750  54.2314610  53.6393090  51.3414580  55.1313680
  54.7132900  51.8268780  54.1812040  55.9064460  66.7413940  72.0839000
  56.3824180  67.2196830  72.7628080  56.5271620  66.6731430  71.3584500
  38.1087940  61.7862690  64.4960590  38.1868360  61.9211460  63.5516310
  38.7229620  61.0778580  64.6888710  55.3097710  63.9326790  69.2439010
  55.4360770  63.6938670  68.3256190  55.3519090  63.1011330  69.7161090
  49.1714450  67.6354790  67.8133820  49.6859120  67.5462800  68.6156250
  48.3283530  67.9814490  68.1061730  55.1621720  55.9859250  70.2088750
  54.5465990  56.4938920  69.6804210  54.8418140  55.0857580  70.1514690
  38.1647460  62.8276860  67.0355050  38.3278500  62.3582220  66.2174420
  38.6299910  62.3200420  67.7003890  47.2236040  54.8251140  67.6750940
  46.7615410  55.0334160  68.4870880  46.8214150  54.0110490  67.3721610
  52.2240550  56.0460090  68.8047600  51.3734140  55.7465840  69.1256670
  52.0642340  56.2902100  67.8931420  49.3190260  57.5461840  70.9046390
  49.6443670  56.7125590  70.5648620  50.1070590  58.0690360  71.0524720
  45.1679660  57.9801770  70.4657140  45.0723260  57.0396500  70.3157540
  46.0111640  58.2016840  70.0705210  40.2990200  54.3915440  68.6190920
  39.9053590  55.2390650  68.8263700  39.6108600  53.7541810  68.8099560
  46.8735250  54.4750410  71.6887660  46.1833570  54.2822610  72.3233750
  47.6167550  54.7585050  72.2211960  49.1498220  58.3148850  64.5241580
  48.4179340  58.8235660  64.8731680  48.7522560  57.4978830  64.2230360
  53.0394880  51.1814710  69.7750900  53.3640650  50.4504370  70.3008880
  53.0751390  50.8628350  68.8731890  39.7386440  62.2028290  69.1950860
  39.3541230  61.5621960  69.7933820  40.0498630  62.9064410  69.7645590
  45.8883580  59.0504830  64.6759480  46.2553710  58.5763400  65.4220820
  45.6988640  59.9246400  65.0167820  43.6782950  58.0913470  66.9943690
  43.3740020  58.9705450  67.2194050  44.6329410  58.1513260  67.0301130
  48.3471520  61.3648880  69.2705930  48.2808830  60.4444550  69.0163520
  47.7176660  61.4624320  69.9850570  39.7346680  58.9316210  68.1415050
  39.3761620  59.5970060  68.7288390  39.4401240  58.0999760  68.5127670
  42.9359800  59.3900450  71.0254600  42.6359940  59.5357630  70.1282420
  43.7071040  58.8305740  70.9327990  48.2788250  64.1869450  69.0209730
  48.2932790  63.2550410  68.8028640  47.5713350  64.2729210  69.6599500
  54.4899460  60.8276790  68.3678310  53.7647650  61.4205570  68.1707700
  55.0174920  60.8200330  67.5691680  47.7122150  65.8287020  66.1150230
  48.3564370  66.0346400  66.7923650  48.0751590  65.0675420  65.6621080
  48.9854230  63.8319370  64.8327680  49.6276460  63.1312530  64.9459850
  49.5103580  64.6117810  64.6524570  50.7591850  64.6314270  68.0363740
  51.0948090  65.2180960  68.7141660  49.8392190  64.5006980  68.2661530
  38.3095250  52.4209450  68.8187150  37.5953770  52.6206370  69.4239760
  38.7290290  51.6449020  69.1901950  38.5967840  66.4089710  69.8053680
  38.7058960  65.4684450  69.6649070  37.9448400  66.6744460  69.1567410
  46.5880430  64.6805600  71.2051800  46.2677300  63.9614840  71.7497490
  45.9138790  65.3560670  71.2787860  49.8034030  54.9131760  66.5688600
  50.1714850  54.0926970  66.8968170  48.9432230  54.9733650  66.9844250
  46.7636020  57.5671350  66.7926570  47.2621270  58.0417170  67.4578420
  46.9058970  56.6434870  66.9996600  53.9702880  53.7839310  67.6354960
  53.4676480  54.5244710  67.9748770  54.7859540  54.1723310  67.3191750
  40.7426280  67.4758620  71.6173290  41.5439010  67.7970670  72.0308690
  40.2278100  67.1154200  72.3393200  49.5790910  63.5838490  71.5648700
  48.9729070  63.6070090  70.8244450  49.2745020  62.8521530  72.1015950
  51.0091280  67.3118780  70.1758110  51.9613030  67.2276800  70.1258350
  50.8619500  67.9760490  70.8491900  38.4624090  59.9632080  70.5609340
  38.9663110  59.3839360  71.1325570  37.7231510  60.2472310  71.0985710
  45.5162030  61.3703070  70.0944860  44.7507700  61.9388070  70.0099530
  45.6977990  61.0779280  69.2013090  52.6585380  63.1008400  70.6519880
  53.3994850  63.4384160  70.1487340  51.8958060  63.2700460  70.0989650
  40.4947170  58.1061670  71.4559410  40.5352510  57.8075540  72.3644640
  41.3492670  58.5069280  71.2966930  42.4352980  56.6853770  69.4233900
  41.9049440  56.1944720  68.7957240  43.1041050  57.1137970  68.8891830
  51.3331040  61.1523230  69.1875090  51.7472060  61.3068310  70.0365510
  50.3982040  61.2778450  69.3500870  51.8053210  58.4919390  71.1914240
  52.3873980  57.7371710  71.1034720  51.9814980  59.0226830  70.4145720
  42.9225280  53.6516140  69.5031190  42.8282150  53.0336890  68.7782060
  42.3422670  54.3782430  69.2761100  45.6886720  52.2089380  66.5358580
  45.2404020  52.2313640  65.6904130  45.0551920  51.8108400  67.1328880
  46.0946270  61.1043710  67.1571020  46.5134380  61.9476440  66.9847260
  45.1754900  61.2415750  66.9277800  48.4310170  58.8359890  68.5408860
  48.5506380  58.2401030  69.2803700  49.2904170  58.8729580  68.1210160
  50.7698070  59.3897080  67.1171370  50.2433290  59.9139700  66.5136510
  51.1129410  60.0224470  67.7481100  43.9453690  67.4096720  68.2728750
  43.4074780  68.1342780  67.9537450  44.1987650  66.9327060  67.4826090
  45.1978940  55.3781240  69.7984680  45.7878630  55.0697090  70.4862500
  44.3799180  54.9060990  69.9544580  50.0172370  54.9947050  70.0317700
  49.3287890  54.3328590  69.9667690  50.7378390  54.5485320  70.4766160
  46.8015900  68.6447930  68.5315400  46.7274600  69.5483070  68.8387770
  45.8994740  68.3259830  68.5037470  38.6933400  66.8393110  64.5730650
  38.2564390  67.0193910  65.4054800  39.2611080  67.5967730  64.4312370
  54.3295580  66.3410110  68.8607960  53.7297570  66.4002670  68.1171880
  54.4589480  65.4015090  68.9904810  53.0147220  63.0662090  66.9584120
  52.2007060  63.4959250  67.2209910  53.4221420  63.6780500  66.3453170
  39.5633760  59.7365910  65.4722870  39.9306800  59.6493310  66.3518890
  38.9944580  58.9732460  65.3729730  54.3637620  58.2050290  68.4853340
  54.1323710  57.9763040  67.5851290  54.6242170  59.1249840  68.4398230
  39.1149760  56.6475000  69.3781290  38.2205810  56.6141760  69.7175000
  39.6547310  56.8461790  70.1432540  52.8025690  53.4306720  71.2633040
  53.6795870  53.4390120  71.6467040  52.8146530  52.6937560  70.6525390
  54.2488960  57.2836260  62.1521060  54.7726440  56.7898910  61.5211230
  54.8348380  57.4186620  62.8968630  54.4278680  57.3676130  65.6740610
  53.4781390  57.3339670  65.7885600  54.6091690  58.2776240  65.4390380
  39.6189470  50.9223330  63.7264510  40.2665660  50.3720710  63.2859670
  40.0391310  51.1766480  64.5480320  55.1676090  55.1770560  60.6251150
  55.0575370  55.0226600  61.5633420  55.9283680  54.6491500  60.3826560
  53.5141810  51.1164690  67.0834150  54.1514030  51.7298830  67.4493340
  53.6616700  51.1525350  66.1383380  56.0566360  53.0078480  53.8657290
  56.9815670  52.8759660  53.6575580  56.0342150  53.0871300  54.8193740
  56.1304850  53.7789140  56.4914000  55.3356350  53.7134260  57.0206910
  56.3348130  54.7139780  56.4799350  39.3721470  51.0779000  66.4689830
  39.0236290  51.5342820  67.2348010  39.0409170  50.1836130  66.5512260
  40.9785840  64.2498600  70.6343020  40.9355470  63.8791510  71.5157480
  41.1096850  65.1876170  70.7744840  44.6791870  65.8058190  66.2352740
  44.4383230  66.0732750  65.3483260  45.6194510  65.9763920  66.2903600
  46.8846290  52.2690880  69.9909250  46.8235180  52.8612710  70.7404660
  47.8246670  52.1616840  69.8459510  49.5220850  51.9260940  69.6301540
  50.1361260  52.2440230  68.9682620  50.0670410  51.4409530  70.2497400
  55.9396030  67.8252570  67.0363380  55.4454310  68.2221440  66.3190510
  55.3309320  67.2001780  67.4300660  40.0442110  50.6055200  69.7440600
  40.5925100  50.4243250  68.9806710  40.1097420  49.8149310  70.2796910
  40.8173870  67.1960850  67.7540800  40.2234190  67.0645550  68.4930840
  40.8097710  66.3598990  67.2882900  50.2628890  50.4893080  65.9570830
  49.3888730  50.8228190  65.7543760  50.1539640  50.0166260  66.7822700
  51.1700870  52.6963950  67.3412550  50.8414230  51.8815710  66.9614280
  52.1183170  52.6533760  67.2178240  40.4486100  64.5619230  66.7048840
  39.7220160  63.9424520  66.6374790  40.5095250  64.9559840  65.8346920
  46.7926700  67.6672720  64.3167230  47.0804510  67.4127020  63.4400240
  47.3049920  67.1150080  64.9072800  48.0103710  51.4062920  64.8963740
  47.2275500  51.8808420  65.1760500  47.7166640  50.5017750  64.7876920
  46.8599060  68.5888820  71.6835430  47.7866370  68.3533090  71.7271390
  46.8449490  69.4160820  71.2021460  44.0462670  51.2533570  71.4477310
  43.7646940  51.7567170  70.6838130  44.4282370  50.4555320  71.0819440
  50.6478130  50.6687150  72.0257780  50.5343580  50.9881760  72.9209300
  51.4647870  51.0699660  71.7295060  53.4276620  67.8158680  71.5076470
  54.2201940  67.3207910  71.3002430  53.7209770  68.4948820  72.1152080
  56.2292150  55.4603400  48.0012850  55.5244320  55.8485110  47.4827960
  56.4950070  56.1553690  48.6033780  55.2441000  54.8291820  44.6005970
  54.2965910  54.8630800  44.7321400  55.5690990  55.6430770  44.9855330
  53.9520430  51.2487750  35.4571120  53.6393090  51.3414580  36.3570190
  54.7132900  51.8268780  35.4068550  55.1621720  55.9859250  51.4345260
  54.5465990  56.4938920  50.9060720  54.8418140  55.0857580  51.3771200
  53.1696060  53.8688700  38.6032670  52.5409220  53.9734370  37.8890900
  52.6747980  54.0885480  39.3926550  53.9702880  53.7839310  48.8611470
  53.4676480  54.5244710  49.2005280  54.7859540  54.1723310  48.5448260
  54.2488960  57.2836260  43.3777570  54.7726440  56.7898910  42.7467740
  54.8348380  57.4186620  44.1225140  54.4278680  57.3676130  46.8997120
  53.4781390  57.3339670  47.0142110  54.6091690  58.2776240  46.6646890
  55.1676090  55.1770560  41.8507660  55.0575370  55.0226600  42.7889930
  55.9283680  54.6491500  41.6083070  56.0566360  53.0078480  35.0913800
  56.9815670  52.8759660  34.8832090  56.0342150  53.0871300  36.0450250
  56.1304850  53.7789140  37.7170510  55.3356350  53.7134260  38.2463420
  56.3348130  54.7139780  37.7055860  52.5624780  52.1086020  44.1669340
  53.0032870  52.0531120  43.3190940  52.2932370  53.0244030  44.2379520
  54.4263350  51.7401260  42.1778160  54.3651750  50.7962480  42.0309180
  55.2055380  51.8481350  42.7231620  40.1112100  55.7380340  20.1576450
  39.2228800  56.0796310  20.0556330  40.3953290  55.5380660  19.2657280
  42.2873490  54.3211840  21.1914830  42.3940240  55.2215570  21.4983590
  41.3765850  54.2729810  20.9009480  51.9392600  53.4436650  22.6625730
  52.7602220  52.9533220  22.7051210  51.9726680  54.0334310  23.4157570
  56.2292150  55.4603400  29.2269360  55.5244320  55.8485110  28.7084470
  56.4950070  56.1553690  29.8290290  48.7988410  62.0416080  21.2893330
  48.1805680  62.5065530  20.7256050  49.3111660  62.7343560  21.7062840
  38.1671610  62.7272610  18.6632960  37.7899590  63.2159710  17.9317860
  38.4244680  63.3997890  19.2939490  55.2441000  54.8291820  25.8262480
  54.2965910  54.8630800  25.9577910  55.5690990  55.6430770  26.2111840
  52.6221020  63.5672510  21.5016100  52.5117350  62.6246840  21.6265520
  52.6189270  63.9288150  22.3878860  48.1641300  59.1937830  20.8578590
  47.2370580  59.1275210  21.0867060  48.3166120  60.1317960  20.7433830
  48.1510380  55.4654830  17.8545750  47.2114050  55.6268790  17.9398210
  48.4693640  56.1840510  17.3081740  52.1938590  60.7558130  21.3613840
  51.5751010  60.4177680  20.7140140  52.1763040  60.1117890  22.0693030
  50.3703290  59.9944940  18.3686590  50.8096570  59.1567370  18.2224410
  51.0831710  60.6274340  18.4550730  48.4798670  64.9341010  22.3367830
  48.9194580  65.6765340  21.9223220  48.4185560  65.1767580  23.2606790
  53.9520430  51.2487750  16.6827630  53.6393090  51.3414580  17.5826700
  54.7132900  51.8268780  16.6325060  40.4702570  58.6147550  21.1404970
  40.3500170  59.3409640  20.5286240  40.1603460  57.8450460  20.6632880
  51.1468850  67.9210130  19.6930840  50.9869990  67.6313070  20.5912670
  50.9815560  67.1450260  19.1576070  50.8494980  65.4297690  18.2528840
  50.1560140  65.4274980  17.5931120  51.5917840  65.0057010  17.8223010
  50.4144910  67.0560400  22.3277330  50.8701860  66.2749780  22.6415950
  50.7537430  67.7667220  22.8718510  55.1621720  55.9859250  32.6601770
  54.5465990  56.4938920  32.1317230  54.8418140  55.0857580  32.6027710
  46.0525050  51.5793320  19.4034470  45.4279230  51.5753190  20.1287780
  45.9655170  50.7124280  19.0070440  42.7280450  57.0816190  22.2509890
  42.5021370  56.8653360  23.1556510  41.9472980  57.5144650  21.9055860
  49.9578210  57.0879560  20.8500540  49.3587100  57.8115360  20.6664160
  50.5057820  57.0256340  20.0676990  37.7877480  56.2564020  16.3136740
  37.7052150  57.1994780  16.4551730  37.4360540  56.1138930  15.4349090
  45.6495760  55.9915130  18.3713850  45.7708580  55.9501610  19.3199670
  45.2644270  56.8539280  18.2160580  44.6617260  58.3016270  17.7697150
  44.0934160  57.8534520  17.1433060  45.3706260  58.6609050  17.2362300
  42.2064740  62.2974460  20.0423560  41.4327000  61.7572080  19.8822280
  42.9359370  61.7781070  19.7041320  48.4262660  52.6877780  19.9779340
  47.6127270  52.1890950  19.9024650  48.2324610  53.5276030  19.5615690
  51.1411050  57.0597430  18.2741500  52.0290670  57.3714660  18.0992840
  51.1116140  56.1869680  17.8822080  47.1371640  63.2321120  18.9529670
  47.4787340  63.9763350  18.4572990  46.3084350  63.5452240  19.3154500
  53.4125320  58.3709270  17.7421360  53.3289040  58.8023490  16.8917800
  54.1319510  58.8307620  18.1748180  54.4412570  65.2251530  20.4703490
  53.7988730  64.5707150  20.7447210  54.0543230  65.6306620  19.6944160
  46.1062330  63.3134650  21.7245590  46.7933460  63.8603860  22.1053180
  45.3194750  63.8575380  21.7595200  38.2454730  58.9307470  17.2162670
  39.1149580  59.2132270  17.4998590  37.7545050  59.7443340  17.1011480
  45.4089540  60.3180680  21.3370950  45.8652320  61.1285930  21.5631140
  45.0577750  60.0003820  22.1689440  52.8309950  64.1167990  17.0079840
  52.6047530  63.3998430  17.6004480  52.4406150  63.8680430  16.1701590
  38.6125980  68.1434850  17.7824300  38.9723620  68.7424190  17.1281570
  38.4718320  68.6894740  18.5559330  52.4126200  62.0339930  18.6694000
  52.1247900  62.4952620  19.4571880  53.2078370  61.5737700  18.9378220
  44.6294600  65.5266050  18.5997970  44.6204700  66.2595740  17.9842480
  43.7092960  65.2797630  18.6924930  40.2301240  60.7480940  19.3444730
  39.6229190  61.4879840  19.3540030  40.7050590  60.8380300  18.5182930
  53.1696060  53.8688700  19.8289180  52.5409220  53.9734370  19.1147410
  52.6747980  54.0885480  20.6183060  47.6154200  65.5894290  17.2623160
  47.7166180  65.3858280  16.3325140  46.7155940  65.3352570  17.4670940
  45.1380090  56.1474650  21.2447060  44.4296240  56.6160990  21.6860670
  45.4224570  55.4896660  21.8792250  49.1695520  52.8725310  22.6842850
  49.0463300  52.8911440  21.7352360  50.1180080  52.9204250  22.8041250
  43.3415110  54.4559730  18.6197770  44.1905640  54.8929880  18.5537960
  42.9746380  54.7679990  19.4469830  53.9702880  53.7839310  30.0867980
  53.4676480  54.5244710  30.4261790  54.7859540  54.1723310  29.7704770
  52.2624890  59.0272490  23.5329340  51.3215030  59.0422720  23.7077030
  52.5768960  58.2408450  23.9789640  42.2406530  60.7092090  17.0933300
  43.0069800  60.5973450  17.6558730  42.3181220  60.0130060  16.4410070
  40.9353290  58.1417160  17.7766190  41.0156880  57.1944670  17.8883590
  41.8273040  58.4724040  17.8826850  38.6213480  64.3586120  20.7542240
  37.6953260  64.6007260  20.7447650  39.0869910  65.1860380  20.6326990
  44.8470310  67.4642860  16.7026300  45.6398920  67.7531690  16.2508090
  44.3274660  67.0335030  16.0238780  53.9000480  66.6912990  18.1263040
  53.6141990  66.2778130  17.3117220  53.7020030  67.6200700  18.0063560
  45.3647710  62.6846270  16.5668650  45.2598350  62.0698620  17.2930030
  45.1971930  62.1612160  15.7831660  48.6050440  61.7466300  17.1710640
  48.0560540  62.1935600  17.8153380  49.2269700  61.2415550  17.6948310
  44.2725560  60.7057220  19.0675940  44.6941980  60.5397090  19.9107330
  44.3976400  59.8957450  18.5731080  46.7853200  59.7294830  16.3153040
  47.3058860  59.0143850  15.9494190  47.4321600  60.3680700  16.6153550
  43.1684460  56.7790450  16.0134100  42.9673520  55.9157810  16.3747440
  42.9976510  56.6923810  15.0755700  50.6472770  51.5898680  18.5420980
  50.9275060  50.7466580  18.8980400  49.8738500  51.8221790  19.0559730
  41.9667260  53.8791070  16.0011980  42.2693160  53.8858500  15.0931130
  42.7061850  53.5288930  16.4979640  45.1852190  52.8225690  16.9868180
  44.8374190  52.1449680  16.4070630  45.3864960  52.3615200  17.8011570
  47.3501230  67.8106440  18.6054780  48.2452020  68.1491410  18.6273540
  47.3818860  67.0885850  17.9779060  40.9897390  63.1833490  16.8341780
  41.4272260  63.7263160  17.4899360  41.4745120  62.3580440  16.8438120
  42.8005110  64.3031530  21.9464010  42.5000650  64.1796500  22.8467920
  42.6942600  63.4440120  21.5379740  55.5697030  64.0827930  16.6490690
  54.7389990  64.1504580  17.1197920  55.7468860  64.9732050  16.3457550
  55.0253490  60.8275410  19.1524890  55.7872400  61.3972060  19.2584580
  55.0407860  60.2602610  19.9233200  55.0772660  61.1209780  16.3097410
  55.3521500  62.0288660  16.1816630  54.8883400  61.0572310  17.2459400
  51.4748270  54.1454630  17.6051040  51.8933150  53.9585610  16.7647700
  51.1684330  53.2933680  17.9153970  54.9738000  59.0578770  21.3026840
  54.5981600  58.2906700  20.8708130  54.2441120  59.4401470  21.7901770
  54.3637620  58.2050290  30.9366360  54.1323710  57.9763040  30.0364310
  54.6242170  59.1249840  30.8911250  52.8025690  53.4306720  33.7146060
  53.6795870  53.4390120  34.0980060  52.8146530  52.6937560  33.1038410
  37.7395910  56.5612270  19.3257880  36.8359990  56.8242470  19.1509540
  38.2236530  56.8323440  18.5457840  54.2488960  57.2836260  24.6034080
  54.7726440  56.7898910  23.9724250  54.8348380  57.4186620  25.3481650
  54.4278680  57.3676130  28.1253630  53.4781390  57.3339670  28.2398620
  54.6091690  58.2776240  27.8903400  40.2823120  55.6177810  17.2352260
  40.9914820  55.1961030  16.7499540  39.5663060  55.6853040  16.6035610
  39.9297280  51.6717140  16.2754910  40.6525410  52.2126080  16.5936130
  40.2021800  51.3980560  15.3996450  53.7388930  56.5409610  20.5426490
  54.2348050  56.3080480  21.3275370  53.5405000  55.7021450  20.1264130
  55.1676090  55.1770560  23.0764170  55.0575370  55.0226600  24.0146440
  55.9283680  54.6491500  22.8339580  53.5141810  51.1164690  29.5347170
  54.1514030  51.7298830  29.9006360  53.6616700  51.1525350  28.5896400
  56.0566360  53.0078480  16.3170310  56.9815670  52.8759660  16.1088600
  56.0342150  53.0871300  17.2706760  56.1304850  53.7789140  18.9427020
  55.3356350  53.7134260  19.4719930  56.3348130  54.7139780  18.9312370
  53.0723270  67.8180690  22.9365410  53.6682340  67.4965260  22.2599830
  53.3301420  67.3452510  23.7278680  51.1700870  52.6963950  29.7925570
  50.8414230  51.8815710  29.4127300  52.1183170  52.6533760  29.6691260
  52.5624780  52.1086020  25.3925850  53.0032870  52.0531120  24.5447450
  52.2932370  53.0244030  25.4636030  54.4263350  51.7401260  23.4034670
  54.3651750  50.7962480  23.2565690  55.2055380  51.8481350  23.9488130
  38.7316100  67.8793620  22.3658620  38.5638140  67.2464300  23.0640510
  37.8650610  68.0853020  22.0152810  39.3544120  51.7110400  19.8690480
  40.1123480  51.8239280  19.2954510  38.8921290  52.5479600  19.8233910
  50.3982910  50.4892120  24.0975860  51.0012280  51.0612330  24.5724380
  49.6575900  51.0531560  23.8749760  53.5417510  50.8913680  19.3716140
  53.7368140  51.7897130  19.6383570  52.7547380  50.6600760  19.8649090
  40.3378800  66.5726850  19.8108760  39.8126420  66.9534880  19.1070720
  40.2623380  67.1977620  20.5318470  41.7269270  52.2374450  18.4092450
  42.2562030  51.4504250  18.2800400  42.3597590  52.9165640  18.6427980
  43.9207110  51.9749590  21.4637840  43.2909850  51.2736900  21.6307970
  43.3812250  52.7353720  21.2471000  55.0944120  68.1314390  21.1322700
  55.2696310  67.4452130  20.4883620  54.3965690  68.6561440  20.7399370
  42.9371770  68.5209230  18.6858010  43.6690590  68.2368510  18.1381900
  43.1965440  68.2822510  19.5757390  42.0986560  64.6373960  18.6904340
  41.4695440  65.1059060  19.2390170  42.2134390  63.7923180  19.1250530
  49.5536280  58.6879620   4.8405540  49.4730330  57.7734230   4.5697250
  49.1400700  59.1846690   4.1345250  47.6854320  60.4658640   6.7214810
  46.9096420  59.9859080   7.0113380  48.3367250  59.7864290   6.5470970
  41.7020150  60.7778450   7.5990570  40.8705030  60.5227160   7.9987080
  42.3101130  60.8489220   8.3348490  51.7061750  64.8718830   5.5013940
  51.2443280  64.1006070   5.8301110  52.5187300  64.8984900   6.0066390
  41.6821410  64.8118540   7.7948590  41.9849450  63.9216280   7.6158810
  42.4265000  65.3688760   7.5670840  38.0745110  58.3385990   7.2672660
  38.6461220  57.5708190   7.2676300  38.0746650  58.6374750   6.3579270
  47.9325060  67.1576840   5.1217930  47.3136500  67.6134340   4.5512370
  48.7876840  67.3128300   4.7207630  47.1263310  63.1415830   6.7284970
  47.0571590  62.2005770   6.5674100  47.8883170  63.2317240   7.3007540
  39.3169980  53.7470350   9.0541590  39.1372820  52.8496100   9.3344350
  38.9150060  54.2942220   9.7288540  48.1568480  55.9486210   6.9553900
  48.5333300  55.0758090   6.8427570  48.0587990  56.2844910   6.0644340
  42.2873490  54.3211840   2.4171340  42.3940240  55.2215570   2.7240100
  41.3765850  54.2729810   2.1265990  51.9392600  53.4436650   3.8882240
  52.7602220  52.9533220   3.9307720  51.9726680  54.0334310   4.6414080
  39.9356650  56.2430850   7.6623930  40.6166760  56.5069220   8.2811330
  39.6204700  55.4031720   7.9961940  44.1281220  57.2898210   6.7496520
  44.6359440  57.7879180   7.3901540  44.6594460  56.5133410   6.5735880
  56.2292150  55.4603400  10.4525870  55.5244320  55.8485110   9.9340980
  56.4950070  56.1553690  11.0546800  42.4117320  51.9296770  11.0159940
  42.4135760  52.4469160  10.2105840  41.5821630  51.4526950  10.9929870
  48.7988410  62.0416080   2.5149840  48.1805680  62.5065530   1.9512560
  49.3111660  62.7343560   2.9319350  43.6620170  61.5691950   9.1933440
  43.3289550  62.1960870   9.8354510  43.8386850  62.0953830   8.4135110
  52.1754080  55.3837030   6.6609780  51.4709650  55.6721920   7.2412890
  52.5366240  56.1937140   6.3009340  42.0932650  53.6406730   9.0230390
  42.4349460  54.4848780   8.7284260  41.1548460  53.7890470   9.1395730
  42.8739270  63.5372750  11.0082620  43.4913270  64.2123830  10.7267070
  42.0132390  63.9460730  10.9170120  53.7916860  65.0012160   8.9237260
  53.1080380  65.6711270   8.9153930  54.3311150  65.1992810   8.1582120
  55.2441000  54.8291820   7.0518990  54.2965910  54.8630800   7.1834420
  55.5690990  55.6430770   7.4368350  45.7760540  51.1289000   5.3474980
  46.0835520  50.5735890   4.6310480  44.8461240  51.2633460   5.1647970
  51.3275600  66.8456290   7.6382440  51.3402760  66.4418580   6.7704700
  50.7750820  67.6203580   7.5343870  52.6221020  63.5672510   2.7272610
  52.5117350  62.6246840   2.8522030  52.6189270  63.9288150   3.6135370
  50.7261040  61.7486130   8.9665050  51.1429830  61.5346240   8.1318510
  51.4500860  62.0058920   9.5373670  48.1641300  59.1937830   2.0835100
  47.2370580  59.1275210   2.3123570  48.3166120  60.1317960   1.9690340
  54.6723140  60.1473350   9.0581290  53.8441770  60.2166440   8.5831420
  55.2673620  60.7327660   8.5897120  52.1938590  60.7558130   2.5870350
  51.5751010  60.4177680   1.9396650  52.1763040  60.1117890   3.2949540
  51.6365150  56.9342670  10.0036160  51.2236330  57.7596380  10.2576150
  50.9041100  56.3487710   9.8112520  43.7697940  59.7202570   4.8654830
  43.3654940  59.0079820   4.3700730  43.8561060  59.3755810   5.7542870
  44.2379640  63.4070130   7.0294040  43.9407930  62.8015600   6.3501820
  45.1879460  63.4447440   6.9183400  42.4826560  56.4945780   8.6453870
  43.0341150  56.6041120   7.8707120  42.9970070  56.8683380   9.3609100
  52.3265250  66.9802000  10.6917140  51.8495810  67.7874190  10.4989750
  51.6427040  66.3280330  10.8443350  43.3298070  63.1451820  13.6801840
  42.4326600  63.3691790  13.9275240  43.3550940  63.2686760  12.7313240
  42.1569290  60.0165140  12.2559210  42.0177060  60.8887940  12.6246610
  41.2750650  59.6737950  12.1107150  48.4798670  64.9341010   3.5624340
  48.9194580  65.6765340   3.1479730  48.4185560  65.1767580   4.4863300
  43.9549640  65.9586840  14.4644360  43.9265070  66.3629790  13.5972790
  43.7914610  65.0297200  14.3015960  40.4702570  58.6147550   2.3661480
  40.3500170  59.3409640   1.7542750  40.1603460  57.8450460   1.8889390
  55.9064460  66.7413940  15.7608530  56.3824180  67.2196830  16.4397610
  56.5271620  66.6731430  15.0354030  38.1087940  61.7862690   8.1730120
  38.1868360  61.9211460   7.2285840  38.7229620  61.0778580   8.3658240
  39.3535570  63.4862880   4.5836300  38.9463650  63.6277470   3.7289900
  40.2448580  63.2023040   4.3807510  55.3097710  63.9326790  12.9208540
  55.4360770  63.6938670  12.0025720  55.3519090  63.1011330  13.3930620
  49.1714450  67.6354790  11.4903350  49.6859120  67.5462800  12.2925780
  48.3283530  67.9814490  11.7831260  43.6257230  67.7008660   2.6958970
  43.4499710  66.7844200   2.4826770  42.7712970  68.0595950   2.9356770
  50.4144910  67.0560400   3.5533840  50.8701860  66.2749780   3.8672460
  50.7537430  67.7667220   4.0975020  55.1621720  55.9859250  13.8858280
  54.5465990  56.4938920  13.3573740  54.8418140  55.0857580  13.8284220
  38.1647460  62.8276860  10.7124580  38.3278500  62.3582220   9.8943950
  38.6299910  62.3200420  11.3773420  42.9366230  51.9582620   5.7485150
  42.4934380  52.7392160   5.4169670  43.4951220  52.2812510   6.4556090
  47.2236040  54.8251140  11.3520470  46.7615410  55.0334160  12.1640410
  46.8214150  54.0110490  11.0491140  52.2240550  56.0460090  12.4817130
  51.3734140  55.7465840  12.8026200  52.0642340  56.2902100  11.5700950
  49.3190260  57.5461840  14.5815920  49.6443670  56.7125590  14.2418150
  50.1070590  58.0690360  14.7294250  44.9742130  52.5029950   7.6074750
  45.2714460  53.4092780   7.5266770  45.5227690  52.0148730   6.9934320
  42.7280450  57.0816190   3.4766400  42.5021370  56.8653360   4.3813020
  41.9472980  57.5144650   3.1312370  49.9578210  57.0879560   2.0757050
  49.3587100  57.8115360   1.8920670  50.5057820  57.0256340   1.2933500
  45.1679660  57.9801770  14.1426670  45.0723260  57.0396500  13.9927070
  46.0111640  58.2016840  13.7474740  48.5643080  55.7243100   4.1060330
  48.9572650  56.0415300   3.2929020  48.9259930  54.8454980   4.2204850
  40.2990200  54.3915440  12.2960450  39.9053590  55.2390650  12.5033230
  39.6108600  53.7541810  12.4869090  46.8735250  54.4750410  15.3657190
  46.1833570  54.2822610  16.0003280  47.6167550  54.7585050  15.8981490
  37.6007250  52.3143900   6.3290530  37.3120300  52.8846760   7.0415510
  38.3453010  51.8348350   6.6921760  49.1498220  58.3148850   8.2011110
  48.4179340  58.8235660   8.5501210  48.7522560  57.4978830   7.8999890
  45.5875610  54.9903050   6.6063600  45.5911670  54.5493000   5.7568140
  46.4826730  55.3120380   6.7135420  41.4377990  54.8729540   5.5657810
  41.0978040  55.3504770   6.3224860  40.6755310  54.4194660   5.2058910
  49.6124130  53.7682530   7.6134050  49.6296870  54.2191180   8.4575900
  49.3639710  52.8688170   7.8267490  53.0394880  51.1814710  13.4520430
  53.3640650  50.4504370  13.9778410  53.0751390  50.8628350  12.5501420
  39.7386440  62.2028290  12.8720390  39.3541230  61.5621960  13.4703350
  40.0498630  62.9064410  13.4415120  45.8883580  59.0504830   8.3529010
  46.2553710  58.5763400   9.0990350  45.6988640  59.9246400   8.6937350
  38.7524070  53.7948520   4.4822480  38.4670990  53.4304190   5.3201100
  38.6902930  53.0628980   3.8685620  43.6782950  58.0913470  10.6713220
  43.3740020  58.9705450  10.8963580  44.6329410  58.1513260  10.7070660
  52.9652720  61.2939820   7.0606460  53.6851840  61.7895110   6.6702570
  52.7634540  60.6157710   6.4160330  48.3471520  61.3648880  12.9475460
  48.2808830  60.4444550  12.6933050  47.7176660  61.4624320  13.6620100
  42.2502140  61.9654840   4.9058880  42.7680810  61.1623100   4.8515770
  41.7986160  61.9033980   5.7475710  39.7346680  58.9316210  11.8184580
  39.3761620  59.5970060  12.4057920  39.4401240  58.0999760  12.1897200
  42.9359800  59.3900450  14.7024130  42.6359940  59.5357630  13.8051950
  43.7071040  58.8305740  14.6097520  48.2788250  64.1869450  12.6979260
  48.2932790  63.2550410  12.4798170  47.5713350  64.2729210  13.3369030
  54.4899460  60.8276790  12.0447840  53.7647650  61.4205570  11.8477230
  55.0174920  60.8200330  11.2461210  50.0199050  62.5536960   5.5431690
  50.3722870  61.9565090   4.8833060  49.1361380  62.2281190   5.7139940
  46.1062330  63.3134650   2.9502100  46.7933460  63.8603860   3.3309690
  45.3194750  63.8575380   2.9851710  45.4089540  60.3180680   2.5627460
  45.8652320  61.1285930   2.7887650  45.0577750  60.0003820   3.3945950
  47.7122150  65.8287020   9.7919760  48.3564370  66.0346400  10.4693180
  48.0751590  65.0675420   9.3390610  41.3101320  50.6618330   3.0349980
  41.1815950  50.6536230   3.9834900  40.4863340  51.0001420   2.6840990
  48.9854230  63.8319370   8.5097210  49.6276460  63.1312530   8.6229380
  49.5103580  64.6117810   8.3294100  50.7591850  64.6314270  11.7133270
  51.0948090  65.2180960  12.3911190  49.8392190  64.5006980  11.9431060
  38.3095250  52.4209450  12.4956680  37.5953770  52.6206370  13.1009290
  38.7290290  51.6449020  12.8671480  38.5967840  66.4089710  13.4823210
  38.7058960  65.4684450  13.3418600  37.9448400  66.6744460  12.8336940
  46.5880430  64.6805600  14.8821330  46.2677300  63.9614840  15.4267020
  45.9138790  65.3560670  14.9557390  49.8034030  54.9131760  10.2458130
  50.1714850  54.0926970  10.5737700  48.9432230  54.9733650  10.6613780
  45.1380090  56.1474650   2.4703570  44.4296240  56.6160990   2.9117180
  45.4224570  55.4896660   3.1048760  46.7636020  57.5671350  10.4696100
  47.2621270  58.0417170  11.1347950  46.9058970  56.6434870  10.6766130
  49.1695520  52.8725310   3.9099360  49.0463300  52.8911440   2.9608870
  50.1180080  52.9204250   4.0297760  46.2572310  68.1080610   3.1827340
  46.5113810  68.0702000   2.2606710  45.3084790  67.9813940   3.1755590
  53.9702880  53.7839310  11.3124490  53.4676480  54.5244710  11.6518300
  54.7859540  54.1723310  10.9961280  52.2624890  59.0272490   4.7585850
  51.3215030  59.0422720   4.9333540  52.5768960  58.2408450   5.2046150
  54.2650470  66.1981340   6.4340110  54.3897890  67.0212510   6.9063920
  55.1316030  65.9872070   6.0864260  41.7368000  68.2912550   6.1057240
  42.4730480  67.7428010   6.3765810  42.1208920  69.1568560   5.9663230
  38.6213480  64.3586120   1.9798750  37.6953260  64.6007260   1.9704160
  39.0869910  65.1860380   1.8583500  40.7426280  67.4758620  15.2942820
  41.5439010  67.7970670  15.7078220  40.2278100  67.1154200  16.0162730
  49.5790910  63.5838490  15.2418230  48.9729070  63.6070090  14.5013980
  49.2745020  62.8521530  15.7785480  51.0091280  67.3118780  13.8527640
  51.9613030  67.2276800  13.8027880  50.8619500  67.9760490  14.5261430
  38.4624090  59.9632080  14.2378870  38.9663110  59.3839360  14.8095100
  37.7231510  60.2472310  14.7755240  45.5162030  61.3703070  13.7714390
  44.7507700  61.9388070  13.6869060  45.6977990  61.0779280  12.8782620
  52.6585380  63.1008400  14.3289410  53.3994850  63.4384160  13.8256870
  51.8958060  63.2700460  13.7759180  40.4947170  58.1061670  15.1328940
  40.5352510  57.8075540  16.0414170  41.3492670  58.5069280  14.9736460
  42.4352980  56.6853770  13.1003430  41.9049440  56.1944720  12.4726770
  43.1041050  57.1137970  12.5661360  51.3331040  61.1523230  12.8644620
  51.7472060  61.3068310  13.7135040  50.3982040  61.2778450  13.0270400
  51.8053210  58.4919390  14.8683770  52.3873980  57.7371710  14.7804250
  51.9814980  59.0226830  14.0915250  42.9225280  53.6516140  13.1800720
  42.8282150  53.0336890  12.4551590  42.3422670  54.3782430  12.9530630
  45.6886720  52.2089380  10.2128110  45.2404020  52.2313640   9.3673660
  45.0551920  51.8108400  10.8098410  46.0946270  61.1043710  10.8340550
  46.5134380  61.9476440  10.6616790  45.1754900  61.2415750  10.6047330
  48.4310170  58.8359890  12.2178390  48.5506380  58.2401030  12.9573230
  49.2904170  58.8729580  11.7979690  50.7698070  59.3897080  10.7940900
  50.2433290  59.9139700  10.1906040  51.1129410  60.0224470  11.4250630
  43.9453690  67.4096720  11.9498280  43.4074780  68.1342780  11.6306980
  44.1987650  66.9327060  11.1595620  45.1978940  55.3781240  13.4754210
  45.7878630  55.0697090  14.1632030  44.3799180  54.9060990  13.6314110
  50.0172370  54.9947050  13.7087230  49.3287890  54.3328590  13.6437220
  50.7378390  54.5485320  14.1535690  46.8015900  68.6447930  12.2084930
  46.7274600  69.5483070  12.5157300  45.8994740  68.3259830  12.1807000
  38.2043190  65.9722520   5.5118550  38.5346200  65.1043580   5.2797190
  38.6334190  66.1781040   6.3423510  42.8005110  64.3031530   3.1720520
  42.5000650  64.1796500   4.0724430  42.6942600  63.4440120   2.7636250
  38.6933400  66.8393110   8.2500180  38.2564390  67.0193910   9.0824330
  39.2611080  67.5967730   8.1081900  54.3295580  66.3410110  12.5377490
  53.7297570  66.4002670  11.7941410  54.4589480  65.4015090  12.6674340
  38.5257830  59.3513340   4.6089060  37.8706670  59.0824980   3.9648760
  39.3635780  59.2417820   4.1591040  56.0313460  61.6825510   5.2223330
  56.4022290  60.8992830   4.8159300  56.6715390  62.3714610   5.0440630
  53.0147220  63.0662090  10.6353650  52.2007060  63.4959250  10.8979440
  53.4221420  63.6780500  10.0222700  54.9738000  59.0578770   2.5283350
  54.5981600  58.2906700   2.0964640  54.2441120  59.4401470   3.0158280
  39.5633760  59.7365910   9.1492400  39.9306800  59.6493310  10.0288420
  38.9944580  58.9732460   9.0499260  54.3637620  58.2050290  12.1622870
  54.1323710  57.9763040  11.2620820  54.6242170  59.1249840  12.1167760
  39.1149760  56.6475000  13.0550820  38.2205810  56.6141760  13.3944530
  39.6547310  56.8461790  13.8202070  52.8025690  53.4306720  14.9402570
  53.6795870  53.4390120  15.3236570  52.8146530  52.6937560  14.3294920
  54.2488960  57.2836260   5.8290590  54.7726440  56.7898910   5.1980760
  54.8348380  57.4186620   6.5738160  54.4278680  57.3676130   9.3510140
  53.4781390  57.3339670   9.4655130  54.6091690  58.2776240   9.1159910
  53.7388930  56.5409610   1.7683000  54.2348050  56.3080480   2.5531880
  53.5405000  55.7021450   1.3520640  39.6189470  50.9223330   7.4034040
  40.2665660  50.3720710   6.9629200  40.0391310  51.1766480   8.2249850
  55.1676090  55.1770560   4.3020680  55.0575370  55.0226600   5.2402950
  55.9283680  54.6491500   4.0596090  53.5141810  51.1164690  10.7603680
  54.1514030  51.7298830  11.1262870  53.6616700  51.1525350   9.8152910
  53.0723270  67.8180690   4.1621920  53.6682340  67.4965260   3.4856340
  53.3301420  67.3452510   4.9535190  39.3721470  51.0779000  10.1459360
  39.0236290  51.5342820  10.9117540  39.0409170  50.1836130  10.2281790
  40.9785840  64.2498600  14.3112550  40.9355470  63.8791510  15.1927010
  41.1096850  65.1876170  14.4514370  44.6791870  65.8058190   9.9122270
  44.4383230  66.0732750   9.0252790  45.6194510  65.9763920   9.9673130
  46.8846290  52.2690880  13.6678780  46.8235180  52.8612710  14.4174190
  47.8246670  52.1616840  13.5229040  49.5220850  51.9260940  13.3071070
  50.1361260  52.2440230  12.6452150  50.0670410  51.4409530  13.9266930
  55.9396030  67.8252570  10.7132910  55.4454310  68.2221440   9.9960040
  55.3309320  67.2001780  11.1070190  40.0442110  50.6055200  13.4210130
  40.5925100  50.4243250  12.6576240  40.1097420  49.8149310  13.9566440
  40.8173870  67.1960850  11.4310330  40.2234190  67.0645550  12.1700370
  40.8097710  66.3598990  10.9652430  50.2628890  50.4893080   9.6340360
  49.3888730  50.8228190   9.4313290  50.1539640  50.0166260  10.4592230
  51.1700870  52.6963950  11.0182080  50.8414230  51.8815710  10.6383810
  52.1183170  52.6533760  10.8947770  53.6235480  68.4675990   7.9919650
  53.1638450  69.2191800   7.6177670  52.9947940  67.7482460   7.9334450
  40.4486100  64.5619230  10.3818370  39.7220160  63.9424520  10.3144320
  40.5095250  64.9559840   9.5116450  44.0531200  66.7764230   7.1667780
  44.5696220  66.1651590   6.6416040  44.7028580  67.2793010   7.6578790
  46.7926700  67.6672720   7.9936760  47.0804510  67.4127020   7.1169770
  47.3049920  67.1150080   8.5842330  48.0103710  51.4062920   8.5733270
  47.2275500  51.8808420   8.8530030  47.7166640  50.5017750   8.4646450
  52.5624780  52.1086020   6.6182360  53.0032870  52.0531120   5.7703960
  52.2932370  53.0244030   6.6892540  54.4263350  51.7401260   4.6291180
  54.3651750  50.7962480   4.4822200  55.2055380  51.8481350   5.1744640
  38.7316100  67.8793620   3.5915130  38.5638140  67.2464300   4.2897020
  37.8650610  68.0853020   3.2409320  45.8957930  53.8249670   4.0849300
  45.0832440  53.4506560   3.7445180  46.3999570  53.0694750   4.3870490
  50.3982910  50.4892120   5.3232370  51.0012280  51.0612330   5.7980890
  49.6575900  51.0531560   5.1006270  43.9207110  51.9749590   2.6894350
  43.2909850  51.2736900   2.8564480  43.3812250  52.7353720   2.4727510
  46.8599060  68.5888820  15.3604960  47.7866370  68.3533090  15.4040920
  46.8449490  69.4160820  14.8790990  55.0944120  68.1314390   2.3579210
  55.2696310  67.4452130   1.7140130  54.3965690  68.6561440   1.9655880
  44.0462670  51.2533570  15.1246840  43.7646940  51.7567170  14.3607660
  44.4282370  50.4555320  14.7588970  50.6478130  50.6687150  15.7027310
  50.5343580  50.9881760  16.5978830  51.4647870  51.0699660  15.4064590
  53.4276620  67.8158680  15.1846000  54.2201940  67.3207910  14.9771960
  53.7209770  68.4948820  15.7921610  49.5536280  39.9136130  79.9379500
  49.4730330  38.9990740  79.6671210  49.1400700  40.4103200  79.2319210
  47.6854320  41.6915150  81.8188770  46.9096420  41.2115590  82.1087340
  48.3367250  41.0120800  81.6444930  41.7020150  42.0034960  82.6964530
  40.8705030  41.7483670  83.0961040  42.3101130  42.0745730  83.4322450
  51.7061750  46.0975340  80.5987900  51.2443280  45.3262580  80.9275070
  52.5187300  46.1241410  81.1040350  41.6821410  46.0375050  82.8922550
  41.9849450  45.1472790  82.7132770  42.4265000  46.5945270  82.6644800
  40.1112100  36.9636850  76.4806920  39.2228800  37.3052820  76.3786800
  40.3953290  36.7637170  75.5887750  38.0745110  39.5642500  82.3646620
  38.6461220  38.7964700  82.3650260  38.0746650  39.8631260  81.4553230
  47.9325060  48.3833350  80.2191890  47.3136500  48.8390850  79.6486330
  48.7876840  48.5384810  79.8181590  47.1263310  44.3672340  81.8258930
  47.0571590  43.4262280  81.6648060  47.8883170  44.4573750  82.3981500
  39.3169980  34.9726860  84.1515550  39.1372820  34.0752610  84.4318310
  38.9150060  35.5198730  84.8262500  48.1568480  37.1742720  82.0527860
  48.5333300  36.3014600  81.9401530  48.0587990  37.5101420  81.1618300
  42.2873490  35.5468350  77.5145300  42.3940240  36.4472080  77.8214060
  41.3765850  35.4986320  77.2239950  51.9392600  34.6693160  78.9856200
  52.7602220  34.1789730  79.0281680  51.9726680  35.2590820  79.7388040
  39.9356650  37.4687360  82.7597890  40.6166760  37.7325730  83.3785290
  39.6204700  36.6288230  83.0935900  44.1281220  38.5154720  81.8470480
  44.6359440  39.0135690  82.4875500  44.6594460  37.7389920  81.6709840
  56.2292150  36.6859910  85.5499830  55.5244320  37.0741620  85.0314940
  56.4950070  37.3810200  86.1520760  42.4117320  33.1553280  86.1133900
  42.4135760  33.6725670  85.3079800  41.5821630  32.6783460  86.0903830
  48.7988410  43.2672590  77.6123800  48.1805680  43.7322040  77.0486520
  49.3111660  43.9600070  78.0293310  43.6620170  42.7948460  84.2907400
  43.3289550  43.4217380  84.9328470  43.8386850  43.3210340  83.5109070
  52.1754080  36.6093540  81.7583740  51.4709650  36.8978430  82.3386850
  52.5366240  37.4193650  81.3983300  42.0932650  34.8663240  84.1204350
  42.4349460  35.7105290  83.8258220  41.1548460  35.0146980  84.2369690
  42.8739270  44.7629260  86.1056580  43.4913270  45.4380340  85.8241030
  42.0132390  45.1717240  86.0144080  38.1671610  43.9529120  74.9863430
  37.7899590  44.4416220  74.2548330  38.4244680  44.6254400  75.6169960
  53.7916860  46.2268670  84.0211220  53.1080380  46.8967780  84.0127890
  54.3311150  46.4249320  83.2556080  55.2441000  36.0548330  82.1492950
  54.2965910  36.0887310  82.2808380  55.5690990  36.8687280  82.5342310
  45.7760540  32.3545510  80.4448940  46.0835520  31.7992400  79.7284440
  44.8461240  32.4889970  80.2621930  51.3275600  48.0712800  82.7356400
  51.3402760  47.6675090  81.8678660  50.7750820  48.8460090  82.6317830
  52.6221020  44.7929020  77.8246570  52.5117350  43.8503350  77.9495990
  52.6189270  45.1544660  78.7109330  50.7261040  42.9742640  84.0639010
  51.1429830  42.7602750  83.2292470  51.4500860  43.2315430  84.6347630
  48.1641300  40.4194340  77.1809060  47.2370580  40.3531720  77.4097530
  48.3166120  41.3574470  77.0664300  48.1510380  36.6911340  74.1776220
  47.2114050  36.8525300  74.2628680  48.4693640  37.4097020  73.6312210
  54.6723140  41.3729860  84.1555250  53.8441770  41.4422950  83.6805380
  55.2673620  41.9584170  83.6871080  52.1938590  41.9814640  77.6844310
  51.5751010  41.6434190  77.0370610  52.1763040  41.3374400  78.3923500
  51.6365150  38.1599180  85.1010120  51.2236330  38.9852890  85.3550110
  50.9041100  37.5744220  84.9086480  43.7697940  40.9459080  79.9628790
  43.3654940  40.2336330  79.4674690  43.8561060  40.6012320  80.8516830
  44.2379640  44.6326640  82.1268000  43.9407930  44.0272110  81.4475780
  45.1879460  44.6703950  82.0157360  42.4826560  37.7202290  83.7427830
  43.0341150  37.8297630  82.9681080  42.9970070  38.0939890  84.4583060
  52.3265250  48.2058510  85.7891100  51.8495810  49.0130700  85.5963710
  51.6427040  47.5536840  85.9417310  50.3703290  41.2201450  74.6917060
  50.8096570  40.3823880  74.5454880  51.0831710  41.8530850  74.7781200
  48.4798670  46.1597520  78.6598300  48.9194580  46.9021850  78.2453690
  48.4185560  46.4024090  79.5837260  53.9520430  32.4744260  73.0058100
  53.6393090  32.5671090  73.9057170  54.7132900  33.0525290  72.9555530
  40.4702570  39.8404060  77.4635440  40.3500170  40.5666150  76.8516710
  40.1603460  39.0706970  76.9863350  38.1087940  43.0119200  83.2704080
  38.1868360  43.1467970  82.3259800  38.7229620  42.3035090  83.4632200
  39.3535570  44.7119390  79.6810260  38.9463650  44.8533980  78.8263860
  40.2448580  44.4279550  79.4781470  51.1468850  49.1466640  76.0161310
  50.9869990  48.8569580  76.9143140  50.9815560  48.3706770  75.4806540
  43.6257230  48.9265170  77.7932930  43.4499710  48.0100710  77.5800730
  42.7712970  49.2852460  78.0330730  50.8494980  46.6554200  74.5759310
  50.1560140  46.6531490  73.9161590  51.5917840  46.2313520  74.1453480
  50.4144910  48.2816910  78.6507800  50.8701860  47.5006290  78.9646420
  50.7537430  48.9923730  79.1948980  38.1647460  44.0533370  85.8098540
  38.3278500  43.5838730  84.9917910  38.6299910  43.5456930  86.4747380
  42.9366230  33.1839130  80.8459110  42.4934380  33.9648670  80.5143630
  43.4951220  33.5069020  81.5530050  46.0525050  32.8049830  75.7264940
  45.4279230  32.8009700  76.4518250  45.9655170  31.9380790  75.3300910
  44.9742130  33.7286460  82.7048710  45.2714460  34.6349290  82.6240730
  45.5227690  33.2405240  82.0908280  42.7280450  38.3072700  78.5740360
  42.5021370  38.0909870  79.4786980  41.9472980  38.7401160  78.2286330
  49.9578210  38.3136070  77.1731010  49.3587100  39.0371870  76.9894630
  50.5057820  38.2512850  76.3907460  48.5643080  36.9499610  79.2034290
  48.9572650  37.2671810  78.3902980  48.9259930  36.0711490  79.3178810
  37.6007250  33.5400410  81.4264490  37.3120300  34.1103270  82.1389470
  38.3453010  33.0604860  81.7895720  37.7877480  37.4820530  72.6367210
  37.7052150  38.4251290  72.7782200  37.4360540  37.3395440  71.7579560
  49.1498220  39.5405360  83.2985070  48.4179340  40.0492170  83.6475170
  48.7522560  38.7235340  82.9973850  45.5875610  36.2159560  81.7037560
  45.5911670  35.7749510  80.8542100  46.4826730  36.5376890  81.8109380
  41.4377990  36.0986050  80.6631770  41.0978040  36.5761280  81.4198820
  40.6755310  35.6451170  80.3032870  45.6495760  37.2171640  74.6944320
  45.7708580  37.1758120  75.6430140  45.2644270  38.0795790  74.5391050
  49.6124130  34.9939040  82.7108010  49.6296870  35.4447690  83.5549860
  49.3639710  34.0944680  82.9241450  44.6617260  39.5272780  74.0927620
  44.0934160  39.0791030  73.4663530  45.3706260  39.8865560  73.5592770
  45.8883580  40.2761340  83.4502970  46.2553710  39.8019910  84.1964310
  45.6988640  41.1502910  83.7911310  38.7524070  35.0205030  79.5796440
  38.4670990  34.6560700  80.4175060  38.6902930  34.2885490  78.9659580
  43.6782950  39.3169980  85.7687180  43.3740020  40.1961960  85.9937540
  44.6329410  39.3769770  85.8044620  42.2064740  43.5230970  76.3654030
  41.4327000  42.9828590  76.2052750  42.9359370  43.0037580  76.0271790
  52.9652720  42.5196330  82.1580420  53.6851840  43.0151620  81.7676530
  52.7634540  41.8414220  81.5134290  48.4262660  33.9134290  76.3009810
  47.6127270  33.4147460  76.2255120  48.2324610  34.7532540  75.8846160
  51.1411050  38.2853940  74.5971970  52.0290670  38.5971170  74.4223310
  51.1116140  37.4126190  74.2052550  42.2502140  43.1911350  80.0032840
  42.7680810  42.3879610  79.9489730  41.7986160  43.1290490  80.8449670
  47.1371640  44.4577630  75.2760140  47.4787340  45.2019860  74.7803460
  46.3084350  44.7708750  75.6384970  53.4125320  39.5965780  74.0651830
  53.3289040  40.0280000  73.2148270  54.1319510  40.0564130  74.4978650
  54.4412570  46.4508040  76.7933960  53.7988730  45.7963660  77.0677680
  54.0543230  46.8563130  76.0174630  50.0199050  43.7793470  80.6405650
  50.3722870  43.1821600  79.9807020  49.1361380  43.4537700  80.8113900
  46.1062330  44.5391160  78.0476060  46.7933460  45.0860370  78.4283650
  45.3194750  45.0831890  78.0825670  38.2454730  40.1563980  73.5393140
  39.1149580  40.4388780  73.8229060  37.7545050  40.9699850  73.4241950
  45.4089540  41.5437190  77.6601420  45.8652320  42.3542440  77.8861610
  45.0577750  41.2260330  78.4919910  47.7122150  47.0543530  84.8893720
  48.3564370  47.2602910  85.5667140  48.0751590  46.2931930  84.4364570
  41.3101320  31.8874840  78.1323940  41.1815950  31.8792740  79.0808860
  40.4863340  32.2257930  77.7814950  48.9854230  45.0575880  83.6071170
  49.6276460  44.3569040  83.7203340  49.5103580  45.8374320  83.4268060
  52.8309950  45.3424500  73.3310310  52.6047530  44.6254940  73.9234950
  52.4406150  45.0936940  72.4932060  38.6125980  49.3691360  74.1054770
  38.9723620  49.9680700  73.4512040  38.4718320  49.9151250  74.8789800
  52.4126200  43.2596440  74.9924470  52.1247900  43.7209130  75.7802350
  53.2078370  42.7994210  75.2608690  44.6294600  46.7522560  74.9228440
  44.6204700  47.4852250  74.3072950  43.7092960  46.5054140  75.0155400
  40.2301240  41.9737450  75.6675200  39.6229190  42.7136350  75.6770500
  40.7050590  42.0636810  74.8413400  49.8034030  36.1388270  85.3432090
  50.1714850  35.3183480  85.6711660  48.9432230  36.1990160  85.7587740
  53.1696060  35.0945210  76.1519650  52.5409220  35.1990880  75.4377880
  52.6747980  35.3141990  76.9413530  47.6154200  46.8150800  73.5853630
  47.7166180  46.6114790  72.6555610  46.7155940  46.5609080  73.7901410
  45.1380090  37.3731160  77.5677530  44.4296240  37.8417500  78.0091140
  45.4224570  36.7153170  78.2022720  46.7636020  38.7927860  85.5670060
  47.2621270  39.2673680  86.2321910  46.9058970  37.8691380  85.7740090
  49.1695520  34.0981820  79.0073320  49.0463300  34.1167950  78.0582830
  50.1180080  34.1460760  79.1271720  46.2572310  49.3337120  78.2801300
  46.5113810  49.2958510  77.3580670  45.3084790  49.2070450  78.2729550
  43.3415110  35.6816240  74.9428240  44.1905640  36.1186390  74.8768430
  42.9746380  35.9936500  75.7700300  53.9702880  35.0095820  86.4098450
  53.4676480  35.7501220  86.7492260  54.7859540  35.3979820  86.0935240
  52.2624890  40.2529000  79.8559810  51.3215030  40.2679230  80.0307500
  52.5768960  39.4664960  80.3020110  42.2406530  41.9348600  73.4163770
  43.0069800  41.8229960  73.9789200  42.3181220  41.2386570  72.7640540
  40.9353290  39.3673670  74.0996660  41.0156880  38.4201180  74.2114060
  41.8273040  39.6980550  74.2057320  54.2650470  47.4237850  81.5314070
  54.3897890  48.2469020  82.0037880  55.1316030  47.2128580  81.1838220
  41.7368000  49.5169060  81.2031200  42.4730480  48.9684520  81.4739770
  42.1208920  50.3825070  81.0637190  38.6213480  45.5842630  77.0772710
  37.6953260  45.8263770  77.0678120  39.0869910  46.4116890  76.9557460
  44.8470310  48.6899370  73.0256770  45.6398920  48.9788200  72.5738560
  44.3274660  48.2591540  72.3469250  53.9000480  47.9169500  74.4493510
  53.6141990  47.5034640  73.6347690  53.7020030  48.8457210  74.3294030
  45.3647710  43.9102780  72.8899120  45.2598350  43.2955130  73.6160500
  45.1971930  43.3868670  72.1062130  48.6050440  42.9722810  73.4941110
  48.0560540  43.4192110  74.1383850  49.2269700  42.4672060  74.0178780
  44.2725560  41.9313730  75.3906410  44.6941980  41.7653600  76.2337800
  44.3976400  41.1213960  74.8961550  46.7853200  40.9551340  72.6383510
  47.3058860  40.2400360  72.2724660  47.4321600  41.5937210  72.9384020
  45.6886720  33.4345890  85.3102070  45.2404020  33.4570150  84.4647620
  45.0551920  33.0364910  85.9072370  46.0946270  42.3300220  85.9314510
  46.5134380  43.1732950  85.7590750  45.1754900  42.4672260  85.7021290
  50.7698070  40.6153590  85.8914860  50.2433290  41.1396210  85.2880000
  51.1129410  41.2480980  86.5224590  43.1684460  38.0046960  72.3364570
  42.9673520  37.1414320  72.6977910  42.9976510  37.9180320  71.3986170
  50.6472770  32.8155190  74.8651450  50.9275060  31.9723090  75.2210870
  49.8738500  33.0478300  75.3790200  41.9667260  35.1047580  72.3242450
  42.2693160  35.1115010  71.4161600  42.7061850  34.7545440  72.8210110
  45.1852190  34.0482200  73.3098650  44.8374190  33.3706190  72.7301100
  45.3864960  33.5871710  74.1242040  47.3501230  49.0362950  74.9285250
  48.2452020  49.3747920  74.9504010  47.3818860  48.3142360  74.3009530
  40.9897390  44.4090000  73.1572250  41.4272260  44.9519670  73.8129830
  41.4745120  43.5836950  73.1668590  38.2043190  47.1979030  80.6092510
  38.5346200  46.3300090  80.3771150  38.6334190  47.4037550  81.4397470
  42.8005110  45.5288040  78.2694480  42.5000650  45.4053010  79.1698390
  42.6942600  44.6696630  77.8610210  38.6933400  48.0649620  83.3474140
  38.2564390  48.2450420  84.1798290  39.2611080  48.8224240  83.2055860
  55.5697030  45.3084440  72.9721160  54.7389990  45.3761090  73.4428390
  55.7468860  46.1988560  72.6688020  55.0253490  42.0531920  75.4755360
  55.7872400  42.6228570  75.5815050  55.0407860  41.4859120  76.2463670
  38.5257830  40.5769850  79.7063020  37.8706670  40.3081490  79.0622720
  39.3635780  40.4674330  79.2565000  56.0313460  42.9082020  80.3197290
  56.4022290  42.1249340  79.9133260  56.6715390  43.5971120  80.1414590
  53.0147220  44.2918600  85.7327610  52.2007060  44.7215760  85.9953400
  53.4221420  44.9037010  85.1196660  55.0772660  42.3466290  72.6327880
  55.3521500  43.2545170  72.5047100  54.8883400  42.2828820  73.5689870
  51.4748270  35.3711140  73.9281510  51.8933150  35.1842120  73.0878170
  51.1684330  34.5190190  74.2384440  54.9738000  40.2835280  77.6257310
  54.5981600  39.5163210  77.1938600  54.2441120  40.6657980  78.1132240
  39.5633760  40.9622420  84.2466360  39.9306800  40.8749820  85.1262380
  38.9944580  40.1988970  84.1473220  37.7395910  37.7868780  75.6488350
  36.8359990  38.0498980  75.4740010  38.2236530  38.0579950  74.8688310
  54.2488960  38.5092770  80.9264550  54.7726440  38.0155420  80.2954720
  54.8348380  38.6443130  81.6712120  54.4278680  38.5932640  84.4484100
  53.4781390  38.5596180  84.5629090  54.6091690  39.5032750  84.2133870
  40.2823120  36.8434320  73.5582730  40.9914820  36.4217540  73.0730010
  39.5663060  36.9109550  72.9266080  39.9297280  32.8973650  72.5985380
  40.6525410  33.4382590  72.9166600  40.2021800  32.6237070  71.7226920
  53.7388930  37.7666120  76.8656960  54.2348050  37.5336990  77.6505840
  53.5405000  36.9277960  76.4494600  39.6189470  32.1479840  82.5008000
  40.2665660  31.5977220  82.0603160  40.0391310  32.4022990  83.3223810
  55.1676090  36.4027070  79.3994640  55.0575370  36.2483110  80.3376910
  55.9283680  35.8748010  79.1570050  53.5141810  32.3421200  85.8577640
  54.1514030  32.9555340  86.2236830  53.6616700  32.3781860  84.9126870
  56.0566360  34.2334990  72.6400780  56.9815670  34.1016170  72.4319070
  56.0342150  34.3127810  73.5937230  56.1304850  35.0045650  75.2657490
  55.3356350  34.9390770  75.7950400  56.3348130  35.9396290  75.2542840
  53.0723270  49.0437200  79.2595880  53.6682340  48.7221770  78.5830300
  53.3301420  48.5709020  80.0509150  39.3721470  32.3035510  85.2433320
  39.0236290  32.7599330  86.0091500  39.0409170  31.4092640  85.3255750
  44.6791870  47.0314700  85.0096230  44.4383230  47.2989260  84.1226750
  45.6194510  47.2020430  85.0647090  55.9396030  49.0509080  85.8106870
  55.4454310  49.4477950  85.0934000  55.3309320  48.4258290  86.2044150
  50.2628890  31.7149590  84.7314320  49.3888730  32.0484700  84.5287250
  50.1539640  31.2422770  85.5566190  51.1700870  33.9220460  86.1156040
  50.8414230  33.1072220  85.7357770  52.1183170  33.8790270  85.9921730
  53.6235480  49.6932500  83.0893610  53.1638450  50.4448310  82.7151630
  52.9947940  48.9738970  83.0308410  40.4486100  45.7875740  85.4792330
  39.7220160  45.1681030  85.4118280  40.5095250  46.1816350  84.6090410
  44.0531200  48.0020740  82.2641740  44.5696220  47.3908100  81.7390000
  44.7028580  48.5049520  82.7552750  46.7926700  48.8929230  83.0910720
  47.0804510  48.6383530  82.2143730  47.3049920  48.3406590  83.6816290
  48.0103710  32.6319430  83.6707230  47.2275500  33.1064930  83.9503990
  47.7166640  31.7274260  83.5620410  52.5624780  33.3342530  81.7156320
  53.0032870  33.2787630  80.8677920  52.2932370  34.2500540  81.7866500
  54.4263350  32.9657770  79.7265140  54.3651750  32.0218990  79.5796160
  55.2055380  33.0737860  80.2718600  38.7316100  49.1050130  78.6889090
  38.5638140  48.4720810  79.3870980  37.8650610  49.3109530  78.3383280
  39.3544120  32.9366910  76.1920950  40.1123480  33.0495790  75.6184980
  38.8921290  33.7736110  76.1464380  45.8957930  35.0506180  79.1823260
  45.0832440  34.6763070  78.8419140  46.3999570  34.2951260  79.4844450
  50.3982910  31.7148630  80.4206330  51.0012280  32.2868840  80.8954850
  49.6575900  32.2788070  80.1980230  53.5417510  32.1170190  75.6946610
  53.7368140  33.0153640  75.9614040  52.7547380  31.8857270  76.1879560
  40.3378800  47.7983360  76.1339230  39.8126420  48.1791390  75.4301190
  40.2623380  48.4234130  76.8548940  41.7269270  33.4630960  74.7322920
  42.2562030  32.6760760  74.6030870  42.3597590  34.1422150  74.9658450
  43.9207110  33.2006100  77.7868310  43.2909850  32.4993410  77.9538440
  43.3812250  33.9610230  77.5701470  55.0944120  49.3570900  77.4553170
  55.2696310  48.6708640  76.8114090  54.3965690  49.8817950  77.0629840
  42.9371770  49.7465740  75.0088480  43.6690590  49.4625020  74.4612370
  43.1965440  49.5079020  75.8987860  42.0986560  45.8630470  75.0134810
  41.4695440  46.3315570  75.5620640  42.2134390  45.0179690  75.4481000
  41.6821410  46.0375050  64.1179060  41.9849450  45.1472790  63.9389280
  42.4265000  46.5945270  63.8901310  38.0745110  39.5642500  63.5903130
  38.6461220  38.7964700  63.5906770  38.0746650  39.8631260  62.6809740
  39.3169980  34.9726860  65.3772060  39.1372820  34.0752610  65.6574820
  38.9150060  35.5198730  66.0519010  39.9356650  37.4687360  63.9854400
  40.6166760  37.7325730  64.6041800  39.6204700  36.6288230  64.3192410
  44.1281220  38.5154720  63.0726990  44.6359440  39.0135690  63.7132010
  44.6594460  37.7389920  62.8966350  56.2292150  36.6859910  66.7756340
  55.5244320  37.0741620  66.2571450  56.4950070  37.3810200  67.3777270
  42.4117320  33.1553280  67.3390410  42.4135760  33.6725670  66.5336310
  41.5821630  32.6783460  67.3160340  43.6620170  42.7948460  65.5163910
  43.3289550  43.4217380  66.1584980  43.8386850  43.3210340  64.7365580
  52.1754080  36.6093540  62.9840250  51.4709650  36.8978430  63.5643360
  52.5366240  37.4193650  62.6239810  42.0932650  34.8663240  65.3460860
  42.4349460  35.7105290  65.0514730  41.1548460  35.0146980  65.4626200
  42.8739270  44.7629260  67.3313090  43.4913270  45.4380340  67.0497540
  42.0132390  45.1717240  67.2400590  53.7916860  46.2268670  65.2467730
  53.1080380  46.8967780  65.2384400  54.3311150  46.4249320  64.4812590
  55.2441000  36.0548330  63.3749460  54.2965910  36.0887310  63.5064890
  55.5690990  36.8687280  63.7598820  50.7261040  42.9742640  65.2895520
  51.1429830  42.7602750  64.4548980  51.4500860  43.2315430  65.8604140
  54.6723140  41.3729860  65.3811760  53.8441770  41.4422950  64.9061890
  55.2673620  41.9584170  64.9127590  52.1938590  41.9814640  58.9100820
  51.5751010  41.6434190  58.2627120  52.1763040  41.3374400  59.6180010
  51.6365150  38.1599180  66.3266630  51.2236330  38.9852890  66.5806620
  50.9041100  37.5744220  66.1342990  44.2379640  44.6326640  63.3524510
  43.9407930  44.0272110  62.6732290  45.1879460  44.6703950  63.2413870
  42.4826560  37.7202290  64.9684340  43.0341150  37.8297630  64.1937590
  42.9970070  38.0939890  65.6839570  52.3265250  48.2058510  67.0147610
  51.8495810  49.0130700  66.8220220  51.6427040  47.5536840  67.1673820
  43.3298070  44.3708330  70.0032310  42.4326600  44.5948300  70.2505710
  43.3550940  44.4943270  69.0543710  42.1569290  41.2421650  68.5789680
  42.0177060  42.1144450  68.9477080  41.2750650  40.8994460  68.4337620
  43.9549640  47.1843350  70.7874830  43.9265070  47.5886300  69.9203260
  43.7914610  46.2553710  70.6246430  55.9064460  47.9670450  72.0839000
  56.3824180  48.4453340  72.7628080  56.5271620  47.8987940  71.3584500
  38.1087940  43.0119200  64.4960590  38.1868360  43.1467970  63.5516310
  38.7229620  42.3035090  64.6888710  55.3097710  45.1583300  69.2439010
  55.4360770  44.9195180  68.3256190  55.3519090  44.3267840  69.7161090
  49.1714450  48.8611300  67.8133820  49.6859120  48.7719310  68.6156250
  48.3283530  49.2071000  68.1061730  55.1621720  37.2115760  70.2088750
  54.5465990  37.7195430  69.6804210  54.8418140  36.3114090  70.1514690
  38.1647460  44.0533370  67.0355050  38.3278500  43.5838730  66.2174420
  38.6299910  43.5456930  67.7003890  47.2236040  36.0507650  67.6750940
  46.7615410  36.2590670  68.4870880  46.8214150  35.2367000  67.3721610
  52.2240550  37.2716600  68.8047600  51.3734140  36.9722350  69.1256670
  52.0642340  37.5158610  67.8931420  49.3190260  38.7718350  70.9046390
  49.6443670  37.9382100  70.5648620  50.1070590  39.2946870  71.0524720
  45.1679660  39.2058280  70.4657140  45.0723260  38.2653010  70.3157540
  46.0111640  39.4273350  70.0705210  40.2990200  35.6171950  68.6190920
  39.9053590  36.4647160  68.8263700  39.6108600  34.9798320  68.8099560
  46.8735250  35.7006920  71.6887660  46.1833570  35.5079120  72.3233750
  47.6167550  35.9841560  72.2211960  49.1498220  39.5405360  64.5241580
  48.4179340  40.0492170  64.8731680  48.7522560  38.7235340  64.2230360
  49.6124130  34.9939040  63.9364520  49.6296870  35.4447690  64.7806370
  49.3639710  34.0944680  64.1497960  53.0394880  32.4071220  69.7750900
  53.3640650  31.6760880  70.3008880  53.0751390  32.0884860  68.8731890
  39.7386440  43.4284800  69.1950860  39.3541230  42.7878470  69.7933820
  40.0498630  44.1320920  69.7645590  45.8883580  40.2761340  64.6759480
  46.2553710  39.8019910  65.4220820  45.6988640  41.1502910  65.0167820
  43.6782950  39.3169980  66.9943690  43.3740020  40.1961960  67.2194050
  44.6329410  39.3769770  67.0301130  52.9652720  42.5196330  63.3836930
  53.6851840  43.0151620  62.9933040  52.7634540  41.8414220  62.7390800
  48.3471520  42.5905390  69.2705930  48.2808830  41.6701060  69.0163520
  47.7176660  42.6880830  69.9850570  39.7346680  40.1572720  68.1415050
  39.3761620  40.8226570  68.7288390  39.4401240  39.3256270  68.5127670
  42.9359800  40.6156960  71.0254600  42.6359940  40.7614140  70.1282420
  43.7071040  40.0562250  70.9327990  48.2788250  45.4125960  69.0209730
  48.2932790  44.4806920  68.8028640  47.5713350  45.4985720  69.6599500
  53.4125320  39.5965780  55.2908340  53.3289040  40.0280000  54.4404780
  54.1319510  40.0564130  55.7235160  54.4899460  42.0533300  68.3678310
  53.7647650  42.6462080  68.1707700  55.0174920  42.0456840  67.5691680
  54.4412570  46.4508040  58.0190470  53.7988730  45.7963660  58.2934190
  54.0543230  46.8563130  57.2431140  47.7122150  47.0543530  66.1150230
  48.3564370  47.2602910  66.7923650  48.0751590  46.2931930  65.6621080
  48.9854230  45.0575880  64.8327680  49.6276460  44.3569040  64.9459850
  49.5103580  45.8374320  64.6524570  50.7591850  45.8570780  68.0363740
  51.0948090  46.4437470  68.7141660  49.8392190  45.7263490  68.2661530
  38.3095250  33.6465960  68.8187150  37.5953770  33.8462880  69.4239760
  38.7290290  32.8705530  69.1901950  52.4126200  43.2596440  56.2180980
  52.1247900  43.7209130  57.0058860  53.2078370  42.7994210  56.4865200
  38.5967840  47.6346220  69.8053680  38.7058960  46.6940960  69.6649070
  37.9448400  47.9000970  69.1567410  46.5880430  45.9062110  71.2051800
  46.2677300  45.1871350  71.7497490  45.9138790  46.5817180  71.2787860
  49.8034030  36.1388270  66.5688600  50.1714850  35.3183480  66.8968170
  48.9432230  36.1990160  66.9844250  46.7636020  38.7927860  66.7926570
  47.2621270  39.2673680  67.4578420  46.9058970  37.8691380  66.9996600
  53.9702880  35.0095820  67.6354960  53.4676480  35.7501220  67.9748770
  54.7859540  35.3979820  67.3191750  40.7426280  48.7015130  71.6173290
  41.5439010  49.0227180  72.0308690  40.2278100  48.3410710  72.3393200
  49.5790910  44.8095000  71.5648700  48.9729070  44.8326600  70.8244450
  49.2745020  44.0778040  72.1015950  51.0091280  48.5375290  70.1758110
  51.9613030  48.4533310  70.1258350  50.8619500  49.2017000  70.8491900
  38.4624090  41.1888590  70.5609340  38.9663110  40.6095870  71.1325570
  37.7231510  41.4728820  71.0985710  45.5162030  42.5959580  70.0944860
  44.7507700  43.1644580  70.0099530  45.6977990  42.3035790  69.2013090
  52.6585380  44.3264910  70.6519880  53.3994850  44.6640670  70.1487340
  51.8958060  44.4956970  70.0989650  40.4947170  39.3318180  71.4559410
  40.5352510  39.0332050  72.3644640  41.3492670  39.7325790  71.2966930
  42.4352980  37.9110280  69.4233900  41.9049440  37.4201230  68.7957240
  43.1041050  38.3394480  68.8891830  51.3331040  42.3779740  69.1875090
  51.7472060  42.5324820  70.0365510  50.3982040  42.5034960  69.3500870
  51.8053210  39.7175900  71.1914240  52.3873980  38.9628220  71.1034720
  51.9814980  40.2483340  70.4145720  42.9225280  34.8772650  69.5031190
  42.8282150  34.2593400  68.7782060  42.3422670  35.6038940  69.2761100
  45.6886720  33.4345890  66.5358580  45.2404020  33.4570150  65.6904130
  45.0551920  33.0364910  67.1328880  46.0946270  42.3300220  67.1571020
  46.5134380  43.1732950  66.9847260  45.1754900  42.4672260  66.9277800
  48.4310170  40.0616400  68.5408860  48.5506380  39.4657540  69.2803700
  49.2904170  40.0986090  68.1210160  50.7698070  40.6153590  67.1171370
  50.2433290  41.1396210  66.5136510  51.1129410  41.2480980  67.7481100
  43.9453690  48.6353230  68.2728750  43.4074780  49.3599290  67.9537450
  44.1987650  48.1583570  67.4826090  45.1978940  36.6037750  69.7984680
  45.7878630  36.2953600  70.4862500  44.3799180  36.1317500  69.9544580
  50.0172370  36.2203560  70.0317700  49.3287890  35.5585100  69.9667690
  50.7378390  35.7741830  70.4766160  46.8015900  49.8704440  68.5315400
  46.7274600  50.7739580  68.8387770  45.8994740  49.5516340  68.5037470
  38.6933400  48.0649620  64.5730650  38.2564390  48.2450420  65.4054800
  39.2611080  48.8224240  64.4312370  54.3295580  47.5666620  68.8607960
  53.7297570  47.6259180  68.1171880  54.4589480  46.6271600  68.9904810
  55.5697030  45.3084440  54.1977670  54.7389990  45.3761090  54.6684900
  55.7468860  46.1988560  53.8944530  55.0253490  42.0531920  56.7011870
  55.7872400  42.6228570  56.8071560  55.0407860  41.4859120  57.4720180
  56.0313460  42.9082020  61.5453800  56.4022290  42.1249340  61.1389770
  56.6715390  43.5971120  61.3671100  53.0147220  44.2918600  66.9584120
  52.2007060  44.7215760  67.2209910  53.4221420  44.9037010  66.3453170
  55.0772660  42.3466290  53.8584390  55.3521500  43.2545170  53.7303610
  54.8883400  42.2828820  54.7946380  54.9738000  40.2835280  58.8513820
  54.5981600  39.5163210  58.4195110  54.2441120  40.6657980  59.3388750
  39.5633760  40.9622420  65.4722870  39.9306800  40.8749820  66.3518890
  38.9944580  40.1988970  65.3729730  54.3637620  39.4306800  68.4853340
  54.1323710  39.2019550  67.5851290  54.6242170  40.3506350  68.4398230
  39.1149760  37.8731510  69.3781290  38.2205810  37.8398270  69.7175000
  39.6547310  38.0718300  70.1432540  52.8025690  34.6563230  71.2633040
  53.6795870  34.6646630  71.6467040  52.8146530  33.9194070  70.6525390
  54.2488960  38.5092770  62.1521060  54.7726440  38.0155420  61.5211230
  54.8348380  38.6443130  62.8968630  54.4278680  38.5932640  65.6740610
  53.4781390  38.5596180  65.7885600  54.6091690  39.5032750  65.4390380
  53.7388930  37.7666120  58.0913470  54.2348050  37.5336990  58.8762350
  53.5405000  36.9277960  57.6751110  39.6189470  32.1479840  63.7264510
  40.2665660  31.5977220  63.2859670  40.0391310  32.4022990  64.5480320
  55.1676090  36.4027070  60.6251150  55.0575370  36.2483110  61.5633420
  55.9283680  35.8748010  60.3826560  53.5141810  32.3421200  67.0834150
  54.1514030  32.9555340  67.4493340  53.6616700  32.3781860  66.1383380
  56.0566360  34.2334990  53.8657290  56.9815670  34.1016170  53.6575580
  56.0342150  34.3127810  54.8193740  56.1304850  35.0045650  56.4914000
  55.3356350  34.9390770  57.0206910  56.3348130  35.9396290  56.4799350
  39.3721470  32.3035510  66.4689830  39.0236290  32.7599330  67.2348010
  39.0409170  31.4092640  66.5512260  40.9785840  45.4755110  70.6343020
  40.9355470  45.1048020  71.5157480  41.1096850  46.4132680  70.7744840
  44.6791870  47.0314700  66.2352740  44.4383230  47.2989260  65.3483260
  45.6194510  47.2020430  66.2903600  46.8846290  33.4947390  69.9909250
  46.8235180  34.0869220  70.7404660  47.8246670  33.3873350  69.8459510
  49.5220850  33.1517450  69.6301540  50.1361260  33.4696740  68.9682620
  50.0670410  32.6666040  70.2497400  55.9396030  49.0509080  67.0363380
  55.4454310  49.4477950  66.3190510  55.3309320  48.4258290  67.4300660
  40.0442110  31.8311710  69.7440600  40.5925100  31.6499760  68.9806710
  40.1097420  31.0405820  70.2796910  40.8173870  48.4217360  67.7540800
  40.2234190  48.2902060  68.4930840  40.8097710  47.5855500  67.2882900
  50.2628890  31.7149590  65.9570830  49.3888730  32.0484700  65.7543760
  50.1539640  31.2422770  66.7822700  51.1700870  33.9220460  67.3412550
  50.8414230  33.1072220  66.9614280  52.1183170  33.8790270  67.2178240
  53.6235480  49.6932500  64.3150120  53.1638450  50.4448310  63.9408140
  52.9947940  48.9738970  64.2564920  40.4486100  45.7875740  66.7048840
  39.7220160  45.1681030  66.6374790  40.5095250  46.1816350  65.8346920
  48.0103710  32.6319430  64.8963740  47.2275500  33.1064930  65.1760500
  47.7166640  31.7274260  64.7876920  46.8599060  49.8145330  71.6835430
  47.7866370  49.5789600  71.7271390  46.8449490  50.6417330  71.2021460
  55.0944120  49.3570900  58.6809680  55.2696310  48.6708640  58.0370600
  54.3965690  49.8817950  58.2886350  44.0462670  32.4790080  71.4477310
  43.7646940  32.9823680  70.6838130  44.4282370  31.6811830  71.0819440
  50.6478130  31.8943660  72.0257780  50.5343580  32.2138270  72.9209300
  51.4647870  32.2956170  71.7295060  53.4276620  49.0415190  71.5076470
  54.2201940  48.5464420  71.3002430  53.7209770  49.7205330  72.1152080
  56.2292150  36.6859910  48.0012850  55.5244320  37.0741620  47.4827960
  56.4950070  37.3810200  48.6033780  52.1754080  36.6093540  44.2096760
  51.4709650  36.8978430  44.7899870  52.5366240  37.4193650  43.8496320
  55.2441000  36.0548330  44.6005970  54.2965910  36.0887310  44.7321400
  55.5690990  36.8687280  44.9855330  52.6221020  44.7929020  40.2759590
  52.5117350  43.8503350  40.4009010  52.6189270  45.1544660  41.1622350
  50.7261040  42.9742640  46.5152030  51.1429830  42.7602750  45.6805490
  51.4500860  43.2315430  47.0860650  54.6723140  41.3729860  46.6068270
  53.8441770  41.4422950  46.1318400  55.2673620  41.9584170  46.1384100
  52.1938590  41.9814640  40.1357330  51.5751010  41.6434190  39.4883630
  52.1763040  41.3374400  40.8436520  51.6365150  38.1599180  47.5523140
  51.2236330  38.9852890  47.8063130  50.9041100  37.5744220  47.3599500
  50.3703290  41.2201450  37.1430080  50.8096570  40.3823880  36.9967900
  51.0831710  41.8530850  37.2294220  53.9520430  32.4744260  35.4571120
  53.6393090  32.5671090  36.3570190  54.7132900  33.0525290  35.4068550
  55.9064460  47.9670450  53.3095510  56.3824180  48.4453340  53.9884590
  56.5271620  47.8987940  52.5841010  55.3097710  45.1583300  50.4695520
  55.4360770  44.9195180  49.5512700  55.3519090  44.3267840  50.9417600
  55.1621720  37.2115760  51.4345260  54.5465990  37.7195430  50.9060720
  54.8418140  36.3114090  51.3771200  52.9652720  42.5196330  44.6093440
  53.6851840  43.0151620  44.2189550  52.7634540  41.8414220  43.9647310
  51.1411050  38.2853940  37.0484990  52.0290670  38.5971170  36.8736330
  51.1116140  37.4126190  36.6565570  53.4125320  39.5965780  36.5164850
  53.3289040  40.0280000  35.6661290  54.1319510  40.0564130  36.9491670
  54.4899460  42.0533300  49.5934820  53.7647650  42.6462080  49.3964210
  55.0174920  42.0456840  48.7948190  54.4412570  46.4508040  39.2446980
  53.7988730  45.7963660  39.5190700  54.0543230  46.8563130  38.4687650
  52.8309950  45.3424500  35.7823330  52.6047530  44.6254940  36.3747970
  52.4406150  45.0936940  34.9445080  52.4126200  43.2596440  37.4437490
  52.1247900  43.7209130  38.2315370  53.2078370  42.7994210  37.7121710
  53.1696060  35.0945210  38.6032670  52.5409220  35.1990880  37.8890900
  52.6747980  35.3141990  39.3926550  53.9702880  35.0095820  48.8611470
  53.4676480  35.7501220  49.2005280  54.7859540  35.3979820  48.5448260
  52.2624890  40.2529000  42.3072830  51.3215030  40.2679230  42.4820520
  52.5768960  39.4664960  42.7533130  54.2650470  47.4237850  43.9827090
  54.3897890  48.2469020  44.4550900  55.1316030  47.2128580  43.6351240
  53.9000480  47.9169500  36.9006530  53.6141990  47.5034640  36.0860710
  53.7020030  48.8457210  36.7807050  51.3331040  42.3779740  50.4131600
  51.7472060  42.5324820  51.2622020  50.3982040  42.5034960  50.5757380
  55.5697030  45.3084440  35.4234180  54.7389990  45.3761090  35.8941410
  55.7468860  46.1988560  35.1201040  55.0253490  42.0531920  37.9268380
  55.7872400  42.6228570  38.0328070  55.0407860  41.4859120  38.6976690
  56.0313460  42.9082020  42.7710310  56.4022290  42.1249340  42.3646280
  56.6715390  43.5971120  42.5927610  53.0147220  44.2918600  48.1840630
  52.2007060  44.7215760  48.4466420  53.4221420  44.9037010  47.5709680
  55.0772660  42.3466290  35.0840900  55.3521500  43.2545170  34.9560120
  54.8883400  42.2828820  36.0202890  51.4748270  35.3711140  36.3794530
  51.8933150  35.1842120  35.5391190  51.1684330  34.5190190  36.6897460
  54.9738000  40.2835280  40.0770330  54.5981600  39.5163210  39.6451620
  54.2441120  40.6657980  40.5645260  54.3637620  39.4306800  49.7109850
  54.1323710  39.2019550  48.8107800  54.6242170  40.3506350  49.6654740
  54.2488960  38.5092770  43.3777570  54.7726440  38.0155420  42.7467740
  54.8348380  38.6443130  44.1225140  54.4278680  38.5932640  46.8997120
  53.4781390  38.5596180  47.0142110  54.6091690  39.5032750  46.6646890
  53.7388930  37.7666120  39.3169980  54.2348050  37.5336990  40.1018860
  53.5405000  36.9277960  38.9007620  55.1676090  36.4027070  41.8507660
  55.0575370  36.2483110  42.7889930  55.9283680  35.8748010  41.6083070
  56.0566360  34.2334990  35.0913800  56.9815670  34.1016170  34.8832090
  56.0342150  34.3127810  36.0450250  56.1304850  35.0045650  37.7170510
  55.3356350  34.9390770  38.2463420  56.3348130  35.9396290  37.7055860
  55.9396030  49.0509080  48.2619890  55.4454310  49.4477950  47.5447020
  55.3309320  48.4258290  48.6557170  54.4263350  32.9657770  42.1778160
  54.3651750  32.0218990  42.0309180  55.2055380  33.0737860  42.7231620
  53.5417510  32.1170190  38.1459630  53.7368140  33.0153640  38.4127060
  52.7547380  31.8857270  38.6392580  55.0944120  49.3570900  39.9066190
  55.2696310  48.6708640  39.2627110  54.3965690  49.8817950  39.5142860
  49.5536280  39.9136130  23.6149030  49.4730330  38.9990740  23.3440740
  49.1400700  40.4103200  22.9088740  51.7061750  46.0975340  24.2757430
  51.2443280  45.3262580  24.6044600  52.5187300  46.1241410  24.7809880
  40.1112100  36.9636850  20.1576450  39.2228800  37.3052820  20.0556330
  40.3953290  36.7637170  19.2657280  42.2873490  35.5468350  21.1914830
  42.3940240  36.4472080  21.4983590  41.3765850  35.4986320  20.9009480
  51.9392600  34.6693160  22.6625730  52.7602220  34.1789730  22.7051210
  51.9726680  35.2590820  23.4157570  56.2292150  36.6859910  29.2269360
  55.5244320  37.0741620  28.7084470  56.4950070  37.3810200  29.8290290
  48.7988410  43.2672590  21.2893330  48.1805680  43.7322040  20.7256050
  49.3111660  43.9600070  21.7062840  52.1754080  36.6093540  25.4353270
  51.4709650  36.8978430  26.0156380  52.5366240  37.4193650  25.0752830
  38.1671610  43.9529120  18.6632960  37.7899590  44.4416220  17.9317860
  38.4244680  44.6254400  19.2939490  53.7916860  46.2268670  27.6980750
  53.1080380  46.8967780  27.6897420  54.3311150  46.4249320  26.9325610
  55.2441000  36.0548330  25.8262480  54.2965910  36.0887310  25.9577910
  55.5690990  36.8687280  26.2111840  52.6221020  44.7929020  21.5016100
  52.5117350  43.8503350  21.6265520  52.6189270  45.1544660  22.3878860
  50.7261040  42.9742640  27.7408540  51.1429830  42.7602750  26.9062000
  51.4500860  43.2315430  28.3117160  48.1641300  40.4194340  20.8578590
  47.2370580  40.3531720  21.0867060  48.3166120  41.3574470  20.7433830
  48.1510380  36.6911340  17.8545750  47.2114050  36.8525300  17.9398210
  48.4693640  37.4097020  17.3081740  54.6723140  41.3729860  27.8324780
  53.8441770  41.4422950  27.3574910  55.2673620  41.9584170  27.3640610
  52.1938590  41.9814640  21.3613840  51.5751010  41.6434190  20.7140140
  52.1763040  41.3374400  22.0693030  51.6365150  38.1599180  28.7779650
  51.2236330  38.9852890  29.0319640  50.9041100  37.5744220  28.5856010
  50.3703290  41.2201450  18.3686590  50.8096570  40.3823880  18.2224410
  51.0831710  41.8530850  18.4550730  48.4798670  46.1597520  22.3367830
  48.9194580  46.9021850  21.9223220  48.4185560  46.4024090  23.2606790
  53.9520430  32.4744260  16.6827630  53.6393090  32.5671090  17.5826700
  54.7132900  33.0525290  16.6325060  40.4702570  39.8404060  21.1404970
  40.3500170  40.5666150  20.5286240  40.1603460  39.0706970  20.6632880
  55.9064460  47.9670450  34.5352020  56.3824180  48.4453340  35.2141100
  56.5271620  47.8987940  33.8097520  55.3097710  45.1583300  31.6952030
  55.4360770  44.9195180  30.7769210  55.3519090  44.3267840  32.1674110
  51.1468850  49.1466640  19.6930840  50.9869990  48.8569580  20.5912670
  50.9815560  48.3706770  19.1576070  43.6257230  48.9265170  21.4702460
  43.4499710  48.0100710  21.2570260  42.7712970  49.2852460  21.7100260
  50.8494980  46.6554200  18.2528840  50.1560140  46.6531490  17.5931120
  51.5917840  46.2313520  17.8223010  50.4144910  48.2816910  22.3277330
  50.8701860  47.5006290  22.6415950  50.7537430  48.9923730  22.8718510
  55.1621720  37.2115760  32.6601770  54.5465990  37.7195430  32.1317230
  54.8418140  36.3114090  32.6027710  52.2240550  37.2716600  31.2560620
  51.3734140  36.9722350  31.5769690  52.0642340  37.5158610  30.3444440
  46.0525050  32.8049830  19.4034470  45.4279230  32.8009700  20.1287780
  45.9655170  31.9380790  19.0070440  42.7280450  38.3072700  22.2509890
  42.5021370  38.0909870  23.1556510  41.9472980  38.7401160  21.9055860
  49.9578210  38.3136070  20.8500540  49.3587100  39.0371870  20.6664160
  50.5057820  38.2512850  20.0676990  48.5643080  36.9499610  22.8803820
  48.9572650  37.2671810  22.0672510  48.9259930  36.0711490  22.9948340
  37.7877480  37.4820530  16.3136740  37.7052150  38.4251290  16.4551730
  37.4360540  37.3395440  15.4349090  45.6495760  37.2171640  18.3713850
  45.7708580  37.1758120  19.3199670  45.2644270  38.0795790  18.2160580
  44.6617260  39.5272780  17.7697150  44.0934160  39.0791030  17.1433060
  45.3706260  39.8865560  17.2362300  53.0394880  32.4071220  32.2263920
  53.3640650  31.6760880  32.7521900  53.0751390  32.0884860  31.3244910
  42.2064740  43.5230970  20.0423560  41.4327000  42.9828590  19.8822280
  42.9359370  43.0037580  19.7041320  52.9652720  42.5196330  25.8349950
  53.6851840  43.0151620  25.4446060  52.7634540  41.8414220  25.1903820
  48.4262660  33.9134290  19.9779340  47.6127270  33.4147460  19.9024650
  48.2324610  34.7532540  19.5615690  51.1411050  38.2853940  18.2741500
  52.0290670  38.5971170  18.0992840  51.1116140  37.4126190  17.8822080
  47.1371640  44.4577630  18.9529670  47.4787340  45.2019860  18.4572990
  46.3084350  44.7708750  19.3154500  53.4125320  39.5965780  17.7421360
  53.3289040  40.0280000  16.8917800  54.1319510  40.0564130  18.1748180
  54.4899460  42.0533300  30.8191330  53.7647650  42.6462080  30.6220720
  55.0174920  42.0456840  30.0204700  54.4412570  46.4508040  20.4703490
  53.7988730  45.7963660  20.7447210  54.0543230  46.8563130  19.6944160
  50.0199050  43.7793470  24.3175180  50.3722870  43.1821600  23.6576550
  49.1361380  43.4537700  24.4883430  46.1062330  44.5391160  21.7245590
  46.7933460  45.0860370  22.1053180  45.3194750  45.0831890  21.7595200
  38.2454730  40.1563980  17.2162670  39.1149580  40.4388780  17.4998590
  37.7545050  40.9699850  17.1011480  45.4089540  41.5437190  21.3370950
  45.8652320  42.3542440  21.5631140  45.0577750  41.2260330  22.1689440
  41.3101320  31.8874840  21.8093470  41.1815950  31.8792740  22.7578390
  40.4863340  32.2257930  21.4584480  52.8309950  45.3424500  17.0079840
  52.6047530  44.6254940  17.6004480  52.4406150  45.0936940  16.1701590
  38.6125980  49.3691360  17.7824300  38.9723620  49.9680700  17.1281570
  38.4718320  49.9151250  18.5559330  52.4126200  43.2596440  18.6694000
  52.1247900  43.7209130  19.4571880  53.2078370  42.7994210  18.9378220
  44.6294600  46.7522560  18.5997970  44.6204700  47.4852250  17.9842480
  43.7092960  46.5054140  18.6924930  40.2301240  41.9737450  19.3444730
  39.6229190  42.7136350  19.3540030  40.7050590  42.0636810  18.5182930
  49.8034030  36.1388270  29.0201620  50.1714850  35.3183480  29.3481190
  48.9432230  36.1990160  29.4357270  53.1696060  35.0945210  19.8289180
  52.5409220  35.1990880  19.1147410  52.6747980  35.3141990  20.6183060
  47.6154200  46.8150800  17.2623160  47.7166180  46.6114790  16.3325140
  46.7155940  46.5609080  17.4670940  45.1380090  37.3731160  21.2447060
  44.4296240  37.8417500  21.6860670  45.4224570  36.7153170  21.8792250
  49.1695520  34.0981820  22.6842850  49.0463300  34.1167950  21.7352360
  50.1180080  34.1460760  22.8041250  46.2572310  49.3337120  21.9570830
  46.5113810  49.2958510  21.0350200  45.3084790  49.2070450  21.9499080
  43.3415110  35.6816240  18.6197770  44.1905640  36.1186390  18.5537960
  42.9746380  35.9936500  19.4469830  53.9702880  35.0095820  30.0867980
  53.4676480  35.7501220  30.4261790  54.7859540  35.3979820  29.7704770
  52.2624890  40.2529000  23.5329340  51.3215030  40.2679230  23.7077030
  52.5768960  39.4664960  23.9789640  42.2406530  41.9348600  17.0933300
  43.0069800  41.8229960  17.6558730  42.3181220  41.2386570  16.4410070
  40.9353290  39.3673670  17.7766190  41.0156880  38.4201180  17.8883590
  41.8273040  39.6980550  17.8826850  54.2650470  47.4237850  25.2083600
  54.3897890  48.2469020  25.6807410  55.1316030  47.2128580  24.8607750
  38.6213480  45.5842630  20.7542240  37.6953260  45.8263770  20.7447650
  39.0869910  46.4116890  20.6326990  44.8470310  48.6899370  16.7026300
  45.6398920  48.9788200  16.2508090  44.3274660  48.2591540  16.0238780
  53.9000480  47.9169500  18.1263040  53.6141990  47.5034640  17.3117220
  53.7020030  48.8457210  18.0063560  45.3647710  43.9102780  16.5668650
  45.2598350  43.2955130  17.2930030  45.1971930  43.3868670  15.7831660
  48.6050440  42.9722810  17.1710640  48.0560540  43.4192110  17.8153380
  49.2269700  42.4672060  17.6948310  52.6585380  44.3264910  33.1032900
  53.3994850  44.6640670  32.6000360  51.8958060  44.4956970  32.5502670
  44.2725560  41.9313730  19.0675940  44.6941980  41.7653600  19.9107330
  44.3976400  41.1213960  18.5731080  46.7853200  40.9551340  16.3153040
  47.3058860  40.2400360  15.9494190  47.4321600  41.5937210  16.6153550
  51.3331040  42.3779740  31.6388110  51.7472060  42.5324820  32.4878530
  50.3982040  42.5034960  31.8013890  51.8053210  39.7175900  33.6427260
  52.3873980  38.9628220  33.5547740  51.9814980  40.2483340  32.8658740
  50.7698070  40.6153590  29.5684390  50.2433290  41.1396210  28.9649530
  51.1129410  41.2480980  30.1994120  43.1684460  38.0046960  16.0134100
  42.9673520  37.1414320  16.3747440  42.9976510  37.9180320  15.0755700
  50.0172370  36.2203560  32.4830720  49.3287890  35.5585100  32.4180710
  50.7378390  35.7741830  32.9279180  50.6472770  32.8155190  18.5420980
  50.9275060  31.9723090  18.8980400  49.8738500  33.0478300  19.0559730
  41.9667260  35.1047580  16.0011980  42.2693160  35.1115010  15.0931130
  42.7061850  34.7545440  16.4979640  45.1852190  34.0482200  16.9868180
  44.8374190  33.3706190  16.4070630  45.3864960  33.5871710  17.8011570
  47.3501230  49.0362950  18.6054780  48.2452020  49.3747920  18.6273540
  47.3818860  48.3142360  17.9779060  40.9897390  44.4090000  16.8341780
  41.4272260  44.9519670  17.4899360  41.4745120  43.5836950  16.8438120
  42.8005110  45.5288040  21.9464010  42.5000650  45.4053010  22.8467920
  42.6942600  44.6696630  21.5379740  54.3295580  47.5666620  31.3120980
  53.7297570  47.6259180  30.5684900  54.4589480  46.6271600  31.4417830
  55.5697030  45.3084440  16.6490690  54.7389990  45.3761090  17.1197920
  55.7468860  46.1988560  16.3457550  55.0253490  42.0531920  19.1524890
  55.7872400  42.6228570  19.2584580  55.0407860  41.4859120  19.9233200
  56.0313460  42.9082020  23.9966820  56.4022290  42.1249340  23.5902790
  56.6715390  43.5971120  23.8184120  53.0147220  44.2918600  29.4097140
  52.2007060  44.7215760  29.6722930  53.4221420  44.9037010  28.7966190
  55.0772660  42.3466290  16.3097410  55.3521500  43.2545170  16.1816630
  54.8883400  42.2828820  17.2459400  51.4748270  35.3711140  17.6051040
  51.8933150  35.1842120  16.7647700  51.1684330  34.5190190  17.9153970
  54.9738000  40.2835280  21.3026840  54.5981600  39.5163210  20.8708130
  54.2441120  40.6657980  21.7901770  54.3637620  39.4306800  30.9366360
  54.1323710  39.2019550  30.0364310  54.6242170  40.3506350  30.8911250
  52.8025690  34.6563230  33.7146060  53.6795870  34.6646630  34.0980060
  52.8146530  33.9194070  33.1038410  37.7395910  37.7868780  19.3257880
  36.8359990  38.0498980  19.1509540  38.2236530  38.0579950  18.5457840
  54.2488960  38.5092770  24.6034080  54.7726440  38.0155420  23.9724250
  54.8348380  38.6443130  25.3481650  54.4278680  38.5932640  28.1253630
  53.4781390  38.5596180  28.2398620  54.6091690  39.5032750  27.8903400
  40.2823120  36.8434320  17.2352260  40.9914820  36.4217540  16.7499540
  39.5663060  36.9109550  16.6035610  39.9297280  32.8973650  16.2754910
  40.6525410  33.4382590  16.5936130  40.2021800  32.6237070  15.3996450
  53.7388930  37.7666120  20.5426490  54.2348050  37.5336990  21.3275370
  53.5405000  36.9277960  20.1264130  55.1676090  36.4027070  23.0764170
  55.0575370  36.2483110  24.0146440  55.9283680  35.8748010  22.8339580
  53.5141810  32.3421200  29.5347170  54.1514030  32.9555340  29.9006360
  53.6616700  32.3781860  28.5896400  56.0566360  34.2334990  16.3170310
  56.9815670  34.1016170  16.1088600  56.0342150  34.3127810  17.2706760
  56.1304850  35.0045650  18.9427020  55.3356350  34.9390770  19.4719930
  56.3348130  35.9396290  18.9312370  53.0723270  49.0437200  22.9365410
  53.6682340  48.7221770  22.2599830  53.3301420  48.5709020  23.7278680
  55.9396030  49.0509080  29.4876400  55.4454310  49.4477950  28.7703530
  55.3309320  48.4258290  29.8813680  51.1700870  33.9220460  29.7925570
  50.8414230  33.1072220  29.4127300  52.1183170  33.8790270  29.6691260
  53.6235480  49.6932500  26.7663140  53.1638450  50.4448310  26.3921160
  52.9947940  48.9738970  26.7077940  52.5624780  33.3342530  25.3925850
  53.0032870  33.2787630  24.5447450  52.2932370  34.2500540  25.4636030
  54.4263350  32.9657770  23.4034670  54.3651750  32.0218990  23.2565690
  55.2055380  33.0737860  23.9488130  38.7316100  49.1050130  22.3658620
  38.5638140  48.4720810  23.0640510  37.8650610  49.3109530  22.0152810
  39.3544120  32.9366910  19.8690480  40.1123480  33.0495790  19.2954510
  38.8921290  33.7736110  19.8233910  45.8957930  35.0506180  22.8592790
  45.0832440  34.6763070  22.5188670  46.3999570  34.2951260  23.1613980
  50.3982910  31.7148630  24.0975860  51.0012280  32.2868840  24.5724380
  49.6575900  32.2788070  23.8749760  53.5417510  32.1170190  19.3716140
  53.7368140  33.0153640  19.6383570  52.7547380  31.8857270  19.8649090
  40.3378800  47.7983360  19.8108760  39.8126420  48.1791390  19.1070720
  40.2623380  48.4234130  20.5318470  41.7269270  33.4630960  18.4092450
  42.2562030  32.6760760  18.2800400  42.3597590  34.1422150  18.6427980
  43.9207110  33.2006100  21.4637840  43.2909850  32.4993410  21.6307970
  43.3812250  33.9610230  21.2471000  55.0944120  49.3570900  21.1322700
  55.2696310  48.6708640  20.4883620  54.3965690  49.8817950  20.7399370
  42.9371770  49.7465740  18.6858010  43.6690590  49.4625020  18.1381900
  43.1965440  49.5079020  19.5757390  42.0986560  45.8630470  18.6904340
  41.4695440  46.3315570  19.2390170  42.2134390  45.0179690  19.1250530
  53.4276620  49.0415190  33.9589490  54.2201940  48.5464420  33.7515450
  53.7209770  49.7205330  34.5665100  49.5536280  39.9136130   4.8405540
  49.4730330  38.9990740   4.5697250  49.1400700  40.4103200   4.1345250
  47.6854320  41.6915150   6.7214810  46.9096420  41.2115590   7.0113380
  48.3367250  41.0120800   6.5470970  41.7020150  42.0034960   7.5990570
  40.8705030  41.7483670   7.9987080  42.3101130  42.0745730   8.3348490
  51.7061750  46.0975340   5.5013940  51.2443280  45.3262580   5.8301110
  52.5187300  46.1241410   6.0066390  41.6821410  46.0375050   7.7948590
  41.9849450  45.1472790   7.6158810  42.4265000  46.5945270   7.5670840
  38.0745110  39.5642500   7.2672660  38.6461220  38.7964700   7.2676300
  38.0746650  39.8631260   6.3579270  47.9325060  48.3833350   5.1217930
  47.3136500  48.8390850   4.5512370  48.7876840  48.5384810   4.7207630
  47.1263310  44.3672340   6.7284970  47.0571590  43.4262280   6.5674100
  47.8883170  44.4573750   7.3007540  39.3169980  34.9726860   9.0541590
  39.1372820  34.0752610   9.3344350  38.9150060  35.5198730   9.7288540
  48.1568480  37.1742720   6.9553900  48.5333300  36.3014600   6.8427570
  48.0587990  37.5101420   6.0644340  42.2873490  35.5468350   2.4171340
  42.3940240  36.4472080   2.7240100  41.3765850  35.4986320   2.1265990
  51.9392600  34.6693160   3.8882240  52.7602220  34.1789730   3.9307720
  51.9726680  35.2590820   4.6414080  39.9356650  37.4687360   7.6623930
  40.6166760  37.7325730   8.2811330  39.6204700  36.6288230   7.9961940
  44.1281220  38.5154720   6.7496520  44.6359440  39.0135690   7.3901540
  44.6594460  37.7389920   6.5735880  56.2292150  36.6859910  10.4525870
  55.5244320  37.0741620   9.9340980  56.4950070  37.3810200  11.0546800
  42.4117320  33.1553280  11.0159940  42.4135760  33.6725670  10.2105840
  41.5821630  32.6783460  10.9929870  48.7988410  43.2672590   2.5149840
  48.1805680  43.7322040   1.9512560  49.3111660  43.9600070   2.9319350
  43.6620170  42.7948460   9.1933440  43.3289550  43.4217380   9.8354510
  43.8386850  43.3210340   8.4135110  52.1754080  36.6093540   6.6609780
  51.4709650  36.8978430   7.2412890  52.5366240  37.4193650   6.3009340
  42.0932650  34.8663240   9.0230390  42.4349460  35.7105290   8.7284260
  41.1548460  35.0146980   9.1395730  42.8739270  44.7629260  11.0082620
  43.4913270  45.4380340  10.7267070  42.0132390  45.1717240  10.9170120
  53.7916860  46.2268670   8.9237260  53.1080380  46.8967780   8.9153930
  54.3311150  46.4249320   8.1582120  55.2441000  36.0548330   7.0518990
  54.2965910  36.0887310   7.1834420  55.5690990  36.8687280   7.4368350
  45.7760540  32.3545510   5.3474980  46.0835520  31.7992400   4.6310480
  44.8461240  32.4889970   5.1647970  51.3275600  48.0712800   7.6382440
  51.3402760  47.6675090   6.7704700  50.7750820  48.8460090   7.5343870
  52.6221020  44.7929020   2.7272610  52.5117350  43.8503350   2.8522030
  52.6189270  45.1544660   3.6135370  50.7261040  42.9742640   8.9665050
  51.1429830  42.7602750   8.1318510  51.4500860  43.2315430   9.5373670
  48.1641300  40.4194340   2.0835100  47.2370580  40.3531720   2.3123570
  48.3166120  41.3574470   1.9690340  54.6723140  41.3729860   9.0581290
  53.8441770  41.4422950   8.5831420  55.2673620  41.9584170   8.5897120
  52.1938590  41.9814640   2.5870350  51.5751010  41.6434190   1.9396650
  52.1763040  41.3374400   3.2949540  51.6365150  38.1599180  10.0036160
  51.2236330  38.9852890  10.2576150  50.9041100  37.5744220   9.8112520
  43.7697940  40.9459080   4.8654830  43.3654940  40.2336330   4.3700730
  43.8561060  40.6012320   5.7542870  44.2379640  44.6326640   7.0294040
  43.9407930  44.0272110   6.3501820  45.1879460  44.6703950   6.9183400
  42.4826560  37.7202290   8.6453870  43.0341150  37.8297630   7.8707120
  42.9970070  38.0939890   9.3609100  52.3265250  48.2058510  10.6917140
  51.8495810  49.0130700  10.4989750  51.6427040  47.5536840  10.8443350
  43.3298070  44.3708330  13.6801840  42.4326600  44.5948300  13.9275240
  43.3550940  44.4943270  12.7313240  42.1569290  41.2421650  12.2559210
  42.0177060  42.1144450  12.6246610  41.2750650  40.8994460  12.1107150
  48.4798670  46.1597520   3.5624340  48.9194580  46.9021850   3.1479730
  48.4185560  46.4024090   4.4863300  43.9549640  47.1843350  14.4644360
  43.9265070  47.5886300  13.5972790  43.7914610  46.2553710  14.3015960
  40.4702570  39.8404060   2.3661480  40.3500170  40.5666150   1.7542750
  40.1603460  39.0706970   1.8889390  55.9064460  47.9670450  15.7608530
  56.3824180  48.4453340  16.4397610  56.5271620  47.8987940  15.0354030
  38.1087940  43.0119200   8.1730120  38.1868360  43.1467970   7.2285840
  38.7229620  42.3035090   8.3658240  39.3535570  44.7119390   4.5836300
  38.9463650  44.8533980   3.7289900  40.2448580  44.4279550   4.3807510
  55.3097710  45.1583300  12.9208540  55.4360770  44.9195180  12.0025720
  55.3519090  44.3267840  13.3930620  49.1714450  48.8611300  11.4903350
  49.6859120  48.7719310  12.2925780  48.3283530  49.2071000  11.7831260
  43.6257230  48.9265170   2.6958970  43.4499710  48.0100710   2.4826770
  42.7712970  49.2852460   2.9356770  50.4144910  48.2816910   3.5533840
  50.8701860  47.5006290   3.8672460  50.7537430  48.9923730   4.0975020
  55.1621720  37.2115760  13.8858280  54.5465990  37.7195430  13.3573740
  54.8418140  36.3114090  13.8284220  38.1647460  44.0533370  10.7124580
  38.3278500  43.5838730   9.8943950  38.6299910  43.5456930  11.3773420
  42.9366230  33.1839130   5.7485150  42.4934380  33.9648670   5.4169670
  43.4951220  33.5069020   6.4556090  47.2236040  36.0507650  11.3520470
  46.7615410  36.2590670  12.1640410  46.8214150  35.2367000  11.0491140
  52.2240550  37.2716600  12.4817130  51.3734140  36.9722350  12.8026200
  52.0642340  37.5158610  11.5700950  49.3190260  38.7718350  14.5815920
  49.6443670  37.9382100  14.2418150  50.1070590  39.2946870  14.7294250
  44.9742130  33.7286460   7.6074750  45.2714460  34.6349290   7.5266770
  45.5227690  33.2405240   6.9934320  42.7280450  38.3072700   3.4766400
  42.5021370  38.0909870   4.3813020  41.9472980  38.7401160   3.1312370
  49.9578210  38.3136070   2.0757050  49.3587100  39.0371870   1.8920670
  50.5057820  38.2512850   1.2933500  45.1679660  39.2058280  14.1426670
  45.0723260  38.2653010  13.9927070  46.0111640  39.4273350  13.7474740
  48.5643080  36.9499610   4.1060330  48.9572650  37.2671810   3.2929020
  48.9259930  36.0711490   4.2204850  40.2990200  35.6171950  12.2960450
  39.9053590  36.4647160  12.5033230  39.6108600  34.9798320  12.4869090
  46.8735250  35.7006920  15.3657190  46.1833570  35.5079120  16.0003280
  47.6167550  35.9841560  15.8981490  37.6007250  33.5400410   6.3290530
  37.3120300  34.1103270   7.0415510  38.3453010  33.0604860   6.6921760
  49.1498220  39.5405360   8.2011110  48.4179340  40.0492170   8.5501210
  48.7522560  38.7235340   7.8999890  45.5875610  36.2159560   6.6063600
  45.5911670  35.7749510   5.7568140  46.4826730  36.5376890   6.7135420
  41.4377990  36.0986050   5.5657810  41.0978040  36.5761280   6.3224860
  40.6755310  35.6451170   5.2058910  49.6124130  34.9939040   7.6134050
  49.6296870  35.4447690   8.4575900  49.3639710  34.0944680   7.8267490
  53.0394880  32.4071220  13.4520430  53.3640650  31.6760880  13.9778410
  53.0751390  32.0884860  12.5501420  39.7386440  43.4284800  12.8720390
  39.3541230  42.7878470  13.4703350  40.0498630  44.1320920  13.4415120
  45.8883580  40.2761340   8.3529010  46.2553710  39.8019910   9.0990350
  45.6988640  41.1502910   8.6937350  38.7524070  35.0205030   4.4822480
  38.4670990  34.6560700   5.3201100  38.6902930  34.2885490   3.8685620
  43.6782950  39.3169980  10.6713220  43.3740020  40.1961960  10.8963580
  44.6329410  39.3769770  10.7070660  52.9652720  42.5196330   7.0606460
  53.6851840  43.0151620   6.6702570  52.7634540  41.8414220   6.4160330
  48.3471520  42.5905390  12.9475460  48.2808830  41.6701060  12.6933050
  47.7176660  42.6880830  13.6620100  42.2502140  43.1911350   4.9058880
  42.7680810  42.3879610   4.8515770  41.7986160  43.1290490   5.7475710
  39.7346680  40.1572720  11.8184580  39.3761620  40.8226570  12.4057920
  39.4401240  39.3256270  12.1897200  42.9359800  40.6156960  14.7024130
  42.6359940  40.7614140  13.8051950  43.7071040  40.0562250  14.6097520
  48.2788250  45.4125960  12.6979260  48.2932790  44.4806920  12.4798170
  47.5713350  45.4985720  13.3369030  54.4899460  42.0533300  12.0447840
  53.7647650  42.6462080  11.8477230  55.0174920  42.0456840  11.2461210
  50.0199050  43.7793470   5.5431690  50.3722870  43.1821600   4.8833060
  49.1361380  43.4537700   5.7139940  46.1062330  44.5391160   2.9502100
  46.7933460  45.0860370   3.3309690  45.3194750  45.0831890   2.9851710
  45.4089540  41.5437190   2.5627460  45.8652320  42.3542440   2.7887650
  45.0577750  41.2260330   3.3945950  47.7122150  47.0543530   9.7919760
  48.3564370  47.2602910  10.4693180  48.0751590  46.2931930   9.3390610
  41.3101320  31.8874840   3.0349980  41.1815950  31.8792740   3.9834900
  40.4863340  32.2257930   2.6840990  48.9854230  45.0575880   8.5097210
  49.6276460  44.3569040   8.6229380  49.5103580  45.8374320   8.3294100
  50.7591850  45.8570780  11.7133270  51.0948090  46.4437470  12.3911190
  49.8392190  45.7263490  11.9431060  38.3095250  33.6465960  12.4956680
  37.5953770  33.8462880  13.1009290  38.7290290  32.8705530  12.8671480
  38.5967840  47.6346220  13.4823210  38.7058960  46.6940960  13.3418600
  37.9448400  47.9000970  12.8336940  46.5880430  45.9062110  14.8821330
  46.2677300  45.1871350  15.4267020  45.9138790  46.5817180  14.9557390
  49.8034030  36.1388270  10.2458130  50.1714850  35.3183480  10.5737700
  48.9432230  36.1990160  10.6613780  45.1380090  37.3731160   2.4703570
  44.4296240  37.8417500   2.9117180  45.4224570  36.7153170   3.1048760
  46.7636020  38.7927860  10.4696100  47.2621270  39.2673680  11.1347950
  46.9058970  37.8691380  10.6766130  49.1695520  34.0981820   3.9099360
  49.0463300  34.1167950   2.9608870  50.1180080  34.1460760   4.0297760
  46.2572310  49.3337120   3.1827340  46.5113810  49.2958510   2.2606710
  45.3084790  49.2070450   3.1755590  53.9702880  35.0095820  11.3124490
  53.4676480  35.7501220  11.6518300  54.7859540  35.3979820  10.9961280
  52.2624890  40.2529000   4.7585850  51.3215030  40.2679230   4.9333540
  52.5768960  39.4664960   5.2046150  54.2650470  47.4237850   6.4340110
  54.3897890  48.2469020   6.9063920  55.1316030  47.2128580   6.0864260
  41.7368000  49.5169060   6.1057240  42.4730480  48.9684520   6.3765810
  42.1208920  50.3825070   5.9663230  38.6213480  45.5842630   1.9798750
  37.6953260  45.8263770   1.9704160  39.0869910  46.4116890   1.8583500
  40.7426280  48.7015130  15.2942820  41.5439010  49.0227180  15.7078220
  40.2278100  48.3410710  16.0162730  49.5790910  44.8095000  15.2418230
  48.9729070  44.8326600  14.5013980  49.2745020  44.0778040  15.7785480
  51.0091280  48.5375290  13.8527640  51.9613030  48.4533310  13.8027880
  50.8619500  49.2017000  14.5261430  38.4624090  41.1888590  14.2378870
  38.9663110  40.6095870  14.8095100  37.7231510  41.4728820  14.7755240
  45.5162030  42.5959580  13.7714390  44.7507700  43.1644580  13.6869060
  45.6977990  42.3035790  12.8782620  52.6585380  44.3264910  14.3289410
  53.3994850  44.6640670  13.8256870  51.8958060  44.4956970  13.7759180
  40.4947170  39.3318180  15.1328940  40.5352510  39.0332050  16.0414170
  41.3492670  39.7325790  14.9736460  42.4352980  37.9110280  13.1003430
  41.9049440  37.4201230  12.4726770  43.1041050  38.3394480  12.5661360
  51.3331040  42.3779740  12.8644620  51.7472060  42.5324820  13.7135040
  50.3982040  42.5034960  13.0270400  51.8053210  39.7175900  14.8683770
  52.3873980  38.9628220  14.7804250  51.9814980  40.2483340  14.0915250
  42.9225280  34.8772650  13.1800720  42.8282150  34.2593400  12.4551590
  42.3422670  35.6038940  12.9530630  45.6886720  33.4345890  10.2128110
  45.2404020  33.4570150   9.3673660  45.0551920  33.0364910  10.8098410
  46.0946270  42.3300220  10.8340550  46.5134380  43.1732950  10.6616790
  45.1754900  42.4672260  10.6047330  48.4310170  40.0616400  12.2178390
  48.5506380  39.4657540  12.9573230  49.2904170  40.0986090  11.7979690
  50.7698070  40.6153590  10.7940900  50.2433290  41.1396210  10.1906040
  51.1129410  41.2480980  11.4250630  43.9453690  48.6353230  11.9498280
  43.4074780  49.3599290  11.6306980  44.1987650  48.1583570  11.1595620
  45.1978940  36.6037750  13.4754210  45.7878630  36.2953600  14.1632030
  44.3799180  36.1317500  13.6314110  50.0172370  36.2203560  13.7087230
  49.3287890  35.5585100  13.6437220  50.7378390  35.7741830  14.1535690
  46.8015900  49.8704440  12.2084930  46.7274600  50.7739580  12.5157300
  45.8994740  49.5516340  12.1807000  38.2043190  47.1979030   5.5118550
  38.5346200  46.3300090   5.2797190  38.6334190  47.4037550   6.3423510
  42.8005110  45.5288040   3.1720520  42.5000650  45.4053010   4.0724430
  42.6942600  44.6696630   2.7636250  38.6933400  48.0649620   8.2500180
  38.2564390  48.2450420   9.0824330  39.2611080  48.8224240   8.1081900
  54.3295580  47.5666620  12.5377490  53.7297570  47.6259180  11.7941410
  54.4589480  46.6271600  12.6674340  38.5257830  40.5769850   4.6089060
  37.8706670  40.3081490   3.9648760  39.3635780  40.4674330   4.1591040
  56.0313460  42.9082020   5.2223330  56.4022290  42.1249340   4.8159300
  56.6715390  43.5971120   5.0440630  53.0147220  44.2918600  10.6353650
  52.2007060  44.7215760  10.8979440  53.4221420  44.9037010  10.0222700
  54.9738000  40.2835280   2.5283350  54.5981600  39.5163210   2.0964640
  54.2441120  40.6657980   3.0158280  39.5633760  40.9622420   9.1492400
  39.9306800  40.8749820  10.0288420  38.9944580  40.1988970   9.0499260
  54.3637620  39.4306800  12.1622870  54.1323710  39.2019550  11.2620820
  54.6242170  40.3506350  12.1167760  39.1149760  37.8731510  13.0550820
  38.2205810  37.8398270  13.3944530  39.6547310  38.0718300  13.8202070
  52.8025690  34.6563230  14.9402570  53.6795870  34.6646630  15.3236570
  52.8146530  33.9194070  14.3294920  54.2488960  38.5092770   5.8290590
  54.7726440  38.0155420   5.1980760  54.8348380  38.6443130   6.5738160
  54.4278680  38.5932640   9.3510140  53.4781390  38.5596180   9.4655130
  54.6091690  39.5032750   9.1159910  53.7388930  37.7666120   1.7683000
  54.2348050  37.5336990   2.5531880  53.5405000  36.9277960   1.3520640
  39.6189470  32.1479840   7.4034040  40.2665660  31.5977220   6.9629200
  40.0391310  32.4022990   8.2249850  55.1676090  36.4027070   4.3020680
  55.0575370  36.2483110   5.2402950  55.9283680  35.8748010   4.0596090
  53.5141810  32.3421200  10.7603680  54.1514030  32.9555340  11.1262870
  53.6616700  32.3781860   9.8152910  53.0723270  49.0437200   4.1621920
  53.6682340  48.7221770   3.4856340  53.3301420  48.5709020   4.9535190
  39.3721470  32.3035510  10.1459360  39.0236290  32.7599330  10.9117540
  39.0409170  31.4092640  10.2281790  40.9785840  45.4755110  14.3112550
  40.9355470  45.1048020  15.1927010  41.1096850  46.4132680  14.4514370
  44.6791870  47.0314700   9.9122270  44.4383230  47.2989260   9.0252790
  45.6194510  47.2020430   9.9673130  46.8846290  33.4947390  13.6678780
  46.8235180  34.0869220  14.4174190  47.8246670  33.3873350  13.5229040
  49.5220850  33.1517450  13.3071070  50.1361260  33.4696740  12.6452150
  50.0670410  32.6666040  13.9266930  55.9396030  49.0509080  10.7132910
  55.4454310  49.4477950   9.9960040  55.3309320  48.4258290  11.1070190
  40.0442110  31.8311710  13.4210130  40.5925100  31.6499760  12.6576240
  40.1097420  31.0405820  13.9566440  40.8173870  48.4217360  11.4310330
  40.2234190  48.2902060  12.1700370  40.8097710  47.5855500  10.9652430
  50.2628890  31.7149590   9.6340360  49.3888730  32.0484700   9.4313290
  50.1539640  31.2422770  10.4592230  51.1700870  33.9220460  11.0182080
  50.8414230  33.1072220  10.6383810  52.1183170  33.8790270  10.8947770
  53.6235480  49.6932500   7.9919650  53.1638450  50.4448310   7.6177670
  52.9947940  48.9738970   7.9334450  40.4486100  45.7875740  10.3818370
  39.7220160  45.1681030  10.3144320  40.5095250  46.1816350   9.5116450
  44.0531200  48.0020740   7.1667780  44.5696220  47.3908100   6.6416040
  44.7028580  48.5049520   7.6578790  46.7926700  48.8929230   7.9936760
  47.0804510  48.6383530   7.1169770  47.3049920  48.3406590   8.5842330
  48.0103710  32.6319430   8.5733270  47.2275500  33.1064930   8.8530030
  47.7166640  31.7274260   8.4646450  52.5624780  33.3342530   6.6182360
  53.0032870  33.2787630   5.7703960  52.2932370  34.2500540   6.6892540
  54.4263350  32.9657770   4.6291180  54.3651750  32.0218990   4.4822200
  55.2055380  33.0737860   5.1744640  38.7316100  49.1050130   3.5915130
  38.5638140  48.4720810   4.2897020  37.8650610  49.3109530   3.2409320
  45.8957930  35.0506180   4.0849300  45.0832440  34.6763070   3.7445180
  46.3999570  34.2951260   4.3870490  50.3982910  31.7148630   5.3232370
  51.0012280  32.2868840   5.7980890  49.6575900  32.2788070   5.1006270
  43.9207110  33.2006100   2.6894350  43.2909850  32.4993410   2.8564480
  43.3812250  33.9610230   2.4727510  46.8599060  49.8145330  15.3604960
  47.7866370  49.5789600  15.4040920  46.8449490  50.6417330  14.8790990
  55.0944120  49.3570900   2.3579210  55.2696310  48.6708640   1.7140130
  54.3965690  49.8817950   1.9655880  44.0462670  32.4790080  15.1246840
  43.7646940  32.9823680  14.3607660  44.4282370  31.6811830  14.7588970
  50.6478130  31.8943660  15.7027310  50.5343580  32.2138270  16.5978830
  51.4647870  32.2956170  15.4064590  53.4276620  49.0415190  15.1846000
  54.2201940  48.5464420  14.9771960  53.7209770  49.7205330  15.7921610
  49.5536280  21.1392640  79.9379500  49.4730330  20.2247250  79.6671210
  49.1400700  21.6359710  79.2319210  47.6854320  22.9171660  81.8188770
  46.9096420  22.4372100  82.1087340  48.3367250  22.2377310  81.6444930
  41.7020150  23.2291470  82.6964530  40.8705030  22.9740180  83.0961040
  42.3101130  23.3002240  83.4322450  51.7061750  27.3231850  80.5987900
  51.2443280  26.5519090  80.9275070  52.5187300  27.3497920  81.1040350
  41.6821410  27.2631560  82.8922550  41.9849450  26.3729300  82.7132770
  42.4265000  27.8201780  82.6644800  40.1112100  18.1893360  76.4806920
  39.2228800  18.5309330  76.3786800  40.3953290  17.9893680  75.5887750
  38.0745110  20.7899010  82.3646620  38.6461220  20.0221210  82.3650260
  38.0746650  21.0887770  81.4553230  47.9325060  29.6089860  80.2191890
  47.3136500  30.0647360  79.6486330  48.7876840  29.7641320  79.8181590
  47.1263310  25.5928850  81.8258930  47.0571590  24.6518790  81.6648060
  47.8883170  25.6830260  82.3981500  39.3169980  16.1983370  84.1515550
  39.1372820  15.3009120  84.4318310  38.9150060  16.7455240  84.8262500
  48.1568480  18.3999230  82.0527860  48.5333300  17.5271110  81.9401530
  48.0587990  18.7357930  81.1618300  42.2873490  16.7724860  77.5145300
  42.3940240  17.6728590  77.8214060  41.3765850  16.7242830  77.2239950
  51.9392600  15.8949670  78.9856200  52.7602220  15.4046240  79.0281680
  51.9726680  16.4847330  79.7388040  39.9356650  18.6943870  82.7597890
  40.6166760  18.9582240  83.3785290  39.6204700  17.8544740  83.0935900
  44.1281220  19.7411230  81.8470480  44.6359440  20.2392200  82.4875500
  44.6594460  18.9646430  81.6709840  56.2292150  17.9116420  85.5499830
  55.5244320  18.2998130  85.0314940  56.4950070  18.6066710  86.1520760
  42.4117320  14.3809790  86.1133900  42.4135760  14.8982180  85.3079800
  41.5821630  13.9039970  86.0903830  48.7988410  24.4929100  77.6123800
  48.1805680  24.9578550  77.0486520  49.3111660  25.1856580  78.0293310
  43.6620170  24.0204970  84.2907400  43.3289550  24.6473890  84.9328470
  43.8386850  24.5466850  83.5109070  52.1754080  17.8350050  81.7583740
  51.4709650  18.1234940  82.3386850  52.5366240  18.6450160  81.3983300
  42.0932650  16.0919750  84.1204350  42.4349460  16.9361800  83.8258220
  41.1548460  16.2403490  84.2369690  42.8739270  25.9885770  86.1056580
  43.4913270  26.6636850  85.8241030  42.0132390  26.3973750  86.0144080
  38.1671610  25.1785630  74.9863430  37.7899590  25.6672730  74.2548330
  38.4244680  25.8510910  75.6169960  53.7916860  27.4525180  84.0211220
  53.1080380  28.1224290  84.0127890  54.3311150  27.6505830  83.2556080
  55.2441000  17.2804840  82.1492950  54.2965910  17.3143820  82.2808380
  55.5690990  18.0943790  82.5342310  45.7760540  13.5802020  80.4448940
  46.0835520  13.0248910  79.7284440  44.8461240  13.7146480  80.2621930
  51.3275600  29.2969310  82.7356400  51.3402760  28.8931600  81.8678660
  50.7750820  30.0716600  82.6317830  52.6221020  26.0185530  77.8246570
  52.5117350  25.0759860  77.9495990  52.6189270  26.3801170  78.7109330
  50.7261040  24.1999150  84.0639010  51.1429830  23.9859260  83.2292470
  51.4500860  24.4571940  84.6347630  48.1641300  21.6450850  77.1809060
  47.2370580  21.5788230  77.4097530  48.3166120  22.5830980  77.0664300
  48.1510380  17.9167850  74.1776220  47.2114050  18.0781810  74.2628680
  48.4693640  18.6353530  73.6312210  54.6723140  22.5986370  84.1555250
  53.8441770  22.6679460  83.6805380  55.2673620  23.1840680  83.6871080
  52.1938590  23.2071150  77.6844310  51.5751010  22.8690700  77.0370610
  52.1763040  22.5630910  78.3923500  51.6365150  19.3855690  85.1010120
  51.2236330  20.2109400  85.3550110  50.9041100  18.8000730  84.9086480
  43.7697940  22.1715590  79.9628790  43.3654940  21.4592840  79.4674690
  43.8561060  21.8268830  80.8516830  44.2379640  25.8583150  82.1268000
  43.9407930  25.2528620  81.4475780  45.1879460  25.8960460  82.0157360
  42.4826560  18.9458800  83.7427830  43.0341150  19.0554140  82.9681080
  42.9970070  19.3196400  84.4583060  52.3265250  29.4315020  85.7891100
  51.8495810  30.2387210  85.5963710  51.6427040  28.7793350  85.9417310
  50.3703290  22.4457960  74.6917060  50.8096570  21.6080390  74.5454880
  51.0831710  23.0787360  74.7781200  48.4798670  27.3854030  78.6598300
  48.9194580  28.1278360  78.2453690  48.4185560  27.6280600  79.5837260
  53.9520430  13.7000770  73.0058100  53.6393090  13.7927600  73.9057170
  54.7132900  14.2781800  72.9555530  40.4702570  21.0660570  77.4635440
  40.3500170  21.7922660  76.8516710  40.1603460  20.2963480  76.9863350
  38.1087940  24.2375710  83.2704080  38.1868360  24.3724480  82.3259800
  38.7229620  23.5291600  83.4632200  39.3535570  25.9375900  79.6810260
  38.9463650  26.0790490  78.8263860  40.2448580  25.6536060  79.4781470
  51.1468850  30.3723150  76.0161310  50.9869990  30.0826090  76.9143140
  50.9815560  29.5963280  75.4806540  43.6257230  30.1521680  77.7932930
  43.4499710  29.2357220  77.5800730  42.7712970  30.5108970  78.0330730
  50.8494980  27.8810710  74.5759310  50.1560140  27.8788000  73.9161590
  51.5917840  27.4570030  74.1453480  50.4144910  29.5073420  78.6507800
  50.8701860  28.7262800  78.9646420  50.7537430  30.2180240  79.1948980
  38.1647460  25.2789880  85.8098540  38.3278500  24.8095240  84.9917910
  38.6299910  24.7713440  86.4747380  42.9366230  14.4095640  80.8459110
  42.4934380  15.1905180  80.5143630  43.4951220  14.7325530  81.5530050
  46.0525050  14.0306340  75.7264940  45.4279230  14.0266210  76.4518250
  45.9655170  13.1637300  75.3300910  44.9742130  14.9542970  82.7048710
  45.2714460  15.8605800  82.6240730  45.5227690  14.4661750  82.0908280
  42.7280450  19.5329210  78.5740360  42.5021370  19.3166380  79.4786980
  41.9472980  19.9657670  78.2286330  49.9578210  19.5392580  77.1731010
  49.3587100  20.2628380  76.9894630  50.5057820  19.4769360  76.3907460
  48.5643080  18.1756120  79.2034290  48.9572650  18.4928320  78.3902980
  48.9259930  17.2968000  79.3178810  37.6007250  14.7656920  81.4264490
  37.3120300  15.3359780  82.1389470  38.3453010  14.2861370  81.7895720
  37.7877480  18.7077040  72.6367210  37.7052150  19.6507800  72.7782200
  37.4360540  18.5651950  71.7579560  49.1498220  20.7661870  83.2985070
  48.4179340  21.2748680  83.6475170  48.7522560  19.9491850  82.9973850
  45.5875610  17.4416070  81.7037560  45.5911670  17.0006020  80.8542100
  46.4826730  17.7633400  81.8109380  41.4377990  17.3242560  80.6631770
  41.0978040  17.8017790  81.4198820  40.6755310  16.8707680  80.3032870
  45.6495760  18.4428150  74.6944320  45.7708580  18.4014630  75.6430140
  45.2644270  19.3052300  74.5391050  49.6124130  16.2195550  82.7108010
  49.6296870  16.6704200  83.5549860  49.3639710  15.3201190  82.9241450
  44.6617260  20.7529290  74.0927620  44.0934160  20.3047540  73.4663530
  45.3706260  21.1122070  73.5592770  45.8883580  21.5017850  83.4502970
  46.2553710  21.0276420  84.1964310  45.6988640  22.3759420  83.7911310
  38.7524070  16.2461540  79.5796440  38.4670990  15.8817210  80.4175060
  38.6902930  15.5142000  78.9659580  43.6782950  20.5426490  85.7687180
  43.3740020  21.4218470  85.9937540  44.6329410  20.6026280  85.8044620
  42.2064740  24.7487480  76.3654030  41.4327000  24.2085100  76.2052750
  42.9359370  24.2294090  76.0271790  52.9652720  23.7452840  82.1580420
  53.6851840  24.2408130  81.7676530  52.7634540  23.0670730  81.5134290
  48.4262660  15.1390800  76.3009810  47.6127270  14.6403970  76.2255120
  48.2324610  15.9789050  75.8846160  51.1411050  19.5110450  74.5971970
  52.0290670  19.8227680  74.4223310  51.1116140  18.6382700  74.2052550
  42.2502140  24.4167860  80.0032840  42.7680810  23.6136120  79.9489730
  41.7986160  24.3547000  80.8449670  47.1371640  25.6834140  75.2760140
  47.4787340  26.4276370  74.7803460  46.3084350  25.9965260  75.6384970
  53.4125320  20.8222290  74.0651830  53.3289040  21.2536510  73.2148270
  54.1319510  21.2820640  74.4978650  54.4412570  27.6764550  76.7933960
  53.7988730  27.0220170  77.0677680  54.0543230  28.0819640  76.0174630
  50.0199050  25.0049980  80.6405650  50.3722870  24.4078110  79.9807020
  49.1361380  24.6794210  80.8113900  46.1062330  25.7647670  78.0476060
  46.7933460  26.3116880  78.4283650  45.3194750  26.3088400  78.0825670
  38.2454730  21.3820490  73.5393140  39.1149580  21.6645290  73.8229060
  37.7545050  22.1956360  73.4241950  45.4089540  22.7693700  77.6601420
  45.8652320  23.5798950  77.8861610  45.0577750  22.4516840  78.4919910
  47.7122150  28.2800040  84.8893720  48.3564370  28.4859420  85.5667140
  48.0751590  27.5188440  84.4364570  41.3101320  13.1131350  78.1323940
  41.1815950  13.1049250  79.0808860  40.4863340  13.4514440  77.7814950
  48.9854230  26.2832390  83.6071170  49.6276460  25.5825550  83.7203340
  49.5103580  27.0630830  83.4268060  52.8309950  26.5681010  73.3310310
  52.6047530  25.8511450  73.9234950  52.4406150  26.3193450  72.4932060
  38.6125980  30.5947870  74.1054770  38.9723620  31.1937210  73.4512040
  38.4718320  31.1407760  74.8789800  52.4126200  24.4852950  74.9924470
  52.1247900  24.9465640  75.7802350  53.2078370  24.0250720  75.2608690
  44.6294600  27.9779070  74.9228440  44.6204700  28.7108760  74.3072950
  43.7092960  27.7310650  75.0155400  40.2301240  23.1993960  75.6675200
  39.6229190  23.9392860  75.6770500  40.7050590  23.2893320  74.8413400
  49.8034030  17.3644780  85.3432090  50.1714850  16.5439990  85.6711660
  48.9432230  17.4246670  85.7587740  53.1696060  16.3201720  76.1519650
  52.5409220  16.4247390  75.4377880  52.6747980  16.5398500  76.9413530
  47.6154200  28.0407310  73.5853630  47.7166180  27.8371300  72.6555610
  46.7155940  27.7865590  73.7901410  45.1380090  18.5987670  77.5677530
  44.4296240  19.0674010  78.0091140  45.4224570  17.9409680  78.2022720
  46.7636020  20.0184370  85.5670060  47.2621270  20.4930190  86.2321910
  46.9058970  19.0947890  85.7740090  49.1695520  15.3238330  79.0073320
  49.0463300  15.3424460  78.0582830  50.1180080  15.3717270  79.1271720
  46.2572310  30.5593630  78.2801300  46.5113810  30.5215020  77.3580670
  45.3084790  30.4326960  78.2729550  43.3415110  16.9072750  74.9428240
  44.1905640  17.3442900  74.8768430  42.9746380  17.2193010  75.7700300
  53.9702880  16.2352330  86.4098450  53.4676480  16.9757730  86.7492260
  54.7859540  16.6236330  86.0935240  52.2624890  21.4785510  79.8559810
  51.3215030  21.4935740  80.0307500  52.5768960  20.6921470  80.3020110
  42.2406530  23.1605110  73.4163770  43.0069800  23.0486470  73.9789200
  42.3181220  22.4643080  72.7640540  40.9353290  20.5930180  74.0996660
  41.0156880  19.6457690  74.2114060  41.8273040  20.9237060  74.2057320
  54.2650470  28.6494360  81.5314070  54.3897890  29.4725530  82.0037880
  55.1316030  28.4385090  81.1838220  41.7368000  30.7425570  81.2031200
  42.4730480  30.1941030  81.4739770  42.1208920  31.6081580  81.0637190
  38.6213480  26.8099140  77.0772710  37.6953260  27.0520280  77.0678120
  39.0869910  27.6373400  76.9557460  44.8470310  29.9155880  73.0256770
  45.6398920  30.2044710  72.5738560  44.3274660  29.4848050  72.3469250
  53.9000480  29.1426010  74.4493510  53.6141990  28.7291150  73.6347690
  53.7020030  30.0713720  74.3294030  45.3647710  25.1359290  72.8899120
  45.2598350  24.5211640  73.6160500  45.1971930  24.6125180  72.1062130
  48.6050440  24.1979320  73.4941110  48.0560540  24.6448620  74.1383850
  49.2269700  23.6928570  74.0178780  44.2725560  23.1570240  75.3906410
  44.6941980  22.9910110  76.2337800  44.3976400  22.3470470  74.8961550
  46.7853200  22.1807850  72.6383510  47.3058860  21.4656870  72.2724660
  47.4321600  22.8193720  72.9384020  45.6886720  14.6602400  85.3102070
  45.2404020  14.6826660  84.4647620  45.0551920  14.2621420  85.9072370
  46.0946270  23.5556730  85.9314510  46.5134380  24.3989460  85.7590750
  45.1754900  23.6928770  85.7021290  50.7698070  21.8410100  85.8914860
  50.2433290  22.3652720  85.2880000  51.1129410  22.4737490  86.5224590
  43.1684460  19.2303470  72.3364570  42.9673520  18.3670830  72.6977910
  42.9976510  19.1436830  71.3986170  50.6472770  14.0411700  74.8651450
  50.9275060  13.1979600  75.2210870  49.8738500  14.2734810  75.3790200
  41.9667260  16.3304090  72.3242450  42.2693160  16.3371520  71.4161600
  42.7061850  15.9801950  72.8210110  45.1852190  15.2738710  73.3098650
  44.8374190  14.5962700  72.7301100  45.3864960  14.8128220  74.1242040
  47.3501230  30.2619460  74.9285250  48.2452020  30.6004430  74.9504010
  47.3818860  29.5398870  74.3009530  40.9897390  25.6346510  73.1572250
  41.4272260  26.1776180  73.8129830  41.4745120  24.8093460  73.1668590
  38.2043190  28.4235540  80.6092510  38.5346200  27.5556600  80.3771150
  38.6334190  28.6294060  81.4397470  42.8005110  26.7544550  78.2694480
  42.5000650  26.6309520  79.1698390  42.6942600  25.8953140  77.8610210
  38.6933400  29.2906130  83.3474140  38.2564390  29.4706930  84.1798290
  39.2611080  30.0480750  83.2055860  55.5697030  26.5340950  72.9721160
  54.7389990  26.6017600  73.4428390  55.7468860  27.4245070  72.6688020
  55.0253490  23.2788430  75.4755360  55.7872400  23.8485080  75.5815050
  55.0407860  22.7115630  76.2463670  38.5257830  21.8026360  79.7063020
  37.8706670  21.5338000  79.0622720  39.3635780  21.6930840  79.2565000
  56.0313460  24.1338530  80.3197290  56.4022290  23.3505850  79.9133260
  56.6715390  24.8227630  80.1414590  53.0147220  25.5175110  85.7327610
  52.2007060  25.9472270  85.9953400  53.4221420  26.1293520  85.1196660
  55.0772660  23.5722800  72.6327880  55.3521500  24.4801680  72.5047100
  54.8883400  23.5085330  73.5689870  51.4748270  16.5967650  73.9281510
  51.8933150  16.4098630  73.0878170  51.1684330  15.7446700  74.2384440
  54.9738000  21.5091790  77.6257310  54.5981600  20.7419720  77.1938600
  54.2441120  21.8914490  78.1132240  39.5633760  22.1878930  84.2466360
  39.9306800  22.1006330  85.1262380  38.9944580  21.4245480  84.1473220
  37.7395910  19.0125290  75.6488350  36.8359990  19.2755490  75.4740010
  38.2236530  19.2836460  74.8688310  54.2488960  19.7349280  80.9264550
  54.7726440  19.2411930  80.2954720  54.8348380  19.8699640  81.6712120
  54.4278680  19.8189150  84.4484100  53.4781390  19.7852690  84.5629090
  54.6091690  20.7289260  84.2133870  40.2823120  18.0690830  73.5582730
  40.9914820  17.6474050  73.0730010  39.5663060  18.1366060  72.9266080
  39.9297280  14.1230160  72.5985380  40.6525410  14.6639100  72.9166600
  40.2021800  13.8493580  71.7226920  53.7388930  18.9922630  76.8656960
  54.2348050  18.7593500  77.6505840  53.5405000  18.1534470  76.4494600
  39.6189470  13.3736350  82.5008000  40.2665660  12.8233730  82.0603160
  40.0391310  13.6279500  83.3223810  55.1676090  17.6283580  79.3994640
  55.0575370  17.4739620  80.3376910  55.9283680  17.1004520  79.1570050
  53.5141810  13.5677710  85.8577640  54.1514030  14.1811850  86.2236830
  53.6616700  13.6038370  84.9126870  56.0566360  15.4591500  72.6400780
  56.9815670  15.3272680  72.4319070  56.0342150  15.5384320  73.5937230
  56.1304850  16.2302160  75.2657490  55.3356350  16.1647280  75.7950400
  56.3348130  17.1652800  75.2542840  53.0723270  30.2693710  79.2595880
  53.6682340  29.9478280  78.5830300  53.3301420  29.7965530  80.0509150
  39.3721470  13.5292020  85.2433320  39.0236290  13.9855840  86.0091500
  39.0409170  12.6349150  85.3255750  44.6791870  28.2571210  85.0096230
  44.4383230  28.5245770  84.1226750  45.6194510  28.4276940  85.0647090
  55.9396030  30.2765590  85.8106870  55.4454310  30.6734460  85.0934000
  55.3309320  29.6514800  86.2044150  50.2628890  12.9406100  84.7314320
  49.3888730  13.2741210  84.5287250  50.1539640  12.4679280  85.5566190
  51.1700870  15.1476970  86.1156040  50.8414230  14.3328730  85.7357770
  52.1183170  15.1046780  85.9921730  53.6235480  30.9189010  83.0893610
  53.1638450  31.6704820  82.7151630  52.9947940  30.1995480  83.0308410
  40.4486100  27.0132250  85.4792330  39.7220160  26.3937540  85.4118280
  40.5095250  27.4072860  84.6090410  44.0531200  29.2277250  82.2641740
  44.5696220  28.6164610  81.7390000  44.7028580  29.7306030  82.7552750
  46.7926700  30.1185740  83.0910720  47.0804510  29.8640040  82.2143730
  47.3049920  29.5663100  83.6816290  48.0103710  13.8575940  83.6707230
  47.2275500  14.3321440  83.9503990  47.7166640  12.9530770  83.5620410
  52.5624780  14.5599040  81.7156320  53.0032870  14.5044140  80.8677920
  52.2932370  15.4757050  81.7866500  54.4263350  14.1914280  79.7265140
  54.3651750  13.2475500  79.5796160  55.2055380  14.2994370  80.2718600
  38.7316100  30.3306640  78.6889090  38.5638140  29.6977320  79.3870980
  37.8650610  30.5366040  78.3383280  39.3544120  14.1623420  76.1920950
  40.1123480  14.2752300  75.6184980  38.8921290  14.9992620  76.1464380
  45.8957930  16.2762690  79.1823260  45.0832440  15.9019580  78.8419140
  46.3999570  15.5207770  79.4844450  50.3982910  12.9405140  80.4206330
  51.0012280  13.5125350  80.8954850  49.6575900  13.5044580  80.1980230
  53.5417510  13.3426700  75.6946610  53.7368140  14.2410150  75.9614040
  52.7547380  13.1113780  76.1879560  40.3378800  29.0239870  76.1339230
  39.8126420  29.4047900  75.4301190  40.2623380  29.6490640  76.8548940
  41.7269270  14.6887470  74.7322920  42.2562030  13.9017270  74.6030870
  42.3597590  15.3678660  74.9658450  43.9207110  14.4262610  77.7868310
  43.2909850  13.7249920  77.9538440  43.3812250  15.1866740  77.5701470
  55.0944120  30.5827410  77.4553170  55.2696310  29.8965150  76.8114090
  54.3965690  31.1074460  77.0629840  42.9371770  30.9722250  75.0088480
  43.6690590  30.6881530  74.4612370  43.1965440  30.7335530  75.8987860
  42.0986560  27.0886980  75.0134810  41.4695440  27.5572080  75.5620640
  42.2134390  26.2436200  75.4481000  49.5536280  21.1392640  61.1636010
  49.4730330  20.2247250  60.8927720  49.1400700  21.6359710  60.4575720
  47.6854320  22.9171660  63.0445280  46.9096420  22.4372100  63.3343850
  48.3367250  22.2377310  62.8701440  41.7020150  23.2291470  63.9221040
  40.8705030  22.9740180  64.3217550  42.3101130  23.3002240  64.6578960
  51.7061750  27.3231850  61.8244410  51.2443280  26.5519090  62.1531580
  52.5187300  27.3497920  62.3296860  41.6821410  27.2631560  64.1179060
  41.9849450  26.3729300  63.9389280  42.4265000  27.8201780  63.8901310
  40.1112100  18.1893360  57.7063430  39.2228800  18.5309330  57.6043310
  40.3953290  17.9893680  56.8144260  38.0745110  20.7899010  63.5903130
  38.6461220  20.0221210  63.5906770  38.0746650  21.0887770  62.6809740
  39.3169980  16.1983370  65.3772060  39.1372820  15.3009120  65.6574820
  38.9150060  16.7455240  66.0519010  48.1568480  18.3999230  63.2784370
  48.5333300  17.5271110  63.1658040  48.0587990  18.7357930  62.3874810
  42.2873490  16.7724860  58.7401810  42.3940240  17.6728590  59.0470570
  41.3765850  16.7242830  58.4496460  51.9392600  15.8949670  60.2112710
  52.7602220  15.4046240  60.2538190  51.9726680  16.4847330  60.9644550
  39.9356650  18.6943870  63.9854400  40.6166760  18.9582240  64.6041800
  39.6204700  17.8544740  64.3192410  44.1281220  19.7411230  63.0726990
  44.6359440  20.2392200  63.7132010  44.6594460  18.9646430  62.8966350
  56.2292150  17.9116420  66.7756340  55.5244320  18.2998130  66.2571450
  56.4950070  18.6066710  67.3777270  42.4117320  14.3809790  67.3390410
  42.4135760  14.8982180  66.5336310  41.5821630  13.9039970  67.3160340
  48.7988410  24.4929100  58.8380310  48.1805680  24.9578550  58.2743030
  49.3111660  25.1856580  59.2549820  43.6620170  24.0204970  65.5163910
  43.3289550  24.6473890  66.1584980  43.8386850  24.5466850  64.7365580
  52.1754080  17.8350050  62.9840250  51.4709650  18.1234940  63.5643360
  52.5366240  18.6450160  62.6239810  42.0932650  16.0919750  65.3460860
  42.4349460  16.9361800  65.0514730  41.1548460  16.2403490  65.4626200
  42.8739270  25.9885770  67.3313090  43.4913270  26.6636850  67.0497540
  42.0132390  26.3973750  67.2400590  53.7916860  27.4525180  65.2467730
  53.1080380  28.1224290  65.2384400  54.3311150  27.6505830  64.4812590
  55.2441000  17.2804840  63.3749460  54.2965910  17.3143820  63.5064890
  55.5690990  18.0943790  63.7598820  45.7760540  13.5802020  61.6705450
  46.0835520  13.0248910  60.9540950  44.8461240  13.7146480  61.4878440
  51.3275600  29.2969310  63.9612910  51.3402760  28.8931600  63.0935170
  50.7750820  30.0716600  63.8574340  52.6221020  26.0185530  59.0503080
  52.5117350  25.0759860  59.1752500  52.6189270  26.3801170  59.9365840
  50.7261040  24.1999150  65.2895520  51.1429830  23.9859260  64.4548980
  51.4500860  24.4571940  65.8604140  48.1641300  21.6450850  58.4065570
  47.2370580  21.5788230  58.6354040  48.3166120  22.5830980  58.2920810
  48.1510380  17.9167850  55.4032730  47.2114050  18.0781810  55.4885190
  48.4693640  18.6353530  54.8568720  54.6723140  22.5986370  65.3811760
  53.8441770  22.6679460  64.9061890  55.2673620  23.1840680  64.9127590
  52.1938590  23.2071150  58.9100820  51.5751010  22.8690700  58.2627120
  52.1763040  22.5630910  59.6180010  51.6365150  19.3855690  66.3266630
  51.2236330  20.2109400  66.5806620  50.9041100  18.8000730  66.1342990
  43.7697940  22.1715590  61.1885300  43.3654940  21.4592840  60.6931200
  43.8561060  21.8268830  62.0773340  42.4826560  18.9458800  64.9684340
  43.0341150  19.0554140  64.1937590  42.9970070  19.3196400  65.6839570
  52.3265250  29.4315020  67.0147610  51.8495810  30.2387210  66.8220220
  51.6427040  28.7793350  67.1673820  43.3298070  25.5964840  70.0032310
  42.4326600  25.8204810  70.2505710  43.3550940  25.7199780  69.0543710
  50.3703290  22.4457960  55.9173570  50.8096570  21.6080390  55.7711390
  51.0831710  23.0787360  56.0037710  42.1569290  22.4678160  68.5789680
  42.0177060  23.3400960  68.9477080  41.2750650  22.1250970  68.4337620
  43.9549640  28.4099860  70.7874830  43.9265070  28.8142810  69.9203260
  43.7914610  27.4810220  70.6246430  53.9520430  13.7000770  54.2314610
  53.6393090  13.7927600  55.1313680  54.7132900  14.2781800  54.1812040
  40.4702570  21.0660570  58.6891950  40.3500170  21.7922660  58.0773220
  40.1603460  20.2963480  58.2119860  55.9064460  29.1926960  72.0839000
  56.3824180  29.6709850  72.7628080  56.5271620  29.1244450  71.3584500
  38.1087940  24.2375710  64.4960590  38.1868360  24.3724480  63.5516310
  38.7229620  23.5291600  64.6888710  55.3097710  26.3839810  69.2439010
  55.4360770  26.1451690  68.3256190  55.3519090  25.5524350  69.7161090
  49.1714450  30.0867810  67.8133820  49.6859120  29.9975820  68.6156250
  48.3283530  30.4327510  68.1061730  55.1621720  18.4372270  70.2088750
  54.5465990  18.9451940  69.6804210  54.8418140  17.5370600  70.1514690
  38.1647460  25.2789880  67.0355050  38.3278500  24.8095240  66.2174420
  38.6299910  24.7713440  67.7003890  42.9366230  14.4095640  62.0715620
  42.4934380  15.1905180  61.7400140  43.4951220  14.7325530  62.7786560
  47.2236040  17.2764160  67.6750940  46.7615410  17.4847180  68.4870880
  46.8214150  16.4623510  67.3721610  52.2240550  18.4973110  68.8047600
  51.3734140  18.1978860  69.1256670  52.0642340  18.7415120  67.8931420
  49.3190260  19.9974860  70.9046390  49.6443670  19.1638610  70.5648620
  50.1070590  20.5203380  71.0524720  46.0525050  14.0306340  56.9521450
  45.4279230  14.0266210  57.6774760  45.9655170  13.1637300  56.5557420
  44.9742130  14.9542970  63.9305220  45.2714460  15.8605800  63.8497240
  45.5227690  14.4661750  63.3164790  42.7280450  19.5329210  59.7996870
  42.5021370  19.3166380  60.7043490  41.9472980  19.9657670  59.4542840
  49.9578210  19.5392580  58.3987520  49.3587100  20.2628380  58.2151140
  50.5057820  19.4769360  57.6163970  45.1679660  20.4314790  70.4657140
  45.0723260  19.4909520  70.3157540  46.0111640  20.6529860  70.0705210
  48.5643080  18.1756120  60.4290800  48.9572650  18.4928320  59.6159490
  48.9259930  17.2968000  60.5435320  40.2990200  16.8428460  68.6190920
  39.9053590  17.6903670  68.8263700  39.6108600  16.2054830  68.8099560
  46.8735250  16.9263430  71.6887660  46.1833570  16.7335630  72.3233750
  47.6167550  17.2098070  72.2211960  37.6007250  14.7656920  62.6521000
  37.3120300  15.3359780  63.3645980  38.3453010  14.2861370  63.0152230
  37.7877480  18.7077040  53.8623720  37.7052150  19.6507800  54.0038710
  37.4360540  18.5651950  52.9836070  49.1498220  20.7661870  64.5241580
  48.4179340  21.2748680  64.8731680  48.7522560  19.9491850  64.2230360
  45.5875610  17.4416070  62.9294070  45.5911670  17.0006020  62.0798610
  46.4826730  17.7633400  63.0365890  41.4377990  17.3242560  61.8888280
  41.0978040  17.8017790  62.6455330  40.6755310  16.8707680  61.5289380
  45.6495760  18.4428150  55.9200830  45.7708580  18.4014630  56.8686650
  45.2644270  19.3052300  55.7647560  49.6124130  16.2195550  63.9364520
  49.6296870  16.6704200  64.7806370  49.3639710  15.3201190  64.1497960
  44.6617260  20.7529290  55.3184130  44.0934160  20.3047540  54.6920040
  45.3706260  21.1122070  54.7849280  53.0394880  13.6327730  69.7750900
  53.3640650  12.9017390  70.3008880  53.0751390  13.3141370  68.8731890
  39.7386440  24.6541310  69.1950860  39.3541230  24.0134980  69.7933820
  40.0498630  25.3577430  69.7645590  45.8883580  21.5017850  64.6759480
  46.2553710  21.0276420  65.4220820  45.6988640  22.3759420  65.0167820
  38.7524070  16.2461540  60.8052950  38.4670990  15.8817210  61.6431570
  38.6902930  15.5142000  60.1916090  43.6782950  20.5426490  66.9943690
  43.3740020  21.4218470  67.2194050  44.6329410  20.6026280  67.0301130
  52.9652720  23.7452840  63.3836930  53.6851840  24.2408130  62.9933040
  52.7634540  23.0670730  62.7390800  48.4262660  15.1390800  57.5266320
  47.6127270  14.6403970  57.4511630  48.2324610  15.9789050  57.1102670
  48.3471520  23.8161900  69.2705930  48.2808830  22.8957570  69.0163520
  47.7176660  23.9137340  69.9850570  51.1411050  19.5110450  55.8228480
  52.0290670  19.8227680  55.6479820  51.1116140  18.6382700  55.4309060
  39.7346680  21.3829230  68.1415050  39.3761620  22.0483080  68.7288390
  39.4401240  20.5512780  68.5127670  42.9359800  21.8413470  71.0254600
  42.6359940  21.9870650  70.1282420  43.7071040  21.2818760  70.9327990
  48.2788250  26.6382470  69.0209730  48.2932790  25.7063430  68.8028640
  47.5713350  26.7242230  69.6599500  53.4125320  20.8222290  55.2908340
  53.3289040  21.2536510  54.4404780  54.1319510  21.2820640  55.7235160
  54.4899460  23.2789810  68.3678310  53.7647650  23.8718590  68.1707700
  55.0174920  23.2713350  67.5691680  54.4412570  27.6764550  58.0190470
  53.7988730  27.0220170  58.2934190  54.0543230  28.0819640  57.2431140
  50.0199050  25.0049980  61.8662160  50.3722870  24.4078110  61.2063530
  49.1361380  24.6794210  62.0370410  45.4089540  22.7693700  58.8857930
  45.8652320  23.5798950  59.1118120  45.0577750  22.4516840  59.7176420
  47.7122150  28.2800040  66.1150230  48.3564370  28.4859420  66.7923650
  48.0751590  27.5188440  65.6621080  41.3101320  13.1131350  59.3580450
  41.1815950  13.1049250  60.3065370  40.4863340  13.4514440  59.0071460
  48.9854230  26.2832390  64.8327680  49.6276460  25.5825550  64.9459850
  49.5103580  27.0630830  64.6524570  52.8309950  26.5681010  54.5566820
  52.6047530  25.8511450  55.1491460  52.4406150  26.3193450  53.7188570
  50.7591850  27.0827290  68.0363740  51.0948090  27.6693980  68.7141660
  49.8392190  26.9520000  68.2661530  38.3095250  14.8722470  68.8187150
  37.5953770  15.0719390  69.4239760  38.7290290  14.0962040  69.1901950
  52.4126200  24.4852950  56.2180980  52.1247900  24.9465640  57.0058860
  53.2078370  24.0250720  56.4865200  38.5967840  28.8602730  69.8053680
  38.7058960  27.9197470  69.6649070  37.9448400  29.1257480  69.1567410
  46.5880430  27.1318620  71.2051800  46.2677300  26.4127860  71.7497490
  45.9138790  27.8073690  71.2787860  49.8034030  17.3644780  66.5688600
  50.1714850  16.5439990  66.8968170  48.9432230  17.4246670  66.9844250
  53.1696060  16.3201720  57.3776160  52.5409220  16.4247390  56.6634390
  52.6747980  16.5398500  58.1670040  45.1380090  18.5987670  58.7934040
  44.4296240  19.0674010  59.2347650  45.4224570  17.9409680  59.4279230
  46.7636020  20.0184370  66.7926570  47.2621270  20.4930190  67.4578420
  46.9058970  19.0947890  66.9996600  49.1695520  15.3238330  60.2329830
  49.0463300  15.3424460  59.2839340  50.1180080  15.3717270  60.3528230
  43.3415110  16.9072750  56.1684750  44.1905640  17.3442900  56.1024940
  42.9746380  17.2193010  56.9956810  53.9702880  16.2352330  67.6354960
  53.4676480  16.9757730  67.9748770  54.7859540  16.6236330  67.3191750
  52.2624890  21.4785510  61.0816320  51.3215030  21.4935740  61.2564010
  52.5768960  20.6921470  61.5276620  42.2406530  23.1605110  54.6420280
  43.0069800  23.0486470  55.2045710  42.3181220  22.4643080  53.9897050
  40.9353290  20.5930180  55.3253170  41.0156880  19.6457690  55.4370570
  41.8273040  20.9237060  55.4313830  54.2650470  28.6494360  62.7570580
  54.3897890  29.4725530  63.2294390  55.1316030  28.4385090  62.4094730
  40.7426280  29.9271640  71.6173290  41.5439010  30.2483690  72.0308690
  40.2278100  29.5667220  72.3393200  49.5790910  26.0351510  71.5648700
  48.9729070  26.0583110  70.8244450  49.2745020  25.3034550  72.1015950
  51.0091280  29.7631800  70.1758110  51.9613030  29.6789820  70.1258350
  50.8619500  30.4273510  70.8491900  38.4624090  22.4145100  70.5609340
  38.9663110  21.8352380  71.1325570  37.7231510  22.6985330  71.0985710
  45.5162030  23.8216090  70.0944860  44.7507700  24.3901090  70.0099530
  45.6977990  23.5292300  69.2013090  48.6050440  24.1979320  54.7197620
  48.0560540  24.6448620  55.3640360  49.2269700  23.6928570  55.2435290
  52.6585380  25.5521420  70.6519880  53.3994850  25.8897180  70.1487340
  51.8958060  25.7213480  70.0989650  40.4947170  20.5574690  71.4559410
  40.5352510  20.2588560  72.3644640  41.3492670  20.9582300  71.2966930
  44.2725560  23.1570240  56.6162920  44.6941980  22.9910110  57.4594310
  44.3976400  22.3470470  56.1218060  42.4352980  19.1366790  69.4233900
  41.9049440  18.6457740  68.7957240  43.1041050  19.5650990  68.8891830
  46.7853200  22.1807850  53.8640020  47.3058860  21.4656870  53.4981170
  47.4321600  22.8193720  54.1640530  51.3331040  23.6036250  69.1875090
  51.7472060  23.7581330  70.0365510  50.3982040  23.7291470  69.3500870
  51.8053210  20.9432410  71.1914240  52.3873980  20.1884730  71.1034720
  51.9814980  21.4739850  70.4145720  42.9225280  16.1029160  69.5031190
  42.8282150  15.4849910  68.7782060  42.3422670  16.8295450  69.2761100
  45.6886720  14.6602400  66.5358580  45.2404020  14.6826660  65.6904130
  45.0551920  14.2621420  67.1328880  46.0946270  23.5556730  67.1571020
  46.5134380  24.3989460  66.9847260  45.1754900  23.6928770  66.9277800
  48.4310170  21.2872910  68.5408860  48.5506380  20.6914050  69.2803700
  49.2904170  21.3242600  68.1210160  50.7698070  21.8410100  67.1171370
  50.2433290  22.3652720  66.5136510  51.1129410  22.4737490  67.7481100
  43.1684460  19.2303470  53.5621080  42.9673520  18.3670830  53.9234420
  42.9976510  19.1436830  52.6242680  43.9453690  29.8609740  68.2728750
  43.4074780  30.5855800  67.9537450  44.1987650  29.3840080  67.4826090
  45.1978940  17.8294260  69.7984680  45.7878630  17.5210110  70.4862500
  44.3799180  17.3574010  69.9544580  50.0172370  17.4460070  70.0317700
  49.3287890  16.7841610  69.9667690  50.7378390  16.9998340  70.4766160
  50.6472770  14.0411700  56.0907960  50.9275060  13.1979600  56.4467380
  49.8738500  14.2734810  56.6046710  41.9667260  16.3304090  53.5498960
  42.2693160  16.3371520  52.6418110  42.7061850  15.9801950  54.0466620
  46.8015900  31.0960950  68.5315400  46.7274600  31.9996090  68.8387770
  45.8994740  30.7772850  68.5037470  45.1852190  15.2738710  54.5355160
  44.8374190  14.5962700  53.9557610  45.3864960  14.8128220  55.3498550
  38.6933400  29.2906130  64.5730650  38.2564390  29.4706930  65.4054800
  39.2611080  30.0480750  64.4312370  54.3295580  28.7923130  68.8607960
  53.7297570  28.8515690  68.1171880  54.4589480  27.8528110  68.9904810
  55.5697030  26.5340950  54.1977670  54.7389990  26.6017600  54.6684900
  55.7468860  27.4245070  53.8944530  55.0253490  23.2788430  56.7011870
  55.7872400  23.8485080  56.8071560  55.0407860  22.7115630  57.4720180
  56.0313460  24.1338530  61.5453800  56.4022290  23.3505850  61.1389770
  56.6715390  24.8227630  61.3671100  53.0147220  25.5175110  66.9584120
  52.2007060  25.9472270  67.2209910  53.4221420  26.1293520  66.3453170
  55.0772660  23.5722800  53.8584390  55.3521500  24.4801680  53.7303610
  54.8883400  23.5085330  54.7946380  51.4748270  16.5967650  55.1538020
  51.8933150  16.4098630  54.3134680  51.1684330  15.7446700  55.4640950
  54.9738000  21.5091790  58.8513820  54.5981600  20.7419720  58.4195110
  54.2441120  21.8914490  59.3388750  39.5633760  22.1878930  65.4722870
  39.9306800  22.1006330  66.3518890  38.9944580  21.4245480  65.3729730
  54.3637620  20.6563310  68.4853340  54.1323710  20.4276060  67.5851290
  54.6242170  21.5762860  68.4398230  39.1149760  19.0988020  69.3781290
  38.2205810  19.0654780  69.7175000  39.6547310  19.2974810  70.1432540
  52.8025690  15.8819740  71.2633040  53.6795870  15.8903140  71.6467040
  52.8146530  15.1450580  70.6525390  37.7395910  19.0125290  56.8744860
  36.8359990  19.2755490  56.6996520  38.2236530  19.2836460  56.0944820
  54.2488960  19.7349280  62.1521060  54.7726440  19.2411930  61.5211230
  54.8348380  19.8699640  62.8968630  54.4278680  19.8189150  65.6740610
  53.4781390  19.7852690  65.7885600  54.6091690  20.7289260  65.4390380
  40.2823120  18.0690830  54.7839240  40.9914820  17.6474050  54.2986520
  39.5663060  18.1366060  54.1522590  39.9297280  14.1230160  53.8241890
  40.6525410  14.6639100  54.1423110  40.2021800  13.8493580  52.9483430
  53.7388930  18.9922630  58.0913470  54.2348050  18.7593500  58.8762350
  53.5405000  18.1534470  57.6751110  39.6189470  13.3736350  63.7264510
  40.2665660  12.8233730  63.2859670  40.0391310  13.6279500  64.5480320
  55.1676090  17.6283580  60.6251150  55.0575370  17.4739620  61.5633420
  55.9283680  17.1004520  60.3826560  53.5141810  13.5677710  67.0834150
  54.1514030  14.1811850  67.4493340  53.6616700  13.6038370  66.1383380
  56.0566360  15.4591500  53.8657290  56.9815670  15.3272680  53.6575580
  56.0342150  15.5384320  54.8193740  56.1304850  16.2302160  56.4914000
  55.3356350  16.1647280  57.0206910  56.3348130  17.1652800  56.4799350
  39.3721470  13.5292020  66.4689830  39.0236290  13.9855840  67.2348010
  39.0409170  12.6349150  66.5512260  40.9785840  26.7011620  70.6343020
  40.9355470  26.3304530  71.5157480  41.1096850  27.6389190  70.7744840
  44.6791870  28.2571210  66.2352740  44.4383230  28.5245770  65.3483260
  45.6194510  28.4276940  66.2903600  46.8846290  14.7203900  69.9909250
  46.8235180  15.3125730  70.7404660  47.8246670  14.6129860  69.8459510
  49.5220850  14.3773960  69.6301540  50.1361260  14.6953250  68.9682620
  50.0670410  13.8922550  70.2497400  55.9396030  30.2765590  67.0363380
  55.4454310  30.6734460  66.3190510  55.3309320  29.6514800  67.4300660
  40.0442110  13.0568220  69.7440600  40.5925100  12.8756270  68.9806710
  40.1097420  12.2662330  70.2796910  40.8173870  29.6473870  67.7540800
  40.2234190  29.5158570  68.4930840  40.8097710  28.8112010  67.2882900
  50.2628890  12.9406100  65.9570830  49.3888730  13.2741210  65.7543760
  50.1539640  12.4679280  66.7822700  51.1700870  15.1476970  67.3412550
  50.8414230  14.3328730  66.9614280  52.1183170  15.1046780  67.2178240
  53.6235480  30.9189010  64.3150120  53.1638450  31.6704820  63.9408140
  52.9947940  30.1995480  64.2564920  40.4486100  27.0132250  66.7048840
  39.7220160  26.3937540  66.6374790  40.5095250  27.4072860  65.8346920
  48.0103710  13.8575940  64.8963740  47.2275500  14.3321440  65.1760500
  47.7166640  12.9530770  64.7876920  52.5624780  14.5599040  62.9412830
  53.0032870  14.5044140  62.0934430  52.2932370  15.4757050  63.0123010
  54.4263350  14.1914280  60.9521650  54.3651750  13.2475500  60.8052670
  55.2055380  14.2994370  61.4975110  39.3544120  14.1623420  57.4177460
  40.1123480  14.2752300  56.8441490  38.8921290  14.9992620  57.3720890
  45.8957930  16.2762690  60.4079770  45.0832440  15.9019580  60.0675650
  46.3999570  15.5207770  60.7100960  50.3982910  12.9405140  61.6462840
  51.0012280  13.5125350  62.1211360  49.6575900  13.5044580  61.4236740
  53.5417510  13.3426700  56.9203120  53.7368140  14.2410150  57.1870550
  52.7547380  13.1113780  57.4136070  41.7269270  14.6887470  55.9579430
  42.2562030  13.9017270  55.8287380  42.3597590  15.3678660  56.1914960
  43.9207110  14.4262610  59.0124820  43.2909850  13.7249920  59.1794950
  43.3812250  15.1866740  58.7957980  46.8599060  31.0401840  71.6835430
  47.7866370  30.8046110  71.7271390  46.8449490  31.8673840  71.2021460
  44.0462670  13.7046590  71.4477310  43.7646940  14.2080190  70.6838130
  44.4282370  12.9068340  71.0819440  50.6478130  13.1200170  72.0257780
  50.5343580  13.4394780  72.9209300  51.4647870  13.5212680  71.7295060
  53.4276620  30.2671700  71.5076470  54.2201940  29.7720930  71.3002430
  53.7209770  30.9461840  72.1152080  49.5536280  21.1392640  42.3892520
  49.4730330  20.2247250  42.1184230  49.1400700  21.6359710  41.6832230
  47.6854320  22.9171660  44.2701790  46.9096420  22.4372100  44.5600360
  48.3367250  22.2377310  44.0957950  41.7020150  23.2291470  45.1477550
  40.8705030  22.9740180  45.5474060  42.3101130  23.3002240  45.8835470
  51.7061750  27.3231850  43.0500920  51.2443280  26.5519090  43.3788090
  52.5187300  27.3497920  43.5553370  40.1112100  18.1893360  38.9319940
  39.2228800  18.5309330  38.8299820  40.3953290  17.9893680  38.0400770
  38.0745110  20.7899010  44.8159640  38.6461220  20.0221210  44.8163280
  38.0746650  21.0887770  43.9066250  47.1263310  25.5928850  44.2771950
  47.0571590  24.6518790  44.1161080  47.8883170  25.6830260  44.8494520
  39.3169980  16.1983370  46.6028570  39.1372820  15.3009120  46.8831330
  38.9150060  16.7455240  47.2775520  48.1568480  18.3999230  44.5040880
  48.5333300  17.5271110  44.3914550  48.0587990  18.7357930  43.6131320
  42.2873490  16.7724860  39.9658320  42.3940240  17.6728590  40.2727080
  41.3765850  16.7242830  39.6752970  51.9392600  15.8949670  41.4369220
  52.7602220  15.4046240  41.4794700  51.9726680  16.4847330  42.1901060
  39.9356650  18.6943870  45.2110910  40.6166760  18.9582240  45.8298310
  39.6204700  17.8544740  45.5448920  44.1281220  19.7411230  44.2983500
  44.6359440  20.2392200  44.9388520  44.6594460  18.9646430  44.1222860
  56.2292150  17.9116420  48.0012850  55.5244320  18.2998130  47.4827960
  56.4950070  18.6066710  48.6033780  42.4117320  14.3809790  48.5646920
  42.4135760  14.8982180  47.7592820  41.5821630  13.9039970  48.5416850
  48.7988410  24.4929100  40.0636820  48.1805680  24.9578550  39.4999540
  49.3111660  25.1856580  40.4806330  43.6620170  24.0204970  46.7420420
  43.3289550  24.6473890  47.3841490  43.8386850  24.5466850  45.9622090
  52.1754080  17.8350050  44.2096760  51.4709650  18.1234940  44.7899870
  52.5366240  18.6450160  43.8496320  42.0932650  16.0919750  46.5717370
  42.4349460  16.9361800  46.2771240  41.1548460  16.2403490  46.6882710
  38.1671610  25.1785630  37.4376450  37.7899590  25.6672730  36.7061350
  38.4244680  25.8510910  38.0682980  53.7916860  27.4525180  46.4724240
  53.1080380  28.1224290  46.4640910  54.3311150  27.6505830  45.7069100
  55.2441000  17.2804840  44.6005970  54.2965910  17.3143820  44.7321400
  55.5690990  18.0943790  44.9855330  45.7760540  13.5802020  42.8961960
  46.0835520  13.0248910  42.1797460  44.8461240  13.7146480  42.7134950
  52.6221020  26.0185530  40.2759590  52.5117350  25.0759860  40.4009010
  52.6189270  26.3801170  41.1622350  50.7261040  24.1999150  46.5152030
  51.1429830  23.9859260  45.6805490  51.4500860  24.4571940  47.0860650
  48.1641300  21.6450850  39.6322080  47.2370580  21.5788230  39.8610550
  48.3166120  22.5830980  39.5177320  48.1510380  17.9167850  36.6289240
  47.2114050  18.0781810  36.7141700  48.4693640  18.6353530  36.0825230
  54.6723140  22.5986370  46.6068270  53.8441770  22.6679460  46.1318400
  55.2673620  23.1840680  46.1384100  52.1938590  23.2071150  40.1357330
  51.5751010  22.8690700  39.4883630  52.1763040  22.5630910  40.8436520
  51.6365150  19.3855690  47.5523140  51.2236330  20.2109400  47.8063130
  50.9041100  18.8000730  47.3599500  43.7697940  22.1715590  42.4141810
  43.3654940  21.4592840  41.9187710  43.8561060  21.8268830  43.3029850
  42.4826560  18.9458800  46.1940850  43.0341150  19.0554140  45.4194100
  42.9970070  19.3196400  46.9096080  50.3703290  22.4457960  37.1430080
  50.8096570  21.6080390  36.9967900  51.0831710  23.0787360  37.2294220
  42.1569290  22.4678160  49.8046190  42.0177060  23.3400960  50.1733590
  41.2750650  22.1250970  49.6594130  53.9520430  13.7000770  35.4571120
  53.6393090  13.7927600  36.3570190  54.7132900  14.2781800  35.4068550
  40.4702570  21.0660570  39.9148460  40.3500170  21.7922660  39.3029730
  40.1603460  20.2963480  39.4376370  55.9064460  29.1926960  53.3095510
  56.3824180  29.6709850  53.9884590  56.5271620  29.1244450  52.5841010
  55.3097710  26.3839810  50.4695520  55.4360770  26.1451690  49.5512700
  55.3519090  25.5524350  50.9417600  50.8494980  27.8810710  37.0272330
  50.1560140  27.8788000  36.3674610  51.5917840  27.4570030  36.5966500
  55.1621720  18.4372270  51.4345260  54.5465990  18.9451940  50.9060720
  54.8418140  17.5370600  51.3771200  42.9366230  14.4095640  43.2972130
  42.4934380  15.1905180  42.9656650  43.4951220  14.7325530  44.0043070
  47.2236040  17.2764160  48.9007450  46.7615410  17.4847180  49.7127390
  46.8214150  16.4623510  48.5978120  52.2240550  18.4973110  50.0304110
  51.3734140  18.1978860  50.3513180  52.0642340  18.7415120  49.1187930
  49.3190260  19.9974860  52.1302900  49.6443670  19.1638610  51.7905130
  50.1070590  20.5203380  52.2781230  46.0525050  14.0306340  38.1777960
  45.4279230  14.0266210  38.9031270  45.9655170  13.1637300  37.7813930
  44.9742130  14.9542970  45.1561730  45.2714460  15.8605800  45.0753750
  45.5227690  14.4661750  44.5421300  42.7280450  19.5329210  41.0253380
  42.5021370  19.3166380  41.9300000  41.9472980  19.9657670  40.6799350
  49.9578210  19.5392580  39.6244030  49.3587100  20.2628380  39.4407650
  50.5057820  19.4769360  38.8420480  45.1679660  20.4314790  51.6913650
  45.0723260  19.4909520  51.5414050  46.0111640  20.6529860  51.2961720
  48.5643080  18.1756120  41.6547310  48.9572650  18.4928320  40.8416000
  48.9259930  17.2968000  41.7691830  40.2990200  16.8428460  49.8447430
  39.9053590  17.6903670  50.0520210  39.6108600  16.2054830  50.0356070
  46.8735250  16.9263430  52.9144170  46.1833570  16.7335630  53.5490260
  47.6167550  17.2098070  53.4468470  37.6007250  14.7656920  43.8777510
  37.3120300  15.3359780  44.5902490  38.3453010  14.2861370  44.2408740
  37.7877480  18.7077040  35.0880230  37.7052150  19.6507800  35.2295220
  37.4360540  18.5651950  34.2092580  49.1498220  20.7661870  45.7498090
  48.4179340  21.2748680  46.0988190  48.7522560  19.9491850  45.4486870
  45.5875610  17.4416070  44.1550580  45.5911670  17.0006020  43.3055120
  46.4826730  17.7633400  44.2622400  41.4377990  17.3242560  43.1144790
  41.0978040  17.8017790  43.8711840  40.6755310  16.8707680  42.7545890
  45.6495760  18.4428150  37.1457340  45.7708580  18.4014630  38.0943160
  45.2644270  19.3052300  36.9904070  49.6124130  16.2195550  45.1621030
  49.6296870  16.6704200  46.0062880  49.3639710  15.3201190  45.3754470
  44.6617260  20.7529290  36.5440640  44.0934160  20.3047540  35.9176550
  45.3706260  21.1122070  36.0105790  53.0394880  13.6327730  51.0007410
  53.3640650  12.9017390  51.5265390  53.0751390  13.3141370  50.0988400
  45.8883580  21.5017850  45.9015990  46.2553710  21.0276420  46.6477330
  45.6988640  22.3759420  46.2424330  38.7524070  16.2461540  42.0309460
  38.4670990  15.8817210  42.8688080  38.6902930  15.5142000  41.4172600
  43.6782950  20.5426490  48.2200200  43.3740020  21.4218470  48.4450560
  44.6329410  20.6026280  48.2557640  52.9652720  23.7452840  44.6093440
  53.6851840  24.2408130  44.2189550  52.7634540  23.0670730  43.9647310
  48.4262660  15.1390800  38.7522830  47.6127270  14.6403970  38.6768140
  48.2324610  15.9789050  38.3359180  48.3471520  23.8161900  50.4962440
  48.2808830  22.8957570  50.2420030  47.7176660  23.9137340  51.2107080
  51.1411050  19.5110450  37.0484990  52.0290670  19.8227680  36.8736330
  51.1116140  18.6382700  36.6565570  42.2502140  24.4167860  42.4545860
  42.7680810  23.6136120  42.4002750  41.7986160  24.3547000  43.2962690
  47.1371640  25.6834140  37.7273160  47.4787340  26.4276370  37.2316480
  46.3084350  25.9965260  38.0897990  39.7346680  21.3829230  49.3671560
  39.3761620  22.0483080  49.9544900  39.4401240  20.5512780  49.7384180
  42.9359800  21.8413470  52.2511110  42.6359940  21.9870650  51.3538930
  43.7071040  21.2818760  52.1584500  48.2788250  26.6382470  50.2466240
  48.2932790  25.7063430  50.0285150  47.5713350  26.7242230  50.8856010
  53.4125320  20.8222290  36.5164850  53.3289040  21.2536510  35.6661290
  54.1319510  21.2820640  36.9491670  54.4899460  23.2789810  49.5934820
  53.7647650  23.8718590  49.3964210  55.0174920  23.2713350  48.7948190
  54.4412570  27.6764550  39.2446980  53.7988730  27.0220170  39.5190700
  54.0543230  28.0819640  38.4687650  50.0199050  25.0049980  43.0918670
  50.3722870  24.4078110  42.4320040  49.1361380  24.6794210  43.2626920
  46.1062330  25.7647670  40.4989080  46.7933460  26.3116880  40.8796670
  45.3194750  26.3088400  40.5338690  38.2454730  21.3820490  35.9906160
  39.1149580  21.6645290  36.2742080  37.7545050  22.1956360  35.8754970
  45.4089540  22.7693700  40.1114440  45.8652320  23.5798950  40.3374630
  45.0577750  22.4516840  40.9432930  41.3101320  13.1131350  40.5836960
  41.1815950  13.1049250  41.5321880  40.4863340  13.4514440  40.2327970
  48.9854230  26.2832390  46.0584190  49.6276460  25.5825550  46.1716360
  49.5103580  27.0630830  45.8781080  52.8309950  26.5681010  35.7823330
  52.6047530  25.8511450  36.3747970  52.4406150  26.3193450  34.9445080
  50.7591850  27.0827290  49.2620250  51.0948090  27.6693980  49.9398170
  49.8392190  26.9520000  49.4918040  38.3095250  14.8722470  50.0443660
  37.5953770  15.0719390  50.6496270  38.7290290  14.0962040  50.4158460
  52.4126200  24.4852950  37.4437490  52.1247900  24.9465640  38.2315370
  53.2078370  24.0250720  37.7121710  40.2301240  23.1993960  38.1188220
  39.6229190  23.9392860  38.1283520  40.7050590  23.2893320  37.2926420
  49.8034030  17.3644780  47.7945110  50.1714850  16.5439990  48.1224680
  48.9432230  17.4246670  48.2100760  53.1696060  16.3201720  38.6032670
  52.5409220  16.4247390  37.8890900  52.6747980  16.5398500  39.3926550
  45.1380090  18.5987670  40.0190550  44.4296240  19.0674010  40.4604160
  45.4224570  17.9409680  40.6535740  46.7636020  20.0184370  48.0183080
  47.2621270  20.4930190  48.6834930  46.9058970  19.0947890  48.2253110
  49.1695520  15.3238330  41.4586340  49.0463300  15.3424460  40.5095850
  50.1180080  15.3717270  41.5784740  43.3415110  16.9072750  37.3941260
  44.1905640  17.3442900  37.3281450  42.9746380  17.2193010  38.2213320
  53.9702880  16.2352330  48.8611470  53.4676480  16.9757730  49.2005280
  54.7859540  16.6236330  48.5448260  52.2624890  21.4785510  42.3072830
  51.3215030  21.4935740  42.4820520  52.5768960  20.6921470  42.7533130
  42.2406530  23.1605110  35.8676790  43.0069800  23.0486470  36.4302220
  42.3181220  22.4643080  35.2153560  40.9353290  20.5930180  36.5509680
  41.0156880  19.6457690  36.6627080  41.8273040  20.9237060  36.6570340
  54.2650470  28.6494360  43.9827090  54.3897890  29.4725530  44.4550900
  55.1316030  28.4385090  43.6351240  49.5790910  26.0351510  52.7905210
  48.9729070  26.0583110  52.0500960  49.2745020  25.3034550  53.3272460
  53.9000480  29.1426010  36.9006530  53.6141990  28.7291150  36.0860710
  53.7020030  30.0713720  36.7807050  45.3647710  25.1359290  35.3412140
  45.2598350  24.5211640  36.0673520  45.1971930  24.6125180  34.5575150
  45.5162030  23.8216090  51.3201370  44.7507700  24.3901090  51.2356040
  45.6977990  23.5292300  50.4269600  48.6050440  24.1979320  35.9454130
  48.0560540  24.6448620  36.5896870  49.2269700  23.6928570  36.4691800
  52.6585380  25.5521420  51.8776390  53.3994850  25.8897180  51.3743850
  51.8958060  25.7213480  51.3246160  40.4947170  20.5574690  52.6815920
  40.5352510  20.2588560  53.5901150  41.3492670  20.9582300  52.5223440
  44.2725560  23.1570240  37.8419430  44.6941980  22.9910110  38.6850820
  44.3976400  22.3470470  37.3474570  42.4352980  19.1366790  50.6490410
  41.9049440  18.6457740  50.0213750  43.1041050  19.5650990  50.1148340
  46.7853200  22.1807850  35.0896530  47.3058860  21.4656870  34.7237680
  47.4321600  22.8193720  35.3897040  51.3331040  23.6036250  50.4131600
  51.7472060  23.7581330  51.2622020  50.3982040  23.7291470  50.5757380
  51.8053210  20.9432410  52.4170750  52.3873980  20.1884730  52.3291230
  51.9814980  21.4739850  51.6402230  42.9225280  16.1029160  50.7287700
  42.8282150  15.4849910  50.0038570  42.3422670  16.8295450  50.5017610
  45.6886720  14.6602400  47.7615090  45.2404020  14.6826660  46.9160640
  45.0551920  14.2621420  48.3585390  46.0946270  23.5556730  48.3827530
  46.5134380  24.3989460  48.2103770  45.1754900  23.6928770  48.1534310
  48.4310170  21.2872910  49.7665370  48.5506380  20.6914050  50.5060210
  49.2904170  21.3242600  49.3466670  50.7698070  21.8410100  48.3427880
  50.2433290  22.3652720  47.7393020  51.1129410  22.4737490  48.9737610
  43.1684460  19.2303470  34.7877590  42.9673520  18.3670830  35.1490930
  42.9976510  19.1436830  33.8499190  45.1978940  17.8294260  51.0241190
  45.7878630  17.5210110  51.7119010  44.3799180  17.3574010  51.1801090
  50.0172370  17.4460070  51.2574210  49.3287890  16.7841610  51.1924200
  50.7378390  16.9998340  51.7022670  50.6472770  14.0411700  37.3164470
  50.9275060  13.1979600  37.6723890  49.8738500  14.2734810  37.8303220
  41.9667260  16.3304090  34.7755470  42.2693160  16.3371520  33.8674620
  42.7061850  15.9801950  35.2723130  45.1852190  15.2738710  35.7611670
  44.8374190  14.5962700  35.1814120  45.3864960  14.8128220  36.5755060
  54.3295580  28.7923130  50.0864470  53.7297570  28.8515690  49.3428390
  54.4589480  27.8528110  50.2161320  55.5697030  26.5340950  35.4234180
  54.7389990  26.6017600  35.8941410  55.7468860  27.4245070  35.1201040
  55.0253490  23.2788430  37.9268380  55.7872400  23.8485080  38.0328070
  55.0407860  22.7115630  38.6976690  38.5257830  21.8026360  42.1576040
  37.8706670  21.5338000  41.5135740  39.3635780  21.6930840  41.7078020
  56.0313460  24.1338530  42.7710310  56.4022290  23.3505850  42.3646280
  56.6715390  24.8227630  42.5927610  53.0147220  25.5175110  48.1840630
  52.2007060  25.9472270  48.4466420  53.4221420  26.1293520  47.5709680
  55.0772660  23.5722800  35.0840900  55.3521500  24.4801680  34.9560120
  54.8883400  23.5085330  36.0202890  51.4748270  16.5967650  36.3794530
  51.8933150  16.4098630  35.5391190  51.1684330  15.7446700  36.6897460
  54.9738000  21.5091790  40.0770330  54.5981600  20.7419720  39.6451620
  54.2441120  21.8914490  40.5645260  39.5633760  22.1878930  46.6979380
  39.9306800  22.1006330  47.5775400  38.9944580  21.4245480  46.5986240
  54.3637620  20.6563310  49.7109850  54.1323710  20.4276060  48.8107800
  54.6242170  21.5762860  49.6654740  39.1149760  19.0988020  50.6037800
  38.2205810  19.0654780  50.9431510  39.6547310  19.2974810  51.3689050
  52.8025690  15.8819740  52.4889550  53.6795870  15.8903140  52.8723550
  52.8146530  15.1450580  51.8781900  37.7395910  19.0125290  38.1001370
  36.8359990  19.2755490  37.9253030  38.2236530  19.2836460  37.3201330
  54.2488960  19.7349280  43.3777570  54.7726440  19.2411930  42.7467740
  54.8348380  19.8699640  44.1225140  54.4278680  19.8189150  46.8997120
  53.4781390  19.7852690  47.0142110  54.6091690  20.7289260  46.6646890
  40.2823120  18.0690830  36.0095750  40.9914820  17.6474050  35.5243030
  39.5663060  18.1366060  35.3779100  39.9297280  14.1230160  35.0498400
  40.6525410  14.6639100  35.3679620  40.2021800  13.8493580  34.1739940
  53.7388930  18.9922630  39.3169980  54.2348050  18.7593500  40.1018860
  53.5405000  18.1534470  38.9007620  39.6189470  13.3736350  44.9521020
  40.2665660  12.8233730  44.5116180  40.0391310  13.6279500  45.7736830
  55.1676090  17.6283580  41.8507660  55.0575370  17.4739620  42.7889930
  55.9283680  17.1004520  41.6083070  53.5141810  13.5677710  48.3090660
  54.1514030  14.1811850  48.6749850  53.6616700  13.6038370  47.3639890
  56.0566360  15.4591500  35.0913800  56.9815670  15.3272680  34.8832090
  56.0342150  15.5384320  36.0450250  56.1304850  16.2302160  37.7170510
  55.3356350  16.1647280  38.2463420  56.3348130  17.1652800  37.7055860
  39.3721470  13.5292020  47.6946340  39.0236290  13.9855840  48.4604520
  39.0409170  12.6349150  47.7768770  46.8846290  14.7203900  51.2165760
  46.8235180  15.3125730  51.9661170  47.8246670  14.6129860  51.0716020
  49.5220850  14.3773960  50.8558050  50.1361260  14.6953250  50.1939130
  50.0670410  13.8922550  51.4753910  55.9396030  30.2765590  48.2619890
  55.4454310  30.6734460  47.5447020  55.3309320  29.6514800  48.6557170
  40.0442110  13.0568220  50.9697110  40.5925100  12.8756270  50.2063220
  40.1097420  12.2662330  51.5053420  50.2628890  12.9406100  47.1827340
  49.3888730  13.2741210  46.9800270  50.1539640  12.4679280  48.0079210
  51.1700870  15.1476970  48.5669060  50.8414230  14.3328730  48.1870790
  52.1183170  15.1046780  48.4434750  48.0103710  13.8575940  46.1220250
  47.2275500  14.3321440  46.4017010  47.7166640  12.9530770  46.0133430
  52.5624780  14.5599040  44.1669340  53.0032870  14.5044140  43.3190940
  52.2932370  15.4757050  44.2379520  54.4263350  14.1914280  42.1778160
  54.3651750  13.2475500  42.0309180  55.2055380  14.2994370  42.7231620
  39.3544120  14.1623420  38.6433970  40.1123480  14.2752300  38.0698000
  38.8921290  14.9992620  38.5977400  45.8957930  16.2762690  41.6336280
  45.0832440  15.9019580  41.2932160  46.3999570  15.5207770  41.9357470
  50.3982910  12.9405140  42.8719350  51.0012280  13.5125350  43.3467870
  49.6575900  13.5044580  42.6493250  53.5417510  13.3426700  38.1459630
  53.7368140  14.2410150  38.4127060  52.7547380  13.1113780  38.6392580
  41.7269270  14.6887470  37.1835940  42.2562030  13.9017270  37.0543890
  42.3597590  15.3678660  37.4171470  43.9207110  14.4262610  40.2381330
  43.2909850  13.7249920  40.4051460  43.3812250  15.1866740  40.0214490
  55.0944120  30.5827410  39.9066190  55.2696310  29.8965150  39.2627110
  54.3965690  31.1074460  39.5142860  44.0462670  13.7046590  52.6733820
  43.7646940  14.2080190  51.9094640  44.4282370  12.9068340  52.3075950
  50.6478130  13.1200170  53.2514290  50.5343580  13.4394780  54.1465810
  51.4647870  13.5212680  52.9551570  49.5536280  21.1392640  23.6149030
  49.4730330  20.2247250  23.3440740  49.1400700  21.6359710  22.9088740
  47.6854320  22.9171660  25.4958300  46.9096420  22.4372100  25.7856870
  48.3367250  22.2377310  25.3214460  41.7020150  23.2291470  26.3734060
  40.8705030  22.9740180  26.7730570  42.3101130  23.3002240  27.1091980
  51.7061750  27.3231850  24.2757430  51.2443280  26.5519090  24.6044600
  52.5187300  27.3497920  24.7809880  40.1112100  18.1893360  20.1576450
  39.2228800  18.5309330  20.0556330  40.3953290  17.9893680  19.2657280
  38.0745110  20.7899010  26.0416150  38.6461220  20.0221210  26.0419790
  38.0746650  21.0887770  25.1322760  47.9325060  29.6089860  23.8961420
  47.3136500  30.0647360  23.3255860  48.7876840  29.7641320  23.4951120
  47.1263310  25.5928850  25.5028460  47.0571590  24.6518790  25.3417590
  47.8883170  25.6830260  26.0751030  39.3169980  16.1983370  27.8285080
  39.1372820  15.3009120  28.1087840  38.9150060  16.7455240  28.5032030
  48.1568480  18.3999230  25.7297390  48.5333300  17.5271110  25.6171060
  48.0587990  18.7357930  24.8387830  42.2873490  16.7724860  21.1914830
  42.3940240  17.6728590  21.4983590  41.3765850  16.7242830  20.9009480
  51.9392600  15.8949670  22.6625730  52.7602220  15.4046240  22.7051210
  51.9726680  16.4847330  23.4157570  39.9356650  18.6943870  26.4367420
  40.6166760  18.9582240  27.0554820  39.6204700  17.8544740  26.7705430
  44.1281220  19.7411230  25.5240010  44.6359440  20.2392200  26.1645030
  44.6594460  18.9646430  25.3479370  56.2292150  17.9116420  29.2269360
  55.5244320  18.2998130  28.7084470  56.4950070  18.6066710  29.8290290
  42.4117320  14.3809790  29.7903430  42.4135760  14.8982180  28.9849330
  41.5821630  13.9039970  29.7673360  48.7988410  24.4929100  21.2893330
  48.1805680  24.9578550  20.7256050  49.3111660  25.1856580  21.7062840
  43.6620170  24.0204970  27.9676930  43.3289550  24.6473890  28.6098000
  43.8386850  24.5466850  27.1878600  52.1754080  17.8350050  25.4353270
  51.4709650  18.1234940  26.0156380  52.5366240  18.6450160  25.0752830
  42.0932650  16.0919750  27.7973880  42.4349460  16.9361800  27.5027750
  41.1548460  16.2403490  27.9139220  42.8739270  25.9885770  29.7826110
  43.4913270  26.6636850  29.5010560  42.0132390  26.3973750  29.6913610
  38.1671610  25.1785630  18.6632960  37.7899590  25.6672730  17.9317860
  38.4244680  25.8510910  19.2939490  53.7916860  27.4525180  27.6980750
  53.1080380  28.1224290  27.6897420  54.3311150  27.6505830  26.9325610
  55.2441000  17.2804840  25.8262480  54.2965910  17.3143820  25.9577910
  55.5690990  18.0943790  26.2111840  45.7760540  13.5802020  24.1218470
  46.0835520  13.0248910  23.4053970  44.8461240  13.7146480  23.9391460
  51.3275600  29.2969310  26.4125930  51.3402760  28.8931600  25.5448190
  50.7750820  30.0716600  26.3087360  52.6221020  26.0185530  21.5016100
  52.5117350  25.0759860  21.6265520  52.6189270  26.3801170  22.3878860
  50.7261040  24.1999150  27.7408540  51.1429830  23.9859260  26.9062000
  51.4500860  24.4571940  28.3117160  48.1641300  21.6450850  20.8578590
  47.2370580  21.5788230  21.0867060  48.3166120  22.5830980  20.7433830
  48.1510380  17.9167850  17.8545750  47.2114050  18.0781810  17.9398210
  48.4693640  18.6353530  17.3081740  54.6723140  22.5986370  27.8324780
  53.8441770  22.6679460  27.3574910  55.2673620  23.1840680  27.3640610
  52.1938590  23.2071150  21.3613840  51.5751010  22.8690700  20.7140140
  52.1763040  22.5630910  22.0693030  51.6365150  19.3855690  28.7779650
  51.2236330  20.2109400  29.0319640  50.9041100  18.8000730  28.5856010
  43.7697940  22.1715590  23.6398320  43.3654940  21.4592840  23.1444220
  43.8561060  21.8268830  24.5286360  44.2379640  25.8583150  25.8037530
  43.9407930  25.2528620  25.1245310  45.1879460  25.8960460  25.6926890
  42.4826560  18.9458800  27.4197360  43.0341150  19.0554140  26.6450610
  42.9970070  19.3196400  28.1352590  52.3265250  29.4315020  29.4660630
  51.8495810  30.2387210  29.2733240  51.6427040  28.7793350  29.6186840
  43.3298070  25.5964840  32.4545330  42.4326600  25.8204810  32.7018730
  43.3550940  25.7199780  31.5056730  50.3703290  22.4457960  18.3686590
  50.8096570  21.6080390  18.2224410  51.0831710  23.0787360  18.4550730
  42.1569290  22.4678160  31.0302700  42.0177060  23.3400960  31.3990100
  41.2750650  22.1250970  30.8850640  48.4798670  27.3854030  22.3367830
  48.9194580  28.1278360  21.9223220  48.4185560  27.6280600  23.2606790
  53.9520430  13.7000770  16.6827630  53.6393090  13.7927600  17.5826700
  54.7132900  14.2781800  16.6325060  40.4702570  21.0660570  21.1404970
  40.3500170  21.7922660  20.5286240  40.1603460  20.2963480  20.6632880
  55.9064460  29.1926960  34.5352020  56.3824180  29.6709850  35.2141100
  56.5271620  29.1244450  33.8097520  38.1087940  24.2375710  26.9473610
  38.1868360  24.3724480  26.0029330  38.7229620  23.5291600  27.1401730
  39.3535570  25.9375900  23.3579790  38.9463650  26.0790490  22.5033390
  40.2448580  25.6536060  23.1551000  55.3097710  26.3839810  31.6952030
  55.4360770  26.1451690  30.7769210  55.3519090  25.5524350  32.1674110
  51.1468850  30.3723150  19.6930840  50.9869990  30.0826090  20.5912670
  50.9815560  29.5963280  19.1576070  43.6257230  30.1521680  21.4702460
  43.4499710  29.2357220  21.2570260  42.7712970  30.5108970  21.7100260
  50.8494980  27.8810710  18.2528840  50.1560140  27.8788000  17.5931120
  51.5917840  27.4570030  17.8223010  50.4144910  29.5073420  22.3277330
  50.8701860  28.7262800  22.6415950  50.7537430  30.2180240  22.8718510
  55.1621720  18.4372270  32.6601770  54.5465990  18.9451940  32.1317230
  54.8418140  17.5370600  32.6027710  42.9366230  14.4095640  24.5228640
  42.4934380  15.1905180  24.1913160  43.4951220  14.7325530  25.2299580
  47.2236040  17.2764160  30.1263960  46.7615410  17.4847180  30.9383900
  46.8214150  16.4623510  29.8234630  52.2240550  18.4973110  31.2560620
  51.3734140  18.1978860  31.5769690  52.0642340  18.7415120  30.3444440
  49.3190260  19.9974860  33.3559410  49.6443670  19.1638610  33.0161640
  50.1070590  20.5203380  33.5037740  46.0525050  14.0306340  19.4034470
  45.4279230  14.0266210  20.1287780  45.9655170  13.1637300  19.0070440
  44.9742130  14.9542970  26.3818240  45.2714460  15.8605800  26.3010260
  45.5227690  14.4661750  25.7677810  42.7280450  19.5329210  22.2509890
  42.5021370  19.3166380  23.1556510  41.9472980  19.9657670  21.9055860
  49.9578210  19.5392580  20.8500540  49.3587100  20.2628380  20.6664160
  50.5057820  19.4769360  20.0676990  45.1679660  20.4314790  32.9170160
  45.0723260  19.4909520  32.7670560  46.0111640  20.6529860  32.5218230
  48.5643080  18.1756120  22.8803820  48.9572650  18.4928320  22.0672510
  48.9259930  17.2968000  22.9948340  40.2990200  16.8428460  31.0703940
  39.9053590  17.6903670  31.2776720  39.6108600  16.2054830  31.2612580
  46.8735250  16.9263430  34.1400680  46.1833570  16.7335630  34.7746770
  47.6167550  17.2098070  34.6724980  37.6007250  14.7656920  25.1034020
  37.3120300  15.3359780  25.8159000  38.3453010  14.2861370  25.4665250
  37.7877480  18.7077040  16.3136740  37.7052150  19.6507800  16.4551730
  37.4360540  18.5651950  15.4349090  49.1498220  20.7661870  26.9754600
  48.4179340  21.2748680  27.3244700  48.7522560  19.9491850  26.6743380
  45.5875610  17.4416070  25.3807090  45.5911670  17.0006020  24.5311630
  46.4826730  17.7633400  25.4878910  41.4377990  17.3242560  24.3401300
  41.0978040  17.8017790  25.0968350  40.6755310  16.8707680  23.9802400
  45.6495760  18.4428150  18.3713850  45.7708580  18.4014630  19.3199670
  45.2644270  19.3052300  18.2160580  49.6124130  16.2195550  26.3877540
  49.6296870  16.6704200  27.2319390  49.3639710  15.3201190  26.6010980
  44.6617260  20.7529290  17.7697150  44.0934160  20.3047540  17.1433060
  45.3706260  21.1122070  17.2362300  53.0394880  13.6327730  32.2263920
  53.3640650  12.9017390  32.7521900  53.0751390  13.3141370  31.3244910
  39.7386440  24.6541310  31.6463880  39.3541230  24.0134980  32.2446840
  40.0498630  25.3577430  32.2158610  45.8883580  21.5017850  27.1272500
  46.2553710  21.0276420  27.8733840  45.6988640  22.3759420  27.4680840
  38.7524070  16.2461540  23.2565970  38.4670990  15.8817210  24.0944590
  38.6902930  15.5142000  22.6429110  43.6782950  20.5426490  29.4456710
  43.3740020  21.4218470  29.6707070  44.6329410  20.6026280  29.4814150
  42.2064740  24.7487480  20.0423560  41.4327000  24.2085100  19.8822280
  42.9359370  24.2294090  19.7041320  52.9652720  23.7452840  25.8349950
  53.6851840  24.2408130  25.4446060  52.7634540  23.0670730  25.1903820
  48.4262660  15.1390800  19.9779340  47.6127270  14.6403970  19.9024650
  48.2324610  15.9789050  19.5615690  48.3471520  23.8161900  31.7218950
  48.2808830  22.8957570  31.4676540  47.7176660  23.9137340  32.4363590
  51.1411050  19.5110450  18.2741500  52.0290670  19.8227680  18.0992840
  51.1116140  18.6382700  17.8822080  42.2502140  24.4167860  23.6802370
  42.7680810  23.6136120  23.6259260  41.7986160  24.3547000  24.5219200
  47.1371640  25.6834140  18.9529670  47.4787340  26.4276370  18.4572990
  46.3084350  25.9965260  19.3154500  39.7346680  21.3829230  30.5928070
  39.3761620  22.0483080  31.1801410  39.4401240  20.5512780  30.9640690
  42.9359800  21.8413470  33.4767620  42.6359940  21.9870650  32.5795440
  43.7071040  21.2818760  33.3841010  48.2788250  26.6382470  31.4722750
  48.2932790  25.7063430  31.2541660  47.5713350  26.7242230  32.1112520
  53.4125320  20.8222290  17.7421360  53.3289040  21.2536510  16.8917800
  54.1319510  21.2820640  18.1748180  54.4899460  23.2789810  30.8191330
  53.7647650  23.8718590  30.6220720  55.0174920  23.2713350  30.0204700
  54.4412570  27.6764550  20.4703490  53.7988730  27.0220170  20.7447210
  54.0543230  28.0819640  19.6944160  50.0199050  25.0049980  24.3175180
  50.3722870  24.4078110  23.6576550  49.1361380  24.6794210  24.4883430
  46.1062330  25.7647670  21.7245590  46.7933460  26.3116880  22.1053180
  45.3194750  26.3088400  21.7595200  38.2454730  21.3820490  17.2162670
  39.1149580  21.6645290  17.4998590  37.7545050  22.1956360  17.1011480
  45.4089540  22.7693700  21.3370950  45.8652320  23.5798950  21.5631140
  45.0577750  22.4516840  22.1689440  41.3101320  13.1131350  21.8093470
  41.1815950  13.1049250  22.7578390  40.4863340  13.4514440  21.4584480
  48.9854230  26.2832390  27.2840700  49.6276460  25.5825550  27.3972870
  49.5103580  27.0630830  27.1037590  52.8309950  26.5681010  17.0079840
  52.6047530  25.8511450  17.6004480  52.4406150  26.3193450  16.1701590
  50.7591850  27.0827290  30.4876760  51.0948090  27.6693980  31.1654680
  49.8392190  26.9520000  30.7174550  38.6125980  30.5947870  17.7824300
  38.9723620  31.1937210  17.1281570  38.4718320  31.1407760  18.5559330
  38.3095250  14.8722470  31.2700170  37.5953770  15.0719390  31.8752780
  38.7290290  14.0962040  31.6414970  52.4126200  24.4852950  18.6694000
  52.1247900  24.9465640  19.4571880  53.2078370  24.0250720  18.9378220
  46.5880430  27.1318620  33.6564820  46.2677300  26.4127860  34.2010510
  45.9138790  27.8073690  33.7300880  44.6294600  27.9779070  18.5997970
  44.6204700  28.7108760  17.9842480  43.7092960  27.7310650  18.6924930
  40.2301240  23.1993960  19.3444730  39.6229190  23.9392860  19.3540030
  40.7050590  23.2893320  18.5182930  49.8034030  17.3644780  29.0201620
  50.1714850  16.5439990  29.3481190  48.9432230  17.4246670  29.4357270
  53.1696060  16.3201720  19.8289180  52.5409220  16.4247390  19.1147410
  52.6747980  16.5398500  20.6183060  47.6154200  28.0407310  17.2623160
  47.7166180  27.8371300  16.3325140  46.7155940  27.7865590  17.4670940
  45.1380090  18.5987670  21.2447060  44.4296240  19.0674010  21.6860670
  45.4224570  17.9409680  21.8792250  46.7636020  20.0184370  29.2439590
  47.2621270  20.4930190  29.9091440  46.9058970  19.0947890  29.4509620
  49.1695520  15.3238330  22.6842850  49.0463300  15.3424460  21.7352360
  50.1180080  15.3717270  22.8041250  46.2572310  30.5593630  21.9570830
  46.5113810  30.5215020  21.0350200  45.3084790  30.4326960  21.9499080
  43.3415110  16.9072750  18.6197770  44.1905640  17.3442900  18.5537960
  42.9746380  17.2193010  19.4469830  53.9702880  16.2352330  30.0867980
  53.4676480  16.9757730  30.4261790  54.7859540  16.6236330  29.7704770
  52.2624890  21.4785510  23.5329340  51.3215030  21.4935740  23.7077030
  52.5768960  20.6921470  23.9789640  42.2406530  23.1605110  17.0933300
  43.0069800  23.0486470  17.6558730  42.3181220  22.4643080  16.4410070
  40.9353290  20.5930180  17.7766190  41.0156880  19.6457690  17.8883590
  41.8273040  20.9237060  17.8826850  54.2650470  28.6494360  25.2083600
  54.3897890  29.4725530  25.6807410  55.1316030  28.4385090  24.8607750
  38.6213480  26.8099140  20.7542240  37.6953260  27.0520280  20.7447650
  39.0869910  27.6373400  20.6326990  44.8470310  29.9155880  16.7026300
  45.6398920  30.2044710  16.2508090  44.3274660  29.4848050  16.0238780
  49.5790910  26.0351510  34.0161720  48.9729070  26.0583110  33.2757470
  49.2745020  25.3034550  34.5528970  53.9000480  29.1426010  18.1263040
  53.6141990  28.7291150  17.3117220  53.7020030  30.0713720  18.0063560
  38.4624090  22.4145100  33.0122360  38.9663110  21.8352380  33.5838590
  37.7231510  22.6985330  33.5498730  45.3647710  25.1359290  16.5668650
  45.2598350  24.5211640  17.2930030  45.1971930  24.6125180  15.7831660
  45.5162030  23.8216090  32.5457880  44.7507700  24.3901090  32.4612550
  45.6977990  23.5292300  31.6526110  48.6050440  24.1979320  17.1710640
  48.0560540  24.6448620  17.8153380  49.2269700  23.6928570  17.6948310
  52.6585380  25.5521420  33.1032900  53.3994850  25.8897180  32.6000360
  51.8958060  25.7213480  32.5502670  40.4947170  20.5574690  33.9072430
  40.5352510  20.2588560  34.8157660  41.3492670  20.9582300  33.7479950
  44.2725560  23.1570240  19.0675940  44.6941980  22.9910110  19.9107330
  44.3976400  22.3470470  18.5731080  42.4352980  19.1366790  31.8746920
  41.9049440  18.6457740  31.2470260  43.1041050  19.5650990  31.3404850
  46.7853200  22.1807850  16.3153040  47.3058860  21.4656870  15.9494190
  47.4321600  22.8193720  16.6153550  51.3331040  23.6036250  31.6388110
  51.7472060  23.7581330  32.4878530  50.3982040  23.7291470  31.8013890
  51.8053210  20.9432410  33.6427260  52.3873980  20.1884730  33.5547740
  51.9814980  21.4739850  32.8658740  42.9225280  16.1029160  31.9544210
  42.8282150  15.4849910  31.2295080  42.3422670  16.8295450  31.7274120
  45.6886720  14.6602400  28.9871600  45.2404020  14.6826660  28.1417150
  45.0551920  14.2621420  29.5841900  46.0946270  23.5556730  29.6084040
  46.5134380  24.3989460  29.4360280  45.1754900  23.6928770  29.3790820
  48.4310170  21.2872910  30.9921880  48.5506380  20.6914050  31.7316720
  49.2904170  21.3242600  30.5723180  50.7698070  21.8410100  29.5684390
  50.2433290  22.3652720  28.9649530  51.1129410  22.4737490  30.1994120
  43.1684460  19.2303470  16.0134100  42.9673520  18.3670830  16.3747440
  42.9976510  19.1436830  15.0755700  45.1978940  17.8294260  32.2497700
  45.7878630  17.5210110  32.9375520  44.3799180  17.3574010  32.4057600
  50.0172370  17.4460070  32.4830720  49.3287890  16.7841610  32.4180710
  50.7378390  16.9998340  32.9279180  50.6472770  14.0411700  18.5420980
  50.9275060  13.1979600  18.8980400  49.8738500  14.2734810  19.0559730
  41.9667260  16.3304090  16.0011980  42.2693160  16.3371520  15.0931130
  42.7061850  15.9801950  16.4979640  45.1852190  15.2738710  16.9868180
  44.8374190  14.5962700  16.4070630  45.3864960  14.8128220  17.8011570
  47.3501230  30.2619460  18.6054780  48.2452020  30.6004430  18.6273540
  47.3818860  29.5398870  17.9779060  40.9897390  25.6346510  16.8341780
  41.4272260  26.1776180  17.4899360  41.4745120  24.8093460  16.8438120
  42.8005110  26.7544550  21.9464010  42.5000650  26.6309520  22.8467920
  42.6942600  25.8953140  21.5379740  54.3295580  28.7923130  31.3120980
  53.7297570  28.8515690  30.5684900  54.4589480  27.8528110  31.4417830
  55.5697030  26.5340950  16.6490690  54.7389990  26.6017600  17.1197920
  55.7468860  27.4245070  16.3457550  55.0253490  23.2788430  19.1524890
  55.7872400  23.8485080  19.2584580  55.0407860  22.7115630  19.9233200
  38.5257830  21.8026360  23.3832550  37.8706670  21.5338000  22.7392250
  39.3635780  21.6930840  22.9334530  56.0313460  24.1338530  23.9966820
  56.4022290  23.3505850  23.5902790  56.6715390  24.8227630  23.8184120
  53.0147220  25.5175110  29.4097140  52.2007060  25.9472270  29.6722930
  53.4221420  26.1293520  28.7966190  55.0772660  23.5722800  16.3097410
  55.3521500  24.4801680  16.1816630  54.8883400  23.5085330  17.2459400
  51.4748270  16.5967650  17.6051040  51.8933150  16.4098630  16.7647700
  51.1684330  15.7446700  17.9153970  54.9738000  21.5091790  21.3026840
  54.5981600  20.7419720  20.8708130  54.2441120  21.8914490  21.7901770
  39.5633760  22.1878930  27.9235890  39.9306800  22.1006330  28.8031910
  38.9944580  21.4245480  27.8242750  54.3637620  20.6563310  30.9366360
  54.1323710  20.4276060  30.0364310  54.6242170  21.5762860  30.8911250
  39.1149760  19.0988020  31.8294310  38.2205810  19.0654780  32.1688020
  39.6547310  19.2974810  32.5945560  52.8025690  15.8819740  33.7146060
  53.6795870  15.8903140  34.0980060  52.8146530  15.1450580  33.1038410
  37.7395910  19.0125290  19.3257880  36.8359990  19.2755490  19.1509540
  38.2236530  19.2836460  18.5457840  54.2488960  19.7349280  24.6034080
  54.7726440  19.2411930  23.9724250  54.8348380  19.8699640  25.3481650
  54.4278680  19.8189150  28.1253630  53.4781390  19.7852690  28.2398620
  54.6091690  20.7289260  27.8903400  40.2823120  18.0690830  17.2352260
  40.9914820  17.6474050  16.7499540  39.5663060  18.1366060  16.6035610
  39.9297280  14.1230160  16.2754910  40.6525410  14.6639100  16.5936130
  40.2021800  13.8493580  15.3996450  53.7388930  18.9922630  20.5426490
  54.2348050  18.7593500  21.3275370  53.5405000  18.1534470  20.1264130
  39.6189470  13.3736350  26.1777530  40.2665660  12.8233730  25.7372690
  40.0391310  13.6279500  26.9993340  55.1676090  17.6283580  23.0764170
  55.0575370  17.4739620  24.0146440  55.9283680  17.1004520  22.8339580
  53.5141810  13.5677710  29.5347170  54.1514030  14.1811850  29.9006360
  53.6616700  13.6038370  28.5896400  56.0566360  15.4591500  16.3170310
  56.9815670  15.3272680  16.1088600  56.0342150  15.5384320  17.2706760
  56.1304850  16.2302160  18.9427020  55.3356350  16.1647280  19.4719930
  56.3348130  17.1652800  18.9312370  53.0723270  30.2693710  22.9365410
  53.6682340  29.9478280  22.2599830  53.3301420  29.7965530  23.7278680
  39.3721470  13.5292020  28.9202850  39.0236290  13.9855840  29.6861030
  39.0409170  12.6349150  29.0025280  46.8846290  14.7203900  32.4422270
  46.8235180  15.3125730  33.1917680  47.8246670  14.6129860  32.2972530
  49.5220850  14.3773960  32.0814560  50.1361260  14.6953250  31.4195640
  50.0670410  13.8922550  32.7010420  55.9396030  30.2765590  29.4876400
  55.4454310  30.6734460  28.7703530  55.3309320  29.6514800  29.8813680
  40.0442110  13.0568220  32.1953620  40.5925100  12.8756270  31.4319730
  40.1097420  12.2662330  32.7309930  50.2628890  12.9406100  28.4083850
  49.3888730  13.2741210  28.2056780  50.1539640  12.4679280  29.2335720
  51.1700870  15.1476970  29.7925570  50.8414230  14.3328730  29.4127300
  52.1183170  15.1046780  29.6691260  53.6235480  30.9189010  26.7663140
  53.1638450  31.6704820  26.3921160  52.9947940  30.1995480  26.7077940
  48.0103710  13.8575940  27.3476760  47.2275500  14.3321440  27.6273520
  47.7166640  12.9530770  27.2389940  52.5624780  14.5599040  25.3925850
  53.0032870  14.5044140  24.5447450  52.2932370  15.4757050  25.4636030
  54.4263350  14.1914280  23.4034670  54.3651750  13.2475500  23.2565690
  55.2055380  14.2994370  23.9488130  38.7316100  30.3306640  22.3658620
  38.5638140  29.6977320  23.0640510  37.8650610  30.5366040  22.0152810
  39.3544120  14.1623420  19.8690480  40.1123480  14.2752300  19.2954510
  38.8921290  14.9992620  19.8233910  45.8957930  16.2762690  22.8592790
  45.0832440  15.9019580  22.5188670  46.3999570  15.5207770  23.1613980
  50.3982910  12.9405140  24.0975860  51.0012280  13.5125350  24.5724380
  49.6575900  13.5044580  23.8749760  53.5417510  13.3426700  19.3716140
  53.7368140  14.2410150  19.6383570  52.7547380  13.1113780  19.8649090
  40.3378800  29.0239870  19.8108760  39.8126420  29.4047900  19.1070720
  40.2623380  29.6490640  20.5318470  41.7269270  14.6887470  18.4092450
  42.2562030  13.9017270  18.2800400  42.3597590  15.3678660  18.6427980
  43.9207110  14.4262610  21.4637840  43.2909850  13.7249920  21.6307970
  43.3812250  15.1866740  21.2471000  55.0944120  30.5827410  21.1322700
  55.2696310  29.8965150  20.4883620  54.3965690  31.1074460  20.7399370
  44.0462670  13.7046590  33.8990330  43.7646940  14.2080190  33.1351150
  44.4282370  12.9068340  33.5332460  42.9371770  30.9722250  18.6858010
  43.6690590  30.6881530  18.1381900  43.1965440  30.7335530  19.5757390
  42.0986560  27.0886980  18.6904340  41.4695440  27.5572080  19.2390170
  42.2134390  26.2436200  19.1250530  50.6478130  13.1200170  34.4770800
  50.5343580  13.4394780  35.3722320  51.4647870  13.5212680  34.1808080
  53.4276620  30.2671700  33.9589490  54.2201940  29.7720930  33.7515450
  53.7209770  30.9461840  34.5665100  49.5536280  21.1392640   4.8405540
  49.4730330  20.2247250   4.5697250  49.1400700  21.6359710   4.1345250
  47.6854320  22.9171660   6.7214810  46.9096420  22.4372100   7.0113380
  48.3367250  22.2377310   6.5470970  41.7020150  23.2291470   7.5990570
  40.8705030  22.9740180   7.9987080  42.3101130  23.3002240   8.3348490
  51.7061750  27.3231850   5.5013940  51.2443280  26.5519090   5.8301110
  52.5187300  27.3497920   6.0066390  41.6821410  27.2631560   7.7948590
  41.9849450  26.3729300   7.6158810  42.4265000  27.8201780   7.5670840
  38.0745110  20.7899010   7.2672660  38.6461220  20.0221210   7.2676300
  38.0746650  21.0887770   6.3579270  47.9325060  29.6089860   5.1217930
  47.3136500  30.0647360   4.5512370  48.7876840  29.7641320   4.7207630
  47.1263310  25.5928850   6.7284970  47.0571590  24.6518790   6.5674100
  47.8883170  25.6830260   7.3007540  39.3169980  16.1983370   9.0541590
  39.1372820  15.3009120   9.3344350  38.9150060  16.7455240   9.7288540
  48.1568480  18.3999230   6.9553900  48.5333300  17.5271110   6.8427570
  48.0587990  18.7357930   6.0644340  42.2873490  16.7724860   2.4171340
  42.3940240  17.6728590   2.7240100  41.3765850  16.7242830   2.1265990
  51.9392600  15.8949670   3.8882240  52.7602220  15.4046240   3.9307720
  51.9726680  16.4847330   4.6414080  39.9356650  18.6943870   7.6623930
  40.6166760  18.9582240   8.2811330  39.6204700  17.8544740   7.9961940
  44.1281220  19.7411230   6.7496520  44.6359440  20.2392200   7.3901540
  44.6594460  18.9646430   6.5735880  56.2292150  17.9116420  10.4525870
  55.5244320  18.2998130   9.9340980  56.4950070  18.6066710  11.0546800
  42.4117320  14.3809790  11.0159940  42.4135760  14.8982180  10.2105840
  41.5821630  13.9039970  10.9929870  48.7988410  24.4929100   2.5149840
  48.1805680  24.9578550   1.9512560  49.3111660  25.1856580   2.9319350
  43.6620170  24.0204970   9.1933440  43.3289550  24.6473890   9.8354510
  43.8386850  24.5466850   8.4135110  52.1754080  17.8350050   6.6609780
  51.4709650  18.1234940   7.2412890  52.5366240  18.6450160   6.3009340
  42.0932650  16.0919750   9.0230390  42.4349460  16.9361800   8.7284260
  41.1548460  16.2403490   9.1395730  42.8739270  25.9885770  11.0082620
  43.4913270  26.6636850  10.7267070  42.0132390  26.3973750  10.9170120
  53.7916860  27.4525180   8.9237260  53.1080380  28.1224290   8.9153930
  54.3311150  27.6505830   8.1582120  55.2441000  17.2804840   7.0518990
  54.2965910  17.3143820   7.1834420  55.5690990  18.0943790   7.4368350
  45.7760540  13.5802020   5.3474980  46.0835520  13.0248910   4.6310480
  44.8461240  13.7146480   5.1647970  51.3275600  29.2969310   7.6382440
  51.3402760  28.8931600   6.7704700  50.7750820  30.0716600   7.5343870
  52.6221020  26.0185530   2.7272610  52.5117350  25.0759860   2.8522030
  52.6189270  26.3801170   3.6135370  50.7261040  24.1999150   8.9665050
  51.1429830  23.9859260   8.1318510  51.4500860  24.4571940   9.5373670
  48.1641300  21.6450850   2.0835100  47.2370580  21.5788230   2.3123570
  48.3166120  22.5830980   1.9690340  54.6723140  22.5986370   9.0581290
  53.8441770  22.6679460   8.5831420  55.2673620  23.1840680   8.5897120
  52.1938590  23.2071150   2.5870350  51.5751010  22.8690700   1.9396650
  52.1763040  22.5630910   3.2949540  51.6365150  19.3855690  10.0036160
  51.2236330  20.2109400  10.2576150  50.9041100  18.8000730   9.8112520
  43.7697940  22.1715590   4.8654830  43.3654940  21.4592840   4.3700730
  43.8561060  21.8268830   5.7542870  44.2379640  25.8583150   7.0294040
  43.9407930  25.2528620   6.3501820  45.1879460  25.8960460   6.9183400
  42.4826560  18.9458800   8.6453870  43.0341150  19.0554140   7.8707120
  42.9970070  19.3196400   9.3609100  52.3265250  29.4315020  10.6917140
  51.8495810  30.2387210  10.4989750  51.6427040  28.7793350  10.8443350
  43.3298070  25.5964840  13.6801840  42.4326600  25.8204810  13.9275240
  43.3550940  25.7199780  12.7313240  42.1569290  22.4678160  12.2559210
  42.0177060  23.3400960  12.6246610  41.2750650  22.1250970  12.1107150
  48.4798670  27.3854030   3.5624340  48.9194580  28.1278360   3.1479730
  48.4185560  27.6280600   4.4863300  43.9549640  28.4099860  14.4644360
  43.9265070  28.8142810  13.5972790  43.7914610  27.4810220  14.3015960
  40.4702570  21.0660570   2.3661480  40.3500170  21.7922660   1.7542750
  40.1603460  20.2963480   1.8889390  55.9064460  29.1926960  15.7608530
  56.3824180  29.6709850  16.4397610  56.5271620  29.1244450  15.0354030
  38.1087940  24.2375710   8.1730120  38.1868360  24.3724480   7.2285840
  38.7229620  23.5291600   8.3658240  39.3535570  25.9375900   4.5836300
  38.9463650  26.0790490   3.7289900  40.2448580  25.6536060   4.3807510
  55.3097710  26.3839810  12.9208540  55.4360770  26.1451690  12.0025720
  55.3519090  25.5524350  13.3930620  49.1714450  30.0867810  11.4903350
  49.6859120  29.9975820  12.2925780  48.3283530  30.4327510  11.7831260
  43.6257230  30.1521680   2.6958970  43.4499710  29.2357220   2.4826770
  42.7712970  30.5108970   2.9356770  50.4144910  29.5073420   3.5533840
  50.8701860  28.7262800   3.8672460  50.7537430  30.2180240   4.0975020
  55.1621720  18.4372270  13.8858280  54.5465990  18.9451940  13.3573740
  54.8418140  17.5370600  13.8284220  38.1647460  25.2789880  10.7124580
  38.3278500  24.8095240   9.8943950  38.6299910  24.7713440  11.3773420
  42.9366230  14.4095640   5.7485150  42.4934380  15.1905180   5.4169670
  43.4951220  14.7325530   6.4556090  47.2236040  17.2764160  11.3520470
  46.7615410  17.4847180  12.1640410  46.8214150  16.4623510  11.0491140
  52.2240550  18.4973110  12.4817130  51.3734140  18.1978860  12.8026200
  52.0642340  18.7415120  11.5700950  49.3190260  19.9974860  14.5815920
  49.6443670  19.1638610  14.2418150  50.1070590  20.5203380  14.7294250
  44.9742130  14.9542970   7.6074750  45.2714460  15.8605800   7.5266770
  45.5227690  14.4661750   6.9934320  42.7280450  19.5329210   3.4766400
  42.5021370  19.3166380   4.3813020  41.9472980  19.9657670   3.1312370
  49.9578210  19.5392580   2.0757050  49.3587100  20.2628380   1.8920670
  50.5057820  19.4769360   1.2933500  45.1679660  20.4314790  14.1426670
  45.0723260  19.4909520  13.9927070  46.0111640  20.6529860  13.7474740
  48.5643080  18.1756120   4.1060330  48.9572650  18.4928320   3.2929020
  48.9259930  17.2968000   4.2204850  40.2990200  16.8428460  12.2960450
  39.9053590  17.6903670  12.5033230  39.6108600  16.2054830  12.4869090
  46.8735250  16.9263430  15.3657190  46.1833570  16.7335630  16.0003280
  47.6167550  17.2098070  15.8981490  37.6007250  14.7656920   6.3290530
  37.3120300  15.3359780   7.0415510  38.3453010  14.2861370   6.6921760
  49.1498220  20.7661870   8.2011110  48.4179340  21.2748680   8.5501210
  48.7522560  19.9491850   7.8999890  45.5875610  17.4416070   6.6063600
  45.5911670  17.0006020   5.7568140  46.4826730  17.7633400   6.7135420
  41.4377990  17.3242560   5.5657810  41.0978040  17.8017790   6.3224860
  40.6755310  16.8707680   5.2058910  49.6124130  16.2195550   7.6134050
  49.6296870  16.6704200   8.4575900  49.3639710  15.3201190   7.8267490
  53.0394880  13.6327730  13.4520430  53.3640650  12.9017390  13.9778410
  53.0751390  13.3141370  12.5501420  39.7386440  24.6541310  12.8720390
  39.3541230  24.0134980  13.4703350  40.0498630  25.3577430  13.4415120
  45.8883580  21.5017850   8.3529010  46.2553710  21.0276420   9.0990350
  45.6988640  22.3759420   8.6937350  38.7524070  16.2461540   4.4822480
  38.4670990  15.8817210   5.3201100  38.6902930  15.5142000   3.8685620
  43.6782950  20.5426490  10.6713220  43.3740020  21.4218470  10.8963580
  44.6329410  20.6026280  10.7070660  52.9652720  23.7452840   7.0606460
  53.6851840  24.2408130   6.6702570  52.7634540  23.0670730   6.4160330
  48.3471520  23.8161900  12.9475460  48.2808830  22.8957570  12.6933050
  47.7176660  23.9137340  13.6620100  42.2502140  24.4167860   4.9058880
  42.7680810  23.6136120   4.8515770  41.7986160  24.3547000   5.7475710
  39.7346680  21.3829230  11.8184580  39.3761620  22.0483080  12.4057920
  39.4401240  20.5512780  12.1897200  42.9359800  21.8413470  14.7024130
  42.6359940  21.9870650  13.8051950  43.7071040  21.2818760  14.6097520
  48.2788250  26.6382470  12.6979260  48.2932790  25.7063430  12.4798170
  47.5713350  26.7242230  13.3369030  54.4899460  23.2789810  12.0447840
  53.7647650  23.8718590  11.8477230  55.0174920  23.2713350  11.2461210
  50.0199050  25.0049980   5.5431690  50.3722870  24.4078110   4.8833060
  49.1361380  24.6794210   5.7139940  46.1062330  25.7647670   2.9502100
  46.7933460  26.3116880   3.3309690  45.3194750  26.3088400   2.9851710
  45.4089540  22.7693700   2.5627460  45.8652320  23.5798950   2.7887650
  45.0577750  22.4516840   3.3945950  47.7122150  28.2800040   9.7919760
  48.3564370  28.4859420  10.4693180  48.0751590  27.5188440   9.3390610
  41.3101320  13.1131350   3.0349980  41.1815950  13.1049250   3.9834900
  40.4863340  13.4514440   2.6840990  48.9854230  26.2832390   8.5097210
  49.6276460  25.5825550   8.6229380  49.5103580  27.0630830   8.3294100
  50.7591850  27.0827290  11.7133270  51.0948090  27.6693980  12.3911190
  49.8392190  26.9520000  11.9431060  38.3095250  14.8722470  12.4956680
  37.5953770  15.0719390  13.1009290  38.7290290  14.0962040  12.8671480
  38.5967840  28.8602730  13.4823210  38.7058960  27.9197470  13.3418600
  37.9448400  29.1257480  12.8336940  46.5880430  27.1318620  14.8821330
  46.2677300  26.4127860  15.4267020  45.9138790  27.8073690  14.9557390
  49.8034030  17.3644780  10.2458130  50.1714850  16.5439990  10.5737700
  48.9432230  17.4246670  10.6613780  45.1380090  18.5987670   2.4703570
  44.4296240  19.0674010   2.9117180  45.4224570  17.9409680   3.1048760
  46.7636020  20.0184370  10.4696100  47.2621270  20.4930190  11.1347950
  46.9058970  19.0947890  10.6766130  49.1695520  15.3238330   3.9099360
  49.0463300  15.3424460   2.9608870  50.1180080  15.3717270   4.0297760
  46.2572310  30.5593630   3.1827340  46.5113810  30.5215020   2.2606710
  45.3084790  30.4326960   3.1755590  53.9702880  16.2352330  11.3124490
  53.4676480  16.9757730  11.6518300  54.7859540  16.6236330  10.9961280
  52.2624890  21.4785510   4.7585850  51.3215030  21.4935740   4.9333540
  52.5768960  20.6921470   5.2046150  54.2650470  28.6494360   6.4340110
  54.3897890  29.4725530   6.9063920  55.1316030  28.4385090   6.0864260
  41.7368000  30.7425570   6.1057240  42.4730480  30.1941030   6.3765810
  42.1208920  31.6081580   5.9663230  38.6213480  26.8099140   1.9798750
  37.6953260  27.0520280   1.9704160  39.0869910  27.6373400   1.8583500
  40.7426280  29.9271640  15.2942820  41.5439010  30.2483690  15.7078220
  40.2278100  29.5667220  16.0162730  49.5790910  26.0351510  15.2418230
  48.9729070  26.0583110  14.5013980  49.2745020  25.3034550  15.7785480
  51.0091280  29.7631800  13.8527640  51.9613030  29.6789820  13.8027880
  50.8619500  30.4273510  14.5261430  38.4624090  22.4145100  14.2378870
  38.9663110  21.8352380  14.8095100  37.7231510  22.6985330  14.7755240
  45.5162030  23.8216090  13.7714390  44.7507700  24.3901090  13.6869060
  45.6977990  23.5292300  12.8782620  52.6585380  25.5521420  14.3289410
  53.3994850  25.8897180  13.8256870  51.8958060  25.7213480  13.7759180
  40.4947170  20.5574690  15.1328940  40.5352510  20.2588560  16.0414170
  41.3492670  20.9582300  14.9736460  42.4352980  19.1366790  13.1003430
  41.9049440  18.6457740  12.4726770  43.1041050  19.5650990  12.5661360
  51.3331040  23.6036250  12.8644620  51.7472060  23.7581330  13.7135040
  50.3982040  23.7291470  13.0270400  51.8053210  20.9432410  14.8683770
  52.3873980  20.1884730  14.7804250  51.9814980  21.4739850  14.0915250
  42.9225280  16.1029160  13.1800720  42.8282150  15.4849910  12.4551590
  42.3422670  16.8295450  12.9530630  45.6886720  14.6602400  10.2128110
  45.2404020  14.6826660   9.3673660  45.0551920  14.2621420  10.8098410
  46.0946270  23.5556730  10.8340550  46.5134380  24.3989460  10.6616790
  45.1754900  23.6928770  10.6047330  48.4310170  21.2872910  12.2178390
  48.5506380  20.6914050  12.9573230  49.2904170  21.3242600  11.7979690
  50.7698070  21.8410100  10.7940900  50.2433290  22.3652720  10.1906040
  51.1129410  22.4737490  11.4250630  43.9453690  29.8609740  11.9498280
  43.4074780  30.5855800  11.6306980  44.1987650  29.3840080  11.1595620
  45.1978940  17.8294260  13.4754210  45.7878630  17.5210110  14.1632030
  44.3799180  17.3574010  13.6314110  50.0172370  17.4460070  13.7087230
  49.3287890  16.7841610  13.6437220  50.7378390  16.9998340  14.1535690
  46.8015900  31.0960950  12.2084930  46.7274600  31.9996090  12.5157300
  45.8994740  30.7772850  12.1807000  38.2043190  28.4235540   5.5118550
  38.5346200  27.5556600   5.2797190  38.6334190  28.6294060   6.3423510
  42.8005110  26.7544550   3.1720520  42.5000650  26.6309520   4.0724430
  42.6942600  25.8953140   2.7636250  38.6933400  29.2906130   8.2500180
  38.2564390  29.4706930   9.0824330  39.2611080  30.0480750   8.1081900
  54.3295580  28.7923130  12.5377490  53.7297570  28.8515690  11.7941410
  54.4589480  27.8528110  12.6674340  38.5257830  21.8026360   4.6089060
  37.8706670  21.5338000   3.9648760  39.3635780  21.6930840   4.1591040
  56.0313460  24.1338530   5.2223330  56.4022290  23.3505850   4.8159300
  56.6715390  24.8227630   5.0440630  53.0147220  25.5175110  10.6353650
  52.2007060  25.9472270  10.8979440  53.4221420  26.1293520  10.0222700
  54.9738000  21.5091790   2.5283350  54.5981600  20.7419720   2.0964640
  54.2441120  21.8914490   3.0158280  39.5633760  22.1878930   9.1492400
  39.9306800  22.1006330  10.0288420  38.9944580  21.4245480   9.0499260
  54.3637620  20.6563310  12.1622870  54.1323710  20.4276060  11.2620820
  54.6242170  21.5762860  12.1167760  39.1149760  19.0988020  13.0550820
  38.2205810  19.0654780  13.3944530  39.6547310  19.2974810  13.8202070
  52.8025690  15.8819740  14.9402570  53.6795870  15.8903140  15.3236570
  52.8146530  15.1450580  14.3294920  54.2488960  19.7349280   5.8290590
  54.7726440  19.2411930   5.1980760  54.8348380  19.8699640   6.5738160
  54.4278680  19.8189150   9.3510140  53.4781390  19.7852690   9.4655130
  54.6091690  20.7289260   9.1159910  53.7388930  18.9922630   1.7683000
  54.2348050  18.7593500   2.5531880  53.5405000  18.1534470   1.3520640
  39.6189470  13.3736350   7.4034040  40.2665660  12.8233730   6.9629200
  40.0391310  13.6279500   8.2249850  55.1676090  17.6283580   4.3020680
  55.0575370  17.4739620   5.2402950  55.9283680  17.1004520   4.0596090
  53.5141810  13.5677710  10.7603680  54.1514030  14.1811850  11.1262870
  53.6616700  13.6038370   9.8152910  53.0723270  30.2693710   4.1621920
  53.6682340  29.9478280   3.4856340  53.3301420  29.7965530   4.9535190
  39.3721470  13.5292020  10.1459360  39.0236290  13.9855840  10.9117540
  39.0409170  12.6349150  10.2281790  40.9785840  26.7011620  14.3112550
  40.9355470  26.3304530  15.1927010  41.1096850  27.6389190  14.4514370
  44.6791870  28.2571210   9.9122270  44.4383230  28.5245770   9.0252790
  45.6194510  28.4276940   9.9673130  46.8846290  14.7203900  13.6678780
  46.8235180  15.3125730  14.4174190  47.8246670  14.6129860  13.5229040
  49.5220850  14.3773960  13.3071070  50.1361260  14.6953250  12.6452150
  50.0670410  13.8922550  13.9266930  55.9396030  30.2765590  10.7132910
  55.4454310  30.6734460   9.9960040  55.3309320  29.6514800  11.1070190
  40.0442110  13.0568220  13.4210130  40.5925100  12.8756270  12.6576240
  40.1097420  12.2662330  13.9566440  40.8173870  29.6473870  11.4310330
  40.2234190  29.5158570  12.1700370  40.8097710  28.8112010  10.9652430
  50.2628890  12.9406100   9.6340360  49.3888730  13.2741210   9.4313290
  50.1539640  12.4679280  10.4592230  51.1700870  15.1476970  11.0182080
  50.8414230  14.3328730  10.6383810  52.1183170  15.1046780  10.8947770
  53.6235480  30.9189010   7.9919650  53.1638450  31.6704820   7.6177670
  52.9947940  30.1995480   7.9334450  40.4486100  27.0132250  10.3818370
  39.7220160  26.3937540  10.3144320  40.5095250  27.4072860   9.5116450
  44.0531200  29.2277250   7.1667780  44.5696220  28.6164610   6.6416040
  44.7028580  29.7306030   7.6578790  46.7926700  30.1185740   7.9936760
  47.0804510  29.8640040   7.1169770  47.3049920  29.5663100   8.5842330
  48.0103710  13.8575940   8.5733270  47.2275500  14.3321440   8.8530030
  47.7166640  12.9530770   8.4646450  52.5624780  14.5599040   6.6182360
  53.0032870  14.5044140   5.7703960  52.2932370  15.4757050   6.6892540
  54.4263350  14.1914280   4.6291180  54.3651750  13.2475500   4.4822200
  55.2055380  14.2994370   5.1744640  38.7316100  30.3306640   3.5915130
  38.5638140  29.6977320   4.2897020  37.8650610  30.5366040   3.2409320
  45.8957930  16.2762690   4.0849300  45.0832440  15.9019580   3.7445180
  46.3999570  15.5207770   4.3870490  50.3982910  12.9405140   5.3232370
  51.0012280  13.5125350   5.7980890  49.6575900  13.5044580   5.1006270
  43.9207110  14.4262610   2.6894350  43.2909850  13.7249920   2.8564480
  43.3812250  15.1866740   2.4727510  46.8599060  31.0401840  15.3604960
  47.7866370  30.8046110  15.4040920  46.8449490  31.8673840  14.8790990
  55.0944120  30.5827410   2.3579210  55.2696310  29.8965150   1.7140130
  54.3965690  31.1074460   1.9655880  44.0462670  13.7046590  15.1246840
  43.7646940  14.2080190  14.3607660  44.4282370  12.9068340  14.7588970
  50.6478130  13.1200170  15.7027310  50.5343580  13.4394780  16.5978830
  51.4647870  13.5212680  15.4064590  53.4276620  30.2671700  15.1846000
  54.2201940  29.7720930  14.9771960  53.7209770  30.9461840  15.7921610
  47.6854320   4.1428170  81.8188770  46.9096420   3.6628610  82.1087340
  48.3367250   3.4633820  81.6444930  41.7020150   4.4547980  82.6964530
  40.8705030   4.1996690  83.0961040  42.3101130   4.5258750  83.4322450
  51.7061750   8.5488360  80.5987900  51.2443280   7.7775600  80.9275070
  52.5187300   8.5754430  81.1040350  41.6821410   8.4888070  82.8922550
  41.9849450   7.5985810  82.7132770  42.4265000   9.0458290  82.6644800
  47.9325060  10.8346370  80.2191890  47.3136500  11.2903870  79.6486330
  48.7876840  10.9897830  79.8181590  47.1263310   6.8185360  81.8258930
  47.0571590   5.8775300  81.6648060  47.8883170   6.9086770  82.3981500
  48.7988410   5.7185610  77.6123800  48.1805680   6.1835060  77.0486520
  49.3111660   6.4113090  78.0293310  43.6620170   5.2461480  84.2907400
  43.3289550   5.8730400  84.9328470  43.8386850   5.7723360  83.5109070
  42.8739270   7.2142280  86.1056580  43.4913270   7.8893360  85.8241030
  42.0132390   7.6230260  86.0144080  38.1671610   6.4042140  74.9863430
  37.7899590   6.8929240  74.2548330  38.4244680   7.0767420  75.6169960
  53.7916860   8.6781690  84.0211220  53.1080380   9.3480800  84.0127890
  54.3311150   8.8762340  83.2556080  51.3275600  10.5225820  82.7356400
  51.3402760  10.1188110  81.8678660  50.7750820  11.2973110  82.6317830
  52.6221020   7.2442040  77.8246570  52.5117350   6.3016370  77.9495990
  52.6189270   7.6057680  78.7109330  50.7261040   5.4255660  84.0639010
  51.1429830   5.2115770  83.2292470  51.4500860   5.6828450  84.6347630
  48.1641300   2.8707360  77.1809060  47.2370580   2.8044740  77.4097530
  48.3166120   3.8087490  77.0664300  54.6723140   3.8242880  84.1555250
  53.8441770   3.8935970  83.6805380  55.2673620   4.4097190  83.6871080
  52.1938590   4.4327660  77.6844310  51.5751010   4.0947210  77.0370610
  52.1763040   3.7887420  78.3923500  43.7697940   3.3972100  79.9628790
  43.3654940   2.6849350  79.4674690  43.8561060   3.0525340  80.8516830
  44.2379640   7.0839660  82.1268000  43.9407930   6.4785130  81.4475780
  45.1879460   7.1216970  82.0157360  52.3265250  10.6571530  85.7891100
  51.8495810  11.4643720  85.5963710  51.6427040  10.0049860  85.9417310
  50.3703290   3.6714470  74.6917060  50.8096570   2.8336900  74.5454880
  51.0831710   4.3043870  74.7781200  48.4798670   8.6110540  78.6598300
  48.9194580   9.3534870  78.2453690  48.4185560   8.8537110  79.5837260
  40.4702570   2.2917080  77.4635440  40.3500170   3.0179170  76.8516710
  40.1603460   1.5219990  76.9863350  38.1087940   5.4632220  83.2704080
  38.1868360   5.5980990  82.3259800  38.7229620   4.7548110  83.4632200
  39.3535570   7.1632410  79.6810260  38.9463650   7.3047000  78.8263860
  40.2448580   6.8792570  79.4781470  51.1468850  11.5979660  76.0161310
  50.9869990  11.3082600  76.9143140  50.9815560  10.8219790  75.4806540
  43.6257230  11.3778190  77.7932930  43.4499710  10.4613730  77.5800730
  42.7712970  11.7365480  78.0330730  50.8494980   9.1067220  74.5759310
  50.1560140   9.1044510  73.9161590  51.5917840   8.6826540  74.1453480
  50.4144910  10.7329930  78.6507800  50.8701860   9.9519310  78.9646420
  50.7537430  11.4436750  79.1948980  38.1647460   6.5046390  85.8098540
  38.3278500   6.0351750  84.9917910  38.6299910   5.9969950  86.4747380
  44.6617260   1.9785800  74.0927620  44.0934160   1.5304050  73.4663530
  45.3706260   2.3378580  73.5592770  45.8883580   2.7274360  83.4502970
  46.2553710   2.2532930  84.1964310  45.6988640   3.6015930  83.7911310
  43.6782950   1.7683000  85.7687180  43.3740020   2.6474980  85.9937540
  44.6329410   1.8282790  85.8044620  42.2064740   5.9743990  76.3654030
  41.4327000   5.4341610  76.2052750  42.9359370   5.4550600  76.0271790
  52.9652720   4.9709350  82.1580420  53.6851840   5.4664640  81.7676530
  52.7634540   4.2927240  81.5134290  42.2502140   5.6424370  80.0032840
  42.7680810   4.8392630  79.9489730  41.7986160   5.5803510  80.8449670
  47.1371640   6.9090650  75.2760140  47.4787340   7.6532880  74.7803460
  46.3084350   7.2221770  75.6384970  53.4125320   2.0478800  74.0651830
  53.3289040   2.4793020  73.2148270  54.1319510   2.5077150  74.4978650
  54.4412570   8.9021060  76.7933960  53.7988730   8.2476680  77.0677680
  54.0543230   9.3076150  76.0174630  50.0199050   6.2306490  80.6405650
  50.3722870   5.6334620  79.9807020  49.1361380   5.9050720  80.8113900
  46.1062330   6.9904180  78.0476060  46.7933460   7.5373390  78.4283650
  45.3194750   7.5344910  78.0825670  38.2454730   2.6077000  73.5393140
  39.1149580   2.8901800  73.8229060  37.7545050   3.4212870  73.4241950
  45.4089540   3.9950210  77.6601420  45.8652320   4.8055460  77.8861610
  45.0577750   3.6773350  78.4919910  47.7122150   9.5056550  84.8893720
  48.3564370   9.7115930  85.5667140  48.0751590   8.7444950  84.4364570
  48.9854230   7.5088900  83.6071170  49.6276460   6.8082060  83.7203340
  49.5103580   8.2887340  83.4268060  52.8309950   7.7937520  73.3310310
  52.6047530   7.0767960  73.9234950  52.4406150   7.5449960  72.4932060
  38.6125980  11.8204380  74.1054770  38.9723620  12.4193720  73.4512040
  38.4718320  12.3664270  74.8789800  52.4126200   5.7109460  74.9924470
  52.1247900   6.1722150  75.7802350  53.2078370   5.2507230  75.2608690
  44.6294600   9.2035580  74.9228440  44.6204700   9.9365270  74.3072950
  43.7092960   8.9567160  75.0155400  40.2301240   4.4250470  75.6675200
  39.6229190   5.1649370  75.6770500  40.7050590   4.5149830  74.8413400
  47.6154200   9.2663820  73.5853630  47.7166180   9.0627810  72.6555610
  46.7155940   9.0122100  73.7901410  46.2572310  11.7850140  78.2801300
  46.5113810  11.7471530  77.3580670  45.3084790  11.6583470  78.2729550
  52.2624890   2.7042020  79.8559810  51.3215030   2.7192250  80.0307500
  52.5768960   1.9177980  80.3020110  42.2406530   4.3861620  73.4163770
  43.0069800   4.2742980  73.9789200  42.3181220   3.6899590  72.7640540
  54.2650470   9.8750870  81.5314070  54.3897890  10.6982040  82.0037880
  55.1316030   9.6641600  81.1838220  41.7368000  11.9682080  81.2031200
  42.4730480  11.4197540  81.4739770  42.1208920  12.8338090  81.0637190
  38.6213480   8.0355650  77.0772710  37.6953260   8.2776790  77.0678120
  39.0869910   8.8629910  76.9557460  44.8470310  11.1412390  73.0256770
  45.6398920  11.4301220  72.5738560  44.3274660  10.7104560  72.3469250
  53.9000480  10.3682520  74.4493510  53.6141990   9.9547660  73.6347690
  53.7020030  11.2970230  74.3294030  45.3647710   6.3615800  72.8899120
  45.2598350   5.7468150  73.6160500  45.1971930   5.8381690  72.1062130
  48.6050440   5.4235830  73.4941110  48.0560540   5.8705130  74.1383850
  49.2269700   4.9185080  74.0178780  44.2725560   4.3826750  75.3906410
  44.6941980   4.2166620  76.2337800  44.3976400   3.5726980  74.8961550
  46.7853200   3.4064360  72.6383510  47.3058860   2.6913380  72.2724660
  47.4321600   4.0450230  72.9384020  46.0946270   4.7813240  85.9314510
  46.5134380   5.6245970  85.7590750  45.1754900   4.9185280  85.7021290
  50.7698070   3.0666610  85.8914860  50.2433290   3.5909230  85.2880000
  51.1129410   3.6994000  86.5224590  47.3501230  11.4875970  74.9285250
  48.2452020  11.8260940  74.9504010  47.3818860  10.7655380  74.3009530
  40.9897390   6.8603020  73.1572250  41.4272260   7.4032690  73.8129830
  41.4745120   6.0349970  73.1668590  38.2043190   9.6492050  80.6092510
  38.5346200   8.7813110  80.3771150  38.6334190   9.8550570  81.4397470
  42.8005110   7.9801060  78.2694480  42.5000650   7.8566030  79.1698390
  42.6942600   7.1209650  77.8610210  38.6933400  10.5162640  83.3474140
  38.2564390  10.6963440  84.1798290  39.2611080  11.2737260  83.2055860
  55.5697030   7.7597460  72.9721160  54.7389990   7.8274110  73.4428390
  55.7468860   8.6501580  72.6688020  55.0253490   4.5044940  75.4755360
  55.7872400   5.0741590  75.5815050  55.0407860   3.9372140  76.2463670
  38.5257830   3.0282870  79.7063020  37.8706670   2.7594510  79.0622720
  39.3635780   2.9187350  79.2565000  56.0313460   5.3595040  80.3197290
  56.4022290   4.5762360  79.9133260  56.6715390   6.0484140  80.1414590
  53.0147220   6.7431620  85.7327610  52.2007060   7.1728780  85.9953400
  53.4221420   7.3550030  85.1196660  55.0772660   4.7979310  72.6327880
  55.3521500   5.7058190  72.5047100  54.8883400   4.7341840  73.5689870
  54.9738000   2.7348300  77.6257310  54.5981600   1.9676230  77.1938600
  54.2441120   3.1171000  78.1132240  39.5633760   3.4135440  84.2466360
  39.9306800   3.3262840  85.1262380  38.9944580   2.6501990  84.1473220
  53.0723270  11.4950220  79.2595880  53.6682340  11.1734790  78.5830300
  53.3301420  11.0222040  80.0509150  44.6791870   9.4827720  85.0096230
  44.4383230   9.7502280  84.1226750  45.6194510   9.6533450  85.0647090
  55.9396030  11.5022100  85.8106870  55.4454310  11.8990970  85.0934000
  55.3309320  10.8771310  86.2044150  53.6235480  12.1445520  83.0893610
  53.1638450  12.8961330  82.7151630  52.9947940  11.4251990  83.0308410
  40.4486100   8.2388760  85.4792330  39.7220160   7.6194050  85.4118280
  40.5095250   8.6329370  84.6090410  44.0531200  10.4533760  82.2641740
  44.5696220   9.8421120  81.7390000  44.7028580  10.9562540  82.7552750
  46.7926700  11.3442250  83.0910720  47.0804510  11.0896550  82.2143730
  47.3049920  10.7919610  83.6816290  38.7316100  11.5563150  78.6889090
  38.5638140  10.9233830  79.3870980  37.8650610  11.7622550  78.3383280
  40.3378800  10.2496380  76.1339230  39.8126420  10.6304410  75.4301190
  40.2623380  10.8747150  76.8548940  55.0944120  11.8083920  77.4553170
  55.2696310  11.1221660  76.8114090  54.3965690  12.3330970  77.0629840
  42.9371770  12.1978760  75.0088480  43.6690590  11.9138040  74.4612370
  43.1965440  11.9592040  75.8987860  42.0986560   8.3143490  75.0134810
  41.4695440   8.7828590  75.5620640  42.2134390   7.4692710  75.4481000
  47.6854320   4.1428170  63.0445280  46.9096420   3.6628610  63.3343850
  48.3367250   3.4633820  62.8701440  41.7020150   4.4547980  63.9221040
  40.8705030   4.1996690  64.3217550  42.3101130   4.5258750  64.6578960
  51.7061750   8.5488360  61.8244410  51.2443280   7.7775600  62.1531580
  52.5187300   8.5754430  62.3296860  41.6821410   8.4888070  64.1179060
  41.9849450   7.5985810  63.9389280  42.4265000   9.0458290  63.8901310
  47.9325060  10.8346370  61.4448400  47.3136500  11.2903870  60.8742840
  48.7876840  10.9897830  61.0438100  47.1263310   6.8185360  63.0515440
  47.0571590   5.8775300  62.8904570  47.8883170   6.9086770  63.6238010
  48.7988410   5.7185610  58.8380310  48.1805680   6.1835060  58.2743030
  49.3111660   6.4113090  59.2549820  43.6620170   5.2461480  65.5163910
  43.3289550   5.8730400  66.1584980  43.8386850   5.7723360  64.7365580
  42.8739270   7.2142280  67.3313090  43.4913270   7.8893360  67.0497540
  42.0132390   7.6230260  67.2400590  38.1671610   6.4042140  56.2119940
  37.7899590   6.8929240  55.4804840  38.4244680   7.0767420  56.8426470
  53.7916860   8.6781690  65.2467730  53.1080380   9.3480800  65.2384400
  54.3311150   8.8762340  64.4812590  51.3275600  10.5225820  63.9612910
  51.3402760  10.1188110  63.0935170  50.7750820  11.2973110  63.8574340
  52.6221020   7.2442040  59.0503080  52.5117350   6.3016370  59.1752500
  52.6189270   7.6057680  59.9365840  50.7261040   5.4255660  65.2895520
  51.1429830   5.2115770  64.4548980  51.4500860   5.6828450  65.8604140
  48.1641300   2.8707360  58.4065570  47.2370580   2.8044740  58.6354040
  48.3166120   3.8087490  58.2920810  54.6723140   3.8242880  65.3811760
  53.8441770   3.8935970  64.9061890  55.2673620   4.4097190  64.9127590
  52.1938590   4.4327660  58.9100820  51.5751010   4.0947210  58.2627120
  52.1763040   3.7887420  59.6180010  43.7697940   3.3972100  61.1885300
  43.3654940   2.6849350  60.6931200  43.8561060   3.0525340  62.0773340
  44.2379640   7.0839660  63.3524510  43.9407930   6.4785130  62.6732290
  45.1879460   7.1216970  63.2413870  52.3265250  10.6571530  67.0147610
  51.8495810  11.4643720  66.8220220  51.6427040  10.0049860  67.1673820
  43.3298070   6.8221350  70.0032310  42.4326600   7.0461320  70.2505710
  43.3550940   6.9456290  69.0543710  50.3703290   3.6714470  55.9173570
  50.8096570   2.8336900  55.7711390  51.0831710   4.3043870  56.0037710
  42.1569290   3.6934670  68.5789680  42.0177060   4.5657470  68.9477080
  41.2750650   3.3507480  68.4337620  48.4798670   8.6110540  59.8854810
  48.9194580   9.3534870  59.4710200  48.4185560   8.8537110  60.8093770
  43.9549640   9.6356370  70.7874830  43.9265070  10.0399320  69.9203260
  43.7914610   8.7066730  70.6246430  40.4702570   2.2917080  58.6891950
  40.3500170   3.0179170  58.0773220  40.1603460   1.5219990  58.2119860
  55.9064460  10.4183470  72.0839000  56.3824180  10.8966360  72.7628080
  56.5271620  10.3500960  71.3584500  38.1087940   5.4632220  64.4960590
  38.1868360   5.5980990  63.5516310  38.7229620   4.7548110  64.6888710
  39.3535570   7.1632410  60.9066770  38.9463650   7.3047000  60.0520370
  40.2448580   6.8792570  60.7037980  55.3097710   7.6096320  69.2439010
  55.4360770   7.3708200  68.3256190  55.3519090   6.7780860  69.7161090
  49.1714450  11.3124320  67.8133820  49.6859120  11.2232330  68.6156250
  48.3283530  11.6584020  68.1061730  51.1468850  11.5979660  57.2417820
  50.9869990  11.3082600  58.1399650  50.9815560  10.8219790  56.7063050
  43.6257230  11.3778190  59.0189440  43.4499710  10.4613730  58.8057240
  42.7712970  11.7365480  59.2587240  50.8494980   9.1067220  55.8015820
  50.1560140   9.1044510  55.1418100  51.5917840   8.6826540  55.3709990
  50.4144910  10.7329930  59.8764310  50.8701860   9.9519310  60.1902930
  50.7537430  11.4436750  60.4205490  38.1647460   6.5046390  67.0355050
  38.3278500   6.0351750  66.2174420  38.6299910   5.9969950  67.7003890
  44.6617260   1.9785800  55.3184130  44.0934160   1.5304050  54.6920040
  45.3706260   2.3378580  54.7849280  39.7386440   5.8797820  69.1950860
  39.3541230   5.2391490  69.7933820  40.0498630   6.5833940  69.7645590
  45.8883580   2.7274360  64.6759480  46.2553710   2.2532930  65.4220820
  45.6988640   3.6015930  65.0167820  43.6782950   1.7683000  66.9943690
  43.3740020   2.6474980  67.2194050  44.6329410   1.8282790  67.0301130
  42.2064740   5.9743990  57.5910540  41.4327000   5.4341610  57.4309260
  42.9359370   5.4550600  57.2528300  52.9652720   4.9709350  63.3836930
  53.6851840   5.4664640  62.9933040  52.7634540   4.2927240  62.7390800
  48.3471520   5.0418410  69.2705930  48.2808830   4.1214080  69.0163520
  47.7176660   5.1393850  69.9850570  42.2502140   5.6424370  61.2289350
  42.7680810   4.8392630  61.1746240  41.7986160   5.5803510  62.0706180
  47.1371640   6.9090650  56.5016650  47.4787340   7.6532880  56.0059970
  46.3084350   7.2221770  56.8641480  39.7346680   2.6085740  68.1415050
  39.3761620   3.2739590  68.7288390  39.4401240   1.7769290  68.5127670
  42.9359800   3.0669980  71.0254600  42.6359940   3.2127160  70.1282420
  43.7071040   2.5075270  70.9327990  48.2788250   7.8638980  69.0209730
  48.2932790   6.9319940  68.8028640  47.5713350   7.9498740  69.6599500
  53.4125320   2.0478800  55.2908340  53.3289040   2.4793020  54.4404780
  54.1319510   2.5077150  55.7235160  54.4899460   4.5046320  68.3678310
  53.7647650   5.0975100  68.1707700  55.0174920   4.4969860  67.5691680
  54.4412570   8.9021060  58.0190470  53.7988730   8.2476680  58.2934190
  54.0543230   9.3076150  57.2431140  50.0199050   6.2306490  61.8662160
  50.3722870   5.6334620  61.2063530  49.1361380   5.9050720  62.0370410
  46.1062330   6.9904180  59.2732570  46.7933460   7.5373390  59.6540160
  45.3194750   7.5344910  59.3082180  38.2454730   2.6077000  54.7649650
  39.1149580   2.8901800  55.0485570  37.7545050   3.4212870  54.6498460
  45.4089540   3.9950210  58.8857930  45.8652320   4.8055460  59.1118120
  45.0577750   3.6773350  59.7176420  47.7122150   9.5056550  66.1150230
  48.3564370   9.7115930  66.7923650  48.0751590   8.7444950  65.6621080
  48.9854230   7.5088900  64.8327680  49.6276460   6.8082060  64.9459850
  49.5103580   8.2887340  64.6524570  52.8309950   7.7937520  54.5566820
  52.6047530   7.0767960  55.1491460  52.4406150   7.5449960  53.7188570
  50.7591850   8.3083800  68.0363740  51.0948090   8.8950490  68.7141660
  49.8392190   8.1776510  68.2661530  38.6125980  11.8204380  55.3311280
  38.9723620  12.4193720  54.6768550  38.4718320  12.3664270  56.1046310
  52.4126200   5.7109460  56.2180980  52.1247900   6.1722150  57.0058860
  53.2078370   5.2507230  56.4865200  38.5967840  10.0859240  69.8053680
  38.7058960   9.1453980  69.6649070  37.9448400  10.3513990  69.1567410
  46.5880430   8.3575130  71.2051800  46.2677300   7.6384370  71.7497490
  45.9138790   9.0330200  71.2787860  44.6294600   9.2035580  56.1484950
  44.6204700   9.9365270  55.5329460  43.7092960   8.9567160  56.2411910
  40.2301240   4.4250470  56.8931710  39.6229190   5.1649370  56.9027010
  40.7050590   4.5149830  56.0669910  47.6154200   9.2663820  54.8110140
  47.7166180   9.0627810  53.8812120  46.7155940   9.0122100  55.0157920
  46.2572310  11.7850140  59.5057810  46.5113810  11.7471530  58.5837180
  45.3084790  11.6583470  59.4986060  52.2624890   2.7042020  61.0816320
  51.3215030   2.7192250  61.2564010  52.5768960   1.9177980  61.5276620
  42.2406530   4.3861620  54.6420280  43.0069800   4.2742980  55.2045710
  42.3181220   3.6899590  53.9897050  54.2650470   9.8750870  62.7570580
  54.3897890  10.6982040  63.2294390  55.1316030   9.6641600  62.4094730
  41.7368000  11.9682080  62.4287710  42.4730480  11.4197540  62.6996280
  42.1208920  12.8338090  62.2893700  38.6213480   8.0355650  58.3029220
  37.6953260   8.2776790  58.2934630  39.0869910   8.8629910  58.1813970
  40.7426280  11.1528150  71.6173290  41.5439010  11.4740200  72.0308690
  40.2278100  10.7923730  72.3393200  44.8470310  11.1412390  54.2513280
  45.6398920  11.4301220  53.7995070  44.3274660  10.7104560  53.5725760
  49.5790910   7.2608020  71.5648700  48.9729070   7.2839620  70.8244450
  49.2745020   6.5291060  72.1015950  51.0091280  10.9888310  70.1758110
  51.9613030  10.9046330  70.1258350  50.8619500  11.6530020  70.8491900
  53.9000480  10.3682520  55.6750020  53.6141990   9.9547660  54.8604200
  53.7020030  11.2970230  55.5550540  38.4624090   3.6401610  70.5609340
  38.9663110   3.0608890  71.1325570  37.7231510   3.9241840  71.0985710
  45.3647710   6.3615800  54.1155630  45.2598350   5.7468150  54.8417010
  45.1971930   5.8381690  53.3318640  45.5162030   5.0472600  70.0944860
  44.7507700   5.6157600  70.0099530  45.6977990   4.7548810  69.2013090
  48.6050440   5.4235830  54.7197620  48.0560540   5.8705130  55.3640360
  49.2269700   4.9185080  55.2435290  52.6585380   6.7777930  70.6519880
  53.3994850   7.1153690  70.1487340  51.8958060   6.9469990  70.0989650
  40.4947170   1.7831200  71.4559410  40.5352510   1.4845070  72.3644640
  41.3492670   2.1838810  71.2966930  44.2725560   4.3826750  56.6162920
  44.6941980   4.2166620  57.4594310  44.3976400   3.5726980  56.1218060
  46.7853200   3.4064360  53.8640020  47.3058860   2.6913380  53.4981170
  47.4321600   4.0450230  54.1640530  51.3331040   4.8292760  69.1875090
  51.7472060   4.9837840  70.0365510  50.3982040   4.9547980  69.3500870
  46.0946270   4.7813240  67.1571020  46.5134380   5.6245970  66.9847260
  45.1754900   4.9185280  66.9277800  48.4310170   2.5129420  68.5408860
  48.5506380   1.9170560  69.2803700  49.2904170   2.5499110  68.1210160
  50.7698070   3.0666610  67.1171370  50.2433290   3.5909230  66.5136510
  51.1129410   3.6994000  67.7481100  43.9453690  11.0866250  68.2728750
  43.4074780  11.8112310  67.9537450  44.1987650  10.6096590  67.4826090
  46.8015900  12.3217460  68.5315400  46.7274600  13.2252600  68.8387770
  45.8994740  12.0029360  68.5037470  47.3501230  11.4875970  56.1541760
  48.2452020  11.8260940  56.1760520  47.3818860  10.7655380  55.5266040
  40.9897390   6.8603020  54.3828760  41.4272260   7.4032690  55.0386340
  41.4745120   6.0349970  54.3925100  38.2043190   9.6492050  61.8349020
  38.5346200   8.7813110  61.6027660  38.6334190   9.8550570  62.6653980
  42.8005110   7.9801060  59.4950990  42.5000650   7.8566030  60.3954900
  42.6942600   7.1209650  59.0866720  38.6933400  10.5162640  64.5730650
  38.2564390  10.6963440  65.4054800  39.2611080  11.2737260  64.4312370
  54.3295580  10.0179640  68.8607960  53.7297570  10.0772200  68.1171880
  54.4589480   9.0784620  68.9904810  55.5697030   7.7597460  54.1977670
  54.7389990   7.8274110  54.6684900  55.7468860   8.6501580  53.8944530
  55.0253490   4.5044940  56.7011870  55.7872400   5.0741590  56.8071560
  55.0407860   3.9372140  57.4720180  38.5257830   3.0282870  60.9319530
  37.8706670   2.7594510  60.2879230  39.3635780   2.9187350  60.4821510
  56.0313460   5.3595040  61.5453800  56.4022290   4.5762360  61.1389770
  56.6715390   6.0484140  61.3671100  53.0147220   6.7431620  66.9584120
  52.2007060   7.1728780  67.2209910  53.4221420   7.3550030  66.3453170
  55.0772660   4.7979310  53.8584390  55.3521500   5.7058190  53.7303610
  54.8883400   4.7341840  54.7946380  54.9738000   2.7348300  58.8513820
  54.5981600   1.9676230  58.4195110  54.2441120   3.1171000  59.3388750
  39.5633760   3.4135440  65.4722870  39.9306800   3.3262840  66.3518890
  38.9944580   2.6501990  65.3729730  54.3637620   1.8819820  68.4853340
  54.1323710   1.6532570  67.5851290  54.6242170   2.8019370  68.4398230
  53.0723270  11.4950220  60.4852390  53.6682340  11.1734790  59.8086810
  53.3301420  11.0222040  61.2765660  40.9785840   7.9268130  70.6343020
  40.9355470   7.5561040  71.5157480  41.1096850   8.8645700  70.7744840
  44.6791870   9.4827720  66.2352740  44.4383230   9.7502280  65.3483260
  45.6194510   9.6533450  66.2903600  55.9396030  11.5022100  67.0363380
  55.4454310  11.8990970  66.3190510  55.3309320  10.8771310  67.4300660
  40.8173870  10.8730380  67.7540800  40.2234190  10.7415080  68.4930840
  40.8097710  10.0368520  67.2882900  53.6235480  12.1445520  64.3150120
  53.1638450  12.8961330  63.9408140  52.9947940  11.4251990  64.2564920
  40.4486100   8.2388760  66.7048840  39.7220160   7.6194050  66.6374790
  40.5095250   8.6329370  65.8346920  44.0531200  10.4533760  63.4898250
  44.5696220   9.8421120  62.9646510  44.7028580  10.9562540  63.9809260
  46.7926700  11.3442250  64.3167230  47.0804510  11.0896550  63.4400240
  47.3049920  10.7919610  64.9072800  38.7316100  11.5563150  59.9145600
  38.5638140  10.9233830  60.6127490  37.8650610  11.7622550  59.5639790
  40.3378800  10.2496380  57.3595740  39.8126420  10.6304410  56.6557700
  40.2623380  10.8747150  58.0805450  46.8599060  12.2658350  71.6835430
  47.7866370  12.0302620  71.7271390  46.8449490  13.0930350  71.2021460
  55.0944120  11.8083920  58.6809680  55.2696310  11.1221660  58.0370600
  54.3965690  12.3330970  58.2886350  42.9371770  12.1978760  56.2344990
  43.6690590  11.9138040  55.6868880  43.1965440  11.9592040  57.1244370
  42.0986560   8.3143490  56.2391320  41.4695440   8.7828590  56.7877150
  42.2134390   7.4692710  56.6737510  53.4276620  11.4928210  71.5076470
  54.2201940  10.9977440  71.3002430  53.7209770  12.1718350  72.1152080
  47.6854320   4.1428170  44.2701790  46.9096420   3.6628610  44.5600360
  48.3367250   3.4633820  44.0957950  41.7020150   4.4547980  45.1477550
  40.8705030   4.1996690  45.5474060  42.3101130   4.5258750  45.8835470
  51.7061750   8.5488360  43.0500920  51.2443280   7.7775600  43.3788090
  52.5187300   8.5754430  43.5553370  41.6821410   8.4888070  45.3435570
  41.9849450   7.5985810  45.1645790  42.4265000   9.0458290  45.1157820
  47.9325060  10.8346370  42.6704910  47.3136500  11.2903870  42.0999350
  48.7876840  10.9897830  42.2694610  47.1263310   6.8185360  44.2771950
  47.0571590   5.8775300  44.1161080  47.8883170   6.9086770  44.8494520
  48.7988410   5.7185610  40.0636820  48.1805680   6.1835060  39.4999540
  49.3111660   6.4113090  40.4806330  43.6620170   5.2461480  46.7420420
  43.3289550   5.8730400  47.3841490  43.8386850   5.7723360  45.9622090
  42.8739270   7.2142280  48.5569600  43.4913270   7.8893360  48.2754050
  42.0132390   7.6230260  48.4657100  38.1671610   6.4042140  37.4376450
  37.7899590   6.8929240  36.7061350  38.4244680   7.0767420  38.0682980
  53.7916860   8.6781690  46.4724240  53.1080380   9.3480800  46.4640910
  54.3311150   8.8762340  45.7069100  51.3275600  10.5225820  45.1869420
  51.3402760  10.1188110  44.3191680  50.7750820  11.2973110  45.0830850
  52.6221020   7.2442040  40.2759590  52.5117350   6.3016370  40.4009010
  52.6189270   7.6057680  41.1622350  50.7261040   5.4255660  46.5152030
  51.1429830   5.2115770  45.6805490  51.4500860   5.6828450  47.0860650
  48.1641300   2.8707360  39.6322080  47.2370580   2.8044740  39.8610550
  48.3166120   3.8087490  39.5177320  54.6723140   3.8242880  46.6068270
  53.8441770   3.8935970  46.1318400  55.2673620   4.4097190  46.1384100
  52.1938590   4.4327660  40.1357330  51.5751010   4.0947210  39.4883630
  52.1763040   3.7887420  40.8436520  43.7697940   3.3972100  42.4141810
  43.3654940   2.6849350  41.9187710  43.8561060   3.0525340  43.3029850
  44.2379640   7.0839660  44.5781020  43.9407930   6.4785130  43.8988800
  45.1879460   7.1216970  44.4670380  52.3265250  10.6571530  48.2404120
  51.8495810  11.4643720  48.0476730  51.6427040  10.0049860  48.3930330
  43.3298070   6.8221350  51.2288820  42.4326600   7.0461320  51.4762220
  43.3550940   6.9456290  50.2800220  50.3703290   3.6714470  37.1430080
  50.8096570   2.8336900  36.9967900  51.0831710   4.3043870  37.2294220
  42.1569290   3.6934670  49.8046190  42.0177060   4.5657470  50.1733590
  41.2750650   3.3507480  49.6594130  48.4798670   8.6110540  41.1111320
  48.9194580   9.3534870  40.6966710  48.4185560   8.8537110  42.0350280
  43.9549640   9.6356370  52.0131340  43.9265070  10.0399320  51.1459770
  43.7914610   8.7066730  51.8502940  40.4702570   2.2917080  39.9148460
  40.3500170   3.0179170  39.3029730  40.1603460   1.5219990  39.4376370
  55.9064460  10.4183470  53.3095510  56.3824180  10.8966360  53.9884590
  56.5271620  10.3500960  52.5841010  38.1087940   5.4632220  45.7217100
  38.1868360   5.5980990  44.7772820  38.7229620   4.7548110  45.9145220
  39.3535570   7.1632410  42.1323280  38.9463650   7.3047000  41.2776880
  40.2448580   6.8792570  41.9294490  55.3097710   7.6096320  50.4695520
  55.4360770   7.3708200  49.5512700  55.3519090   6.7780860  50.9417600
  49.1714450  11.3124320  49.0390330  49.6859120  11.2232330  49.8412760
  48.3283530  11.6584020  49.3318240  51.1468850  11.5979660  38.4674330
  50.9869990  11.3082600  39.3656160  50.9815560  10.8219790  37.9319560
  43.6257230  11.3778190  40.2445950  43.4499710  10.4613730  40.0313750
  42.7712970  11.7365480  40.4843750  50.8494980   9.1067220  37.0272330
  50.1560140   9.1044510  36.3674610  51.5917840   8.6826540  36.5966500
  50.4144910  10.7329930  41.1020820  50.8701860   9.9519310  41.4159440
  50.7537430  11.4436750  41.6462000  38.1647460   6.5046390  48.2611560
  38.3278500   6.0351750  47.4430930  38.6299910   5.9969950  48.9260400
  44.6617260   1.9785800  36.5440640  44.0934160   1.5304050  35.9176550
  45.3706260   2.3378580  36.0105790  39.7386440   5.8797820  50.4207370
  39.3541230   5.2391490  51.0190330  40.0498630   6.5833940  50.9902100
  45.8883580   2.7274360  45.9015990  46.2553710   2.2532930  46.6477330
  45.6988640   3.6015930  46.2424330  43.6782950   1.7683000  48.2200200
  43.3740020   2.6474980  48.4450560  44.6329410   1.8282790  48.2557640
  42.2064740   5.9743990  38.8167050  41.4327000   5.4341610  38.6565770
  42.9359370   5.4550600  38.4784810  52.9652720   4.9709350  44.6093440
  53.6851840   5.4664640  44.2189550  52.7634540   4.2927240  43.9647310
  48.3471520   5.0418410  50.4962440  48.2808830   4.1214080  50.2420030
  47.7176660   5.1393850  51.2107080  42.2502140   5.6424370  42.4545860
  42.7680810   4.8392630  42.4002750  41.7986160   5.5803510  43.2962690
  47.1371640   6.9090650  37.7273160  47.4787340   7.6532880  37.2316480
  46.3084350   7.2221770  38.0897990  39.7346680   2.6085740  49.3671560
  39.3761620   3.2739590  49.9544900  39.4401240   1.7769290  49.7384180
  42.9359800   3.0669980  52.2511110  42.6359940   3.2127160  51.3538930
  43.7071040   2.5075270  52.1584500  48.2788250   7.8638980  50.2466240
  48.2932790   6.9319940  50.0285150  47.5713350   7.9498740  50.8856010
  53.4125320   2.0478800  36.5164850  53.3289040   2.4793020  35.6661290
  54.1319510   2.5077150  36.9491670  54.4899460   4.5046320  49.5934820
  53.7647650   5.0975100  49.3964210  55.0174920   4.4969860  48.7948190
  54.4412570   8.9021060  39.2446980  53.7988730   8.2476680  39.5190700
  54.0543230   9.3076150  38.4687650  50.0199050   6.2306490  43.0918670
  50.3722870   5.6334620  42.4320040  49.1361380   5.9050720  43.2626920
  46.1062330   6.9904180  40.4989080  46.7933460   7.5373390  40.8796670
  45.3194750   7.5344910  40.5338690  38.2454730   2.6077000  35.9906160
  39.1149580   2.8901800  36.2742080  37.7545050   3.4212870  35.8754970
  45.4089540   3.9950210  40.1114440  45.8652320   4.8055460  40.3374630
  45.0577750   3.6773350  40.9432930  47.7122150   9.5056550  47.3406740
  48.3564370   9.7115930  48.0180160  48.0751590   8.7444950  46.8877590
  48.9854230   7.5088900  46.0584190  49.6276460   6.8082060  46.1716360
  49.5103580   8.2887340  45.8781080  52.8309950   7.7937520  35.7823330
  52.6047530   7.0767960  36.3747970  52.4406150   7.5449960  34.9445080
  50.7591850   8.3083800  49.2620250  51.0948090   8.8950490  49.9398170
  49.8392190   8.1776510  49.4918040  38.6125980  11.8204380  36.5567790
  38.9723620  12.4193720  35.9025060  38.4718320  12.3664270  37.3302820
  52.4126200   5.7109460  37.4437490  52.1247900   6.1722150  38.2315370
  53.2078370   5.2507230  37.7121710  38.5967840  10.0859240  51.0310190
  38.7058960   9.1453980  50.8905580  37.9448400  10.3513990  50.3823920
  46.5880430   8.3575130  52.4308310  46.2677300   7.6384370  52.9754000
  45.9138790   9.0330200  52.5044370  44.6294600   9.2035580  37.3741460
  44.6204700   9.9365270  36.7585970  43.7092960   8.9567160  37.4668420
  40.2301240   4.4250470  38.1188220  39.6229190   5.1649370  38.1283520
  40.7050590   4.5149830  37.2926420  47.6154200   9.2663820  36.0366650
  47.7166180   9.0627810  35.1068630  46.7155940   9.0122100  36.2414430
  46.2572310  11.7850140  40.7314320  46.5113810  11.7471530  39.8093690
  45.3084790  11.6583470  40.7242570  52.2624890   2.7042020  42.3072830
  51.3215030   2.7192250  42.4820520  52.5768960   1.9177980  42.7533130
  42.2406530   4.3861620  35.8676790  43.0069800   4.2742980  36.4302220
  42.3181220   3.6899590  35.2153560  54.2650470   9.8750870  43.9827090
  54.3897890  10.6982040  44.4550900  55.1316030   9.6641600  43.6351240
  41.7368000  11.9682080  43.6544220  42.4730480  11.4197540  43.9252790
  42.1208920  12.8338090  43.5150210  38.6213480   8.0355650  39.5285730
  37.6953260   8.2776790  39.5191140  39.0869910   8.8629910  39.4070480
  40.7426280  11.1528150  52.8429800  41.5439010  11.4740200  53.2565200
  40.2278100  10.7923730  53.5649710  44.8470310  11.1412390  35.4769790
  45.6398920  11.4301220  35.0251580  44.3274660  10.7104560  34.7982270
  49.5790910   7.2608020  52.7905210  48.9729070   7.2839620  52.0500960
  49.2745020   6.5291060  53.3272460  51.0091280  10.9888310  51.4014620
  51.9613030  10.9046330  51.3514860  50.8619500  11.6530020  52.0748410
  53.9000480  10.3682520  36.9006530  53.6141990   9.9547660  36.0860710
  53.7020030  11.2970230  36.7807050  38.4624090   3.6401610  51.7865850
  38.9663110   3.0608890  52.3582080  37.7231510   3.9241840  52.3242220
  45.3647710   6.3615800  35.3412140  45.2598350   5.7468150  36.0673520
  45.1971930   5.8381690  34.5575150  45.5162030   5.0472600  51.3201370
  44.7507700   5.6157600  51.2356040  45.6977990   4.7548810  50.4269600
  48.6050440   5.4235830  35.9454130  48.0560540   5.8705130  36.5896870
  49.2269700   4.9185080  36.4691800  52.6585380   6.7777930  51.8776390
  53.3994850   7.1153690  51.3743850  51.8958060   6.9469990  51.3246160
  40.4947170   1.7831200  52.6815920  40.5352510   1.4845070  53.5901150
  41.3492670   2.1838810  52.5223440  44.2725560   4.3826750  37.8419430
  44.6941980   4.2166620  38.6850820  44.3976400   3.5726980  37.3474570
  46.7853200   3.4064360  35.0896530  47.3058860   2.6913380  34.7237680
  47.4321600   4.0450230  35.3897040  51.3331040   4.8292760  50.4131600
  51.7472060   4.9837840  51.2622020  50.3982040   4.9547980  50.5757380
  46.0946270   4.7813240  48.3827530  46.5134380   5.6245970  48.2103770
  45.1754900   4.9185280  48.1534310  48.4310170   2.5129420  49.7665370
  48.5506380   1.9170560  50.5060210  49.2904170   2.5499110  49.3466670
  50.7698070   3.0666610  48.3427880  50.2433290   3.5909230  47.7393020
  51.1129410   3.6994000  48.9737610  43.9453690  11.0866250  49.4985260
  43.4074780  11.8112310  49.1793960  44.1987650  10.6096590  48.7082600
  46.8015900  12.3217460  49.7571910  46.7274600  13.2252600  50.0644280
  45.8994740  12.0029360  49.7293980  47.3501230  11.4875970  37.3798270
  48.2452020  11.8260940  37.4017030  47.3818860  10.7655380  36.7522550
  40.9897390   6.8603020  35.6085270  41.4272260   7.4032690  36.2642850
  41.4745120   6.0349970  35.6181610  38.2043190   9.6492050  43.0605530
  38.5346200   8.7813110  42.8284170  38.6334190   9.8550570  43.8910490
  42.8005110   7.9801060  40.7207500  42.5000650   7.8566030  41.6211410
  42.6942600   7.1209650  40.3123230  38.6933400  10.5162640  45.7987160
  38.2564390  10.6963440  46.6311310  39.2611080  11.2737260  45.6568880
  54.3295580  10.0179640  50.0864470  53.7297570  10.0772200  49.3428390
  54.4589480   9.0784620  50.2161320  55.5697030   7.7597460  35.4234180
  54.7389990   7.8274110  35.8941410  55.7468860   8.6501580  35.1201040
  55.0253490   4.5044940  37.9268380  55.7872400   5.0741590  38.0328070
  55.0407860   3.9372140  38.6976690  38.5257830   3.0282870  42.1576040
  37.8706670   2.7594510  41.5135740  39.3635780   2.9187350  41.7078020
  56.0313460   5.3595040  42.7710310  56.4022290   4.5762360  42.3646280
  56.6715390   6.0484140  42.5927610  53.0147220   6.7431620  48.1840630
  52.2007060   7.1728780  48.4466420  53.4221420   7.3550030  47.5709680
  55.0772660   4.7979310  35.0840900  55.3521500   5.7058190  34.9560120
  54.8883400   4.7341840  36.0202890  54.9738000   2.7348300  40.0770330
  54.5981600   1.9676230  39.6451620  54.2441120   3.1171000  40.5645260
  39.5633760   3.4135440  46.6979380  39.9306800   3.3262840  47.5775400
  38.9944580   2.6501990  46.5986240  54.3637620   1.8819820  49.7109850
  54.1323710   1.6532570  48.8107800  54.6242170   2.8019370  49.6654740
  53.0723270  11.4950220  41.7108900  53.6682340  11.1734790  41.0343320
  53.3301420  11.0222040  42.5022170  40.9785840   7.9268130  51.8599530
  40.9355470   7.5561040  52.7413990  41.1096850   8.8645700  52.0001350
  44.6791870   9.4827720  47.4609250  44.4383230   9.7502280  46.5739770
  45.6194510   9.6533450  47.5160110  55.9396030  11.5022100  48.2619890
  55.4454310  11.8990970  47.5447020  55.3309320  10.8771310  48.6557170
  40.8173870  10.8730380  48.9797310  40.2234190  10.7415080  49.7187350
  40.8097710  10.0368520  48.5139410  53.6235480  12.1445520  45.5406630
  53.1638450  12.8961330  45.1664650  52.9947940  11.4251990  45.4821430
  40.4486100   8.2388760  47.9305350  39.7220160   7.6194050  47.8631300
  40.5095250   8.6329370  47.0603430  44.0531200  10.4533760  44.7154760
  44.5696220   9.8421120  44.1903020  44.7028580  10.9562540  45.2065770
  46.7926700  11.3442250  45.5423740  47.0804510  11.0896550  44.6656750
  47.3049920  10.7919610  46.1329310  38.7316100  11.5563150  41.1402110
  38.5638140  10.9233830  41.8384000  37.8650610  11.7622550  40.7896300
  40.3378800  10.2496380  38.5852250  39.8126420  10.6304410  37.8814210
  40.2623380  10.8747150  39.3061960  46.8599060  12.2658350  52.9091940
  47.7866370  12.0302620  52.9527900  46.8449490  13.0930350  52.4277970
  55.0944120  11.8083920  39.9066190  55.2696310  11.1221660  39.2627110
  54.3965690  12.3330970  39.5142860  42.9371770  12.1978760  37.4601500
  43.6690590  11.9138040  36.9125390  43.1965440  11.9592040  38.3500880
  42.0986560   8.3143490  37.4647830  41.4695440   8.7828590  38.0133660
  42.2134390   7.4692710  37.8994020  53.4276620  11.4928210  52.7332980
  54.2201940  10.9977440  52.5258940  53.7209770  12.1718350  53.3408590
  47.6854320   4.1428170  25.4958300  46.9096420   3.6628610  25.7856870
  48.3367250   3.4633820  25.3214460  41.7020150   4.4547980  26.3734060
  40.8705030   4.1996690  26.7730570  42.3101130   4.5258750  27.1091980
  51.7061750   8.5488360  24.2757430  51.2443280   7.7775600  24.6044600
  52.5187300   8.5754430  24.7809880  41.6821410   8.4888070  26.5692080
  41.9849450   7.5985810  26.3902300  42.4265000   9.0458290  26.3414330
  47.9325060  10.8346370  23.8961420  47.3136500  11.2903870  23.3255860
  48.7876840  10.9897830  23.4951120  47.1263310   6.8185360  25.5028460
  47.0571590   5.8775300  25.3417590  47.8883170   6.9086770  26.0751030
  48.7988410   5.7185610  21.2893330  48.1805680   6.1835060  20.7256050
  49.3111660   6.4113090  21.7062840  43.6620170   5.2461480  27.9676930
  43.3289550   5.8730400  28.6098000  43.8386850   5.7723360  27.1878600
  42.8739270   7.2142280  29.7826110  43.4913270   7.8893360  29.5010560
  42.0132390   7.6230260  29.6913610  38.1671610   6.4042140  18.6632960
  37.7899590   6.8929240  17.9317860  38.4244680   7.0767420  19.2939490
  53.7916860   8.6781690  27.6980750  53.1080380   9.3480800  27.6897420
  54.3311150   8.8762340  26.9325610  51.3275600  10.5225820  26.4125930
  51.3402760  10.1188110  25.5448190  50.7750820  11.2973110  26.3087360
  52.6221020   7.2442040  21.5016100  52.5117350   6.3016370  21.6265520
  52.6189270   7.6057680  22.3878860  50.7261040   5.4255660  27.7408540
  51.1429830   5.2115770  26.9062000  51.4500860   5.6828450  28.3117160
  48.1641300   2.8707360  20.8578590  47.2370580   2.8044740  21.0867060
  48.3166120   3.8087490  20.7433830  54.6723140   3.8242880  27.8324780
  53.8441770   3.8935970  27.3574910  55.2673620   4.4097190  27.3640610
  52.1938590   4.4327660  21.3613840  51.5751010   4.0947210  20.7140140
  52.1763040   3.7887420  22.0693030  43.7697940   3.3972100  23.6398320
  43.3654940   2.6849350  23.1444220  43.8561060   3.0525340  24.5286360
  44.2379640   7.0839660  25.8037530  43.9407930   6.4785130  25.1245310
  45.1879460   7.1216970  25.6926890  52.3265250  10.6571530  29.4660630
  51.8495810  11.4643720  29.2733240  51.6427040  10.0049860  29.6186840
  43.3298070   6.8221350  32.4545330  42.4326600   7.0461320  32.7018730
  43.3550940   6.9456290  31.5056730  50.3703290   3.6714470  18.3686590
  50.8096570   2.8336900  18.2224410  51.0831710   4.3043870  18.4550730
  42.1569290   3.6934670  31.0302700  42.0177060   4.5657470  31.3990100
  41.2750650   3.3507480  30.8850640  48.4798670   8.6110540  22.3367830
  48.9194580   9.3534870  21.9223220  48.4185560   8.8537110  23.2606790
  43.9549640   9.6356370  33.2387850  43.9265070  10.0399320  32.3716280
  43.7914610   8.7066730  33.0759450  40.4702570   2.2917080  21.1404970
  40.3500170   3.0179170  20.5286240  40.1603460   1.5219990  20.6632880
  55.9064460  10.4183470  34.5352020  56.3824180  10.8966360  35.2141100
  56.5271620  10.3500960  33.8097520  38.1087940   5.4632220  26.9473610
  38.1868360   5.5980990  26.0029330  38.7229620   4.7548110  27.1401730
  39.3535570   7.1632410  23.3579790  38.9463650   7.3047000  22.5033390
  40.2448580   6.8792570  23.1551000  55.3097710   7.6096320  31.6952030
  55.4360770   7.3708200  30.7769210  55.3519090   6.7780860  32.1674110
  49.1714450  11.3124320  30.2646840  49.6859120  11.2232330  31.0669270
  48.3283530  11.6584020  30.5574750  51.1468850  11.5979660  19.6930840
  50.9869990  11.3082600  20.5912670  50.9815560  10.8219790  19.1576070
  43.6257230  11.3778190  21.4702460  43.4499710  10.4613730  21.2570260
  42.7712970  11.7365480  21.7100260  50.8494980   9.1067220  18.2528840
  50.1560140   9.1044510  17.5931120  51.5917840   8.6826540  17.8223010
  50.4144910  10.7329930  22.3277330  50.8701860   9.9519310  22.6415950
  50.7537430  11.4436750  22.8718510  38.1647460   6.5046390  29.4868070
  38.3278500   6.0351750  28.6687440  38.6299910   5.9969950  30.1516910
  44.6617260   1.9785800  17.7697150  44.0934160   1.5304050  17.1433060
  45.3706260   2.3378580  17.2362300  39.7386440   5.8797820  31.6463880
  39.3541230   5.2391490  32.2446840  40.0498630   6.5833940  32.2158610
  45.8883580   2.7274360  27.1272500  46.2553710   2.2532930  27.8733840
  45.6988640   3.6015930  27.4680840  43.6782950   1.7683000  29.4456710
  43.3740020   2.6474980  29.6707070  44.6329410   1.8282790  29.4814150
  42.2064740   5.9743990  20.0423560  41.4327000   5.4341610  19.8822280
  42.9359370   5.4550600  19.7041320  52.9652720   4.9709350  25.8349950
  53.6851840   5.4664640  25.4446060  52.7634540   4.2927240  25.1903820
  48.3471520   5.0418410  31.7218950  48.2808830   4.1214080  31.4676540
  47.7176660   5.1393850  32.4363590  42.2502140   5.6424370  23.6802370
  42.7680810   4.8392630  23.6259260  41.7986160   5.5803510  24.5219200
  47.1371640   6.9090650  18.9529670  47.4787340   7.6532880  18.4572990
  46.3084350   7.2221770  19.3154500  39.7346680   2.6085740  30.5928070
  39.3761620   3.2739590  31.1801410  39.4401240   1.7769290  30.9640690
  42.9359800   3.0669980  33.4767620  42.6359940   3.2127160  32.5795440
  43.7071040   2.5075270  33.3841010  48.2788250   7.8638980  31.4722750
  48.2932790   6.9319940  31.2541660  47.5713350   7.9498740  32.1112520
  53.4125320   2.0478800  17.7421360  53.3289040   2.4793020  16.8917800
  54.1319510   2.5077150  18.1748180  54.4899460   4.5046320  30.8191330
  53.7647650   5.0975100  30.6220720  55.0174920   4.4969860  30.0204700
  54.4412570   8.9021060  20.4703490  53.7988730   8.2476680  20.7447210
  54.0543230   9.3076150  19.6944160  50.0199050   6.2306490  24.3175180
  50.3722870   5.6334620  23.6576550  49.1361380   5.9050720  24.4883430
  46.1062330   6.9904180  21.7245590  46.7933460   7.5373390  22.1053180
  45.3194750   7.5344910  21.7595200  38.2454730   2.6077000  17.2162670
  39.1149580   2.8901800  17.4998590  37.7545050   3.4212870  17.1011480
  45.4089540   3.9950210  21.3370950  45.8652320   4.8055460  21.5631140
  45.0577750   3.6773350  22.1689440  47.7122150   9.5056550  28.5663250
  48.3564370   9.7115930  29.2436670  48.0751590   8.7444950  28.1134100
  48.9854230   7.5088900  27.2840700  49.6276460   6.8082060  27.3972870
  49.5103580   8.2887340  27.1037590  52.8309950   7.7937520  17.0079840
  52.6047530   7.0767960  17.6004480  52.4406150   7.5449960  16.1701590
  50.7591850   8.3083800  30.4876760  51.0948090   8.8950490  31.1654680
  49.8392190   8.1776510  30.7174550  38.6125980  11.8204380  17.7824300
  38.9723620  12.4193720  17.1281570  38.4718320  12.3664270  18.5559330
  52.4126200   5.7109460  18.6694000  52.1247900   6.1722150  19.4571880
  53.2078370   5.2507230  18.9378220  38.5967840  10.0859240  32.2566700
  38.7058960   9.1453980  32.1162090  37.9448400  10.3513990  31.6080430
  46.5880430   8.3575130  33.6564820  46.2677300   7.6384370  34.2010510
  45.9138790   9.0330200  33.7300880  44.6294600   9.2035580  18.5997970
  44.6204700   9.9365270  17.9842480  43.7092960   8.9567160  18.6924930
  40.2301240   4.4250470  19.3444730  39.6229190   5.1649370  19.3540030
  40.7050590   4.5149830  18.5182930  47.6154200   9.2663820  17.2623160
  47.7166180   9.0627810  16.3325140  46.7155940   9.0122100  17.4670940
  46.2572310  11.7850140  21.9570830  46.5113810  11.7471530  21.0350200
  45.3084790  11.6583470  21.9499080  52.2624890   2.7042020  23.5329340
  51.3215030   2.7192250  23.7077030  52.5768960   1.9177980  23.9789640
  42.2406530   4.3861620  17.0933300  43.0069800   4.2742980  17.6558730
  42.3181220   3.6899590  16.4410070  54.2650470   9.8750870  25.2083600
  54.3897890  10.6982040  25.6807410  55.1316030   9.6641600  24.8607750
  41.7368000  11.9682080  24.8800730  42.4730480  11.4197540  25.1509300
  42.1208920  12.8338090  24.7406720  38.6213480   8.0355650  20.7542240
  37.6953260   8.2776790  20.7447650  39.0869910   8.8629910  20.6326990
  40.7426280  11.1528150  34.0686310  41.5439010  11.4740200  34.4821710
  40.2278100  10.7923730  34.7906220  44.8470310  11.1412390  16.7026300
  45.6398920  11.4301220  16.2508090  44.3274660  10.7104560  16.0238780
  49.5790910   7.2608020  34.0161720  48.9729070   7.2839620  33.2757470
  49.2745020   6.5291060  34.5528970  51.0091280  10.9888310  32.6271130
  51.9613030  10.9046330  32.5771370  50.8619500  11.6530020  33.3004920
  53.9000480  10.3682520  18.1263040  53.6141990   9.9547660  17.3117220
  53.7020030  11.2970230  18.0063560  38.4624090   3.6401610  33.0122360
  38.9663110   3.0608890  33.5838590  37.7231510   3.9241840  33.5498730
  45.3647710   6.3615800  16.5668650  45.2598350   5.7468150  17.2930030
  45.1971930   5.8381690  15.7831660  45.5162030   5.0472600  32.5457880
  44.7507700   5.6157600  32.4612550  45.6977990   4.7548810  31.6526110
  48.6050440   5.4235830  17.1710640  48.0560540   5.8705130  17.8153380
  49.2269700   4.9185080  17.6948310  52.6585380   6.7777930  33.1032900
  53.3994850   7.1153690  32.6000360  51.8958060   6.9469990  32.5502670
  40.4947170   1.7831200  33.9072430  40.5352510   1.4845070  34.8157660
  41.3492670   2.1838810  33.7479950  44.2725560   4.3826750  19.0675940
  44.6941980   4.2166620  19.9107330  44.3976400   3.5726980  18.5731080
  46.7853200   3.4064360  16.3153040  47.3058860   2.6913380  15.9494190
  47.4321600   4.0450230  16.6153550  51.3331040   4.8292760  31.6388110
  51.7472060   4.9837840  32.4878530  50.3982040   4.9547980  31.8013890
  46.0946270   4.7813240  29.6084040  46.5134380   5.6245970  29.4360280
  45.1754900   4.9185280  29.3790820  48.4310170   2.5129420  30.9921880
  48.5506380   1.9170560  31.7316720  49.2904170   2.5499110  30.5723180
  50.7698070   3.0666610  29.5684390  50.2433290   3.5909230  28.9649530
  51.1129410   3.6994000  30.1994120  43.9453690  11.0866250  30.7241770
  43.4074780  11.8112310  30.4050470  44.1987650  10.6096590  29.9339110
  46.8015900  12.3217460  30.9828420  46.7274600  13.2252600  31.2900790
  45.8994740  12.0029360  30.9550490  47.3501230  11.4875970  18.6054780
  48.2452020  11.8260940  18.6273540  47.3818860  10.7655380  17.9779060
  40.9897390   6.8603020  16.8341780  41.4272260   7.4032690  17.4899360
  41.4745120   6.0349970  16.8438120  38.2043190   9.6492050  24.2862040
  38.5346200   8.7813110  24.0540680  38.6334190   9.8550570  25.1167000
  42.8005110   7.9801060  21.9464010  42.5000650   7.8566030  22.8467920
  42.6942600   7.1209650  21.5379740  38.6933400  10.5162640  27.0243670
  38.2564390  10.6963440  27.8567820  39.2611080  11.2737260  26.8825390
  54.3295580  10.0179640  31.3120980  53.7297570  10.0772200  30.5684900
  54.4589480   9.0784620  31.4417830  55.5697030   7.7597460  16.6490690
  54.7389990   7.8274110  17.1197920  55.7468860   8.6501580  16.3457550
  55.0253490   4.5044940  19.1524890  55.7872400   5.0741590  19.2584580
  55.0407860   3.9372140  19.9233200  38.5257830   3.0282870  23.3832550
  37.8706670   2.7594510  22.7392250  39.3635780   2.9187350  22.9334530
  56.0313460   5.3595040  23.9966820  56.4022290   4.5762360  23.5902790
  56.6715390   6.0484140  23.8184120  53.0147220   6.7431620  29.4097140
  52.2007060   7.1728780  29.6722930  53.4221420   7.3550030  28.7966190
  55.0772660   4.7979310  16.3097410  55.3521500   5.7058190  16.1816630
  54.8883400   4.7341840  17.2459400  54.9738000   2.7348300  21.3026840
  54.5981600   1.9676230  20.8708130  54.2441120   3.1171000  21.7901770
  39.5633760   3.4135440  27.9235890  39.9306800   3.3262840  28.8031910
  38.9944580   2.6501990  27.8242750  54.3637620   1.8819820  30.9366360
  54.1323710   1.6532570  30.0364310  54.6242170   2.8019370  30.8911250
  53.0723270  11.4950220  22.9365410  53.6682340  11.1734790  22.2599830
  53.3301420  11.0222040  23.7278680  40.9785840   7.9268130  33.0856040
  40.9355470   7.5561040  33.9670500  41.1096850   8.8645700  33.2257860
  44.6791870   9.4827720  28.6865760  44.4383230   9.7502280  27.7996280
  45.6194510   9.6533450  28.7416620  55.9396030  11.5022100  29.4876400
  55.4454310  11.8990970  28.7703530  55.3309320  10.8771310  29.8813680
  40.8173870  10.8730380  30.2053820  40.2234190  10.7415080  30.9443860
  40.8097710  10.0368520  29.7395920  53.6235480  12.1445520  26.7663140
  53.1638450  12.8961330  26.3921160  52.9947940  11.4251990  26.7077940
  40.4486100   8.2388760  29.1561860  39.7220160   7.6194050  29.0887810
  40.5095250   8.6329370  28.2859940  44.0531200  10.4533760  25.9411270
  44.5696220   9.8421120  25.4159530  44.7028580  10.9562540  26.4322280
  46.7926700  11.3442250  26.7680250  47.0804510  11.0896550  25.8913260
  47.3049920  10.7919610  27.3585820  38.7316100  11.5563150  22.3658620
  38.5638140  10.9233830  23.0640510  37.8650610  11.7622550  22.0152810
  40.3378800  10.2496380  19.8108760  39.8126420  10.6304410  19.1070720
  40.2623380  10.8747150  20.5318470  46.8599060  12.2658350  34.1348450
  47.7866370  12.0302620  34.1784410  46.8449490  13.0930350  33.6534480
  55.0944120  11.8083920  21.1322700  55.2696310  11.1221660  20.4883620
  54.3965690  12.3330970  20.7399370  42.9371770  12.1978760  18.6858010
  43.6690590  11.9138040  18.1381900  43.1965440  11.9592040  19.5757390
  42.0986560   8.3143490  18.6904340  41.4695440   8.7828590  19.2390170
  42.2134390   7.4692710  19.1250530  53.4276620  11.4928210  33.9589490
  54.2201940  10.9977440  33.7515450  53.7209770  12.1718350  34.5665100
  47.6854320   4.1428170   6.7214810  46.9096420   3.6628610   7.0113380
  48.3367250   3.4633820   6.5470970  41.7020150   4.4547980   7.5990570
  40.8705030   4.1996690   7.9987080  42.3101130   4.5258750   8.3348490
  51.7061750   8.5488360   5.5013940  51.2443280   7.7775600   5.8301110
  52.5187300   8.5754430   6.0066390  41.6821410   8.4888070   7.7948590
  41.9849450   7.5985810   7.6158810  42.4265000   9.0458290   7.5670840
  47.9325060  10.8346370   5.1217930  47.3136500  11.2903870   4.5512370
  48.7876840  10.9897830   4.7207630  47.1263310   6.8185360   6.7284970
  47.0571590   5.8775300   6.5674100  47.8883170   6.9086770   7.3007540
  48.7988410   5.7185610   2.5149840  48.1805680   6.1835060   1.9512560
  49.3111660   6.4113090   2.9319350  43.6620170   5.2461480   9.1933440
  43.3289550   5.8730400   9.8354510  43.8386850   5.7723360   8.4135110
  42.8739270   7.2142280  11.0082620  43.4913270   7.8893360  10.7267070
  42.0132390   7.6230260  10.9170120  53.7916860   8.6781690   8.9237260
  53.1080380   9.3480800   8.9153930  54.3311150   8.8762340   8.1582120
  51.3275600  10.5225820   7.6382440  51.3402760  10.1188110   6.7704700
  50.7750820  11.2973110   7.5343870  52.6221020   7.2442040   2.7272610
  52.5117350   6.3016370   2.8522030  52.6189270   7.6057680   3.6135370
  50.7261040   5.4255660   8.9665050  51.1429830   5.2115770   8.1318510
  51.4500860   5.6828450   9.5373670  48.1641300   2.8707360   2.0835100
  47.2370580   2.8044740   2.3123570  48.3166120   3.8087490   1.9690340
  54.6723140   3.8242880   9.0581290  53.8441770   3.8935970   8.5831420
  55.2673620   4.4097190   8.5897120  52.1938590   4.4327660   2.5870350
  51.5751010   4.0947210   1.9396650  52.1763040   3.7887420   3.2949540
  43.7697940   3.3972100   4.8654830  43.3654940   2.6849350   4.3700730
  43.8561060   3.0525340   5.7542870  44.2379640   7.0839660   7.0294040
  43.9407930   6.4785130   6.3501820  45.1879460   7.1216970   6.9183400
  52.3265250  10.6571530  10.6917140  51.8495810  11.4643720  10.4989750
  51.6427040  10.0049860  10.8443350  43.3298070   6.8221350  13.6801840
  42.4326600   7.0461320  13.9275240  43.3550940   6.9456290  12.7313240
  42.1569290   3.6934670  12.2559210  42.0177060   4.5657470  12.6246610
  41.2750650   3.3507480  12.1107150  48.4798670   8.6110540   3.5624340
  48.9194580   9.3534870   3.1479730  48.4185560   8.8537110   4.4863300
  43.9549640   9.6356370  14.4644360  43.9265070  10.0399320  13.5972790
  43.7914610   8.7066730  14.3015960  40.4702570   2.2917080   2.3661480
  40.3500170   3.0179170   1.7542750  40.1603460   1.5219990   1.8889390
  55.9064460  10.4183470  15.7608530  56.3824180  10.8966360  16.4397610
  56.5271620  10.3500960  15.0354030  38.1087940   5.4632220   8.1730120
  38.1868360   5.5980990   7.2285840  38.7229620   4.7548110   8.3658240
  39.3535570   7.1632410   4.5836300  38.9463650   7.3047000   3.7289900
  40.2448580   6.8792570   4.3807510  55.3097710   7.6096320  12.9208540
  55.4360770   7.3708200  12.0025720  55.3519090   6.7780860  13.3930620
  49.1714450  11.3124320  11.4903350  49.6859120  11.2232330  12.2925780
  48.3283530  11.6584020  11.7831260  43.6257230  11.3778190   2.6958970
  43.4499710  10.4613730   2.4826770  42.7712970  11.7365480   2.9356770
  50.4144910  10.7329930   3.5533840  50.8701860   9.9519310   3.8672460
  50.7537430  11.4436750   4.0975020  38.1647460   6.5046390  10.7124580
  38.3278500   6.0351750   9.8943950  38.6299910   5.9969950  11.3773420
  39.7386440   5.8797820  12.8720390  39.3541230   5.2391490  13.4703350
  40.0498630   6.5833940  13.4415120  45.8883580   2.7274360   8.3529010
  46.2553710   2.2532930   9.0990350  45.6988640   3.6015930   8.6937350
  43.6782950   1.7683000  10.6713220  43.3740020   2.6474980  10.8963580
  44.6329410   1.8282790  10.7070660  52.9652720   4.9709350   7.0606460
  53.6851840   5.4664640   6.6702570  52.7634540   4.2927240   6.4160330
  48.3471520   5.0418410  12.9475460  48.2808830   4.1214080  12.6933050
  47.7176660   5.1393850  13.6620100  42.2502140   5.6424370   4.9058880
  42.7680810   4.8392630   4.8515770  41.7986160   5.5803510   5.7475710
  39.7346680   2.6085740  11.8184580  39.3761620   3.2739590  12.4057920
  39.4401240   1.7769290  12.1897200  42.9359800   3.0669980  14.7024130
  42.6359940   3.2127160  13.8051950  43.7071040   2.5075270  14.6097520
  48.2788250   7.8638980  12.6979260  48.2932790   6.9319940  12.4798170
  47.5713350   7.9498740  13.3369030  54.4899460   4.5046320  12.0447840
  53.7647650   5.0975100  11.8477230  55.0174920   4.4969860  11.2461210
  50.0199050   6.2306490   5.5431690  50.3722870   5.6334620   4.8833060
  49.1361380   5.9050720   5.7139940  46.1062330   6.9904180   2.9502100
  46.7933460   7.5373390   3.3309690  45.3194750   7.5344910   2.9851710
  45.4089540   3.9950210   2.5627460  45.8652320   4.8055460   2.7887650
  45.0577750   3.6773350   3.3945950  47.7122150   9.5056550   9.7919760
  48.3564370   9.7115930  10.4693180  48.0751590   8.7444950   9.3390610
  48.9854230   7.5088900   8.5097210  49.6276460   6.8082060   8.6229380
  49.5103580   8.2887340   8.3294100  50.7591850   8.3083800  11.7133270
  51.0948090   8.8950490  12.3911190  49.8392190   8.1776510  11.9431060
  38.5967840  10.0859240  13.4823210  38.7058960   9.1453980  13.3418600
  37.9448400  10.3513990  12.8336940  46.5880430   8.3575130  14.8821330
  46.2677300   7.6384370  15.4267020  45.9138790   9.0330200  14.9557390
  46.2572310  11.7850140   3.1827340  46.5113810  11.7471530   2.2606710
  45.3084790  11.6583470   3.1755590  52.2624890   2.7042020   4.7585850
  51.3215030   2.7192250   4.9333540  52.5768960   1.9177980   5.2046150
  54.2650470   9.8750870   6.4340110  54.3897890  10.6982040   6.9063920
  55.1316030   9.6641600   6.0864260  41.7368000  11.9682080   6.1057240
  42.4730480  11.4197540   6.3765810  42.1208920  12.8338090   5.9663230
  38.6213480   8.0355650   1.9798750  37.6953260   8.2776790   1.9704160
  39.0869910   8.8629910   1.8583500  40.7426280  11.1528150  15.2942820
  41.5439010  11.4740200  15.7078220  40.2278100  10.7923730  16.0162730
  49.5790910   7.2608020  15.2418230  48.9729070   7.2839620  14.5013980
  49.2745020   6.5291060  15.7785480  51.0091280  10.9888310  13.8527640
  51.9613030  10.9046330  13.8027880  50.8619500  11.6530020  14.5261430
  38.4624090   3.6401610  14.2378870  38.9663110   3.0608890  14.8095100
  37.7231510   3.9241840  14.7755240  45.5162030   5.0472600  13.7714390
  44.7507700   5.6157600  13.6869060  45.6977990   4.7548810  12.8782620
  52.6585380   6.7777930  14.3289410  53.3994850   7.1153690  13.8256870
  51.8958060   6.9469990  13.7759180  40.4947170   1.7831200  15.1328940
  40.5352510   1.4845070  16.0414170  41.3492670   2.1838810  14.9736460
  51.3331040   4.8292760  12.8644620  51.7472060   4.9837840  13.7135040
  50.3982040   4.9547980  13.0270400  46.0946270   4.7813240  10.8340550
  46.5134380   5.6245970  10.6616790  45.1754900   4.9185280  10.6047330
  48.4310170   2.5129420  12.2178390  48.5506380   1.9170560  12.9573230
  49.2904170   2.5499110  11.7979690  50.7698070   3.0666610  10.7940900
  50.2433290   3.5909230  10.1906040  51.1129410   3.6994000  11.4250630
  43.9453690  11.0866250  11.9498280  43.4074780  11.8112310  11.6306980
  44.1987650  10.6096590  11.1595620  46.8015900  12.3217460  12.2084930
  46.7274600  13.2252600  12.5157300  45.8994740  12.0029360  12.1807000
  38.2043190   9.6492050   5.5118550  38.5346200   8.7813110   5.2797190
  38.6334190   9.8550570   6.3423510  42.8005110   7.9801060   3.1720520
  42.5000650   7.8566030   4.0724430  42.6942600   7.1209650   2.7636250
  38.6933400  10.5162640   8.2500180  38.2564390  10.6963440   9.0824330
  39.2611080  11.2737260   8.1081900  54.3295580  10.0179640  12.5377490
  53.7297570  10.0772200  11.7941410  54.4589480   9.0784620  12.6674340
  38.5257830   3.0282870   4.6089060  37.8706670   2.7594510   3.9648760
  39.3635780   2.9187350   4.1591040  56.0313460   5.3595040   5.2223330
  56.4022290   4.5762360   4.8159300  56.6715390   6.0484140   5.0440630
  53.0147220   6.7431620  10.6353650  52.2007060   7.1728780  10.8979440
  53.4221420   7.3550030  10.0222700  54.9738000   2.7348300   2.5283350
  54.5981600   1.9676230   2.0964640  54.2441120   3.1171000   3.0158280
  39.5633760   3.4135440   9.1492400  39.9306800   3.3262840  10.0288420
  38.9944580   2.6501990   9.0499260  54.3637620   1.8819820  12.1622870
  54.1323710   1.6532570  11.2620820  54.6242170   2.8019370  12.1167760
  53.0723270  11.4950220   4.1621920  53.6682340  11.1734790   3.4856340
  53.3301420  11.0222040   4.9535190  40.9785840   7.9268130  14.3112550
  40.9355470   7.5561040  15.1927010  41.1096850   8.8645700  14.4514370
  44.6791870   9.4827720   9.9122270  44.4383230   9.7502280   9.0252790
  45.6194510   9.6533450   9.9673130  55.9396030  11.5022100  10.7132910
  55.4454310  11.8990970   9.9960040  55.3309320  10.8771310  11.1070190
  40.8173870  10.8730380  11.4310330  40.2234190  10.7415080  12.1700370
  40.8097710  10.0368520  10.9652430  53.6235480  12.1445520   7.9919650
  53.1638450  12.8961330   7.6177670  52.9947940  11.4251990   7.9334450
  40.4486100   8.2388760  10.3818370  39.7220160   7.6194050  10.3144320
  40.5095250   8.6329370   9.5116450  44.0531200  10.4533760   7.1667780
  44.5696220   9.8421120   6.6416040  44.7028580  10.9562540   7.6578790
  46.7926700  11.3442250   7.9936760  47.0804510  11.0896550   7.1169770
  47.3049920  10.7919610   8.5842330  38.7316100  11.5563150   3.5915130
  38.5638140  10.9233830   4.2897020  37.8650610  11.7622550   3.2409320
  46.8599060  12.2658350  15.3604960  47.7866370  12.0302620  15.4040920
  46.8449490  13.0930350  14.8790990  55.0944120  11.8083920   2.3579210
  55.2696310  11.1221660   1.7140130  54.3965690  12.3330970   1.9655880
  53.4276620  11.4928210  15.1846000  54.2201940  10.9977440  14.9771960
  53.7209770  12.1718350  15.7921610  30.7792790  96.2366600  79.9379500
  30.6986840  95.3221210  79.6671210  30.3657210  96.7333670  79.2319210
  28.9110830  98.0145620  81.8188770  28.1352930  97.5346060  82.1087340
  29.5623760  97.3351270  81.6444930  22.9276660  98.3265430  82.6964530
  22.0961540  98.0714140  83.0961040  23.5357640  98.3976200  83.4322450
  21.3368610  93.2867320  76.4806920  20.4485310  93.6283290  76.3786800
  21.6209800  93.0867640  75.5887750  19.3001620  95.8872970  82.3646620
  19.8717730  95.1195170  82.3650260  19.3003160  96.1861730  81.4553230
  20.5426490  91.2957330  84.1515550  20.3629330  90.3983080  84.4318310
  20.1406570  91.8429200  84.8262500  29.3824990  93.4973190  82.0527860
  29.7589810  92.6245070  81.9401530  29.2844500  93.8331890  81.1618300
  23.5130000  91.8698820  77.5145300  23.6196750  92.7702550  77.8214060
  22.6022360  91.8216790  77.2239950  33.1649110  90.9923630  78.9856200
  33.9858730  90.5020200  79.0281680  33.1983190  91.5821290  79.7388040
  21.1613160  93.7917830  82.7597890  21.8423270  94.0556200  83.3785290
  20.8461210  92.9518700  83.0935900  25.3537730  94.8385190  81.8470480
  25.8615950  95.3366160  82.4875500  25.8850970  94.0620390  81.6709840
  37.4548660  93.0090380  85.5499830  36.7500830  93.3972090  85.0314940
  37.7206580  93.7040670  86.1520760  23.6373830  89.4783750  86.1133900
  23.6392270  89.9956140  85.3079800  22.8078140  89.0013930  86.0903830
  33.4010590  92.9324010  81.7583740  32.6966160  93.2208900  82.3386850
  33.7622750  93.7424120  81.3983300  23.3189160  91.1893710  84.1204350
  23.6605970  92.0335760  83.8258220  22.3804970  91.3377450  84.2369690
  36.4697510  92.3778800  82.1492950  35.5222420  92.4117780  82.2808380
  36.7947500  93.1917750  82.5342310  27.0017050  88.6775980  80.4448940
  27.3092030  88.1222870  79.7284440  26.0717750  88.8120440  80.2621930
  29.3897810  96.7424810  77.1809060  28.4627090  96.6762190  77.4097530
  29.5422630  97.6804940  77.0664300  29.3766890  93.0141810  74.1776220
  28.4370560  93.1755770  74.2628680  29.6950150  93.7327490  73.6312210
  35.8979650  97.6960330  84.1555250  35.0698280  97.7653420  83.6805380
  36.4930130  98.2814640  83.6871080  33.4195100  98.3045110  77.6844310
  32.8007520  97.9664660  77.0370610  33.4019550  97.6604870  78.3923500
  32.8621660  94.4829650  85.1010120  32.4492840  95.3083360  85.3550110
  32.1297610  93.8974690  84.9086480  24.9954450  97.2689550  79.9628790
  24.5911450  96.5566800  79.4674690  25.0817570  96.9242790  80.8516830
  23.7083070  94.0432760  83.7427830  24.2597660  94.1528100  82.9681080
  24.2226580  94.4170360  84.4583060  31.5959800  97.5431920  74.6917060
  32.0353080  96.7054350  74.5454880  32.3088220  98.1761320  74.7781200
  35.1776940  88.7974730  73.0058100  34.8649600  88.8901560  73.9057170
  35.9389410  89.3755760  72.9555530  21.6959080  96.1634530  77.4635440
  21.5756680  96.8896620  76.8516710  21.3859970  95.3937440  76.9863350
  24.1622740  89.5069600  80.8459110  23.7190890  90.2879140  80.5143630
  24.7207730  89.8299490  81.5530050  27.2781560  89.1280300  75.7264940
  26.6535740  89.1240170  76.4518250  27.1911680  88.2611260  75.3300910
  26.1998640  90.0516930  82.7048710  26.4970970  90.9579760  82.6240730
  26.7484200  89.5635710  82.0908280  23.9536960  94.6303170  78.5740360
  23.7277880  94.4140340  79.4786980  23.1729490  95.0631630  78.2286330
  31.1834720  94.6366540  77.1731010  30.5843610  95.3602340  76.9894630
  31.7314330  94.5743320  76.3907460  29.7899590  93.2730080  79.2034290
  30.1829160  93.5902280  78.3902980  30.1516440  92.3941960  79.3178810
  18.8263760  89.8630880  81.4264490  18.5376810  90.4333740  82.1389470
  19.5709520  89.3835330  81.7895720  19.0133990  93.8051000  72.6367210
  18.9308660  94.7481760  72.7782200  18.6617050  93.6625910  71.7579560
  30.3754730  95.8635830  83.2985070  29.6435850  96.3722640  83.6475170
  29.9779070  95.0465810  82.9973850  26.8132120  92.5390030  81.7037560
  26.8168180  92.0979980  80.8542100  27.7083240  92.8607360  81.8109380
  22.6634500  92.4216520  80.6631770  22.3234550  92.8991750  81.4198820
  21.9011820  91.9681640  80.3032870  26.8752270  93.5402110  74.6944320
  26.9965090  93.4988590  75.6430140  26.4900780  94.4026260  74.5391050
  30.8380640  91.3169510  82.7108010  30.8553380  91.7678160  83.5549860
  30.5896220  90.4175150  82.9241450  25.8873770  95.8503250  74.0927620
  25.3190670  95.4021500  73.4663530  26.5962770  96.2096030  73.5592770
  27.1140090  96.5991810  83.4502970  27.4810220  96.1250380  84.1964310
  26.9245150  97.4733380  83.7911310  19.9780580  91.3435500  79.5796440
  19.6927500  90.9791170  80.4175060  19.9159440  90.6115960  78.9659580
  24.9039460  95.6400450  85.7687180  24.5996530  96.5192430  85.9937540
  25.8585920  95.7000240  85.8044620  29.6519170  90.2364760  76.3009810
  28.8383780  89.7377930  76.2255120  29.4581120  91.0763010  75.8846160
  32.3667560  94.6084410  74.5971970  33.2547180  94.9201640  74.4223310
  32.3372650  93.7356660  74.2052550  34.6381830  95.9196250  74.0651830
  34.5545550  96.3510470  73.2148270  35.3576020  96.3794600  74.4978650
  19.4711240  96.4794450  73.5393140  20.3406090  96.7619250  73.8229060
  18.9801560  97.2930320  73.4241950  26.6346050  97.8667660  77.6601420
  27.0908830  98.6772910  77.8861610  26.2834260  97.5490800  78.4919910
  22.5357830  88.2105310  78.1323940  22.4072460  88.2023210  79.0808860
  21.7119850  88.5488400  77.7814950  31.0290540  92.4618740  85.3432090
  31.3971360  91.6413950  85.6711660  30.1688740  92.5220630  85.7587740
  34.3952570  91.4175680  76.1519650  33.7665730  91.5221350  75.4377880
  33.9004490  91.6372460  76.9413530  26.3636600  93.6961630  77.5677530
  25.6552750  94.1647970  78.0091140  26.6481080  93.0383640  78.2022720
  27.9892530  95.1158330  85.5670060  28.4877780  95.5904150  86.2321910
  28.1315480  94.1921850  85.7740090  30.3952030  90.4212290  79.0073320
  30.2719810  90.4398420  78.0582830  31.3436590  90.4691230  79.1271720
  24.5671620  92.0046710  74.9428240  25.4162150  92.4416860  74.8768430
  24.2002890  92.3166970  75.7700300  35.1959390  91.3326290  86.4098450
  34.6932990  92.0731690  86.7492260  36.0116050  91.7210290  86.0935240
  33.4881400  96.5759470  79.8559810  32.5471540  96.5909700  80.0307500
  33.8025470  95.7895430  80.3020110  23.4663040  98.2579070  73.4163770
  24.2326310  98.1460430  73.9789200  23.5437730  97.5617040  72.7640540
  22.1609800  95.6904140  74.0996660  22.2413390  94.7431650  74.2114060
  23.0529550  96.0211020  74.2057320  25.4982070  98.2544200  75.3906410
  25.9198490  98.0884070  76.2337800  25.6232910  97.4444430  74.8961550
  28.0109710  97.2781810  72.6383510  28.5315370  96.5630830  72.2724660
  28.6578110  97.9167680  72.9384020  26.9143230  89.7576360  85.3102070
  26.4660530  89.7800620  84.4647620  26.2808430  89.3595380  85.9072370
  31.9954580  96.9384060  85.8914860  31.4689800  97.4626680  85.2880000
  32.3385920  97.5711450  86.5224590  24.3940970  94.3277430  72.3364570
  24.1930030  93.4644790  72.6977910  24.2233020  94.2410790  71.3986170
  31.8729280  89.1385660  74.8651450  32.1531570  88.2953560  75.2210870
  31.0995010  89.3708770  75.3790200  23.1923770  91.4278050  72.3242450
  23.4949670  91.4345480  71.4161600  23.9318360  91.0775910  72.8210110
  26.4108700  90.3712670  73.3098650  26.0630700  89.6936660  72.7301100
  26.6121470  89.9102180  74.1242040  19.7514340  96.9000320  79.7063020
  19.0963180  96.6311960  79.0622720  20.5892290  96.7904800  79.2565000
  32.7004780  91.6941610  73.9281510  33.1189660  91.5072590  73.0878170
  32.3940840  90.8420660  74.2384440  36.1994510  96.6065750  77.6257310
  35.8238110  95.8393680  77.1938600  35.4697630  96.9888450  78.1132240
  20.7890270  97.2852890  84.2466360  21.1563310  97.1980290  85.1262380
  20.2201090  96.5219440  84.1473220  18.9652420  94.1099250  75.6488350
  18.0616500  94.3729450  75.4740010  19.4493040  94.3810420  74.8688310
  35.4745470  94.8323240  80.9264550  35.9982950  94.3385890  80.2954720
  36.0604890  94.9673600  81.6712120  35.6535190  94.9163110  84.4484100
  34.7037900  94.8826650  84.5629090  35.8348200  95.8263220  84.2133870
  21.5079630  93.1664790  73.5582730  22.2171330  92.7448010  73.0730010
  20.7919570  93.2340020  72.9266080  21.1553790  89.2204120  72.5985380
  21.8781920  89.7613060  72.9166600  21.4278310  88.9467540  71.7226920
  34.9645440  94.0896590  76.8656960  35.4604560  93.8567460  77.6505840
  34.7661510  93.2508430  76.4494600  20.8445980  88.4710310  82.5008000
  21.4922170  87.9207690  82.0603160  21.2647820  88.7253460  83.3223810
  36.3932600  92.7257540  79.3994640  36.2831880  92.5713580  80.3376910
  37.1540190  92.1978480  79.1570050  34.7398320  88.6651670  85.8577640
  35.3770540  89.2785810  86.2236830  34.8873210  88.7012330  84.9126870
  37.2822870  90.5565460  72.6400780  38.2072180  90.4246640  72.4319070
  37.2598660  90.6358280  73.5937230  37.3561360  91.3276120  75.2657490
  36.5612860  91.2621240  75.7950400  37.5604640  92.2626760  75.2542840
  20.5977980  88.6265980  85.2433320  20.2492800  89.0829800  86.0091500
  20.2665680  87.7323110  85.3255750  31.4885400  88.0380060  84.7314320
  30.6145240  88.3715170  84.5287250  31.3796150  87.5653240  85.5566190
  32.3957380  90.2450930  86.1156040  32.0670740  89.4302690  85.7357770
  33.3439680  90.2020740  85.9921730  29.2360220  88.9549900  83.6707230
  28.4532010  89.4295400  83.9503990  28.9423150  88.0504730  83.5620410
  33.7881290  89.6573000  81.7156320  34.2289380  89.6018100  80.8677920
  33.5188880  90.5731010  81.7866500  35.6519860  89.2888240  79.7265140
  35.5908260  88.3449460  79.5796160  36.4311890  89.3968330  80.2718600
  20.5800630  89.2597380  76.1920950  21.3379990  89.3726260  75.6184980
  20.1177800  90.0966580  76.1464380  27.1214440  91.3736650  79.1823260
  26.3088950  90.9993540  78.8419140  27.6256080  90.6181730  79.4844450
  31.6239420  88.0379100  80.4206330  32.2268790  88.6099310  80.8954850
  30.8832410  88.6018540  80.1980230  34.7674020  88.4400660  75.6946610
  34.9624650  89.3384110  75.9614040  33.9803890  88.2087740  76.1879560
  22.9525780  89.7861430  74.7322920  23.4818540  88.9991230  74.6030870
  23.5854100  90.4652620  74.9658450  25.1463620  89.5236570  77.7868310
  24.5166360  88.8223880  77.9538440  24.6068760  90.2840700  77.5701470
  30.7792790  96.2366600  61.1636010  30.6986840  95.3221210  60.8927720
  30.3657210  96.7333670  60.4575720  28.9110830  98.0145620  63.0445280
  28.1352930  97.5346060  63.3343850  29.5623760  97.3351270  62.8701440
  22.9276660  98.3265430  63.9221040  22.0961540  98.0714140  64.3217550
  23.5357640  98.3976200  64.6578960  21.3368610  93.2867320  57.7063430
  20.4485310  93.6283290  57.6043310  21.6209800  93.0867640  56.8144260
  19.3001620  95.8872970  63.5903130  19.8717730  95.1195170  63.5906770
  19.3003160  96.1861730  62.6809740  20.5426490  91.2957330  65.3772060
  20.3629330  90.3983080  65.6574820  20.1406570  91.8429200  66.0519010
  29.3824990  93.4973190  63.2784370  29.7589810  92.6245070  63.1658040
  29.2844500  93.8331890  62.3874810  23.5130000  91.8698820  58.7401810
  23.6196750  92.7702550  59.0470570  22.6022360  91.8216790  58.4496460
  33.1649110  90.9923630  60.2112710  33.9858730  90.5020200  60.2538190
  33.1983190  91.5821290  60.9644550  21.1613160  93.7917830  63.9854400
  21.8423270  94.0556200  64.6041800  20.8461210  92.9518700  64.3192410
  25.3537730  94.8385190  63.0726990  25.8615950  95.3366160  63.7132010
  25.8850970  94.0620390  62.8966350  37.4548660  93.0090380  66.7756340
  36.7500830  93.3972090  66.2571450  37.7206580  93.7040670  67.3777270
  23.6373830  89.4783750  67.3390410  23.6392270  89.9956140  66.5336310
  22.8078140  89.0013930  67.3160340  33.4010590  92.9324010  62.9840250
  32.6966160  93.2208900  63.5643360  33.7622750  93.7424120  62.6239810
  23.3189160  91.1893710  65.3460860  23.6605970  92.0335760  65.0514730
  22.3804970  91.3377450  65.4626200  36.4697510  92.3778800  63.3749460
  35.5222420  92.4117780  63.5064890  36.7947500  93.1917750  63.7598820
  27.0017050  88.6775980  61.6705450  27.3092030  88.1222870  60.9540950
  26.0717750  88.8120440  61.4878440  29.3897810  96.7424810  58.4065570
  28.4627090  96.6762190  58.6354040  29.5422630  97.6804940  58.2920810
  29.3766890  93.0141810  55.4032730  28.4370560  93.1755770  55.4885190
  29.6950150  93.7327490  54.8568720  35.8979650  97.6960330  65.3811760
  35.0698280  97.7653420  64.9061890  36.4930130  98.2814640  64.9127590
  33.4195100  98.3045110  58.9100820  32.8007520  97.9664660  58.2627120
  33.4019550  97.6604870  59.6180010  32.8621660  94.4829650  66.3266630
  32.4492840  95.3083360  66.5806620  32.1297610  93.8974690  66.1342990
  24.9954450  97.2689550  61.1885300  24.5911450  96.5566800  60.6931200
  25.0817570  96.9242790  62.0773340  23.7083070  94.0432760  64.9684340
  24.2597660  94.1528100  64.1937590  24.2226580  94.4170360  65.6839570
  31.5959800  97.5431920  55.9173570  32.0353080  96.7054350  55.7711390
  32.3088220  98.1761320  56.0037710  23.3825800  97.5652120  68.5789680
  23.2433570  98.4374920  68.9477080  22.5007160  97.2224930  68.4337620
  35.1776940  88.7974730  54.2314610  34.8649600  88.8901560  55.1313680
  35.9389410  89.3755760  54.1812040  21.6959080  96.1634530  58.6891950
  21.5756680  96.8896620  58.0773220  21.3859970  95.3937440  58.2119860
  36.3878230  93.5346230  70.2088750  35.7722500  94.0425900  69.6804210
  36.0674650  92.6344560  70.1514690  24.1622740  89.5069600  62.0715620
  23.7190890  90.2879140  61.7400140  24.7207730  89.8299490  62.7786560
  28.4492550  92.3738120  67.6750940  27.9871920  92.5821140  68.4870880
  28.0470660  91.5597470  67.3721610  33.4497060  93.5947070  68.8047600
  32.5990650  93.2952820  69.1256670  33.2898850  93.8389080  67.8931420
  30.5446770  95.0948820  70.9046390  30.8700180  94.2612570  70.5648620
  31.3327100  95.6177340  71.0524720  27.2781560  89.1280300  56.9521450
  26.6535740  89.1240170  57.6774760  27.1911680  88.2611260  56.5557420
  26.1998640  90.0516930  63.9305220  26.4970970  90.9579760  63.8497240
  26.7484200  89.5635710  63.3164790  23.9536960  94.6303170  59.7996870
  23.7277880  94.4140340  60.7043490  23.1729490  95.0631630  59.4542840
  31.1834720  94.6366540  58.3987520  30.5843610  95.3602340  58.2151140
  31.7314330  94.5743320  57.6163970  26.3936170  95.5288750  70.4657140
  26.2979770  94.5883480  70.3157540  27.2368150  95.7503820  70.0705210
  29.7899590  93.2730080  60.4290800  30.1829160  93.5902280  59.6159490
  30.1516440  92.3941960  60.5435320  21.5246710  91.9402420  68.6190920
  21.1310100  92.7877630  68.8263700  20.8365110  91.3028790  68.8099560
  28.0991760  92.0237390  71.6887660  27.4090080  91.8309590  72.3233750
  28.8424060  92.3072030  72.2211960  18.8263760  89.8630880  62.6521000
  18.5376810  90.4333740  63.3645980  19.5709520  89.3835330  63.0152230
  19.0133990  93.8051000  53.8623720  18.9308660  94.7481760  54.0038710
  18.6617050  93.6625910  52.9836070  30.3754730  95.8635830  64.5241580
  29.6435850  96.3722640  64.8731680  29.9779070  95.0465810  64.2230360
  26.8132120  92.5390030  62.9294070  26.8168180  92.0979980  62.0798610
  27.7083240  92.8607360  63.0365890  22.6634500  92.4216520  61.8888280
  22.3234550  92.8991750  62.6455330  21.9011820  91.9681640  61.5289380
  26.8752270  93.5402110  55.9200830  26.9965090  93.4988590  56.8686650
  26.4900780  94.4026260  55.7647560  30.8380640  91.3169510  63.9364520
  30.8553380  91.7678160  64.7806370  30.5896220  90.4175150  64.1497960
  25.8873770  95.8503250  55.3184130  25.3190670  95.4021500  54.6920040
  26.5962770  96.2096030  54.7849280  34.2651390  88.7301690  69.7750900
  34.5897160  87.9991350  70.3008880  34.3007900  88.4115330  68.8731890
  27.1140090  96.5991810  64.6759480  27.4810220  96.1250380  65.4220820
  26.9245150  97.4733380  65.0167820  19.9780580  91.3435500  60.8052950
  19.6927500  90.9791170  61.6431570  19.9159440  90.6115960  60.1916090
  24.9039460  95.6400450  66.9943690  24.5996530  96.5192430  67.2194050
  25.8585920  95.7000240  67.0301130  29.6519170  90.2364760  57.5266320
  28.8383780  89.7377930  57.4511630  29.4581120  91.0763010  57.1102670
  32.3667560  94.6084410  55.8228480  33.2547180  94.9201640  55.6479820
  32.3372650  93.7356660  55.4309060  20.9603190  96.4803190  68.1415050
  20.6018130  97.1457040  68.7288390  20.6657750  95.6486740  68.5127670
  24.1616310  96.9387430  71.0254600  23.8616450  97.0844610  70.1282420
  24.9327550  96.3792720  70.9327990  34.6381830  95.9196250  55.2908340
  34.5545550  96.3510470  54.4404780  35.3576020  96.3794600  55.7235160
  19.4711240  96.4794450  54.7649650  20.3406090  96.7619250  55.0485570
  18.9801560  97.2930320  54.6498460  26.6346050  97.8667660  58.8857930
  27.0908830  98.6772910  59.1118120  26.2834260  97.5490800  59.7176420
  22.5357830  88.2105310  59.3580450  22.4072460  88.2023210  60.3065370
  21.7119850  88.5488400  59.0071460  19.5351760  89.9696430  68.8187150
  18.8210280  90.1693350  69.4239760  19.9546800  89.1936000  69.1901950
  31.0290540  92.4618740  66.5688600  31.3971360  91.6413950  66.8968170
  30.1688740  92.5220630  66.9844250  34.3952570  91.4175680  57.3776160
  33.7665730  91.5221350  56.6634390  33.9004490  91.6372460  58.1670040
  26.3636600  93.6961630  58.7934040  25.6552750  94.1647970  59.2347650
  26.6481080  93.0383640  59.4279230  27.9892530  95.1158330  66.7926570
  28.4877780  95.5904150  67.4578420  28.1315480  94.1921850  66.9996600
  30.3952030  90.4212290  60.2329830  30.2719810  90.4398420  59.2839340
  31.3436590  90.4691230  60.3528230  24.5671620  92.0046710  56.1684750
  25.4162150  92.4416860  56.1024940  24.2002890  92.3166970  56.9956810
  35.1959390  91.3326290  67.6354960  34.6932990  92.0731690  67.9748770
  36.0116050  91.7210290  67.3191750  33.4881400  96.5759470  61.0816320
  32.5471540  96.5909700  61.2564010  33.8025470  95.7895430  61.5276620
  23.4663040  98.2579070  54.6420280  24.2326310  98.1460430  55.2045710
  23.5437730  97.5617040  53.9897050  22.1609800  95.6904140  55.3253170
  22.2413390  94.7431650  55.4370570  23.0529550  96.0211020  55.4313830
  19.6880600  97.5119060  70.5609340  20.1919620  96.9326340  71.1325570
  18.9488020  97.7959290  71.0985710  21.7203680  95.6548650  71.4559410
  21.7609020  95.3562520  72.3644640  22.5749180  96.0556260  71.2966930
  25.4982070  98.2544200  56.6162920  25.9198490  98.0884070  57.4594310
  25.6232910  97.4444430  56.1218060  23.6609490  94.2340750  69.4233900
  23.1305950  93.7431700  68.7957240  24.3297560  94.6624950  68.8891830
  28.0109710  97.2781810  53.8640020  28.5315370  96.5630830  53.4981170
  28.6578110  97.9167680  54.1640530  33.0309720  96.0406370  71.1914240
  33.6130490  95.2858690  71.1034720  33.2071490  96.5713810  70.4145720
  24.1481790  91.2003120  69.5031190  24.0538660  90.5823870  68.7782060
  23.5679180  91.9269410  69.2761100  26.9143230  89.7576360  66.5358580
  26.4660530  89.7800620  65.6904130  26.2808430  89.3595380  67.1328880
  29.6566680  96.3846870  68.5408860  29.7762890  95.7888010  69.2803700
  30.5160680  96.4216560  68.1210160  31.9954580  96.9384060  67.1171370
  31.4689800  97.4626680  66.5136510  32.3385920  97.5711450  67.7481100
  24.3940970  94.3277430  53.5621080  24.1930030  93.4644790  53.9234420
  24.2233020  94.2410790  52.6242680  26.4235450  92.9268220  69.7984680
  27.0135140  92.6184070  70.4862500  25.6055690  92.4547970  69.9544580
  31.2428880  92.5434030  70.0317700  30.5544400  91.8815570  69.9667690
  31.9634900  92.0972300  70.4766160  31.8729280  89.1385660  56.0907960
  32.1531570  88.2953560  56.4467380  31.0995010  89.3708770  56.6046710
  23.1923770  91.4278050  53.5498960  23.4949670  91.4345480  52.6418110
  23.9318360  91.0775910  54.0466620  26.4108700  90.3712670  54.5355160
  26.0630700  89.6936660  53.9557610  26.6121470  89.9102180  55.3498550
  19.7514340  96.9000320  60.9319530  19.0963180  96.6311960  60.2879230
  20.5892290  96.7904800  60.4821510  32.7004780  91.6941610  55.1538020
  33.1189660  91.5072590  54.3134680  32.3940840  90.8420660  55.4640950
  36.1994510  96.6065750  58.8513820  35.8238110  95.8393680  58.4195110
  35.4697630  96.9888450  59.3388750  20.7890270  97.2852890  65.4722870
  21.1563310  97.1980290  66.3518890  20.2201090  96.5219440  65.3729730
  35.5894130  95.7537270  68.4853340  35.3580220  95.5250020  67.5851290
  35.8498680  96.6736820  68.4398230  20.3406270  94.1961980  69.3781290
  19.4462320  94.1628740  69.7175000  20.8803820  94.3948770  70.1432540
  34.0282200  90.9793700  71.2633040  34.9052380  90.9877100  71.6467040
  34.0403040  90.2424540  70.6525390  18.9652420  94.1099250  56.8744860
  18.0616500  94.3729450  56.6996520  19.4493040  94.3810420  56.0944820
  35.4745470  94.8323240  62.1521060  35.9982950  94.3385890  61.5211230
  36.0604890  94.9673600  62.8968630  35.6535190  94.9163110  65.6740610
  34.7037900  94.8826650  65.7885600  35.8348200  95.8263220  65.4390380
  21.5079630  93.1664790  54.7839240  22.2171330  92.7448010  54.2986520
  20.7919570  93.2340020  54.1522590  21.1553790  89.2204120  53.8241890
  21.8781920  89.7613060  54.1423110  21.4278310  88.9467540  52.9483430
  34.9645440  94.0896590  58.0913470  35.4604560  93.8567460  58.8762350
  34.7661510  93.2508430  57.6751110  20.8445980  88.4710310  63.7264510
  21.4922170  87.9207690  63.2859670  21.2647820  88.7253460  64.5480320
  36.3932600  92.7257540  60.6251150  36.2831880  92.5713580  61.5633420
  37.1540190  92.1978480  60.3826560  34.7398320  88.6651670  67.0834150
  35.3770540  89.2785810  67.4493340  34.8873210  88.7012330  66.1383380
  37.2822870  90.5565460  53.8657290  38.2072180  90.4246640  53.6575580
  37.2598660  90.6358280  54.8193740  37.3561360  91.3276120  56.4914000
  36.5612860  91.2621240  57.0206910  37.5604640  92.2626760  56.4799350
  20.5977980  88.6265980  66.4689830  20.2492800  89.0829800  67.2348010
  20.2665680  87.7323110  66.5512260  28.1102800  89.8177860  69.9909250
  28.0491690  90.4099690  70.7404660  29.0503180  89.7103820  69.8459510
  30.7477360  89.4747920  69.6301540  31.3617770  89.7927210  68.9682620
  31.2926920  88.9896510  70.2497400  21.2698620  88.1542180  69.7440600
  21.8181610  87.9730230  68.9806710  21.3353930  87.3636290  70.2796910
  31.4885400  88.0380060  65.9570830  30.6145240  88.3715170  65.7543760
  31.3796150  87.5653240  66.7822700  32.3957380  90.2450930  67.3412550
  32.0670740  89.4302690  66.9614280  33.3439680  90.2020740  67.2178240
  29.2360220  88.9549900  64.8963740  28.4532010  89.4295400  65.1760500
  28.9423150  88.0504730  64.7876920  33.7881290  89.6573000  62.9412830
  34.2289380  89.6018100  62.0934430  33.5188880  90.5731010  63.0123010
  35.6519860  89.2888240  60.9521650  35.5908260  88.3449460  60.8052670
  36.4311890  89.3968330  61.4975110  20.5800630  89.2597380  57.4177460
  21.3379990  89.3726260  56.8441490  20.1177800  90.0966580  57.3720890
  27.1214440  91.3736650  60.4079770  26.3088950  90.9993540  60.0675650
  27.6256080  90.6181730  60.7100960  31.6239420  88.0379100  61.6462840
  32.2268790  88.6099310  62.1211360  30.8832410  88.6018540  61.4236740
  34.7674020  88.4400660  56.9203120  34.9624650  89.3384110  57.1870550
  33.9803890  88.2087740  57.4136070  22.9525780  89.7861430  55.9579430
  23.4818540  88.9991230  55.8287380  23.5854100  90.4652620  56.1914960
  25.1463620  89.5236570  59.0124820  24.5166360  88.8223880  59.1794950
  24.6068760  90.2840700  58.7957980  25.2719180  88.8020550  71.4477310
  24.9903450  89.3054150  70.6838130  25.6538880  88.0042300  71.0819440
  31.8734640  88.2174130  72.0257780  31.7600090  88.5368740  72.9209300
  32.6904380  88.6186640  71.7295060  30.7792790  96.2366600  42.3892520
  30.6986840  95.3221210  42.1184230  30.3657210  96.7333670  41.6832230
  28.9110830  98.0145620  44.2701790  28.1352930  97.5346060  44.5600360
  29.5623760  97.3351270  44.0957950  22.9276660  98.3265430  45.1477550
  22.0961540  98.0714140  45.5474060  23.5357640  98.3976200  45.8835470
  21.3368610  93.2867320  38.9319940  20.4485310  93.6283290  38.8299820
  21.6209800  93.0867640  38.0400770  19.3001620  95.8872970  44.8159640
  19.8717730  95.1195170  44.8163280  19.3003160  96.1861730  43.9066250
  20.5426490  91.2957330  46.6028570  20.3629330  90.3983080  46.8831330
  20.1406570  91.8429200  47.2775520  29.3824990  93.4973190  44.5040880
  29.7589810  92.6245070  44.3914550  29.2844500  93.8331890  43.6131320
  23.5130000  91.8698820  39.9658320  23.6196750  92.7702550  40.2727080
  22.6022360  91.8216790  39.6752970  33.1649110  90.9923630  41.4369220
  33.9858730  90.5020200  41.4794700  33.1983190  91.5821290  42.1901060
  21.1613160  93.7917830  45.2110910  21.8423270  94.0556200  45.8298310
  20.8461210  92.9518700  45.5448920  25.3537730  94.8385190  44.2983500
  25.8615950  95.3366160  44.9388520  25.8850970  94.0620390  44.1222860
  37.4548660  93.0090380  48.0012850  36.7500830  93.3972090  47.4827960
  37.7206580  93.7040670  48.6033780  23.6373830  89.4783750  48.5646920
  23.6392270  89.9956140  47.7592820  22.8078140  89.0013930  48.5416850
  33.4010590  92.9324010  44.2096760  32.6966160  93.2208900  44.7899870
  33.7622750  93.7424120  43.8496320  23.3189160  91.1893710  46.5717370
  23.6605970  92.0335760  46.2771240  22.3804970  91.3377450  46.6882710
  36.4697510  92.3778800  44.6005970  35.5222420  92.4117780  44.7321400
  36.7947500  93.1917750  44.9855330  27.0017050  88.6775980  42.8961960
  27.3092030  88.1222870  42.1797460  26.0717750  88.8120440  42.7134950
  29.3897810  96.7424810  39.6322080  28.4627090  96.6762190  39.8610550
  29.5422630  97.6804940  39.5177320  29.3766890  93.0141810  36.6289240
  28.4370560  93.1755770  36.7141700  29.6950150  93.7327490  36.0825230
  35.8979650  97.6960330  46.6068270  35.0698280  97.7653420  46.1318400
  36.4930130  98.2814640  46.1384100  33.4195100  98.3045110  40.1357330
  32.8007520  97.9664660  39.4883630  33.4019550  97.6604870  40.8436520
  32.8621660  94.4829650  47.5523140  32.4492840  95.3083360  47.8063130
  32.1297610  93.8974690  47.3599500  24.9954450  97.2689550  42.4141810
  24.5911450  96.5566800  41.9187710  25.0817570  96.9242790  43.3029850
  23.7083070  94.0432760  46.1940850  24.2597660  94.1528100  45.4194100
  24.2226580  94.4170360  46.9096080  31.5959800  97.5431920  37.1430080
  32.0353080  96.7054350  36.9967900  32.3088220  98.1761320  37.2294220
  23.3825800  97.5652120  49.8046190  23.2433570  98.4374920  50.1733590
  22.5007160  97.2224930  49.6594130  35.1776940  88.7974730  35.4571120
  34.8649600  88.8901560  36.3570190  35.9389410  89.3755760  35.4068550
  21.6959080  96.1634530  39.9148460  21.5756680  96.8896620  39.3029730
  21.3859970  95.3937440  39.4376370  36.3878230  93.5346230  51.4345260
  35.7722500  94.0425900  50.9060720  36.0674650  92.6344560  51.3771200
  24.1622740  89.5069600  43.2972130  23.7190890  90.2879140  42.9656650
  24.7207730  89.8299490  44.0043070  28.4492550  92.3738120  48.9007450
  27.9871920  92.5821140  49.7127390  28.0470660  91.5597470  48.5978120
  33.4497060  93.5947070  50.0304110  32.5990650  93.2952820  50.3513180
  33.2898850  93.8389080  49.1187930  30.5446770  95.0948820  52.1302900
  30.8700180  94.2612570  51.7905130  31.3327100  95.6177340  52.2781230
  27.2781560  89.1280300  38.1777960  26.6535740  89.1240170  38.9031270
  27.1911680  88.2611260  37.7813930  26.1998640  90.0516930  45.1561730
  26.4970970  90.9579760  45.0753750  26.7484200  89.5635710  44.5421300
  23.9536960  94.6303170  41.0253380  23.7277880  94.4140340  41.9300000
  23.1729490  95.0631630  40.6799350  31.1834720  94.6366540  39.6244030
  30.5843610  95.3602340  39.4407650  31.7314330  94.5743320  38.8420480
  26.3936170  95.5288750  51.6913650  26.2979770  94.5883480  51.5414050
  27.2368150  95.7503820  51.2961720  29.7899590  93.2730080  41.6547310
  30.1829160  93.5902280  40.8416000  30.1516440  92.3941960  41.7691830
  21.5246710  91.9402420  49.8447430  21.1310100  92.7877630  50.0520210
  20.8365110  91.3028790  50.0356070  28.0991760  92.0237390  52.9144170
  27.4090080  91.8309590  53.5490260  28.8424060  92.3072030  53.4468470
  18.8263760  89.8630880  43.8777510  18.5376810  90.4333740  44.5902490
  19.5709520  89.3835330  44.2408740  19.0133990  93.8051000  35.0880230
  18.9308660  94.7481760  35.2295220  18.6617050  93.6625910  34.2092580
  30.3754730  95.8635830  45.7498090  29.6435850  96.3722640  46.0988190
  29.9779070  95.0465810  45.4486870  26.8132120  92.5390030  44.1550580
  26.8168180  92.0979980  43.3055120  27.7083240  92.8607360  44.2622400
  22.6634500  92.4216520  43.1144790  22.3234550  92.8991750  43.8711840
  21.9011820  91.9681640  42.7545890  26.8752270  93.5402110  37.1457340
  26.9965090  93.4988590  38.0943160  26.4900780  94.4026260  36.9904070
  30.8380640  91.3169510  45.1621030  30.8553380  91.7678160  46.0062880
  30.5896220  90.4175150  45.3754470  25.8873770  95.8503250  36.5440640
  25.3190670  95.4021500  35.9176550  26.5962770  96.2096030  36.0105790
  34.2651390  88.7301690  51.0007410  34.5897160  87.9991350  51.5265390
  34.3007900  88.4115330  50.0988400  27.1140090  96.5991810  45.9015990
  27.4810220  96.1250380  46.6477330  26.9245150  97.4733380  46.2424330
  19.9780580  91.3435500  42.0309460  19.6927500  90.9791170  42.8688080
  19.9159440  90.6115960  41.4172600  24.9039460  95.6400450  48.2200200
  24.5996530  96.5192430  48.4450560  25.8585920  95.7000240  48.2557640
  29.6519170  90.2364760  38.7522830  28.8383780  89.7377930  38.6768140
  29.4581120  91.0763010  38.3359180  32.3667560  94.6084410  37.0484990
  33.2547180  94.9201640  36.8736330  32.3372650  93.7356660  36.6565570
  20.9603190  96.4803190  49.3671560  20.6018130  97.1457040  49.9544900
  20.6657750  95.6486740  49.7384180  24.1616310  96.9387430  52.2511110
  23.8616450  97.0844610  51.3538930  24.9327550  96.3792720  52.1584500
  34.6381830  95.9196250  36.5164850  34.5545550  96.3510470  35.6661290
  35.3576020  96.3794600  36.9491670  19.4711240  96.4794450  35.9906160
  20.3406090  96.7619250  36.2742080  18.9801560  97.2930320  35.8754970
  26.6346050  97.8667660  40.1114440  27.0908830  98.6772910  40.3374630
  26.2834260  97.5490800  40.9432930  22.5357830  88.2105310  40.5836960
  22.4072460  88.2023210  41.5321880  21.7119850  88.5488400  40.2327970
  19.5351760  89.9696430  50.0443660  18.8210280  90.1693350  50.6496270
  19.9546800  89.1936000  50.4158460  31.0290540  92.4618740  47.7945110
  31.3971360  91.6413950  48.1224680  30.1688740  92.5220630  48.2100760
  34.3952570  91.4175680  38.6032670  33.7665730  91.5221350  37.8890900
  33.9004490  91.6372460  39.3926550  26.3636600  93.6961630  40.0190550
  25.6552750  94.1647970  40.4604160  26.6481080  93.0383640  40.6535740
  27.9892530  95.1158330  48.0183080  28.4877780  95.5904150  48.6834930
  28.1315480  94.1921850  48.2253110  30.3952030  90.4212290  41.4586340
  30.2719810  90.4398420  40.5095850  31.3436590  90.4691230  41.5784740
  24.5671620  92.0046710  37.3941260  25.4162150  92.4416860  37.3281450
  24.2002890  92.3166970  38.2213320  35.1959390  91.3326290  48.8611470
  34.6932990  92.0731690  49.2005280  36.0116050  91.7210290  48.5448260
  33.4881400  96.5759470  42.3072830  32.5471540  96.5909700  42.4820520
  33.8025470  95.7895430  42.7533130  23.4663040  98.2579070  35.8676790
  24.2326310  98.1460430  36.4302220  23.5437730  97.5617040  35.2153560
  22.1609800  95.6904140  36.5509680  22.2413390  94.7431650  36.6627080
  23.0529550  96.0211020  36.6570340  19.6880600  97.5119060  51.7865850
  20.1919620  96.9326340  52.3582080  18.9488020  97.7959290  52.3242220
  21.7203680  95.6548650  52.6815920  21.7609020  95.3562520  53.5901150
  22.5749180  96.0556260  52.5223440  25.4982070  98.2544200  37.8419430
  25.9198490  98.0884070  38.6850820  25.6232910  97.4444430  37.3474570
  23.6609490  94.2340750  50.6490410  23.1305950  93.7431700  50.0213750
  24.3297560  94.6624950  50.1148340  28.0109710  97.2781810  35.0896530
  28.5315370  96.5630830  34.7237680  28.6578110  97.9167680  35.3897040
  33.0309720  96.0406370  52.4170750  33.6130490  95.2858690  52.3291230
  33.2071490  96.5713810  51.6402230  24.1481790  91.2003120  50.7287700
  24.0538660  90.5823870  50.0038570  23.5679180  91.9269410  50.5017610
  26.9143230  89.7576360  47.7615090  26.4660530  89.7800620  46.9160640
  26.2808430  89.3595380  48.3585390  29.6566680  96.3846870  49.7665370
  29.7762890  95.7888010  50.5060210  30.5160680  96.4216560  49.3466670
  31.9954580  96.9384060  48.3427880  31.4689800  97.4626680  47.7393020
  32.3385920  97.5711450  48.9737610  24.3940970  94.3277430  34.7877590
  24.1930030  93.4644790  35.1490930  24.2233020  94.2410790  33.8499190
  26.4235450  92.9268220  51.0241190  27.0135140  92.6184070  51.7119010
  25.6055690  92.4547970  51.1801090  31.2428880  92.5434030  51.2574210
  30.5544400  91.8815570  51.1924200  31.9634900  92.0972300  51.7022670
  31.8729280  89.1385660  37.3164470  32.1531570  88.2953560  37.6723890
  31.0995010  89.3708770  37.8303220  23.1923770  91.4278050  34.7755470
  23.4949670  91.4345480  33.8674620  23.9318360  91.0775910  35.2723130
  26.4108700  90.3712670  35.7611670  26.0630700  89.6936660  35.1814120
  26.6121470  89.9102180  36.5755060  19.7514340  96.9000320  42.1576040
  19.0963180  96.6311960  41.5135740  20.5892290  96.7904800  41.7078020
  32.7004780  91.6941610  36.3794530  33.1189660  91.5072590  35.5391190
  32.3940840  90.8420660  36.6897460  36.1994510  96.6065750  40.0770330
  35.8238110  95.8393680  39.6451620  35.4697630  96.9888450  40.5645260
  20.7890270  97.2852890  46.6979380  21.1563310  97.1980290  47.5775400
  20.2201090  96.5219440  46.5986240  35.5894130  95.7537270  49.7109850
  35.3580220  95.5250020  48.8107800  35.8498680  96.6736820  49.6654740
  20.3406270  94.1961980  50.6037800  19.4462320  94.1628740  50.9431510
  20.8803820  94.3948770  51.3689050  34.0282200  90.9793700  52.4889550
  34.9052380  90.9877100  52.8723550  34.0403040  90.2424540  51.8781900
  18.9652420  94.1099250  38.1001370  18.0616500  94.3729450  37.9253030
  19.4493040  94.3810420  37.3201330  35.4745470  94.8323240  43.3777570
  35.9982950  94.3385890  42.7467740  36.0604890  94.9673600  44.1225140
  35.6535190  94.9163110  46.8997120  34.7037900  94.8826650  47.0142110
  35.8348200  95.8263220  46.6646890  21.5079630  93.1664790  36.0095750
  22.2171330  92.7448010  35.5243030  20.7919570  93.2340020  35.3779100
  21.1553790  89.2204120  35.0498400  21.8781920  89.7613060  35.3679620
  21.4278310  88.9467540  34.1739940  34.9645440  94.0896590  39.3169980
  35.4604560  93.8567460  40.1018860  34.7661510  93.2508430  38.9007620
  20.8445980  88.4710310  44.9521020  21.4922170  87.9207690  44.5116180
  21.2647820  88.7253460  45.7736830  36.3932600  92.7257540  41.8507660
  36.2831880  92.5713580  42.7889930  37.1540190  92.1978480  41.6083070
  34.7398320  88.6651670  48.3090660  35.3770540  89.2785810  48.6749850
  34.8873210  88.7012330  47.3639890  37.2822870  90.5565460  35.0913800
  38.2072180  90.4246640  34.8832090  37.2598660  90.6358280  36.0450250
  37.3561360  91.3276120  37.7170510  36.5612860  91.2621240  38.2463420
  37.5604640  92.2626760  37.7055860  20.5977980  88.6265980  47.6946340
  20.2492800  89.0829800  48.4604520  20.2665680  87.7323110  47.7768770
  28.1102800  89.8177860  51.2165760  28.0491690  90.4099690  51.9661170
  29.0503180  89.7103820  51.0716020  30.7477360  89.4747920  50.8558050
  31.3617770  89.7927210  50.1939130  31.2926920  88.9896510  51.4753910
  21.2698620  88.1542180  50.9697110  21.8181610  87.9730230  50.2063220
  21.3353930  87.3636290  51.5053420  31.4885400  88.0380060  47.1827340
  30.6145240  88.3715170  46.9800270  31.3796150  87.5653240  48.0079210
  32.3957380  90.2450930  48.5669060  32.0670740  89.4302690  48.1870790
  33.3439680  90.2020740  48.4434750  29.2360220  88.9549900  46.1220250
  28.4532010  89.4295400  46.4017010  28.9423150  88.0504730  46.0133430
  33.7881290  89.6573000  44.1669340  34.2289380  89.6018100  43.3190940
  33.5188880  90.5731010  44.2379520  35.6519860  89.2888240  42.1778160
  35.5908260  88.3449460  42.0309180  36.4311890  89.3968330  42.7231620
  20.5800630  89.2597380  38.6433970  21.3379990  89.3726260  38.0698000
  20.1177800  90.0966580  38.5977400  27.1214440  91.3736650  41.6336280
  26.3088950  90.9993540  41.2932160  27.6256080  90.6181730  41.9357470
  31.6239420  88.0379100  42.8719350  32.2268790  88.6099310  43.3467870
  30.8832410  88.6018540  42.6493250  34.7674020  88.4400660  38.1459630
  34.9624650  89.3384110  38.4127060  33.9803890  88.2087740  38.6392580
  22.9525780  89.7861430  37.1835940  23.4818540  88.9991230  37.0543890
  23.5854100  90.4652620  37.4171470  25.1463620  89.5236570  40.2381330
  24.5166360  88.8223880  40.4051460  24.6068760  90.2840700  40.0214490
  25.2719180  88.8020550  52.6733820  24.9903450  89.3054150  51.9094640
  25.6538880  88.0042300  52.3075950  31.8734640  88.2174130  53.2514290
  31.7600090  88.5368740  54.1465810  32.6904380  88.6186640  52.9551570
  30.7792790  96.2366600  23.6149030  30.6986840  95.3221210  23.3440740
  30.3657210  96.7333670  22.9088740  28.9110830  98.0145620  25.4958300
  28.1352930  97.5346060  25.7856870  29.5623760  97.3351270  25.3214460
  22.9276660  98.3265430  26.3734060  22.0961540  98.0714140  26.7730570
  23.5357640  98.3976200  27.1091980  21.3368610  93.2867320  20.1576450
  20.4485310  93.6283290  20.0556330  21.6209800  93.0867640  19.2657280
  19.3001620  95.8872970  26.0416150  19.8717730  95.1195170  26.0419790
  19.3003160  96.1861730  25.1322760  20.5426490  91.2957330  27.8285080
  20.3629330  90.3983080  28.1087840  20.1406570  91.8429200  28.5032030
  29.3824990  93.4973190  25.7297390  29.7589810  92.6245070  25.6171060
  29.2844500  93.8331890  24.8387830  23.5130000  91.8698820  21.1914830
  23.6196750  92.7702550  21.4983590  22.6022360  91.8216790  20.9009480
  33.1649110  90.9923630  22.6625730  33.9858730  90.5020200  22.7051210
  33.1983190  91.5821290  23.4157570  21.1613160  93.7917830  26.4367420
  21.8423270  94.0556200  27.0554820  20.8461210  92.9518700  26.7705430
  25.3537730  94.8385190  25.5240010  25.8615950  95.3366160  26.1645030
  25.8850970  94.0620390  25.3479370  37.4548660  93.0090380  29.2269360
  36.7500830  93.3972090  28.7084470  37.7206580  93.7040670  29.8290290
  23.6373830  89.4783750  29.7903430  23.6392270  89.9956140  28.9849330
  22.8078140  89.0013930  29.7673360  33.4010590  92.9324010  25.4353270
  32.6966160  93.2208900  26.0156380  33.7622750  93.7424120  25.0752830
  23.3189160  91.1893710  27.7973880  23.6605970  92.0335760  27.5027750
  22.3804970  91.3377450  27.9139220  36.4697510  92.3778800  25.8262480
  35.5222420  92.4117780  25.9577910  36.7947500  93.1917750  26.2111840
  27.0017050  88.6775980  24.1218470  27.3092030  88.1222870  23.4053970
  26.0717750  88.8120440  23.9391460  29.3897810  96.7424810  20.8578590
  28.4627090  96.6762190  21.0867060  29.5422630  97.6804940  20.7433830
  29.3766890  93.0141810  17.8545750  28.4370560  93.1755770  17.9398210
  29.6950150  93.7327490  17.3081740  35.8979650  97.6960330  27.8324780
  35.0698280  97.7653420  27.3574910  36.4930130  98.2814640  27.3640610
  33.4195100  98.3045110  21.3613840  32.8007520  97.9664660  20.7140140
  33.4019550  97.6604870  22.0693030  32.8621660  94.4829650  28.7779650
  32.4492840  95.3083360  29.0319640  32.1297610  93.8974690  28.5856010
  24.9954450  97.2689550  23.6398320  24.5911450  96.5566800  23.1444220
  25.0817570  96.9242790  24.5286360  23.7083070  94.0432760  27.4197360
  24.2597660  94.1528100  26.6450610  24.2226580  94.4170360  28.1352590
  31.5959800  97.5431920  18.3686590  32.0353080  96.7054350  18.2224410
  32.3088220  98.1761320  18.4550730  23.3825800  97.5652120  31.0302700
  23.2433570  98.4374920  31.3990100  22.5007160  97.2224930  30.8850640
  35.1776940  88.7974730  16.6827630  34.8649600  88.8901560  17.5826700
  35.9389410  89.3755760  16.6325060  21.6959080  96.1634530  21.1404970
  21.5756680  96.8896620  20.5286240  21.3859970  95.3937440  20.6632880
  36.3878230  93.5346230  32.6601770  35.7722500  94.0425900  32.1317230
  36.0674650  92.6344560  32.6027710  24.1622740  89.5069600  24.5228640
  23.7190890  90.2879140  24.1913160  24.7207730  89.8299490  25.2299580
  28.4492550  92.3738120  30.1263960  27.9871920  92.5821140  30.9383900
  28.0470660  91.5597470  29.8234630  33.4497060  93.5947070  31.2560620
  32.5990650  93.2952820  31.5769690  33.2898850  93.8389080  30.3444440
  30.5446770  95.0948820  33.3559410  30.8700180  94.2612570  33.0161640
  31.3327100  95.6177340  33.5037740  27.2781560  89.1280300  19.4034470
  26.6535740  89.1240170  20.1287780  27.1911680  88.2611260  19.0070440
  26.1998640  90.0516930  26.3818240  26.4970970  90.9579760  26.3010260
  26.7484200  89.5635710  25.7677810  23.9536960  94.6303170  22.2509890
  23.7277880  94.4140340  23.1556510  23.1729490  95.0631630  21.9055860
  31.1834720  94.6366540  20.8500540  30.5843610  95.3602340  20.6664160
  31.7314330  94.5743320  20.0676990  26.3936170  95.5288750  32.9170160
  26.2979770  94.5883480  32.7670560  27.2368150  95.7503820  32.5218230
  29.7899590  93.2730080  22.8803820  30.1829160  93.5902280  22.0672510
  30.1516440  92.3941960  22.9948340  21.5246710  91.9402420  31.0703940
  21.1310100  92.7877630  31.2776720  20.8365110  91.3028790  31.2612580
  28.0991760  92.0237390  34.1400680  27.4090080  91.8309590  34.7746770
  28.8424060  92.3072030  34.6724980  18.8263760  89.8630880  25.1034020
  18.5376810  90.4333740  25.8159000  19.5709520  89.3835330  25.4665250
  19.0133990  93.8051000  16.3136740  18.9308660  94.7481760  16.4551730
  18.6617050  93.6625910  15.4349090  30.3754730  95.8635830  26.9754600
  29.6435850  96.3722640  27.3244700  29.9779070  95.0465810  26.6743380
  26.8132120  92.5390030  25.3807090  26.8168180  92.0979980  24.5311630
  27.7083240  92.8607360  25.4878910  22.6634500  92.4216520  24.3401300
  22.3234550  92.8991750  25.0968350  21.9011820  91.9681640  23.9802400
  26.8752270  93.5402110  18.3713850  26.9965090  93.4988590  19.3199670
  26.4900780  94.4026260  18.2160580  30.8380640  91.3169510  26.3877540
  30.8553380  91.7678160  27.2319390  30.5896220  90.4175150  26.6010980
  25.8873770  95.8503250  17.7697150  25.3190670  95.4021500  17.1433060
  26.5962770  96.2096030  17.2362300  34.2651390  88.7301690  32.2263920
  34.5897160  87.9991350  32.7521900  34.3007900  88.4115330  31.3244910
  27.1140090  96.5991810  27.1272500  27.4810220  96.1250380  27.8733840
  26.9245150  97.4733380  27.4680840  19.9780580  91.3435500  23.2565970
  19.6927500  90.9791170  24.0944590  19.9159440  90.6115960  22.6429110
  24.9039460  95.6400450  29.4456710  24.5996530  96.5192430  29.6707070
  25.8585920  95.7000240  29.4814150  29.6519170  90.2364760  19.9779340
  28.8383780  89.7377930  19.9024650  29.4581120  91.0763010  19.5615690
  32.3667560  94.6084410  18.2741500  33.2547180  94.9201640  18.0992840
  32.3372650  93.7356660  17.8822080  20.9603190  96.4803190  30.5928070
  20.6018130  97.1457040  31.1801410  20.6657750  95.6486740  30.9640690
  24.1616310  96.9387430  33.4767620  23.8616450  97.0844610  32.5795440
  24.9327550  96.3792720  33.3841010  34.6381830  95.9196250  17.7421360
  34.5545550  96.3510470  16.8917800  35.3576020  96.3794600  18.1748180
  19.4711240  96.4794450  17.2162670  20.3406090  96.7619250  17.4998590
  18.9801560  97.2930320  17.1011480  26.6346050  97.8667660  21.3370950
  27.0908830  98.6772910  21.5631140  26.2834260  97.5490800  22.1689440
  22.5357830  88.2105310  21.8093470  22.4072460  88.2023210  22.7578390
  21.7119850  88.5488400  21.4584480  19.5351760  89.9696430  31.2700170
  18.8210280  90.1693350  31.8752780  19.9546800  89.1936000  31.6414970
  31.0290540  92.4618740  29.0201620  31.3971360  91.6413950  29.3481190
  30.1688740  92.5220630  29.4357270  34.3952570  91.4175680  19.8289180
  33.7665730  91.5221350  19.1147410  33.9004490  91.6372460  20.6183060
  26.3636600  93.6961630  21.2447060  25.6552750  94.1647970  21.6860670
  26.6481080  93.0383640  21.8792250  27.9892530  95.1158330  29.2439590
  28.4877780  95.5904150  29.9091440  28.1315480  94.1921850  29.4509620
  30.3952030  90.4212290  22.6842850  30.2719810  90.4398420  21.7352360
  31.3436590  90.4691230  22.8041250  24.5671620  92.0046710  18.6197770
  25.4162150  92.4416860  18.5537960  24.2002890  92.3166970  19.4469830
  35.1959390  91.3326290  30.0867980  34.6932990  92.0731690  30.4261790
  36.0116050  91.7210290  29.7704770  33.4881400  96.5759470  23.5329340
  32.5471540  96.5909700  23.7077030  33.8025470  95.7895430  23.9789640
  23.4663040  98.2579070  17.0933300  24.2326310  98.1460430  17.6558730
  23.5437730  97.5617040  16.4410070  22.1609800  95.6904140  17.7766190
  22.2413390  94.7431650  17.8883590  23.0529550  96.0211020  17.8826850
  19.6880600  97.5119060  33.0122360  20.1919620  96.9326340  33.5838590
  18.9488020  97.7959290  33.5498730  21.7203680  95.6548650  33.9072430
  21.7609020  95.3562520  34.8157660  22.5749180  96.0556260  33.7479950
  25.4982070  98.2544200  19.0675940  25.9198490  98.0884070  19.9107330
  25.6232910  97.4444430  18.5731080  23.6609490  94.2340750  31.8746920
  23.1305950  93.7431700  31.2470260  24.3297560  94.6624950  31.3404850
  28.0109710  97.2781810  16.3153040  28.5315370  96.5630830  15.9494190
  28.6578110  97.9167680  16.6153550  33.0309720  96.0406370  33.6427260
  33.6130490  95.2858690  33.5547740  33.2071490  96.5713810  32.8658740
  24.1481790  91.2003120  31.9544210  24.0538660  90.5823870  31.2295080
  23.5679180  91.9269410  31.7274120  26.9143230  89.7576360  28.9871600
  26.4660530  89.7800620  28.1417150  26.2808430  89.3595380  29.5841900
  29.6566680  96.3846870  30.9921880  29.7762890  95.7888010  31.7316720
  30.5160680  96.4216560  30.5723180  31.9954580  96.9384060  29.5684390
  31.4689800  97.4626680  28.9649530  32.3385920  97.5711450  30.1994120
  24.3940970  94.3277430  16.0134100  24.1930030  93.4644790  16.3747440
  24.2233020  94.2410790  15.0755700  26.4235450  92.9268220  32.2497700
  27.0135140  92.6184070  32.9375520  25.6055690  92.4547970  32.4057600
  31.2428880  92.5434030  32.4830720  30.5544400  91.8815570  32.4180710
  31.9634900  92.0972300  32.9279180  31.8729280  89.1385660  18.5420980
  32.1531570  88.2953560  18.8980400  31.0995010  89.3708770  19.0559730
  23.1923770  91.4278050  16.0011980  23.4949670  91.4345480  15.0931130
  23.9318360  91.0775910  16.4979640  26.4108700  90.3712670  16.9868180
  26.0630700  89.6936660  16.4070630  26.6121470  89.9102180  17.8011570
  19.7514340  96.9000320  23.3832550  19.0963180  96.6311960  22.7392250
  20.5892290  96.7904800  22.9334530  32.7004780  91.6941610  17.6051040
  33.1189660  91.5072590  16.7647700  32.3940840  90.8420660  17.9153970
  36.1994510  96.6065750  21.3026840  35.8238110  95.8393680  20.8708130
  35.4697630  96.9888450  21.7901770  20.7890270  97.2852890  27.9235890
  21.1563310  97.1980290  28.8031910  20.2201090  96.5219440  27.8242750
  35.5894130  95.7537270  30.9366360  35.3580220  95.5250020  30.0364310
  35.8498680  96.6736820  30.8911250  20.3406270  94.1961980  31.8294310
  19.4462320  94.1628740  32.1688020  20.8803820  94.3948770  32.5945560
  34.0282200  90.9793700  33.7146060  34.9052380  90.9877100  34.0980060
  34.0403040  90.2424540  33.1038410  18.9652420  94.1099250  19.3257880
  18.0616500  94.3729450  19.1509540  19.4493040  94.3810420  18.5457840
  35.4745470  94.8323240  24.6034080  35.9982950  94.3385890  23.9724250
  36.0604890  94.9673600  25.3481650  35.6535190  94.9163110  28.1253630
  34.7037900  94.8826650  28.2398620  35.8348200  95.8263220  27.8903400
  21.5079630  93.1664790  17.2352260  22.2171330  92.7448010  16.7499540
  20.7919570  93.2340020  16.6035610  21.1553790  89.2204120  16.2754910
  21.8781920  89.7613060  16.5936130  21.4278310  88.9467540  15.3996450
  34.9645440  94.0896590  20.5426490  35.4604560  93.8567460  21.3275370
  34.7661510  93.2508430  20.1264130  20.8445980  88.4710310  26.1777530
  21.4922170  87.9207690  25.7372690  21.2647820  88.7253460  26.9993340
  36.3932600  92.7257540  23.0764170  36.2831880  92.5713580  24.0146440
  37.1540190  92.1978480  22.8339580  34.7398320  88.6651670  29.5347170
  35.3770540  89.2785810  29.9006360  34.8873210  88.7012330  28.5896400
  37.2822870  90.5565460  16.3170310  38.2072180  90.4246640  16.1088600
  37.2598660  90.6358280  17.2706760  37.3561360  91.3276120  18.9427020
  36.5612860  91.2621240  19.4719930  37.5604640  92.2626760  18.9312370
  20.5977980  88.6265980  28.9202850  20.2492800  89.0829800  29.6861030
  20.2665680  87.7323110  29.0025280  28.1102800  89.8177860  32.4422270
  28.0491690  90.4099690  33.1917680  29.0503180  89.7103820  32.2972530
  30.7477360  89.4747920  32.0814560  31.3617770  89.7927210  31.4195640
  31.2926920  88.9896510  32.7010420  21.2698620  88.1542180  32.1953620
  21.8181610  87.9730230  31.4319730  21.3353930  87.3636290  32.7309930
  31.4885400  88.0380060  28.4083850  30.6145240  88.3715170  28.2056780
  31.3796150  87.5653240  29.2335720  32.3957380  90.2450930  29.7925570
  32.0670740  89.4302690  29.4127300  33.3439680  90.2020740  29.6691260
  29.2360220  88.9549900  27.3476760  28.4532010  89.4295400  27.6273520
  28.9423150  88.0504730  27.2389940  33.7881290  89.6573000  25.3925850
  34.2289380  89.6018100  24.5447450  33.5188880  90.5731010  25.4636030
  35.6519860  89.2888240  23.4034670  35.5908260  88.3449460  23.2565690
  36.4311890  89.3968330  23.9488130  20.5800630  89.2597380  19.8690480
  21.3379990  89.3726260  19.2954510  20.1177800  90.0966580  19.8233910
  27.1214440  91.3736650  22.8592790  26.3088950  90.9993540  22.5188670
  27.6256080  90.6181730  23.1613980  31.6239420  88.0379100  24.0975860
  32.2268790  88.6099310  24.5724380  30.8832410  88.6018540  23.8749760
  34.7674020  88.4400660  19.3716140  34.9624650  89.3384110  19.6383570
  33.9803890  88.2087740  19.8649090  22.9525780  89.7861430  18.4092450
  23.4818540  88.9991230  18.2800400  23.5854100  90.4652620  18.6427980
  25.1463620  89.5236570  21.4637840  24.5166360  88.8223880  21.6307970
  24.6068760  90.2840700  21.2471000  25.2719180  88.8020550  33.8990330
  24.9903450  89.3054150  33.1351150  25.6538880  88.0042300  33.5332460
  31.8734640  88.2174130  34.4770800  31.7600090  88.5368740  35.3722320
  32.6904380  88.6186640  34.1808080  30.7792790  96.2366600   4.8405540
  30.6986840  95.3221210   4.5697250  30.3657210  96.7333670   4.1345250
  28.9110830  98.0145620   6.7214810  28.1352930  97.5346060   7.0113380
  29.5623760  97.3351270   6.5470970  22.9276660  98.3265430   7.5990570
  22.0961540  98.0714140   7.9987080  23.5357640  98.3976200   8.3348490
  19.3001620  95.8872970   7.2672660  19.8717730  95.1195170   7.2676300
  19.3003160  96.1861730   6.3579270  20.5426490  91.2957330   9.0541590
  20.3629330  90.3983080   9.3344350  20.1406570  91.8429200   9.7288540
  29.3824990  93.4973190   6.9553900  29.7589810  92.6245070   6.8427570
  29.2844500  93.8331890   6.0644340  23.5130000  91.8698820   2.4171340
  23.6196750  92.7702550   2.7240100  22.6022360  91.8216790   2.1265990
  33.1649110  90.9923630   3.8882240  33.9858730  90.5020200   3.9307720
  33.1983190  91.5821290   4.6414080  21.1613160  93.7917830   7.6623930
  21.8423270  94.0556200   8.2811330  20.8461210  92.9518700   7.9961940
  25.3537730  94.8385190   6.7496520  25.8615950  95.3366160   7.3901540
  25.8850970  94.0620390   6.5735880  37.4548660  93.0090380  10.4525870
  36.7500830  93.3972090   9.9340980  37.7206580  93.7040670  11.0546800
  23.6373830  89.4783750  11.0159940  23.6392270  89.9956140  10.2105840
  22.8078140  89.0013930  10.9929870  33.4010590  92.9324010   6.6609780
  32.6966160  93.2208900   7.2412890  33.7622750  93.7424120   6.3009340
  23.3189160  91.1893710   9.0230390  23.6605970  92.0335760   8.7284260
  22.3804970  91.3377450   9.1395730  36.4697510  92.3778800   7.0518990
  35.5222420  92.4117780   7.1834420  36.7947500  93.1917750   7.4368350
  27.0017050  88.6775980   5.3474980  27.3092030  88.1222870   4.6310480
  26.0717750  88.8120440   5.1647970  29.3897810  96.7424810   2.0835100
  28.4627090  96.6762190   2.3123570  29.5422630  97.6804940   1.9690340
  35.8979650  97.6960330   9.0581290  35.0698280  97.7653420   8.5831420
  36.4930130  98.2814640   8.5897120  33.4195100  98.3045110   2.5870350
  32.8007520  97.9664660   1.9396650  33.4019550  97.6604870   3.2949540
  32.8621660  94.4829650  10.0036160  32.4492840  95.3083360  10.2576150
  32.1297610  93.8974690   9.8112520  24.9954450  97.2689550   4.8654830
  24.5911450  96.5566800   4.3700730  25.0817570  96.9242790   5.7542870
  23.7083070  94.0432760   8.6453870  24.2597660  94.1528100   7.8707120
  24.2226580  94.4170360   9.3609100  23.3825800  97.5652120  12.2559210
  23.2433570  98.4374920  12.6246610  22.5007160  97.2224930  12.1107150
  21.6959080  96.1634530   2.3661480  21.5756680  96.8896620   1.7542750
  21.3859970  95.3937440   1.8889390  36.3878230  93.5346230  13.8858280
  35.7722500  94.0425900  13.3573740  36.0674650  92.6344560  13.8284220
  24.1622740  89.5069600   5.7485150  23.7190890  90.2879140   5.4169670
  24.7207730  89.8299490   6.4556090  28.4492550  92.3738120  11.3520470
  27.9871920  92.5821140  12.1640410  28.0470660  91.5597470  11.0491140
  33.4497060  93.5947070  12.4817130  32.5990650  93.2952820  12.8026200
  33.2898850  93.8389080  11.5700950  30.5446770  95.0948820  14.5815920
  30.8700180  94.2612570  14.2418150  31.3327100  95.6177340  14.7294250
  26.1998640  90.0516930   7.6074750  26.4970970  90.9579760   7.5266770
  26.7484200  89.5635710   6.9934320  23.9536960  94.6303170   3.4766400
  23.7277880  94.4140340   4.3813020  23.1729490  95.0631630   3.1312370
  31.1834720  94.6366540   2.0757050  30.5843610  95.3602340   1.8920670
  31.7314330  94.5743320   1.2933500  26.3936170  95.5288750  14.1426670
  26.2979770  94.5883480  13.9927070  27.2368150  95.7503820  13.7474740
  29.7899590  93.2730080   4.1060330  30.1829160  93.5902280   3.2929020
  30.1516440  92.3941960   4.2204850  21.5246710  91.9402420  12.2960450
  21.1310100  92.7877630  12.5033230  20.8365110  91.3028790  12.4869090
  28.0991760  92.0237390  15.3657190  27.4090080  91.8309590  16.0003280
  28.8424060  92.3072030  15.8981490  18.8263760  89.8630880   6.3290530
  18.5376810  90.4333740   7.0415510  19.5709520  89.3835330   6.6921760
  30.3754730  95.8635830   8.2011110  29.6435850  96.3722640   8.5501210
  29.9779070  95.0465810   7.8999890  26.8132120  92.5390030   6.6063600
  26.8168180  92.0979980   5.7568140  27.7083240  92.8607360   6.7135420
  22.6634500  92.4216520   5.5657810  22.3234550  92.8991750   6.3224860
  21.9011820  91.9681640   5.2058910  30.8380640  91.3169510   7.6134050
  30.8553380  91.7678160   8.4575900  30.5896220  90.4175150   7.8267490
  34.2651390  88.7301690  13.4520430  34.5897160  87.9991350  13.9778410
  34.3007900  88.4115330  12.5501420  27.1140090  96.5991810   8.3529010
  27.4810220  96.1250380   9.0990350  26.9245150  97.4733380   8.6937350
  19.9780580  91.3435500   4.4822480  19.6927500  90.9791170   5.3201100
  19.9159440  90.6115960   3.8685620  24.9039460  95.6400450  10.6713220
  24.5996530  96.5192430  10.8963580  25.8585920  95.7000240  10.7070660
  20.9603190  96.4803190  11.8184580  20.6018130  97.1457040  12.4057920
  20.6657750  95.6486740  12.1897200  24.1616310  96.9387430  14.7024130
  23.8616450  97.0844610  13.8051950  24.9327550  96.3792720  14.6097520
  26.6346050  97.8667660   2.5627460  27.0908830  98.6772910   2.7887650
  26.2834260  97.5490800   3.3945950  22.5357830  88.2105310   3.0349980
  22.4072460  88.2023210   3.9834900  21.7119850  88.5488400   2.6840990
  19.5351760  89.9696430  12.4956680  18.8210280  90.1693350  13.1009290
  19.9546800  89.1936000  12.8671480  31.0290540  92.4618740  10.2458130
  31.3971360  91.6413950  10.5737700  30.1688740  92.5220630  10.6613780
  26.3636600  93.6961630   2.4703570  25.6552750  94.1647970   2.9117180
  26.6481080  93.0383640   3.1048760  27.9892530  95.1158330  10.4696100
  28.4877780  95.5904150  11.1347950  28.1315480  94.1921850  10.6766130
  30.3952030  90.4212290   3.9099360  30.2719810  90.4398420   2.9608870
  31.3436590  90.4691230   4.0297760  35.1959390  91.3326290  11.3124490
  34.6932990  92.0731690  11.6518300  36.0116050  91.7210290  10.9961280
  33.4881400  96.5759470   4.7585850  32.5471540  96.5909700   4.9333540
  33.8025470  95.7895430   5.2046150  19.6880600  97.5119060  14.2378870
  20.1919620  96.9326340  14.8095100  18.9488020  97.7959290  14.7755240
  21.7203680  95.6548650  15.1328940  21.7609020  95.3562520  16.0414170
  22.5749180  96.0556260  14.9736460  23.6609490  94.2340750  13.1003430
  23.1305950  93.7431700  12.4726770  24.3297560  94.6624950  12.5661360
  33.0309720  96.0406370  14.8683770  33.6130490  95.2858690  14.7804250
  33.2071490  96.5713810  14.0915250  24.1481790  91.2003120  13.1800720
  24.0538660  90.5823870  12.4551590  23.5679180  91.9269410  12.9530630
  26.9143230  89.7576360  10.2128110  26.4660530  89.7800620   9.3673660
  26.2808430  89.3595380  10.8098410  29.6566680  96.3846870  12.2178390
  29.7762890  95.7888010  12.9573230  30.5160680  96.4216560  11.7979690
  31.9954580  96.9384060  10.7940900  31.4689800  97.4626680  10.1906040
  32.3385920  97.5711450  11.4250630  26.4235450  92.9268220  13.4754210
  27.0135140  92.6184070  14.1632030  25.6055690  92.4547970  13.6314110
  31.2428880  92.5434030  13.7087230  30.5544400  91.8815570  13.6437220
  31.9634900  92.0972300  14.1535690  19.7514340  96.9000320   4.6089060
  19.0963180  96.6311960   3.9648760  20.5892290  96.7904800   4.1591040
  36.1994510  96.6065750   2.5283350  35.8238110  95.8393680   2.0964640
  35.4697630  96.9888450   3.0158280  20.7890270  97.2852890   9.1492400
  21.1563310  97.1980290  10.0288420  20.2201090  96.5219440   9.0499260
  35.5894130  95.7537270  12.1622870  35.3580220  95.5250020  11.2620820
  35.8498680  96.6736820  12.1167760  20.3406270  94.1961980  13.0550820
  19.4462320  94.1628740  13.3944530  20.8803820  94.3948770  13.8202070
  34.0282200  90.9793700  14.9402570  34.9052380  90.9877100  15.3236570
  34.0403040  90.2424540  14.3294920  35.4745470  94.8323240   5.8290590
  35.9982950  94.3385890   5.1980760  36.0604890  94.9673600   6.5738160
  35.6535190  94.9163110   9.3510140  34.7037900  94.8826650   9.4655130
  35.8348200  95.8263220   9.1159910  34.9645440  94.0896590   1.7683000
  35.4604560  93.8567460   2.5531880  34.7661510  93.2508430   1.3520640
  20.8445980  88.4710310   7.4034040  21.4922170  87.9207690   6.9629200
  21.2647820  88.7253460   8.2249850  36.3932600  92.7257540   4.3020680
  36.2831880  92.5713580   5.2402950  37.1540190  92.1978480   4.0596090
  34.7398320  88.6651670  10.7603680  35.3770540  89.2785810  11.1262870
  34.8873210  88.7012330   9.8152910  20.5977980  88.6265980  10.1459360
  20.2492800  89.0829800  10.9117540  20.2665680  87.7323110  10.2281790
  28.1102800  89.8177860  13.6678780  28.0491690  90.4099690  14.4174190
  29.0503180  89.7103820  13.5229040  30.7477360  89.4747920  13.3071070
  31.3617770  89.7927210  12.6452150  31.2926920  88.9896510  13.9266930
  21.2698620  88.1542180  13.4210130  21.8181610  87.9730230  12.6576240
  21.3353930  87.3636290  13.9566440  31.4885400  88.0380060   9.6340360
  30.6145240  88.3715170   9.4313290  31.3796150  87.5653240  10.4592230
  32.3957380  90.2450930  11.0182080  32.0670740  89.4302690  10.6383810
  33.3439680  90.2020740  10.8947770  29.2360220  88.9549900   8.5733270
  28.4532010  89.4295400   8.8530030  28.9423150  88.0504730   8.4646450
  33.7881290  89.6573000   6.6182360  34.2289380  89.6018100   5.7703960
  33.5188880  90.5731010   6.6892540  35.6519860  89.2888240   4.6291180
  35.5908260  88.3449460   4.4822200  36.4311890  89.3968330   5.1744640
  27.1214440  91.3736650   4.0849300  26.3088950  90.9993540   3.7445180
  27.6256080  90.6181730   4.3870490  31.6239420  88.0379100   5.3232370
  32.2268790  88.6099310   5.7980890  30.8832410  88.6018540   5.1006270
  25.1463620  89.5236570   2.6894350  24.5166360  88.8223880   2.8564480
  24.6068760  90.2840700   2.4727510  25.2719180  88.8020550  15.1246840
  24.9903450  89.3054150  14.3607660  25.6538880  88.0042300  14.7588970
  31.8734640  88.2174130  15.7027310  31.7600090  88.5368740  16.5978830
  32.6904380  88.6186640  15.4064590  30.7792790  77.4623110  79.9379500
  30.6986840  76.5477720  79.6671210  30.3657210  77.9590180  79.2319210
  28.9110830  79.2402130  81.8188770  28.1352930  78.7602570  82.1087340
  29.5623760  78.5607780  81.6444930  22.9276660  79.5521940  82.6964530
  22.0961540  79.2970650  83.0961040  23.5357640  79.6232710  83.4322450
  32.9318260  83.6462320  80.5987900  32.4699790  82.8749560  80.9275070
  33.7443810  83.6728390  81.1040350  22.9077920  83.5862030  82.8922550
  23.2105960  82.6959770  82.7132770  23.6521510  84.1432250  82.6644800
  21.3368610  74.5123830  76.4806920  20.4485310  74.8539800  76.3786800
  21.6209800  74.3124150  75.5887750  19.3001620  77.1129480  82.3646620
  19.8717730  76.3451680  82.3650260  19.3003160  77.4118240  81.4553230
  29.1581570  85.9320330  80.2191890  28.5393010  86.3877830  79.6486330
  30.0133350  86.0871790  79.8181590  28.3519820  81.9159320  81.8258930
  28.2828100  80.9749260  81.6648060  29.1139680  82.0060730  82.3981500
  20.5426490  72.5213840  84.1515550  20.3629330  71.6239590  84.4318310
  20.1406570  73.0685710  84.8262500  29.3824990  74.7229700  82.0527860
  29.7589810  73.8501580  81.9401530  29.2844500  75.0588400  81.1618300
  23.5130000  73.0955330  77.5145300  23.6196750  73.9959060  77.8214060
  22.6022360  73.0473300  77.2239950  33.1649110  72.2180140  78.9856200
  33.9858730  71.7276710  79.0281680  33.1983190  72.8077800  79.7388040
  21.1613160  75.0174340  82.7597890  21.8423270  75.2812710  83.3785290
  20.8461210  74.1775210  83.0935900  25.3537730  76.0641700  81.8470480
  25.8615950  76.5622670  82.4875500  25.8850970  75.2876900  81.6709840
  37.4548660  74.2346890  85.5499830  36.7500830  74.6228600  85.0314940
  37.7206580  74.9297180  86.1520760  23.6373830  70.7040260  86.1133900
  23.6392270  71.2212650  85.3079800  22.8078140  70.2270440  86.0903830
  30.0244920  80.8159570  77.6123800  29.4062190  81.2809020  77.0486520
  30.5368170  81.5087050  78.0293310  24.8876680  80.3435440  84.2907400
  24.5546060  80.9704360  84.9328470  25.0643360  80.8697320  83.5109070
  33.4010590  74.1580520  81.7583740  32.6966160  74.4465410  82.3386850
  33.7622750  74.9680630  81.3983300  23.3189160  72.4150220  84.1204350
  23.6605970  73.2592270  83.8258220  22.3804970  72.5633960  84.2369690
  24.0995780  82.3116240  86.1056580  24.7169780  82.9867320  85.8241030
  23.2388900  82.7204220  86.0144080  19.3928120  81.5016100  74.9863430
  19.0156100  81.9903200  74.2548330  19.6501190  82.1741380  75.6169960
  35.0173370  83.7755650  84.0211220  34.3336890  84.4454760  84.0127890
  35.5567660  83.9736300  83.2556080  36.4697510  73.6035310  82.1492950
  35.5222420  73.6374290  82.2808380  36.7947500  74.4174260  82.5342310
  27.0017050  69.9032490  80.4448940  27.3092030  69.3479380  79.7284440
  26.0717750  70.0376950  80.2621930  32.5532110  85.6199780  82.7356400
  32.5659270  85.2162070  81.8678660  32.0007330  86.3947070  82.6317830
  33.8477530  82.3416000  77.8246570  33.7373860  81.3990330  77.9495990
  33.8445780  82.7031640  78.7109330  31.9517550  80.5229620  84.0639010
  32.3686340  80.3089730  83.2292470  32.6757370  80.7802410  84.6347630
  29.3897810  77.9681320  77.1809060  28.4627090  77.9018700  77.4097530
  29.5422630  78.9061450  77.0664300  29.3766890  74.2398320  74.1776220
  28.4370560  74.4012280  74.2628680  29.6950150  74.9584000  73.6312210
  35.8979650  78.9216840  84.1555250  35.0698280  78.9909930  83.6805380
  36.4930130  79.5071150  83.6871080  33.4195100  79.5301620  77.6844310
  32.8007520  79.1921170  77.0370610  33.4019550  78.8861380  78.3923500
  32.8621660  75.7086160  85.1010120  32.4492840  76.5339870  85.3550110
  32.1297610  75.1231200  84.9086480  24.9954450  78.4946060  79.9628790
  24.5911450  77.7823310  79.4674690  25.0817570  78.1499300  80.8516830
  25.4636150  82.1813620  82.1268000  25.1664440  81.5759090  81.4475780
  26.4135970  82.2190930  82.0157360  23.7083070  75.2689270  83.7427830
  24.2597660  75.3784610  82.9681080  24.2226580  75.6426870  84.4583060
  33.5521760  85.7545490  85.7891100  33.0752320  86.5617680  85.5963710
  32.8683550  85.1023820  85.9417310  31.5959800  78.7688430  74.6917060
  32.0353080  77.9310860  74.5454880  32.3088220  79.4017830  74.7781200
  29.7055180  83.7084500  78.6598300  30.1451090  84.4508830  78.2453690
  29.6442070  83.9511070  79.5837260  35.1776940  70.0231240  73.0058100
  34.8649600  70.1158070  73.9057170  35.9389410  70.6012270  72.9555530
  21.6959080  77.3891040  77.4635440  21.5756680  78.1153130  76.8516710
  21.3859970  76.6193950  76.9863350  19.3344450  80.5606180  83.2704080
  19.4124870  80.6954950  82.3259800  19.9486130  79.8522070  83.4632200
  20.5792080  82.2606370  79.6810260  20.1720160  82.4020960  78.8263860
  21.4705090  81.9766530  79.4781470  32.3725360  86.6953620  76.0161310
  32.2126500  86.4056560  76.9143140  32.2072070  85.9193750  75.4806540
  24.8513740  86.4752150  77.7932930  24.6756220  85.5587690  77.5800730
  23.9969480  86.8339440  78.0330730  32.0751490  84.2041180  74.5759310
  31.3816650  84.2018470  73.9161590  32.8174350  83.7800500  74.1453480
  31.6401420  85.8303890  78.6507800  32.0958370  85.0493270  78.9646420
  31.9793940  86.5410710  79.1948980  19.3903970  81.6020350  85.8098540
  19.5535010  81.1325710  84.9917910  19.8556420  81.0943910  86.4747380
  24.1622740  70.7326110  80.8459110  23.7190890  71.5135650  80.5143630
  24.7207730  71.0556000  81.5530050  27.2781560  70.3536810  75.7264940
  26.6535740  70.3496680  76.4518250  27.1911680  69.4867770  75.3300910
  26.1998640  71.2773440  82.7048710  26.4970970  72.1836270  82.6240730
  26.7484200  70.7892220  82.0908280  23.9536960  75.8559680  78.5740360
  23.7277880  75.6396850  79.4786980  23.1729490  76.2888140  78.2286330
  31.1834720  75.8623050  77.1731010  30.5843610  76.5858850  76.9894630
  31.7314330  75.7999830  76.3907460  29.7899590  74.4986590  79.2034290
  30.1829160  74.8158790  78.3902980  30.1516440  73.6198470  79.3178810
  18.8263760  71.0887390  81.4264490  18.5376810  71.6590250  82.1389470
  19.5709520  70.6091840  81.7895720  19.0133990  75.0307510  72.6367210
  18.9308660  75.9738270  72.7782200  18.6617050  74.8882420  71.7579560
  30.3754730  77.0892340  83.2985070  29.6435850  77.5979150  83.6475170
  29.9779070  76.2722320  82.9973850  26.8132120  73.7646540  81.7037560
  26.8168180  73.3236490  80.8542100  27.7083240  74.0863870  81.8109380
  22.6634500  73.6473030  80.6631770  22.3234550  74.1248260  81.4198820
  21.9011820  73.1938150  80.3032870  26.8752270  74.7658620  74.6944320
  26.9965090  74.7245100  75.6430140  26.4900780  75.6282770  74.5391050
  30.8380640  72.5426020  82.7108010  30.8553380  72.9934670  83.5549860
  30.5896220  71.6431660  82.9241450  25.8873770  77.0759760  74.0927620
  25.3190670  76.6278010  73.4663530  26.5962770  77.4352540  73.5592770
  27.1140090  77.8248320  83.4502970  27.4810220  77.3506890  84.1964310
  26.9245150  78.6989890  83.7911310  19.9780580  72.5692010  79.5796440
  19.6927500  72.2047680  80.4175060  19.9159440  71.8372470  78.9659580
  24.9039460  76.8656960  85.7687180  24.5996530  77.7448940  85.9937540
  25.8585920  76.9256750  85.8044620  23.4321250  81.0717950  76.3654030
  22.6583510  80.5315570  76.2052750  24.1615880  80.5524560  76.0271790
  34.1909230  80.0683310  82.1580420  34.9108350  80.5638600  81.7676530
  33.9891050  79.3901200  81.5134290  29.6519170  71.4621270  76.3009810
  28.8383780  70.9634440  76.2255120  29.4581120  72.3019520  75.8846160
  32.3667560  75.8340920  74.5971970  33.2547180  76.1458150  74.4223310
  32.3372650  74.9613170  74.2052550  23.4758650  80.7398330  80.0032840
  23.9937320  79.9366590  79.9489730  23.0242670  80.6777470  80.8449670
  28.3628150  82.0064610  75.2760140  28.7043850  82.7506840  74.7803460
  27.5340860  82.3195730  75.6384970  34.6381830  77.1452760  74.0651830
  34.5545550  77.5766980  73.2148270  35.3576020  77.6051110  74.4978650
  35.6669080  83.9995020  76.7933960  35.0245240  83.3450640  77.0677680
  35.2799740  84.4050110  76.0174630  31.2455560  81.3280450  80.6405650
  31.5979380  80.7308580  79.9807020  30.3617890  81.0024680  80.8113900
  27.3318840  82.0878140  78.0476060  28.0189970  82.6347350  78.4283650
  26.5451260  82.6318870  78.0825670  19.4711240  77.7050960  73.5393140
  20.3406090  77.9875760  73.8229060  18.9801560  78.5186830  73.4241950
  26.6346050  79.0924170  77.6601420  27.0908830  79.9029420  77.8861610
  26.2834260  78.7747310  78.4919910  28.9378660  84.6030510  84.8893720
  29.5820880  84.8089890  85.5667140  29.3008100  83.8418910  84.4364570
  22.5357830  69.4361820  78.1323940  22.4072460  69.4279720  79.0808860
  21.7119850  69.7744910  77.7814950  30.2110740  82.6062860  83.6071170
  30.8532970  81.9056020  83.7203340  30.7360090  83.3861300  83.4268060
  34.0566460  82.8911480  73.3310310  33.8304040  82.1741920  73.9234950
  33.6662660  82.6423920  72.4932060  19.8382490  86.9178340  74.1054770
  20.1980130  87.5167680  73.4512040  19.6974830  87.4638230  74.8789800
  33.6382710  80.8083420  74.9924470  33.3504410  81.2696110  75.7802350
  34.4334880  80.3481190  75.2608690  25.8551110  84.3009540  74.9228440
  25.8461210  85.0339230  74.3072950  24.9349470  84.0541120  75.0155400
  21.4557750  79.5224430  75.6675200  20.8485700  80.2623330  75.6770500
  21.9307100  79.6123790  74.8413400  31.0290540  73.6875250  85.3432090
  31.3971360  72.8670460  85.6711660  30.1688740  73.7477140  85.7587740
  34.3952570  72.6432190  76.1519650  33.7665730  72.7477860  75.4377880
  33.9004490  72.8628970  76.9413530  28.8410710  84.3637780  73.5853630
  28.9422690  84.1601770  72.6555610  27.9412450  84.1096060  73.7901410
  26.3636600  74.9218140  77.5677530  25.6552750  75.3904480  78.0091140
  26.6481080  74.2640150  78.2022720  27.9892530  76.3414840  85.5670060
  28.4877780  76.8160660  86.2321910  28.1315480  75.4178360  85.7740090
  30.3952030  71.6468800  79.0073320  30.2719810  71.6654930  78.0582830
  31.3436590  71.6947740  79.1271720  27.4828820  86.8824100  78.2801300
  27.7370320  86.8445490  77.3580670  26.5341300  86.7557430  78.2729550
  24.5671620  73.2303220  74.9428240  25.4162150  73.6673370  74.8768430
  24.2002890  73.5423480  75.7700300  35.1959390  72.5582800  86.4098450
  34.6932990  73.2988200  86.7492260  36.0116050  72.9466800  86.0935240
  33.4881400  77.8015980  79.8559810  32.5471540  77.8166210  80.0307500
  33.8025470  77.0151940  80.3020110  23.4663040  79.4835580  73.4163770
  24.2326310  79.3716940  73.9789200  23.5437730  78.7873550  72.7640540
  22.1609800  76.9160650  74.0996660  22.2413390  75.9688160  74.2114060
  23.0529550  77.2467530  74.2057320  35.4906980  84.9724830  81.5314070
  35.6154400  85.7956000  82.0037880  36.3572540  84.7615560  81.1838220
  22.9624510  87.0656040  81.2031200  23.6986990  86.5171500  81.4739770
  23.3465430  87.9312050  81.0637190  19.8469990  83.1329610  77.0772710
  18.9209770  83.3750750  77.0678120  20.3126420  83.9603870  76.9557460
  26.0726820  86.2386350  73.0256770  26.8655430  86.5275180  72.5738560
  25.5531170  85.8078520  72.3469250  35.1256990  85.4656480  74.4493510
  34.8398500  85.0521620  73.6347690  34.9276540  86.3944190  74.3294030
  26.5904220  81.4589760  72.8899120  26.4854860  80.8442110  73.6160500
  26.4228440  80.9355650  72.1062130  29.8306950  80.5209790  73.4941110
  29.2817050  80.9679090  74.1383850  30.4526210  80.0159040  74.0178780
  25.4982070  79.4800710  75.3906410  25.9198490  79.3140580  76.2337800
  25.6232910  78.6700940  74.8961550  28.0109710  78.5038320  72.6383510
  28.5315370  77.7887340  72.2724660  28.6578110  79.1424190  72.9384020
  26.9143230  70.9832870  85.3102070  26.4660530  71.0057130  84.4647620
  26.2808430  70.5851890  85.9072370  27.3202780  79.8787200  85.9314510
  27.7390890  80.7219930  85.7590750  26.4011410  80.0159240  85.7021290
  31.9954580  78.1640570  85.8914860  31.4689800  78.6883190  85.2880000
  32.3385920  78.7967960  86.5224590  24.3940970  75.5533940  72.3364570
  24.1930030  74.6901300  72.6977910  24.2233020  75.4667300  71.3986170
  31.8729280  70.3642170  74.8651450  32.1531570  69.5210070  75.2210870
  31.0995010  70.5965280  75.3790200  23.1923770  72.6534560  72.3242450
  23.4949670  72.6601990  71.4161600  23.9318360  72.3032420  72.8210110
  26.4108700  71.5969180  73.3098650  26.0630700  70.9193170  72.7301100
  26.6121470  71.1358690  74.1242040  28.5757740  86.5849930  74.9285250
  29.4708530  86.9234900  74.9504010  28.6075370  85.8629340  74.3009530
  22.2153900  81.9576980  73.1572250  22.6528770  82.5006650  73.8129830
  22.7001630  81.1323930  73.1668590  19.4299700  84.7466010  80.6092510
  19.7602710  83.8787070  80.3771150  19.8590700  84.9524530  81.4397470
  24.0261620  83.0775020  78.2694480  23.7257160  82.9539990  79.1698390
  23.9199110  82.2183610  77.8610210  19.9189910  85.6136600  83.3474140
  19.4820900  85.7937400  84.1798290  20.4867590  86.3711220  83.2055860
  36.7953540  82.8571420  72.9721160  35.9646500  82.9248070  73.4428390
  36.9725370  83.7475540  72.6688020  36.2510000  79.6018900  75.4755360
  37.0128910  80.1715550  75.5815050  36.2664370  79.0346100  76.2463670
  19.7514340  78.1256830  79.7063020  19.0963180  77.8568470  79.0622720
  20.5892290  78.0161310  79.2565000  37.2569970  80.4569000  80.3197290
  37.6278800  79.6736320  79.9133260  37.8971900  81.1458100  80.1414590
  34.2403730  81.8405580  85.7327610  33.4263570  82.2702740  85.9953400
  34.6477930  82.4523990  85.1196660  36.3029170  79.8953270  72.6327880
  36.5778010  80.8032150  72.5047100  36.1139910  79.8315800  73.5689870
  32.7004780  72.9198120  73.9281510  33.1189660  72.7329100  73.0878170
  32.3940840  72.0677170  74.2384440  36.1994510  77.8322260  77.6257310
  35.8238110  77.0650190  77.1938600  35.4697630  78.2144960  78.1132240
  20.7890270  78.5109400  84.2466360  21.1563310  78.4236800  85.1262380
  20.2201090  77.7475950  84.1473220  18.9652420  75.3355760  75.6488350
  18.0616500  75.5985960  75.4740010  19.4493040  75.6066930  74.8688310
  35.4745470  76.0579750  80.9264550  35.9982950  75.5642400  80.2954720
  36.0604890  76.1930110  81.6712120  35.6535190  76.1419620  84.4484100
  34.7037900  76.1083160  84.5629090  35.8348200  77.0519730  84.2133870
  21.5079630  74.3921300  73.5582730  22.2171330  73.9704520  73.0730010
  20.7919570  74.4596530  72.9266080  21.1553790  70.4460630  72.5985380
  21.8781920  70.9869570  72.9166600  21.4278310  70.1724050  71.7226920
  34.9645440  75.3153100  76.8656960  35.4604560  75.0823970  77.6505840
  34.7661510  74.4764940  76.4494600  20.8445980  69.6966820  82.5008000
  21.4922170  69.1464200  82.0603160  21.2647820  69.9509970  83.3223810
  36.3932600  73.9514050  79.3994640  36.2831880  73.7970090  80.3376910
  37.1540190  73.4234990  79.1570050  34.7398320  69.8908180  85.8577640
  35.3770540  70.5042320  86.2236830  34.8873210  69.9268840  84.9126870
  37.2822870  71.7821970  72.6400780  38.2072180  71.6503150  72.4319070
  37.2598660  71.8614790  73.5937230  37.3561360  72.5532630  75.2657490
  36.5612860  72.4877750  75.7950400  37.5604640  73.4883270  75.2542840
  34.2979780  86.5924180  79.2595880  34.8938850  86.2708750  78.5830300
  34.5557930  86.1196000  80.0509150  20.5977980  69.8522490  85.2433320
  20.2492800  70.3086310  86.0091500  20.2665680  68.9579620  85.3255750
  25.9048380  84.5801680  85.0096230  25.6639740  84.8476240  84.1226750
  26.8451020  84.7507410  85.0647090  37.1652540  86.5996060  85.8106870
  36.6710820  86.9964930  85.0934000  36.5565830  85.9745270  86.2044150
  31.4885400  69.2636570  84.7314320  30.6145240  69.5971680  84.5287250
  31.3796150  68.7909750  85.5566190  32.3957380  71.4707440  86.1156040
  32.0670740  70.6559200  85.7357770  33.3439680  71.4277250  85.9921730
  34.8491990  87.2419480  83.0893610  34.3894960  87.9935290  82.7151630
  34.2204450  86.5225950  83.0308410  21.6742610  83.3362720  85.4792330
  20.9476670  82.7168010  85.4118280  21.7351760  83.7303330  84.6090410
  25.2787710  85.5507720  82.2641740  25.7952730  84.9395080  81.7390000
  25.9285090  86.0536500  82.7552750  28.0183210  86.4416210  83.0910720
  28.3061020  86.1870510  82.2143730  28.5306430  85.8893570  83.6816290
  29.2360220  70.1806410  83.6707230  28.4532010  70.6551910  83.9503990
  28.9423150  69.2761240  83.5620410  33.7881290  70.8829510  81.7156320
  34.2289380  70.8274610  80.8677920  33.5188880  71.7987520  81.7866500
  35.6519860  70.5144750  79.7265140  35.5908260  69.5705970  79.5796160
  36.4311890  70.6224840  80.2718600  19.9572610  86.6537110  78.6889090
  19.7894650  86.0207790  79.3870980  19.0907120  86.8596510  78.3383280
  20.5800630  70.4853890  76.1920950  21.3379990  70.5982770  75.6184980
  20.1177800  71.3223090  76.1464380  27.1214440  72.5993160  79.1823260
  26.3088950  72.2250050  78.8419140  27.6256080  71.8438240  79.4844450
  31.6239420  69.2635610  80.4206330  32.2268790  69.8355820  80.8954850
  30.8832410  69.8275050  80.1980230  34.7674020  69.6657170  75.6946610
  34.9624650  70.5640620  75.9614040  33.9803890  69.4344250  76.1879560
  21.5635310  85.3470340  76.1339230  21.0382930  85.7278370  75.4301190
  21.4879890  85.9721110  76.8548940  22.9525780  71.0117940  74.7322920
  23.4818540  70.2247740  74.6030870  23.5854100  71.6909130  74.9658450
  25.1463620  70.7493080  77.7868310  24.5166360  70.0480390  77.9538440
  24.6068760  71.5097210  77.5701470  36.3200630  86.9057880  77.4553170
  36.4952820  86.2195620  76.8114090  35.6222200  87.4304930  77.0629840
  24.1628280  87.2952720  75.0088480  24.8947100  87.0112000  74.4612370
  24.4221950  87.0566000  75.8987860  23.3243070  83.4117450  75.0134810
  22.6951950  83.8802550  75.5620640  23.4390900  82.5666670  75.4481000
  30.7792790  77.4623110  61.1636010  30.6986840  76.5477720  60.8927720
  30.3657210  77.9590180  60.4575720  28.9110830  79.2402130  63.0445280
  28.1352930  78.7602570  63.3343850  29.5623760  78.5607780  62.8701440
  22.9276660  79.5521940  63.9221040  22.0961540  79.2970650  64.3217550
  23.5357640  79.6232710  64.6578960  32.9318260  83.6462320  61.8244410
  32.4699790  82.8749560  62.1531580  33.7443810  83.6728390  62.3296860
  22.9077920  83.5862030  64.1179060  23.2105960  82.6959770  63.9389280
  23.6521510  84.1432250  63.8901310  21.3368610  74.5123830  57.7063430
  20.4485310  74.8539800  57.6043310  21.6209800  74.3124150  56.8144260
  19.3001620  77.1129480  63.5903130  19.8717730  76.3451680  63.5906770
  19.3003160  77.4118240  62.6809740  29.1581570  85.9320330  61.4448400
  28.5393010  86.3877830  60.8742840  30.0133350  86.0871790  61.0438100
  28.3519820  81.9159320  63.0515440  28.2828100  80.9749260  62.8904570
  29.1139680  82.0060730  63.6238010  20.5426490  72.5213840  65.3772060
  20.3629330  71.6239590  65.6574820  20.1406570  73.0685710  66.0519010
  29.3824990  74.7229700  63.2784370  29.7589810  73.8501580  63.1658040
  29.2844500  75.0588400  62.3874810  23.5130000  73.0955330  58.7401810
  23.6196750  73.9959060  59.0470570  22.6022360  73.0473300  58.4496460
  33.1649110  72.2180140  60.2112710  33.9858730  71.7276710  60.2538190
  33.1983190  72.8077800  60.9644550  21.1613160  75.0174340  63.9854400
  21.8423270  75.2812710  64.6041800  20.8461210  74.1775210  64.3192410
  25.3537730  76.0641700  63.0726990  25.8615950  76.5622670  63.7132010
  25.8850970  75.2876900  62.8966350  37.4548660  74.2346890  66.7756340
  36.7500830  74.6228600  66.2571450  37.7206580  74.9297180  67.3777270
  23.6373830  70.7040260  67.3390410  23.6392270  71.2212650  66.5336310
  22.8078140  70.2270440  67.3160340  30.0244920  80.8159570  58.8380310
  29.4062190  81.2809020  58.2743030  30.5368170  81.5087050  59.2549820
  24.8876680  80.3435440  65.5163910  24.5546060  80.9704360  66.1584980
  25.0643360  80.8697320  64.7365580  33.4010590  74.1580520  62.9840250
  32.6966160  74.4465410  63.5643360  33.7622750  74.9680630  62.6239810
  23.3189160  72.4150220  65.3460860  23.6605970  73.2592270  65.0514730
  22.3804970  72.5633960  65.4626200  24.0995780  82.3116240  67.3313090
  24.7169780  82.9867320  67.0497540  23.2388900  82.7204220  67.2400590
  19.3928120  81.5016100  56.2119940  19.0156100  81.9903200  55.4804840
  19.6501190  82.1741380  56.8426470  35.0173370  83.7755650  65.2467730
  34.3336890  84.4454760  65.2384400  35.5567660  83.9736300  64.4812590
  36.4697510  73.6035310  63.3749460  35.5222420  73.6374290  63.5064890
  36.7947500  74.4174260  63.7598820  27.0017050  69.9032490  61.6705450
  27.3092030  69.3479380  60.9540950  26.0717750  70.0376950  61.4878440
  32.5532110  85.6199780  63.9612910  32.5659270  85.2162070  63.0935170
  32.0007330  86.3947070  63.8574340  33.8477530  82.3416000  59.0503080
  33.7373860  81.3990330  59.1752500  33.8445780  82.7031640  59.9365840
  31.9517550  80.5229620  65.2895520  32.3686340  80.3089730  64.4548980
  32.6757370  80.7802410  65.8604140  29.3897810  77.9681320  58.4065570
  28.4627090  77.9018700  58.6354040  29.5422630  78.9061450  58.2920810
  29.3766890  74.2398320  55.4032730  28.4370560  74.4012280  55.4885190
  29.6950150  74.9584000  54.8568720  35.8979650  78.9216840  65.3811760
  35.0698280  78.9909930  64.9061890  36.4930130  79.5071150  64.9127590
  33.4195100  79.5301620  58.9100820  32.8007520  79.1921170  58.2627120
  33.4019550  78.8861380  59.6180010  32.8621660  75.7086160  66.3266630
  32.4492840  76.5339870  66.5806620  32.1297610  75.1231200  66.1342990
  24.9954450  78.4946060  61.1885300  24.5911450  77.7823310  60.6931200
  25.0817570  78.1499300  62.0773340  25.4636150  82.1813620  63.3524510
  25.1664440  81.5759090  62.6732290  26.4135970  82.2190930  63.2413870
  23.7083070  75.2689270  64.9684340  24.2597660  75.3784610  64.1937590
  24.2226580  75.6426870  65.6839570  33.5521760  85.7545490  67.0147610
  33.0752320  86.5617680  66.8220220  32.8683550  85.1023820  67.1673820
  24.5554580  81.9195310  70.0032310  23.6583110  82.1435280  70.2505710
  24.5807450  82.0430250  69.0543710  31.5959800  78.7688430  55.9173570
  32.0353080  77.9310860  55.7711390  32.3088220  79.4017830  56.0037710
  23.3825800  78.7908630  68.5789680  23.2433570  79.6631430  68.9477080
  22.5007160  78.4481440  68.4337620  29.7055180  83.7084500  59.8854810
  30.1451090  84.4508830  59.4710200  29.6442070  83.9511070  60.8093770
  25.1806150  84.7330330  70.7874830  25.1521580  85.1373280  69.9203260
  25.0171120  83.8040690  70.6246430  21.6959080  77.3891040  58.6891950
  21.5756680  78.1153130  58.0773220  21.3859970  76.6193950  58.2119860
  37.1320970  85.5157430  72.0839000  37.6080690  85.9940320  72.7628080
  37.7528130  85.4474920  71.3584500  19.3344450  80.5606180  64.4960590
  19.4124870  80.6954950  63.5516310  19.9486130  79.8522070  64.6888710
  20.5792080  82.2606370  60.9066770  20.1720160  82.4020960  60.0520370
  21.4705090  81.9766530  60.7037980  36.5354220  82.7070280  69.2439010
  36.6617280  82.4682160  68.3256190  36.5775600  81.8754820  69.7161090
  30.3970960  86.4098280  67.8133820  30.9115630  86.3206290  68.6156250
  29.5540040  86.7557980  68.1061730  32.3725360  86.6953620  57.2417820
  32.2126500  86.4056560  58.1399650  32.2072070  85.9193750  56.7063050
  24.8513740  86.4752150  59.0189440  24.6756220  85.5587690  58.8057240
  23.9969480  86.8339440  59.2587240  32.0751490  84.2041180  55.8015820
  31.3816650  84.2018470  55.1418100  32.8174350  83.7800500  55.3709990
  31.6401420  85.8303890  59.8764310  32.0958370  85.0493270  60.1902930
  31.9793940  86.5410710  60.4205490  36.3878230  74.7602740  70.2088750
  35.7722500  75.2682410  69.6804210  36.0674650  73.8601070  70.1514690
  19.3903970  81.6020350  67.0355050  19.5535010  81.1325710  66.2174420
  19.8556420  81.0943910  67.7003890  24.1622740  70.7326110  62.0715620
  23.7190890  71.5135650  61.7400140  24.7207730  71.0556000  62.7786560
  28.4492550  73.5994630  67.6750940  27.9871920  73.8077650  68.4870880
  28.0470660  72.7853980  67.3721610  33.4497060  74.8203580  68.8047600
  32.5990650  74.5209330  69.1256670  33.2898850  75.0645590  67.8931420
  30.5446770  76.3205330  70.9046390  30.8700180  75.4869080  70.5648620
  31.3327100  76.8433850  71.0524720  27.2781560  70.3536810  56.9521450
  26.6535740  70.3496680  57.6774760  27.1911680  69.4867770  56.5557420
  26.1998640  71.2773440  63.9305220  26.4970970  72.1836270  63.8497240
  26.7484200  70.7892220  63.3164790  23.9536960  75.8559680  59.7996870
  23.7277880  75.6396850  60.7043490  23.1729490  76.2888140  59.4542840
  31.1834720  75.8623050  58.3987520  30.5843610  76.5858850  58.2151140
  31.7314330  75.7999830  57.6163970  26.3936170  76.7545260  70.4657140
  26.2979770  75.8139990  70.3157540  27.2368150  76.9760330  70.0705210
  29.7899590  74.4986590  60.4290800  30.1829160  74.8158790  59.6159490
  30.1516440  73.6198470  60.5435320  21.5246710  73.1658930  68.6190920
  21.1310100  74.0134140  68.8263700  20.8365110  72.5285300  68.8099560
  28.0991760  73.2493900  71.6887660  27.4090080  73.0566100  72.3233750
  28.8424060  73.5328540  72.2211960  18.8263760  71.0887390  62.6521000
  18.5376810  71.6590250  63.3645980  19.5709520  70.6091840  63.0152230
  19.0133990  75.0307510  53.8623720  18.9308660  75.9738270  54.0038710
  18.6617050  74.8882420  52.9836070  30.3754730  77.0892340  64.5241580
  29.6435850  77.5979150  64.8731680  29.9779070  76.2722320  64.2230360
  26.8132120  73.7646540  62.9294070  26.8168180  73.3236490  62.0798610
  27.7083240  74.0863870  63.0365890  22.6634500  73.6473030  61.8888280
  22.3234550  74.1248260  62.6455330  21.9011820  73.1938150  61.5289380
  26.8752270  74.7658620  55.9200830  26.9965090  74.7245100  56.8686650
  26.4900780  75.6282770  55.7647560  30.8380640  72.5426020  63.9364520
  30.8553380  72.9934670  64.7806370  30.5896220  71.6431660  64.1497960
  25.8873770  77.0759760  55.3184130  25.3190670  76.6278010  54.6920040
  26.5962770  77.4352540  54.7849280  34.2651390  69.9558200  69.7750900
  34.5897160  69.2247860  70.3008880  34.3007900  69.6371840  68.8731890
  20.9642950  80.9771780  69.1950860  20.5797740  80.3365450  69.7933820
  21.2755140  81.6807900  69.7645590  27.1140090  77.8248320  64.6759480
  27.4810220  77.3506890  65.4220820  26.9245150  78.6989890  65.0167820
  19.9780580  72.5692010  60.8052950  19.6927500  72.2047680  61.6431570
  19.9159440  71.8372470  60.1916090  24.9039460  76.8656960  66.9943690
  24.5996530  77.7448940  67.2194050  25.8585920  76.9256750  67.0301130
  23.4321250  81.0717950  57.5910540  22.6583510  80.5315570  57.4309260
  24.1615880  80.5524560  57.2528300  34.1909230  80.0683310  63.3836930
  34.9108350  80.5638600  62.9933040  33.9891050  79.3901200  62.7390800
  29.6519170  71.4621270  57.5266320  28.8383780  70.9634440  57.4511630
  29.4581120  72.3019520  57.1102670  29.5728030  80.1392370  69.2705930
  29.5065340  79.2188040  69.0163520  28.9433170  80.2367810  69.9850570
  32.3667560  75.8340920  55.8228480  33.2547180  76.1458150  55.6479820
  32.3372650  74.9613170  55.4309060  23.4758650  80.7398330  61.2289350
  23.9937320  79.9366590  61.1746240  23.0242670  80.6777470  62.0706180
  28.3628150  82.0064610  56.5016650  28.7043850  82.7506840  56.0059970
  27.5340860  82.3195730  56.8641480  20.9603190  77.7059700  68.1415050
  20.6018130  78.3713550  68.7288390  20.6657750  76.8743250  68.5127670
  24.1616310  78.1643940  71.0254600  23.8616450  78.3101120  70.1282420
  24.9327550  77.6049230  70.9327990  29.5044760  82.9612940  69.0209730
  29.5189300  82.0293900  68.8028640  28.7969860  83.0472700  69.6599500
  34.6381830  77.1452760  55.2908340  34.5545550  77.5766980  54.4404780
  35.3576020  77.6051110  55.7235160  35.7155970  79.6020280  68.3678310
  34.9904160  80.1949060  68.1707700  36.2431430  79.5943820  67.5691680
  35.6669080  83.9995020  58.0190470  35.0245240  83.3450640  58.2934190
  35.2799740  84.4050110  57.2431140  31.2455560  81.3280450  61.8662160
  31.5979380  80.7308580  61.2063530  30.3617890  81.0024680  62.0370410
  27.3318840  82.0878140  59.2732570  28.0189970  82.6347350  59.6540160
  26.5451260  82.6318870  59.3082180  19.4711240  77.7050960  54.7649650
  20.3406090  77.9875760  55.0485570  18.9801560  78.5186830  54.6498460
  26.6346050  79.0924170  58.8857930  27.0908830  79.9029420  59.1118120
  26.2834260  78.7747310  59.7176420  28.9378660  84.6030510  66.1150230
  29.5820880  84.8089890  66.7923650  29.3008100  83.8418910  65.6621080
  22.5357830  69.4361820  59.3580450  22.4072460  69.4279720  60.3065370
  21.7119850  69.7744910  59.0071460  30.2110740  82.6062860  64.8327680
  30.8532970  81.9056020  64.9459850  30.7360090  83.3861300  64.6524570
  34.0566460  82.8911480  54.5566820  33.8304040  82.1741920  55.1491460
  33.6662660  82.6423920  53.7188570  31.9848360  83.4057760  68.0363740
  32.3204600  83.9924450  68.7141660  31.0648700  83.2750470  68.2661530
  19.8382490  86.9178340  55.3311280  20.1980130  87.5167680  54.6768550
  19.6974830  87.4638230  56.1046310  19.5351760  71.1952940  68.8187150
  18.8210280  71.3949860  69.4239760  19.9546800  70.4192510  69.1901950
  33.6382710  80.8083420  56.2180980  33.3504410  81.2696110  57.0058860
  34.4334880  80.3481190  56.4865200  19.8224350  85.1833200  69.8053680
  19.9315470  84.2427940  69.6649070  19.1704910  85.4487950  69.1567410
  27.8136940  83.4549090  71.2051800  27.4933810  82.7358330  71.7497490
  27.1395300  84.1304160  71.2787860  25.8551110  84.3009540  56.1484950
  25.8461210  85.0339230  55.5329460  24.9349470  84.0541120  56.2411910
  21.4557750  79.5224430  56.8931710  20.8485700  80.2623330  56.9027010
  21.9307100  79.6123790  56.0669910  31.0290540  73.6875250  66.5688600
  31.3971360  72.8670460  66.8968170  30.1688740  73.7477140  66.9844250
  34.3952570  72.6432190  57.3776160  33.7665730  72.7477860  56.6634390
  33.9004490  72.8628970  58.1670040  28.8410710  84.3637780  54.8110140
  28.9422690  84.1601770  53.8812120  27.9412450  84.1096060  55.0157920
  26.3636600  74.9218140  58.7934040  25.6552750  75.3904480  59.2347650
  26.6481080  74.2640150  59.4279230  27.9892530  76.3414840  66.7926570
  28.4877780  76.8160660  67.4578420  28.1315480  75.4178360  66.9996600
  30.3952030  71.6468800  60.2329830  30.2719810  71.6654930  59.2839340
  31.3436590  71.6947740  60.3528230  27.4828820  86.8824100  59.5057810
  27.7370320  86.8445490  58.5837180  26.5341300  86.7557430  59.4986060
  24.5671620  73.2303220  56.1684750  25.4162150  73.6673370  56.1024940
  24.2002890  73.5423480  56.9956810  35.1959390  72.5582800  67.6354960
  34.6932990  73.2988200  67.9748770  36.0116050  72.9466800  67.3191750
  33.4881400  77.8015980  61.0816320  32.5471540  77.8166210  61.2564010
  33.8025470  77.0151940  61.5276620  23.4663040  79.4835580  54.6420280
  24.2326310  79.3716940  55.2045710  23.5437730  78.7873550  53.9897050
  22.1609800  76.9160650  55.3253170  22.2413390  75.9688160  55.4370570
  23.0529550  77.2467530  55.4313830  35.4906980  84.9724830  62.7570580
  35.6154400  85.7956000  63.2294390  36.3572540  84.7615560  62.4094730
  22.9624510  87.0656040  62.4287710  23.6986990  86.5171500  62.6996280
  23.3465430  87.9312050  62.2893700  19.8469990  83.1329610  58.3029220
  18.9209770  83.3750750  58.2934630  20.3126420  83.9603870  58.1813970
  21.9682790  86.2502110  71.6173290  22.7695520  86.5714160  72.0308690
  21.4534610  85.8897690  72.3393200  26.0726820  86.2386350  54.2513280
  26.8655430  86.5275180  53.7995070  25.5531170  85.8078520  53.5725760
  30.8047420  82.3581980  71.5648700  30.1985580  82.3813580  70.8244450
  30.5001530  81.6265020  72.1015950  32.2347790  86.0862270  70.1758110
  33.1869540  86.0020290  70.1258350  32.0876010  86.7503980  70.8491900
  35.1256990  85.4656480  55.6750020  34.8398500  85.0521620  54.8604200
  34.9276540  86.3944190  55.5550540  19.6880600  78.7375570  70.5609340
  20.1919620  78.1582850  71.1325570  18.9488020  79.0215800  71.0985710
  26.5904220  81.4589760  54.1155630  26.4854860  80.8442110  54.8417010
  26.4228440  80.9355650  53.3318640  26.7418540  80.1446560  70.0944860
  25.9764210  80.7131560  70.0099530  26.9234500  79.8522770  69.2013090
  29.8306950  80.5209790  54.7197620  29.2817050  80.9679090  55.3640360
  30.4526210  80.0159040  55.2435290  33.8841890  81.8751890  70.6519880
  34.6251360  82.2127650  70.1487340  33.1214570  82.0443950  70.0989650
  21.7203680  76.8805160  71.4559410  21.7609020  76.5819030  72.3644640
  22.5749180  77.2812770  71.2966930  25.4982070  79.4800710  56.6162920
  25.9198490  79.3140580  57.4594310  25.6232910  78.6700940  56.1218060
  23.6609490  75.4597260  69.4233900  23.1305950  74.9688210  68.7957240
  24.3297560  75.8881460  68.8891830  28.0109710  78.5038320  53.8640020
  28.5315370  77.7887340  53.4981170  28.6578110  79.1424190  54.1640530
  32.5587550  79.9266720  69.1875090  32.9728570  80.0811800  70.0365510
  31.6238550  80.0521940  69.3500870  33.0309720  77.2662880  71.1914240
  33.6130490  76.5115200  71.1034720  33.2071490  77.7970320  70.4145720
  24.1481790  72.4259630  69.5031190  24.0538660  71.8080380  68.7782060
  23.5679180  73.1525920  69.2761100  26.9143230  70.9832870  66.5358580
  26.4660530  71.0057130  65.6904130  26.2808430  70.5851890  67.1328880
  27.3202780  79.8787200  67.1571020  27.7390890  80.7219930  66.9847260
  26.4011410  80.0159240  66.9277800  29.6566680  77.6103380  68.5408860
  29.7762890  77.0144520  69.2803700  30.5160680  77.6473070  68.1210160
  31.9954580  78.1640570  67.1171370  31.4689800  78.6883190  66.5136510
  32.3385920  78.7967960  67.7481100  24.3940970  75.5533940  53.5621080
  24.1930030  74.6901300  53.9234420  24.2233020  75.4667300  52.6242680
  25.1710200  86.1840210  68.2728750  24.6331290  86.9086270  67.9537450
  25.4244160  85.7070550  67.4826090  26.4235450  74.1524730  69.7984680
  27.0135140  73.8440580  70.4862500  25.6055690  73.6804480  69.9544580
  31.2428880  73.7690540  70.0317700  30.5544400  73.1072080  69.9667690
  31.9634900  73.3228810  70.4766160  31.8729280  70.3642170  56.0907960
  32.1531570  69.5210070  56.4467380  31.0995010  70.5965280  56.6046710
  23.1923770  72.6534560  53.5498960  23.4949670  72.6601990  52.6418110
  23.9318360  72.3032420  54.0466620  28.0272410  87.4191420  68.5315400
  27.9531110  88.3226560  68.8387770  27.1251250  87.1003320  68.5037470
  26.4108700  71.5969180  54.5355160  26.0630700  70.9193170  53.9557610
  26.6121470  71.1358690  55.3498550  28.5757740  86.5849930  56.1541760
  29.4708530  86.9234900  56.1760520  28.6075370  85.8629340  55.5266040
  22.2153900  81.9576980  54.3828760  22.6528770  82.5006650  55.0386340
  22.7001630  81.1323930  54.3925100  19.4299700  84.7466010  61.8349020
  19.7602710  83.8787070  61.6027660  19.8590700  84.9524530  62.6653980
  24.0261620  83.0775020  59.4950990  23.7257160  82.9539990  60.3954900
  23.9199110  82.2183610  59.0866720  19.9189910  85.6136600  64.5730650
  19.4820900  85.7937400  65.4054800  20.4867590  86.3711220  64.4312370
  35.5552090  85.1153600  68.8607960  34.9554080  85.1746160  68.1171880
  35.6845990  84.1758580  68.9904810  36.7953540  82.8571420  54.1977670
  35.9646500  82.9248070  54.6684900  36.9725370  83.7475540  53.8944530
  36.2510000  79.6018900  56.7011870  37.0128910  80.1715550  56.8071560
  36.2664370  79.0346100  57.4720180  19.7514340  78.1256830  60.9319530
  19.0963180  77.8568470  60.2879230  20.5892290  78.0161310  60.4821510
  37.2569970  80.4569000  61.5453800  37.6278800  79.6736320  61.1389770
  37.8971900  81.1458100  61.3671100  34.2403730  81.8405580  66.9584120
  33.4263570  82.2702740  67.2209910  34.6477930  82.4523990  66.3453170
  36.3029170  79.8953270  53.8584390  36.5778010  80.8032150  53.7303610
  36.1139910  79.8315800  54.7946380  32.7004780  72.9198120  55.1538020
  33.1189660  72.7329100  54.3134680  32.3940840  72.0677170  55.4640950
  36.1994510  77.8322260  58.8513820  35.8238110  77.0650190  58.4195110
  35.4697630  78.2144960  59.3388750  20.7890270  78.5109400  65.4722870
  21.1563310  78.4236800  66.3518890  20.2201090  77.7475950  65.3729730
  35.5894130  76.9793780  68.4853340  35.3580220  76.7506530  67.5851290
  35.8498680  77.8993330  68.4398230  20.3406270  75.4218490  69.3781290
  19.4462320  75.3885250  69.7175000  20.8803820  75.6205280  70.1432540
  34.0282200  72.2050210  71.2633040  34.9052380  72.2133610  71.6467040
  34.0403040  71.4681050  70.6525390  18.9652420  75.3355760  56.8744860
  18.0616500  75.5985960  56.6996520  19.4493040  75.6066930  56.0944820
  35.4745470  76.0579750  62.1521060  35.9982950  75.5642400  61.5211230
  36.0604890  76.1930110  62.8968630  35.6535190  76.1419620  65.6740610
  34.7037900  76.1083160  65.7885600  35.8348200  77.0519730  65.4390380
  21.5079630  74.3921300  54.7839240  22.2171330  73.9704520  54.2986520
  20.7919570  74.4596530  54.1522590  21.1553790  70.4460630  53.8241890
  21.8781920  70.9869570  54.1423110  21.4278310  70.1724050  52.9483430
  34.9645440  75.3153100  58.0913470  35.4604560  75.0823970  58.8762350
  34.7661510  74.4764940  57.6751110  20.8445980  69.6966820  63.7264510
  21.4922170  69.1464200  63.2859670  21.2647820  69.9509970  64.5480320
  36.3932600  73.9514050  60.6251150  36.2831880  73.7970090  61.5633420
  37.1540190  73.4234990  60.3826560  34.7398320  69.8908180  67.0834150
  35.3770540  70.5042320  67.4493340  34.8873210  69.9268840  66.1383380
  37.2822870  71.7821970  53.8657290  38.2072180  71.6503150  53.6575580
  37.2598660  71.8614790  54.8193740  37.3561360  72.5532630  56.4914000
  36.5612860  72.4877750  57.0206910  37.5604640  73.4883270  56.4799350
  34.2979780  86.5924180  60.4852390  34.8938850  86.2708750  59.8086810
  34.5557930  86.1196000  61.2765660  20.5977980  69.8522490  66.4689830
  20.2492800  70.3086310  67.2348010  20.2665680  68.9579620  66.5512260
  22.2042350  83.0242090  70.6343020  22.1611980  82.6535000  71.5157480
  22.3353360  83.9619660  70.7744840  25.9048380  84.5801680  66.2352740
  25.6639740  84.8476240  65.3483260  26.8451020  84.7507410  66.2903600
  28.1102800  71.0434370  69.9909250  28.0491690  71.6356200  70.7404660
  29.0503180  70.9360330  69.8459510  30.7477360  70.7004430  69.6301540
  31.3617770  71.0183720  68.9682620  31.2926920  70.2153020  70.2497400
  37.1652540  86.5996060  67.0363380  36.6710820  86.9964930  66.3190510
  36.5565830  85.9745270  67.4300660  21.2698620  69.3798690  69.7440600
  21.8181610  69.1986740  68.9806710  21.3353930  68.5892800  70.2796910
  22.0430380  85.9704340  67.7540800  21.4490700  85.8389040  68.4930840
  22.0354220  85.1342480  67.2882900  31.4885400  69.2636570  65.9570830
  30.6145240  69.5971680  65.7543760  31.3796150  68.7909750  66.7822700
  32.3957380  71.4707440  67.3412550  32.0670740  70.6559200  66.9614280
  33.3439680  71.4277250  67.2178240  34.8491990  87.2419480  64.3150120
  34.3894960  87.9935290  63.9408140  34.2204450  86.5225950  64.2564920
  21.6742610  83.3362720  66.7048840  20.9476670  82.7168010  66.6374790
  21.7351760  83.7303330  65.8346920  25.2787710  85.5507720  63.4898250
  25.7952730  84.9395080  62.9646510  25.9285090  86.0536500  63.9809260
  28.0183210  86.4416210  64.3167230  28.3061020  86.1870510  63.4400240
  28.5306430  85.8893570  64.9072800  29.2360220  70.1806410  64.8963740
  28.4532010  70.6551910  65.1760500  28.9423150  69.2761240  64.7876920
  33.7881290  70.8829510  62.9412830  34.2289380  70.8274610  62.0934430
  33.5188880  71.7987520  63.0123010  35.6519860  70.5144750  60.9521650
  35.5908260  69.5705970  60.8052670  36.4311890  70.6224840  61.4975110
  19.9572610  86.6537110  59.9145600  19.7894650  86.0207790  60.6127490
  19.0907120  86.8596510  59.5639790  20.5800630  70.4853890  57.4177460
  21.3379990  70.5982770  56.8441490  20.1177800  71.3223090  57.3720890
  27.1214440  72.5993160  60.4079770  26.3088950  72.2250050  60.0675650
  27.6256080  71.8438240  60.7100960  31.6239420  69.2635610  61.6462840
  32.2268790  69.8355820  62.1211360  30.8832410  69.8275050  61.4236740
  34.7674020  69.6657170  56.9203120  34.9624650  70.5640620  57.1870550
  33.9803890  69.4344250  57.4136070  21.5635310  85.3470340  57.3595740
  21.0382930  85.7278370  56.6557700  21.4879890  85.9721110  58.0805450
  22.9525780  71.0117940  55.9579430  23.4818540  70.2247740  55.8287380
  23.5854100  71.6909130  56.1914960  25.1463620  70.7493080  59.0124820
  24.5166360  70.0480390  59.1794950  24.6068760  71.5097210  58.7957980
  28.0855570  87.3632310  71.6835430  29.0122880  87.1276580  71.7271390
  28.0706000  88.1904310  71.2021460  36.3200630  86.9057880  58.6809680
  36.4952820  86.2195620  58.0370600  35.6222200  87.4304930  58.2886350
  25.2719180  70.0277060  71.4477310  24.9903450  70.5310660  70.6838130
  25.6538880  69.2298810  71.0819440  24.1628280  87.2952720  56.2344990
  24.8947100  87.0112000  55.6868880  24.4221950  87.0566000  57.1244370
  23.3243070  83.4117450  56.2391320  22.6951950  83.8802550  56.7877150
  23.4390900  82.5666670  56.6737510  31.8734640  69.4430640  72.0257780
  31.7600090  69.7625250  72.9209300  32.6904380  69.8443150  71.7295060
  34.6533130  86.5902170  71.5076470  35.4458450  86.0951400  71.3002430
  34.9466280  87.2692310  72.1152080  30.7792790  77.4623110  42.3892520
  30.6986840  76.5477720  42.1184230  30.3657210  77.9590180  41.6832230
  28.9110830  79.2402130  44.2701790  28.1352930  78.7602570  44.5600360
  29.5623760  78.5607780  44.0957950  22.9276660  79.5521940  45.1477550
  22.0961540  79.2970650  45.5474060  23.5357640  79.6232710  45.8835470
  32.9318260  83.6462320  43.0500920  32.4699790  82.8749560  43.3788090
  33.7443810  83.6728390  43.5553370  22.9077920  83.5862030  45.3435570
  23.2105960  82.6959770  45.1645790  23.6521510  84.1432250  45.1157820
  21.3368610  74.5123830  38.9319940  20.4485310  74.8539800  38.8299820
  21.6209800  74.3124150  38.0400770  19.3001620  77.1129480  44.8159640
  19.8717730  76.3451680  44.8163280  19.3003160  77.4118240  43.9066250
  29.1581570  85.9320330  42.6704910  28.5393010  86.3877830  42.0999350
  30.0133350  86.0871790  42.2694610  28.3519820  81.9159320  44.2771950
  28.2828100  80.9749260  44.1161080  29.1139680  82.0060730  44.8494520
  20.5426490  72.5213840  46.6028570  20.3629330  71.6239590  46.8831330
  20.1406570  73.0685710  47.2775520  29.3824990  74.7229700  44.5040880
  29.7589810  73.8501580  44.3914550  29.2844500  75.0588400  43.6131320
  23.5130000  73.0955330  39.9658320  23.6196750  73.9959060  40.2727080
  22.6022360  73.0473300  39.6752970  33.1649110  72.2180140  41.4369220
  33.9858730  71.7276710  41.4794700  33.1983190  72.8077800  42.1901060
  21.1613160  75.0174340  45.2110910  21.8423270  75.2812710  45.8298310
  20.8461210  74.1775210  45.5448920  25.3537730  76.0641700  44.2983500
  25.8615950  76.5622670  44.9388520  25.8850970  75.2876900  44.1222860
  37.4548660  74.2346890  48.0012850  36.7500830  74.6228600  47.4827960
  37.7206580  74.9297180  48.6033780  23.6373830  70.7040260  48.5646920
  23.6392270  71.2212650  47.7592820  22.8078140  70.2270440  48.5416850
  30.0244920  80.8159570  40.0636820  29.4062190  81.2809020  39.4999540
  30.5368170  81.5087050  40.4806330  24.8876680  80.3435440  46.7420420
  24.5546060  80.9704360  47.3841490  25.0643360  80.8697320  45.9622090
  33.4010590  74.1580520  44.2096760  32.6966160  74.4465410  44.7899870
  33.7622750  74.9680630  43.8496320  23.3189160  72.4150220  46.5717370
  23.6605970  73.2592270  46.2771240  22.3804970  72.5633960  46.6882710
  24.0995780  82.3116240  48.5569600  24.7169780  82.9867320  48.2754050
  23.2388900  82.7204220  48.4657100  19.3928120  81.5016100  37.4376450
  19.0156100  81.9903200  36.7061350  19.6501190  82.1741380  38.0682980
  35.0173370  83.7755650  46.4724240  34.3336890  84.4454760  46.4640910
  35.5567660  83.9736300  45.7069100  36.4697510  73.6035310  44.6005970
  35.5222420  73.6374290  44.7321400  36.7947500  74.4174260  44.9855330
  27.0017050  69.9032490  42.8961960  27.3092030  69.3479380  42.1797460
  26.0717750  70.0376950  42.7134950  32.5532110  85.6199780  45.1869420
  32.5659270  85.2162070  44.3191680  32.0007330  86.3947070  45.0830850
  33.8477530  82.3416000  40.2759590  33.7373860  81.3990330  40.4009010
  33.8445780  82.7031640  41.1622350  31.9517550  80.5229620  46.5152030
  32.3686340  80.3089730  45.6805490  32.6757370  80.7802410  47.0860650
  29.3897810  77.9681320  39.6322080  28.4627090  77.9018700  39.8610550
  29.5422630  78.9061450  39.5177320  29.3766890  74.2398320  36.6289240
  28.4370560  74.4012280  36.7141700  29.6950150  74.9584000  36.0825230
  35.8979650  78.9216840  46.6068270  35.0698280  78.9909930  46.1318400
  36.4930130  79.5071150  46.1384100  33.4195100  79.5301620  40.1357330
  32.8007520  79.1921170  39.4883630  33.4019550  78.8861380  40.8436520
  32.8621660  75.7086160  47.5523140  32.4492840  76.5339870  47.8063130
  32.1297610  75.1231200  47.3599500  24.9954450  78.4946060  42.4141810
  24.5911450  77.7823310  41.9187710  25.0817570  78.1499300  43.3029850
  25.4636150  82.1813620  44.5781020  25.1664440  81.5759090  43.8988800
  26.4135970  82.2190930  44.4670380  23.7083070  75.2689270  46.1940850
  24.2597660  75.3784610  45.4194100  24.2226580  75.6426870  46.9096080
  33.5521760  85.7545490  48.2404120  33.0752320  86.5617680  48.0476730
  32.8683550  85.1023820  48.3930330  24.5554580  81.9195310  51.2288820
  23.6583110  82.1435280  51.4762220  24.5807450  82.0430250  50.2800220
  31.5959800  78.7688430  37.1430080  32.0353080  77.9310860  36.9967900
  32.3088220  79.4017830  37.2294220  23.3825800  78.7908630  49.8046190
  23.2433570  79.6631430  50.1733590  22.5007160  78.4481440  49.6594130
  29.7055180  83.7084500  41.1111320  30.1451090  84.4508830  40.6966710
  29.6442070  83.9511070  42.0350280  25.1806150  84.7330330  52.0131340
  25.1521580  85.1373280  51.1459770  25.0171120  83.8040690  51.8502940
  21.6959080  77.3891040  39.9148460  21.5756680  78.1153130  39.3029730
  21.3859970  76.6193950  39.4376370  37.1320970  85.5157430  53.3095510
  37.6080690  85.9940320  53.9884590  37.7528130  85.4474920  52.5841010
  19.3344450  80.5606180  45.7217100  19.4124870  80.6954950  44.7772820
  19.9486130  79.8522070  45.9145220  20.5792080  82.2606370  42.1323280
  20.1720160  82.4020960  41.2776880  21.4705090  81.9766530  41.9294490
  36.5354220  82.7070280  50.4695520  36.6617280  82.4682160  49.5512700
  36.5775600  81.8754820  50.9417600  30.3970960  86.4098280  49.0390330
  30.9115630  86.3206290  49.8412760  29.5540040  86.7557980  49.3318240
  32.3725360  86.6953620  38.4674330  32.2126500  86.4056560  39.3656160
  32.2072070  85.9193750  37.9319560  24.8513740  86.4752150  40.2445950
  24.6756220  85.5587690  40.0313750  23.9969480  86.8339440  40.4843750
  32.0751490  84.2041180  37.0272330  31.3816650  84.2018470  36.3674610
  32.8174350  83.7800500  36.5966500  31.6401420  85.8303890  41.1020820
  32.0958370  85.0493270  41.4159440  31.9793940  86.5410710  41.6462000
  36.3878230  74.7602740  51.4345260  35.7722500  75.2682410  50.9060720
  36.0674650  73.8601070  51.3771200  19.3903970  81.6020350  48.2611560
  19.5535010  81.1325710  47.4430930  19.8556420  81.0943910  48.9260400
  24.1622740  70.7326110  43.2972130  23.7190890  71.5135650  42.9656650
  24.7207730  71.0556000  44.0043070  28.4492550  73.5994630  48.9007450
  27.9871920  73.8077650  49.7127390  28.0470660  72.7853980  48.5978120
  33.4497060  74.8203580  50.0304110  32.5990650  74.5209330  50.3513180
  33.2898850  75.0645590  49.1187930  30.5446770  76.3205330  52.1302900
  30.8700180  75.4869080  51.7905130  31.3327100  76.8433850  52.2781230
  27.2781560  70.3536810  38.1777960  26.6535740  70.3496680  38.9031270
  27.1911680  69.4867770  37.7813930  26.1998640  71.2773440  45.1561730
  26.4970970  72.1836270  45.0753750  26.7484200  70.7892220  44.5421300
  23.9536960  75.8559680  41.0253380  23.7277880  75.6396850  41.9300000
  23.1729490  76.2888140  40.6799350  31.1834720  75.8623050  39.6244030
  30.5843610  76.5858850  39.4407650  31.7314330  75.7999830  38.8420480
  26.3936170  76.7545260  51.6913650  26.2979770  75.8139990  51.5414050
  27.2368150  76.9760330  51.2961720  29.7899590  74.4986590  41.6547310
  30.1829160  74.8158790  40.8416000  30.1516440  73.6198470  41.7691830
  21.5246710  73.1658930  49.8447430  21.1310100  74.0134140  50.0520210
  20.8365110  72.5285300  50.0356070  28.0991760  73.2493900  52.9144170
  27.4090080  73.0566100  53.5490260  28.8424060  73.5328540  53.4468470
  18.8263760  71.0887390  43.8777510  18.5376810  71.6590250  44.5902490
  19.5709520  70.6091840  44.2408740  19.0133990  75.0307510  35.0880230
  18.9308660  75.9738270  35.2295220  18.6617050  74.8882420  34.2092580
  30.3754730  77.0892340  45.7498090  29.6435850  77.5979150  46.0988190
  29.9779070  76.2722320  45.4486870  26.8132120  73.7646540  44.1550580
  26.8168180  73.3236490  43.3055120  27.7083240  74.0863870  44.2622400
  22.6634500  73.6473030  43.1144790  22.3234550  74.1248260  43.8711840
  21.9011820  73.1938150  42.7545890  26.8752270  74.7658620  37.1457340
  26.9965090  74.7245100  38.0943160  26.4900780  75.6282770  36.9904070
  30.8380640  72.5426020  45.1621030  30.8553380  72.9934670  46.0062880
  30.5896220  71.6431660  45.3754470  25.8873770  77.0759760  36.5440640
  25.3190670  76.6278010  35.9176550  26.5962770  77.4352540  36.0105790
  34.2651390  69.9558200  51.0007410  34.5897160  69.2247860  51.5265390
  34.3007900  69.6371840  50.0988400  20.9642950  80.9771780  50.4207370
  20.5797740  80.3365450  51.0190330  21.2755140  81.6807900  50.9902100
  27.1140090  77.8248320  45.9015990  27.4810220  77.3506890  46.6477330
  26.9245150  78.6989890  46.2424330  19.9780580  72.5692010  42.0309460
  19.6927500  72.2047680  42.8688080  19.9159440  71.8372470  41.4172600
  24.9039460  76.8656960  48.2200200  24.5996530  77.7448940  48.4450560
  25.8585920  76.9256750  48.2557640  23.4321250  81.0717950  38.8167050
  22.6583510  80.5315570  38.6565770  24.1615880  80.5524560  38.4784810
  34.1909230  80.0683310  44.6093440  34.9108350  80.5638600  44.2189550
  33.9891050  79.3901200  43.9647310  29.6519170  71.4621270  38.7522830
  28.8383780  70.9634440  38.6768140  29.4581120  72.3019520  38.3359180
  29.5728030  80.1392370  50.4962440  29.5065340  79.2188040  50.2420030
  28.9433170  80.2367810  51.2107080  32.3667560  75.8340920  37.0484990
  33.2547180  76.1458150  36.8736330  32.3372650  74.9613170  36.6565570
  23.4758650  80.7398330  42.4545860  23.9937320  79.9366590  42.4002750
  23.0242670  80.6777470  43.2962690  28.3628150  82.0064610  37.7273160
  28.7043850  82.7506840  37.2316480  27.5340860  82.3195730  38.0897990
  20.9603190  77.7059700  49.3671560  20.6018130  78.3713550  49.9544900
  20.6657750  76.8743250  49.7384180  24.1616310  78.1643940  52.2511110
  23.8616450  78.3101120  51.3538930  24.9327550  77.6049230  52.1584500
  29.5044760  82.9612940  50.2466240  29.5189300  82.0293900  50.0285150
  28.7969860  83.0472700  50.8856010  34.6381830  77.1452760  36.5164850
  34.5545550  77.5766980  35.6661290  35.3576020  77.6051110  36.9491670
  35.7155970  79.6020280  49.5934820  34.9904160  80.1949060  49.3964210
  36.2431430  79.5943820  48.7948190  35.6669080  83.9995020  39.2446980
  35.0245240  83.3450640  39.5190700  35.2799740  84.4050110  38.4687650
  31.2455560  81.3280450  43.0918670  31.5979380  80.7308580  42.4320040
  30.3617890  81.0024680  43.2626920  27.3318840  82.0878140  40.4989080
  28.0189970  82.6347350  40.8796670  26.5451260  82.6318870  40.5338690
  19.4711240  77.7050960  35.9906160  20.3406090  77.9875760  36.2742080
  18.9801560  78.5186830  35.8754970  26.6346050  79.0924170  40.1114440
  27.0908830  79.9029420  40.3374630  26.2834260  78.7747310  40.9432930
  28.9378660  84.6030510  47.3406740  29.5820880  84.8089890  48.0180160
  29.3008100  83.8418910  46.8877590  22.5357830  69.4361820  40.5836960
  22.4072460  69.4279720  41.5321880  21.7119850  69.7744910  40.2327970
  30.2110740  82.6062860  46.0584190  30.8532970  81.9056020  46.1716360
  30.7360090  83.3861300  45.8781080  34.0566460  82.8911480  35.7823330
  33.8304040  82.1741920  36.3747970  33.6662660  82.6423920  34.9445080
  31.9848360  83.4057760  49.2620250  32.3204600  83.9924450  49.9398170
  31.0648700  83.2750470  49.4918040  19.8382490  86.9178340  36.5567790
  20.1980130  87.5167680  35.9025060  19.6974830  87.4638230  37.3302820
  19.5351760  71.1952940  50.0443660  18.8210280  71.3949860  50.6496270
  19.9546800  70.4192510  50.4158460  33.6382710  80.8083420  37.4437490
  33.3504410  81.2696110  38.2315370  34.4334880  80.3481190  37.7121710
  19.8224350  85.1833200  51.0310190  19.9315470  84.2427940  50.8905580
  19.1704910  85.4487950  50.3823920  27.8136940  83.4549090  52.4308310
  27.4933810  82.7358330  52.9754000  27.1395300  84.1304160  52.5044370
  25.8551110  84.3009540  37.3741460  25.8461210  85.0339230  36.7585970
  24.9349470  84.0541120  37.4668420  21.4557750  79.5224430  38.1188220
  20.8485700  80.2623330  38.1283520  21.9307100  79.6123790  37.2926420
  31.0290540  73.6875250  47.7945110  31.3971360  72.8670460  48.1224680
  30.1688740  73.7477140  48.2100760  34.3952570  72.6432190  38.6032670
  33.7665730  72.7477860  37.8890900  33.9004490  72.8628970  39.3926550
  28.8410710  84.3637780  36.0366650  28.9422690  84.1601770  35.1068630
  27.9412450  84.1096060  36.2414430  26.3636600  74.9218140  40.0190550
  25.6552750  75.3904480  40.4604160  26.6481080  74.2640150  40.6535740
  27.9892530  76.3414840  48.0183080  28.4877780  76.8160660  48.6834930
  28.1315480  75.4178360  48.2253110  30.3952030  71.6468800  41.4586340
  30.2719810  71.6654930  40.5095850  31.3436590  71.6947740  41.5784740
  27.4828820  86.8824100  40.7314320  27.7370320  86.8445490  39.8093690
  26.5341300  86.7557430  40.7242570  24.5671620  73.2303220  37.3941260
  25.4162150  73.6673370  37.3281450  24.2002890  73.5423480  38.2213320
  35.1959390  72.5582800  48.8611470  34.6932990  73.2988200  49.2005280
  36.0116050  72.9466800  48.5448260  33.4881400  77.8015980  42.3072830
  32.5471540  77.8166210  42.4820520  33.8025470  77.0151940  42.7533130
  23.4663040  79.4835580  35.8676790  24.2326310  79.3716940  36.4302220
  23.5437730  78.7873550  35.2153560  22.1609800  76.9160650  36.5509680
  22.2413390  75.9688160  36.6627080  23.0529550  77.2467530  36.6570340
  35.4906980  84.9724830  43.9827090  35.6154400  85.7956000  44.4550900
  36.3572540  84.7615560  43.6351240  22.9624510  87.0656040  43.6544220
  23.6986990  86.5171500  43.9252790  23.3465430  87.9312050  43.5150210
  19.8469990  83.1329610  39.5285730  18.9209770  83.3750750  39.5191140
  20.3126420  83.9603870  39.4070480  21.9682790  86.2502110  52.8429800
  22.7695520  86.5714160  53.2565200  21.4534610  85.8897690  53.5649710
  26.0726820  86.2386350  35.4769790  26.8655430  86.5275180  35.0251580
  25.5531170  85.8078520  34.7982270  30.8047420  82.3581980  52.7905210
  30.1985580  82.3813580  52.0500960  30.5001530  81.6265020  53.3272460
  32.2347790  86.0862270  51.4014620  33.1869540  86.0020290  51.3514860
  32.0876010  86.7503980  52.0748410  35.1256990  85.4656480  36.9006530
  34.8398500  85.0521620  36.0860710  34.9276540  86.3944190  36.7807050
  19.6880600  78.7375570  51.7865850  20.1919620  78.1582850  52.3582080
  18.9488020  79.0215800  52.3242220  26.5904220  81.4589760  35.3412140
  26.4854860  80.8442110  36.0673520  26.4228440  80.9355650  34.5575150
  26.7418540  80.1446560  51.3201370  25.9764210  80.7131560  51.2356040
  26.9234500  79.8522770  50.4269600  29.8306950  80.5209790  35.9454130
  29.2817050  80.9679090  36.5896870  30.4526210  80.0159040  36.4691800
  33.8841890  81.8751890  51.8776390  34.6251360  82.2127650  51.3743850
  33.1214570  82.0443950  51.3246160  21.7203680  76.8805160  52.6815920
  21.7609020  76.5819030  53.5901150  22.5749180  77.2812770  52.5223440
  25.4982070  79.4800710  37.8419430  25.9198490  79.3140580  38.6850820
  25.6232910  78.6700940  37.3474570  23.6609490  75.4597260  50.6490410
  23.1305950  74.9688210  50.0213750  24.3297560  75.8881460  50.1148340
  28.0109710  78.5038320  35.0896530  28.5315370  77.7887340  34.7237680
  28.6578110  79.1424190  35.3897040  32.5587550  79.9266720  50.4131600
  32.9728570  80.0811800  51.2622020  31.6238550  80.0521940  50.5757380
  33.0309720  77.2662880  52.4170750  33.6130490  76.5115200  52.3291230
  33.2071490  77.7970320  51.6402230  24.1481790  72.4259630  50.7287700
  24.0538660  71.8080380  50.0038570  23.5679180  73.1525920  50.5017610
  26.9143230  70.9832870  47.7615090  26.4660530  71.0057130  46.9160640
  26.2808430  70.5851890  48.3585390  27.3202780  79.8787200  48.3827530
  27.7390890  80.7219930  48.2103770  26.4011410  80.0159240  48.1534310
  29.6566680  77.6103380  49.7665370  29.7762890  77.0144520  50.5060210
  30.5160680  77.6473070  49.3466670  31.9954580  78.1640570  48.3427880
  31.4689800  78.6883190  47.7393020  32.3385920  78.7967960  48.9737610
  24.3940970  75.5533940  34.7877590  24.1930030  74.6901300  35.1490930
  24.2233020  75.4667300  33.8499190  25.1710200  86.1840210  49.4985260
  24.6331290  86.9086270  49.1793960  25.4244160  85.7070550  48.7082600
  26.4235450  74.1524730  51.0241190  27.0135140  73.8440580  51.7119010
  25.6055690  73.6804480  51.1801090  31.2428880  73.7690540  51.2574210
  30.5544400  73.1072080  51.1924200  31.9634900  73.3228810  51.7022670
  31.8729280  70.3642170  37.3164470  32.1531570  69.5210070  37.6723890
  31.0995010  70.5965280  37.8303220  23.1923770  72.6534560  34.7755470
  23.4949670  72.6601990  33.8674620  23.9318360  72.3032420  35.2723130
  28.0272410  87.4191420  49.7571910  27.9531110  88.3226560  50.0644280
  27.1251250  87.1003320  49.7293980  26.4108700  71.5969180  35.7611670
  26.0630700  70.9193170  35.1814120  26.6121470  71.1358690  36.5755060
  28.5757740  86.5849930  37.3798270  29.4708530  86.9234900  37.4017030
  28.6075370  85.8629340  36.7522550  22.2153900  81.9576980  35.6085270
  22.6528770  82.5006650  36.2642850  22.7001630  81.1323930  35.6181610
  19.4299700  84.7466010  43.0605530  19.7602710  83.8787070  42.8284170
  19.8590700  84.9524530  43.8910490  24.0261620  83.0775020  40.7207500
  23.7257160  82.9539990  41.6211410  23.9199110  82.2183610  40.3123230
  19.9189910  85.6136600  45.7987160  19.4820900  85.7937400  46.6311310
  20.4867590  86.3711220  45.6568880  35.5552090  85.1153600  50.0864470
  34.9554080  85.1746160  49.3428390  35.6845990  84.1758580  50.2161320
  36.7953540  82.8571420  35.4234180  35.9646500  82.9248070  35.8941410
  36.9725370  83.7475540  35.1201040  36.2510000  79.6018900  37.9268380
  37.0128910  80.1715550  38.0328070  36.2664370  79.0346100  38.6976690
  19.7514340  78.1256830  42.1576040  19.0963180  77.8568470  41.5135740
  20.5892290  78.0161310  41.7078020  37.2569970  80.4569000  42.7710310
  37.6278800  79.6736320  42.3646280  37.8971900  81.1458100  42.5927610
  34.2403730  81.8405580  48.1840630  33.4263570  82.2702740  48.4466420
  34.6477930  82.4523990  47.5709680  36.3029170  79.8953270  35.0840900
  36.5778010  80.8032150  34.9560120  36.1139910  79.8315800  36.0202890
  32.7004780  72.9198120  36.3794530  33.1189660  72.7329100  35.5391190
  32.3940840  72.0677170  36.6897460  36.1994510  77.8322260  40.0770330
  35.8238110  77.0650190  39.6451620  35.4697630  78.2144960  40.5645260
  20.7890270  78.5109400  46.6979380  21.1563310  78.4236800  47.5775400
  20.2201090  77.7475950  46.5986240  35.5894130  76.9793780  49.7109850
  35.3580220  76.7506530  48.8107800  35.8498680  77.8993330  49.6654740
  20.3406270  75.4218490  50.6037800  19.4462320  75.3885250  50.9431510
  20.8803820  75.6205280  51.3689050  34.0282200  72.2050210  52.4889550
  34.9052380  72.2133610  52.8723550  34.0403040  71.4681050  51.8781900
  18.9652420  75.3355760  38.1001370  18.0616500  75.5985960  37.9253030
  19.4493040  75.6066930  37.3201330  35.4745470  76.0579750  43.3777570
  35.9982950  75.5642400  42.7467740  36.0604890  76.1930110  44.1225140
  35.6535190  76.1419620  46.8997120  34.7037900  76.1083160  47.0142110
  35.8348200  77.0519730  46.6646890  21.5079630  74.3921300  36.0095750
  22.2171330  73.9704520  35.5243030  20.7919570  74.4596530  35.3779100
  21.1553790  70.4460630  35.0498400  21.8781920  70.9869570  35.3679620
  21.4278310  70.1724050  34.1739940  34.9645440  75.3153100  39.3169980
  35.4604560  75.0823970  40.1018860  34.7661510  74.4764940  38.9007620
  20.8445980  69.6966820  44.9521020  21.4922170  69.1464200  44.5116180
  21.2647820  69.9509970  45.7736830  36.3932600  73.9514050  41.8507660
  36.2831880  73.7970090  42.7889930  37.1540190  73.4234990  41.6083070
  34.7398320  69.8908180  48.3090660  35.3770540  70.5042320  48.6749850
  34.8873210  69.9268840  47.3639890  37.3561360  72.5532630  37.7170510
  36.5612860  72.4877750  38.2463420  37.5604640  73.4883270  37.7055860
  34.2979780  86.5924180  41.7108900  34.8938850  86.2708750  41.0343320
  34.5557930  86.1196000  42.5022170  20.5977980  69.8522490  47.6946340
  20.2492800  70.3086310  48.4604520  20.2665680  68.9579620  47.7768770
  22.2042350  83.0242090  51.8599530  22.1611980  82.6535000  52.7413990
  22.3353360  83.9619660  52.0001350  25.9048380  84.5801680  47.4609250
  25.6639740  84.8476240  46.5739770  26.8451020  84.7507410  47.5160110
  28.1102800  71.0434370  51.2165760  28.0491690  71.6356200  51.9661170
  29.0503180  70.9360330  51.0716020  30.7477360  70.7004430  50.8558050
  31.3617770  71.0183720  50.1939130  31.2926920  70.2153020  51.4753910
  37.1652540  86.5996060  48.2619890  36.6710820  86.9964930  47.5447020
  36.5565830  85.9745270  48.6557170  21.2698620  69.3798690  50.9697110
  21.8181610  69.1986740  50.2063220  21.3353930  68.5892800  51.5053420
  22.0430380  85.9704340  48.9797310  21.4490700  85.8389040  49.7187350
  22.0354220  85.1342480  48.5139410  31.4885400  69.2636570  47.1827340
  30.6145240  69.5971680  46.9800270  31.3796150  68.7909750  48.0079210
  32.3957380  71.4707440  48.5669060  32.0670740  70.6559200  48.1870790
  33.3439680  71.4277250  48.4434750  34.8491990  87.2419480  45.5406630
  34.3894960  87.9935290  45.1664650  34.2204450  86.5225950  45.4821430
  21.6742610  83.3362720  47.9305350  20.9476670  82.7168010  47.8631300
  21.7351760  83.7303330  47.0603430  25.2787710  85.5507720  44.7154760
  25.7952730  84.9395080  44.1903020  25.9285090  86.0536500  45.2065770
  28.0183210  86.4416210  45.5423740  28.3061020  86.1870510  44.6656750
  28.5306430  85.8893570  46.1329310  29.2360220  70.1806410  46.1220250
  28.4532010  70.6551910  46.4017010  28.9423150  69.2761240  46.0133430
  33.7881290  70.8829510  44.1669340  34.2289380  70.8274610  43.3190940
  33.5188880  71.7987520  44.2379520  35.6519860  70.5144750  42.1778160
  35.5908260  69.5705970  42.0309180  36.4311890  70.6224840  42.7231620
  19.9572610  86.6537110  41.1402110  19.7894650  86.0207790  41.8384000
  19.0907120  86.8596510  40.7896300  20.5800630  70.4853890  38.6433970
  21.3379990  70.5982770  38.0698000  20.1177800  71.3223090  38.5977400
  27.1214440  72.5993160  41.6336280  26.3088950  72.2250050  41.2932160
  27.6256080  71.8438240  41.9357470  31.6239420  69.2635610  42.8719350
  32.2268790  69.8355820  43.3467870  30.8832410  69.8275050  42.6493250
  34.7674020  69.6657170  38.1459630  34.9624650  70.5640620  38.4127060
  33.9803890  69.4344250  38.6392580  21.5635310  85.3470340  38.5852250
  21.0382930  85.7278370  37.8814210  21.4879890  85.9721110  39.3061960
  22.9525780  71.0117940  37.1835940  23.4818540  70.2247740  37.0543890
  23.5854100  71.6909130  37.4171470  25.1463620  70.7493080  40.2381330
  24.5166360  70.0480390  40.4051460  24.6068760  71.5097210  40.0214490
  28.0855570  87.3632310  52.9091940  29.0122880  87.1276580  52.9527900
  28.0706000  88.1904310  52.4277970  36.3200630  86.9057880  39.9066190
  36.4952820  86.2195620  39.2627110  35.6222200  87.4304930  39.5142860
  25.2719180  70.0277060  52.6733820  24.9903450  70.5310660  51.9094640
  25.6538880  69.2298810  52.3075950  24.1628280  87.2952720  37.4601500
  24.8947100  87.0112000  36.9125390  24.4221950  87.0566000  38.3500880
  23.3243070  83.4117450  37.4647830  22.6951950  83.8802550  38.0133660
  23.4390900  82.5666670  37.8994020  31.8734640  69.4430640  53.2514290
  31.7600090  69.7625250  54.1465810  32.6904380  69.8443150  52.9551570
  34.6533130  86.5902170  52.7332980  35.4458450  86.0951400  52.5258940
  34.9466280  87.2692310  53.3408590  30.7792790  77.4623110  23.6149030
  30.6986840  76.5477720  23.3440740  30.3657210  77.9590180  22.9088740
  28.9110830  79.2402130  25.4958300  28.1352930  78.7602570  25.7856870
  29.5623760  78.5607780  25.3214460  22.9276660  79.5521940  26.3734060
  22.0961540  79.2970650  26.7730570  23.5357640  79.6232710  27.1091980
  32.9318260  83.6462320  24.2757430  32.4699790  82.8749560  24.6044600
  33.7443810  83.6728390  24.7809880  22.9077920  83.5862030  26.5692080
  23.2105960  82.6959770  26.3902300  23.6521510  84.1432250  26.3414330
  21.3368610  74.5123830  20.1576450  20.4485310  74.8539800  20.0556330
  21.6209800  74.3124150  19.2657280  19.3001620  77.1129480  26.0416150
  19.8717730  76.3451680  26.0419790  19.3003160  77.4118240  25.1322760
  29.1581570  85.9320330  23.8961420  28.5393010  86.3877830  23.3255860
  30.0133350  86.0871790  23.4951120  28.3519820  81.9159320  25.5028460
  28.2828100  80.9749260  25.3417590  29.1139680  82.0060730  26.0751030
  20.5426490  72.5213840  27.8285080  20.3629330  71.6239590  28.1087840
  20.1406570  73.0685710  28.5032030  29.3824990  74.7229700  25.7297390
  29.7589810  73.8501580  25.6171060  29.2844500  75.0588400  24.8387830
  23.5130000  73.0955330  21.1914830  23.6196750  73.9959060  21.4983590
  22.6022360  73.0473300  20.9009480  33.1649110  72.2180140  22.6625730
  33.9858730  71.7276710  22.7051210  33.1983190  72.8077800  23.4157570
  21.1613160  75.0174340  26.4367420  21.8423270  75.2812710  27.0554820
  20.8461210  74.1775210  26.7705430  25.3537730  76.0641700  25.5240010
  25.8615950  76.5622670  26.1645030  25.8850970  75.2876900  25.3479370
  37.4548660  74.2346890  29.2269360  36.7500830  74.6228600  28.7084470
  37.7206580  74.9297180  29.8290290  23.6373830  70.7040260  29.7903430
  23.6392270  71.2212650  28.9849330  22.8078140  70.2270440  29.7673360
  30.0244920  80.8159570  21.2893330  29.4062190  81.2809020  20.7256050
  30.5368170  81.5087050  21.7062840  24.8876680  80.3435440  27.9676930
  24.5546060  80.9704360  28.6098000  25.0643360  80.8697320  27.1878600
  33.4010590  74.1580520  25.4353270  32.6966160  74.4465410  26.0156380
  33.7622750  74.9680630  25.0752830  23.3189160  72.4150220  27.7973880
  23.6605970  73.2592270  27.5027750  22.3804970  72.5633960  27.9139220
  24.0995780  82.3116240  29.7826110  24.7169780  82.9867320  29.5010560
  23.2388900  82.7204220  29.6913610  19.3928120  81.5016100  18.6632960
  19.0156100  81.9903200  17.9317860  19.6501190  82.1741380  19.2939490
  35.0173370  83.7755650  27.6980750  34.3336890  84.4454760  27.6897420
  35.5567660  83.9736300  26.9325610  36.4697510  73.6035310  25.8262480
  35.5222420  73.6374290  25.9577910  36.7947500  74.4174260  26.2111840
  27.0017050  69.9032490  24.1218470  27.3092030  69.3479380  23.4053970
  26.0717750  70.0376950  23.9391460  32.5532110  85.6199780  26.4125930
  32.5659270  85.2162070  25.5448190  32.0007330  86.3947070  26.3087360
  33.8477530  82.3416000  21.5016100  33.7373860  81.3990330  21.6265520
  33.8445780  82.7031640  22.3878860  31.9517550  80.5229620  27.7408540
  32.3686340  80.3089730  26.9062000  32.6757370  80.7802410  28.3117160
  29.3897810  77.9681320  20.8578590  28.4627090  77.9018700  21.0867060
  29.5422630  78.9061450  20.7433830  29.3766890  74.2398320  17.8545750
  28.4370560  74.4012280  17.9398210  29.6950150  74.9584000  17.3081740
  35.8979650  78.9216840  27.8324780  35.0698280  78.9909930  27.3574910
  36.4930130  79.5071150  27.3640610  33.4195100  79.5301620  21.3613840
  32.8007520  79.1921170  20.7140140  33.4019550  78.8861380  22.0693030
  32.8621660  75.7086160  28.7779650  32.4492840  76.5339870  29.0319640
  32.1297610  75.1231200  28.5856010  24.9954450  78.4946060  23.6398320
  24.5911450  77.7823310  23.1444220  25.0817570  78.1499300  24.5286360
  25.4636150  82.1813620  25.8037530  25.1664440  81.5759090  25.1245310
  26.4135970  82.2190930  25.6926890  23.7083070  75.2689270  27.4197360
  24.2597660  75.3784610  26.6450610  24.2226580  75.6426870  28.1352590
  33.5521760  85.7545490  29.4660630  33.0752320  86.5617680  29.2733240
  32.8683550  85.1023820  29.6186840  24.5554580  81.9195310  32.4545330
  23.6583110  82.1435280  32.7018730  24.5807450  82.0430250  31.5056730
  31.5959800  78.7688430  18.3686590  32.0353080  77.9310860  18.2224410
  32.3088220  79.4017830  18.4550730  23.3825800  78.7908630  31.0302700
  23.2433570  79.6631430  31.3990100  22.5007160  78.4481440  30.8850640
  29.7055180  83.7084500  22.3367830  30.1451090  84.4508830  21.9223220
  29.6442070  83.9511070  23.2606790  25.1806150  84.7330330  33.2387850
  25.1521580  85.1373280  32.3716280  25.0171120  83.8040690  33.0759450
  35.1776940  70.0231240  16.6827630  34.8649600  70.1158070  17.5826700
  35.9389410  70.6012270  16.6325060  21.6959080  77.3891040  21.1404970
  21.5756680  78.1153130  20.5286240  21.3859970  76.6193950  20.6632880
  37.1320970  85.5157430  34.5352020  37.6080690  85.9940320  35.2141100
  37.7528130  85.4474920  33.8097520  19.3344450  80.5606180  26.9473610
  19.4124870  80.6954950  26.0029330  19.9486130  79.8522070  27.1401730
  20.5792080  82.2606370  23.3579790  20.1720160  82.4020960  22.5033390
  21.4705090  81.9766530  23.1551000  36.5354220  82.7070280  31.6952030
  36.6617280  82.4682160  30.7769210  36.5775600  81.8754820  32.1674110
  30.3970960  86.4098280  30.2646840  30.9115630  86.3206290  31.0669270
  29.5540040  86.7557980  30.5574750  32.3725360  86.6953620  19.6930840
  32.2126500  86.4056560  20.5912670  32.2072070  85.9193750  19.1576070
  24.8513740  86.4752150  21.4702460  24.6756220  85.5587690  21.2570260
  23.9969480  86.8339440  21.7100260  32.0751490  84.2041180  18.2528840
  31.3816650  84.2018470  17.5931120  32.8174350  83.7800500  17.8223010
  31.6401420  85.8303890  22.3277330  32.0958370  85.0493270  22.6415950
  31.9793940  86.5410710  22.8718510  36.3878230  74.7602740  32.6601770
  35.7722500  75.2682410  32.1317230  36.0674650  73.8601070  32.6027710
  19.3903970  81.6020350  29.4868070  19.5535010  81.1325710  28.6687440
  19.8556420  81.0943910  30.1516910  24.1622740  70.7326110  24.5228640
  23.7190890  71.5135650  24.1913160  24.7207730  71.0556000  25.2299580
  28.4492550  73.5994630  30.1263960  27.9871920  73.8077650  30.9383900
  28.0470660  72.7853980  29.8234630  33.4497060  74.8203580  31.2560620
  32.5990650  74.5209330  31.5769690  33.2898850  75.0645590  30.3444440
  30.5446770  76.3205330  33.3559410  30.8700180  75.4869080  33.0161640
  31.3327100  76.8433850  33.5037740  27.2781560  70.3536810  19.4034470
  26.6535740  70.3496680  20.1287780  27.1911680  69.4867770  19.0070440
  26.1998640  71.2773440  26.3818240  26.4970970  72.1836270  26.3010260
  26.7484200  70.7892220  25.7677810  23.9536960  75.8559680  22.2509890
  23.7277880  75.6396850  23.1556510  23.1729490  76.2888140  21.9055860
  31.1834720  75.8623050  20.8500540  30.5843610  76.5858850  20.6664160
  31.7314330  75.7999830  20.0676990  26.3936170  76.7545260  32.9170160
  26.2979770  75.8139990  32.7670560  27.2368150  76.9760330  32.5218230
  29.7899590  74.4986590  22.8803820  30.1829160  74.8158790  22.0672510
  30.1516440  73.6198470  22.9948340  21.5246710  73.1658930  31.0703940
  21.1310100  74.0134140  31.2776720  20.8365110  72.5285300  31.2612580
  28.0991760  73.2493900  34.1400680  27.4090080  73.0566100  34.7746770
  28.8424060  73.5328540  34.6724980  18.8263760  71.0887390  25.1034020
  18.5376810  71.6590250  25.8159000  19.5709520  70.6091840  25.4665250
  19.0133990  75.0307510  16.3136740  18.9308660  75.9738270  16.4551730
  18.6617050  74.8882420  15.4349090  30.3754730  77.0892340  26.9754600
  29.6435850  77.5979150  27.3244700  29.9779070  76.2722320  26.6743380
  26.8132120  73.7646540  25.3807090  26.8168180  73.3236490  24.5311630
  27.7083240  74.0863870  25.4878910  22.6634500  73.6473030  24.3401300
  22.3234550  74.1248260  25.0968350  21.9011820  73.1938150  23.9802400
  26.8752270  74.7658620  18.3713850  26.9965090  74.7245100  19.3199670
  26.4900780  75.6282770  18.2160580  30.8380640  72.5426020  26.3877540
  30.8553380  72.9934670  27.2319390  30.5896220  71.6431660  26.6010980
  25.8873770  77.0759760  17.7697150  25.3190670  76.6278010  17.1433060
  26.5962770  77.4352540  17.2362300  34.2651390  69.9558200  32.2263920
  34.5897160  69.2247860  32.7521900  34.3007900  69.6371840  31.3244910
  20.9642950  80.9771780  31.6463880  20.5797740  80.3365450  32.2446840
  21.2755140  81.6807900  32.2158610  27.1140090  77.8248320  27.1272500
  27.4810220  77.3506890  27.8733840  26.9245150  78.6989890  27.4680840
  19.9780580  72.5692010  23.2565970  19.6927500  72.2047680  24.0944590
  19.9159440  71.8372470  22.6429110  24.9039460  76.8656960  29.4456710
  24.5996530  77.7448940  29.6707070  25.8585920  76.9256750  29.4814150
  23.4321250  81.0717950  20.0423560  22.6583510  80.5315570  19.8822280
  24.1615880  80.5524560  19.7041320  34.1909230  80.0683310  25.8349950
  34.9108350  80.5638600  25.4446060  33.9891050  79.3901200  25.1903820
  29.6519170  71.4621270  19.9779340  28.8383780  70.9634440  19.9024650
  29.4581120  72.3019520  19.5615690  29.5728030  80.1392370  31.7218950
  29.5065340  79.2188040  31.4676540  28.9433170  80.2367810  32.4363590
  32.3667560  75.8340920  18.2741500  33.2547180  76.1458150  18.0992840
  32.3372650  74.9613170  17.8822080  23.4758650  80.7398330  23.6802370
  23.9937320  79.9366590  23.6259260  23.0242670  80.6777470  24.5219200
  28.3628150  82.0064610  18.9529670  28.7043850  82.7506840  18.4572990
  27.5340860  82.3195730  19.3154500  20.9603190  77.7059700  30.5928070
  20.6018130  78.3713550  31.1801410  20.6657750  76.8743250  30.9640690
  24.1616310  78.1643940  33.4767620  23.8616450  78.3101120  32.5795440
  24.9327550  77.6049230  33.3841010  29.5044760  82.9612940  31.4722750
  29.5189300  82.0293900  31.2541660  28.7969860  83.0472700  32.1112520
  34.6381830  77.1452760  17.7421360  34.5545550  77.5766980  16.8917800
  35.3576020  77.6051110  18.1748180  35.7155970  79.6020280  30.8191330
  34.9904160  80.1949060  30.6220720  36.2431430  79.5943820  30.0204700
  35.6669080  83.9995020  20.4703490  35.0245240  83.3450640  20.7447210
  35.2799740  84.4050110  19.6944160  31.2455560  81.3280450  24.3175180
  31.5979380  80.7308580  23.6576550  30.3617890  81.0024680  24.4883430
  27.3318840  82.0878140  21.7245590  28.0189970  82.6347350  22.1053180
  26.5451260  82.6318870  21.7595200  19.4711240  77.7050960  17.2162670
  20.3406090  77.9875760  17.4998590  18.9801560  78.5186830  17.1011480
  26.6346050  79.0924170  21.3370950  27.0908830  79.9029420  21.5631140
  26.2834260  78.7747310  22.1689440  28.9378660  84.6030510  28.5663250
  29.5820880  84.8089890  29.2436670  29.3008100  83.8418910  28.1134100
  22.5357830  69.4361820  21.8093470  22.4072460  69.4279720  22.7578390
  21.7119850  69.7744910  21.4584480  30.2110740  82.6062860  27.2840700
  30.8532970  81.9056020  27.3972870  30.7360090  83.3861300  27.1037590
  34.0566460  82.8911480  17.0079840  33.8304040  82.1741920  17.6004480
  33.6662660  82.6423920  16.1701590  31.9848360  83.4057760  30.4876760
  32.3204600  83.9924450  31.1654680  31.0648700  83.2750470  30.7174550
  19.8382490  86.9178340  17.7824300  20.1980130  87.5167680  17.1281570
  19.6974830  87.4638230  18.5559330  19.5351760  71.1952940  31.2700170
  18.8210280  71.3949860  31.8752780  19.9546800  70.4192510  31.6414970
  33.6382710  80.8083420  18.6694000  33.3504410  81.2696110  19.4571880
  34.4334880  80.3481190  18.9378220  19.8224350  85.1833200  32.2566700
  19.9315470  84.2427940  32.1162090  19.1704910  85.4487950  31.6080430
  27.8136940  83.4549090  33.6564820  27.4933810  82.7358330  34.2010510
  27.1395300  84.1304160  33.7300880  25.8551110  84.3009540  18.5997970
  25.8461210  85.0339230  17.9842480  24.9349470  84.0541120  18.6924930
  21.4557750  79.5224430  19.3444730  20.8485700  80.2623330  19.3540030
  21.9307100  79.6123790  18.5182930  31.0290540  73.6875250  29.0201620
  31.3971360  72.8670460  29.3481190  30.1688740  73.7477140  29.4357270
  34.3952570  72.6432190  19.8289180  33.7665730  72.7477860  19.1147410
  33.9004490  72.8628970  20.6183060  28.8410710  84.3637780  17.2623160
  28.9422690  84.1601770  16.3325140  27.9412450  84.1096060  17.4670940
  26.3636600  74.9218140  21.2447060  25.6552750  75.3904480  21.6860670
  26.6481080  74.2640150  21.8792250  27.9892530  76.3414840  29.2439590
  28.4877780  76.8160660  29.9091440  28.1315480  75.4178360  29.4509620
  30.3952030  71.6468800  22.6842850  30.2719810  71.6654930  21.7352360
  31.3436590  71.6947740  22.8041250  27.4828820  86.8824100  21.9570830
  27.7370320  86.8445490  21.0350200  26.5341300  86.7557430  21.9499080
  24.5671620  73.2303220  18.6197770  25.4162150  73.6673370  18.5537960
  24.2002890  73.5423480  19.4469830  35.1959390  72.5582800  30.0867980
  34.6932990  73.2988200  30.4261790  36.0116050  72.9466800  29.7704770
  33.4881400  77.8015980  23.5329340  32.5471540  77.8166210  23.7077030
  33.8025470  77.0151940  23.9789640  23.4663040  79.4835580  17.0933300
  24.2326310  79.3716940  17.6558730  23.5437730  78.7873550  16.4410070
  22.1609800  76.9160650  17.7766190  22.2413390  75.9688160  17.8883590
  23.0529550  77.2467530  17.8826850  35.4906980  84.9724830  25.2083600
  35.6154400  85.7956000  25.6807410  36.3572540  84.7615560  24.8607750
  22.9624510  87.0656040  24.8800730  23.6986990  86.5171500  25.1509300
  23.3465430  87.9312050  24.7406720  19.8469990  83.1329610  20.7542240
  18.9209770  83.3750750  20.7447650  20.3126420  83.9603870  20.6326990
  21.9682790  86.2502110  34.0686310  22.7695520  86.5714160  34.4821710
  21.4534610  85.8897690  34.7906220  26.0726820  86.2386350  16.7026300
  26.8655430  86.5275180  16.2508090  25.5531170  85.8078520  16.0238780
  30.8047420  82.3581980  34.0161720  30.1985580  82.3813580  33.2757470
  30.5001530  81.6265020  34.5528970  32.2347790  86.0862270  32.6271130
  33.1869540  86.0020290  32.5771370  32.0876010  86.7503980  33.3004920
  35.1256990  85.4656480  18.1263040  34.8398500  85.0521620  17.3117220
  34.9276540  86.3944190  18.0063560  19.6880600  78.7375570  33.0122360
  20.1919620  78.1582850  33.5838590  18.9488020  79.0215800  33.5498730
  26.5904220  81.4589760  16.5668650  26.4854860  80.8442110  17.2930030
  26.4228440  80.9355650  15.7831660  26.7418540  80.1446560  32.5457880
  25.9764210  80.7131560  32.4612550  26.9234500  79.8522770  31.6526110
  29.8306950  80.5209790  17.1710640  29.2817050  80.9679090  17.8153380
  30.4526210  80.0159040  17.6948310  33.8841890  81.8751890  33.1032900
  34.6251360  82.2127650  32.6000360  33.1214570  82.0443950  32.5502670
  21.7203680  76.8805160  33.9072430  21.7609020  76.5819030  34.8157660
  22.5749180  77.2812770  33.7479950  25.4982070  79.4800710  19.0675940
  25.9198490  79.3140580  19.9107330  25.6232910  78.6700940  18.5731080
  23.6609490  75.4597260  31.8746920  23.1305950  74.9688210  31.2470260
  24.3297560  75.8881460  31.3404850  28.0109710  78.5038320  16.3153040
  28.5315370  77.7887340  15.9494190  28.6578110  79.1424190  16.6153550
  32.5587550  79.9266720  31.6388110  32.9728570  80.0811800  32.4878530
  31.6238550  80.0521940  31.8013890  33.0309720  77.2662880  33.6427260
  33.6130490  76.5115200  33.5547740  33.2071490  77.7970320  32.8658740
  24.1481790  72.4259630  31.9544210  24.0538660  71.8080380  31.2295080
  23.5679180  73.1525920  31.7274120  26.9143230  70.9832870  28.9871600
  26.4660530  71.0057130  28.1417150  26.2808430  70.5851890  29.5841900
  27.3202780  79.8787200  29.6084040  27.7390890  80.7219930  29.4360280
  26.4011410  80.0159240  29.3790820  29.6566680  77.6103380  30.9921880
  29.7762890  77.0144520  31.7316720  30.5160680  77.6473070  30.5723180
  31.9954580  78.1640570  29.5684390  31.4689800  78.6883190  28.9649530
  32.3385920  78.7967960  30.1994120  24.3940970  75.5533940  16.0134100
  24.1930030  74.6901300  16.3747440  24.2233020  75.4667300  15.0755700
  25.1710200  86.1840210  30.7241770  24.6331290  86.9086270  30.4050470
  25.4244160  85.7070550  29.9339110  26.4235450  74.1524730  32.2497700
  27.0135140  73.8440580  32.9375520  25.6055690  73.6804480  32.4057600
  31.2428880  73.7690540  32.4830720  30.5544400  73.1072080  32.4180710
  31.9634900  73.3228810  32.9279180  31.8729280  70.3642170  18.5420980
  32.1531570  69.5210070  18.8980400  31.0995010  70.5965280  19.0559730
  23.1923770  72.6534560  16.0011980  23.4949670  72.6601990  15.0931130
  23.9318360  72.3032420  16.4979640  28.0272410  87.4191420  30.9828420
  27.9531110  88.3226560  31.2900790  27.1251250  87.1003320  30.9550490
  26.4108700  71.5969180  16.9868180  26.0630700  70.9193170  16.4070630
  26.6121470  71.1358690  17.8011570  28.5757740  86.5849930  18.6054780
  29.4708530  86.9234900  18.6273540  28.6075370  85.8629340  17.9779060
  22.2153900  81.9576980  16.8341780  22.6528770  82.5006650  17.4899360
  22.7001630  81.1323930  16.8438120  19.4299700  84.7466010  24.2862040
  19.7602710  83.8787070  24.0540680  19.8590700  84.9524530  25.1167000
  24.0261620  83.0775020  21.9464010  23.7257160  82.9539990  22.8467920
  23.9199110  82.2183610  21.5379740  19.9189910  85.6136600  27.0243670
  19.4820900  85.7937400  27.8567820  20.4867590  86.3711220  26.8825390
  35.5552090  85.1153600  31.3120980  34.9554080  85.1746160  30.5684900
  35.6845990  84.1758580  31.4417830  36.7953540  82.8571420  16.6490690
  35.9646500  82.9248070  17.1197920  36.9725370  83.7475540  16.3457550
  36.2510000  79.6018900  19.1524890  37.0128910  80.1715550  19.2584580
  36.2664370  79.0346100  19.9233200  19.7514340  78.1256830  23.3832550
  19.0963180  77.8568470  22.7392250  20.5892290  78.0161310  22.9334530
  37.2569970  80.4569000  23.9966820  37.6278800  79.6736320  23.5902790
  37.8971900  81.1458100  23.8184120  34.2403730  81.8405580  29.4097140
  33.4263570  82.2702740  29.6722930  34.6477930  82.4523990  28.7966190
  36.3029170  79.8953270  16.3097410  36.5778010  80.8032150  16.1816630
  36.1139910  79.8315800  17.2459400  32.7004780  72.9198120  17.6051040
  33.1189660  72.7329100  16.7647700  32.3940840  72.0677170  17.9153970
  36.1994510  77.8322260  21.3026840  35.8238110  77.0650190  20.8708130
  35.4697630  78.2144960  21.7901770  20.7890270  78.5109400  27.9235890
  21.1563310  78.4236800  28.8031910  20.2201090  77.7475950  27.8242750
  35.5894130  76.9793780  30.9366360  35.3580220  76.7506530  30.0364310
  35.8498680  77.8993330  30.8911250  20.3406270  75.4218490  31.8294310
  19.4462320  75.3885250  32.1688020  20.8803820  75.6205280  32.5945560
  34.0282200  72.2050210  33.7146060  34.9052380  72.2133610  34.0980060
  34.0403040  71.4681050  33.1038410  18.9652420  75.3355760  19.3257880
  18.0616500  75.5985960  19.1509540  19.4493040  75.6066930  18.5457840
  35.4745470  76.0579750  24.6034080  35.9982950  75.5642400  23.9724250
  36.0604890  76.1930110  25.3481650  35.6535190  76.1419620  28.1253630
  34.7037900  76.1083160  28.2398620  35.8348200  77.0519730  27.8903400
  21.5079630  74.3921300  17.2352260  22.2171330  73.9704520  16.7499540
  20.7919570  74.4596530  16.6035610  21.1553790  70.4460630  16.2754910
  21.8781920  70.9869570  16.5936130  21.4278310  70.1724050  15.3996450
  34.9645440  75.3153100  20.5426490  35.4604560  75.0823970  21.3275370
  34.7661510  74.4764940  20.1264130  20.8445980  69.6966820  26.1777530
  21.4922170  69.1464200  25.7372690  21.2647820  69.9509970  26.9993340
  36.3932600  73.9514050  23.0764170  36.2831880  73.7970090  24.0146440
  37.1540190  73.4234990  22.8339580  34.7398320  69.8908180  29.5347170
  35.3770540  70.5042320  29.9006360  34.8873210  69.9268840  28.5896400
  37.2822870  71.7821970  16.3170310  38.2072180  71.6503150  16.1088600
  37.2598660  71.8614790  17.2706760  37.3561360  72.5532630  18.9427020
  36.5612860  72.4877750  19.4719930  37.5604640  73.4883270  18.9312370
  34.2979780  86.5924180  22.9365410  34.8938850  86.2708750  22.2599830
  34.5557930  86.1196000  23.7278680  20.5977980  69.8522490  28.9202850
  20.2492800  70.3086310  29.6861030  20.2665680  68.9579620  29.0025280
  22.2042350  83.0242090  33.0856040  22.1611980  82.6535000  33.9670500
  22.3353360  83.9619660  33.2257860  25.9048380  84.5801680  28.6865760
  25.6639740  84.8476240  27.7996280  26.8451020  84.7507410  28.7416620
  28.1102800  71.0434370  32.4422270  28.0491690  71.6356200  33.1917680
  29.0503180  70.9360330  32.2972530  30.7477360  70.7004430  32.0814560
  31.3617770  71.0183720  31.4195640  31.2926920  70.2153020  32.7010420
  37.1652540  86.5996060  29.4876400  36.6710820  86.9964930  28.7703530
  36.5565830  85.9745270  29.8813680  21.2698620  69.3798690  32.1953620
  21.8181610  69.1986740  31.4319730  21.3353930  68.5892800  32.7309930
  22.0430380  85.9704340  30.2053820  21.4490700  85.8389040  30.9443860
  22.0354220  85.1342480  29.7395920  31.4885400  69.2636570  28.4083850
  30.6145240  69.5971680  28.2056780  31.3796150  68.7909750  29.2335720
  32.3957380  71.4707440  29.7925570  32.0670740  70.6559200  29.4127300
  33.3439680  71.4277250  29.6691260  34.8491990  87.2419480  26.7663140
  34.3894960  87.9935290  26.3921160  34.2204450  86.5225950  26.7077940
  21.6742610  83.3362720  29.1561860  20.9476670  82.7168010  29.0887810
  21.7351760  83.7303330  28.2859940  25.2787710  85.5507720  25.9411270
  25.7952730  84.9395080  25.4159530  25.9285090  86.0536500  26.4322280
  28.0183210  86.4416210  26.7680250  28.3061020  86.1870510  25.8913260
  28.5306430  85.8893570  27.3585820  29.2360220  70.1806410  27.3476760
  28.4532010  70.6551910  27.6273520  28.9423150  69.2761240  27.2389940
  33.7881290  70.8829510  25.3925850  34.2289380  70.8274610  24.5447450
  33.5188880  71.7987520  25.4636030  35.6519860  70.5144750  23.4034670
  35.5908260  69.5705970  23.2565690  36.4311890  70.6224840  23.9488130
  19.9572610  86.6537110  22.3658620  19.7894650  86.0207790  23.0640510
  19.0907120  86.8596510  22.0152810  20.5800630  70.4853890  19.8690480
  21.3379990  70.5982770  19.2954510  20.1177800  71.3223090  19.8233910
  27.1214440  72.5993160  22.8592790  26.3088950  72.2250050  22.5188670
  27.6256080  71.8438240  23.1613980  31.6239420  69.2635610  24.0975860
  32.2268790  69.8355820  24.5724380  30.8832410  69.8275050  23.8749760
  34.7674020  69.6657170  19.3716140  34.9624650  70.5640620  19.6383570
  33.9803890  69.4344250  19.8649090  21.5635310  85.3470340  19.8108760
  21.0382930  85.7278370  19.1070720  21.4879890  85.9721110  20.5318470
  22.9525780  71.0117940  18.4092450  23.4818540  70.2247740  18.2800400
  23.5854100  71.6909130  18.6427980  25.1463620  70.7493080  21.4637840
  24.5166360  70.0480390  21.6307970  24.6068760  71.5097210  21.2471000
  28.0855570  87.3632310  34.1348450  29.0122880  87.1276580  34.1784410
  28.0706000  88.1904310  33.6534480  36.3200630  86.9057880  21.1322700
  36.4952820  86.2195620  20.4883620  35.6222200  87.4304930  20.7399370
  25.2719180  70.0277060  33.8990330  24.9903450  70.5310660  33.1351150
  25.6538880  69.2298810  33.5332460  24.1628280  87.2952720  18.6858010
  24.8947100  87.0112000  18.1381900  24.4221950  87.0566000  19.5757390
  23.3243070  83.4117450  18.6904340  22.6951950  83.8802550  19.2390170
  23.4390900  82.5666670  19.1250530  31.8734640  69.4430640  34.4770800
  31.7600090  69.7625250  35.3722320  32.6904380  69.8443150  34.1808080
  34.6533130  86.5902170  33.9589490  35.4458450  86.0951400  33.7515450
  34.9466280  87.2692310  34.5665100  30.7792790  77.4623110   4.8405540
  30.6986840  76.5477720   4.5697250  30.3657210  77.9590180   4.1345250
  28.9110830  79.2402130   6.7214810  28.1352930  78.7602570   7.0113380
  29.5623760  78.5607780   6.5470970  22.9276660  79.5521940   7.5990570
  22.0961540  79.2970650   7.9987080  23.5357640  79.6232710   8.3348490
  32.9318260  83.6462320   5.5013940  32.4699790  82.8749560   5.8301110
  33.7443810  83.6728390   6.0066390  22.9077920  83.5862030   7.7948590
  23.2105960  82.6959770   7.6158810  23.6521510  84.1432250   7.5670840
  19.3001620  77.1129480   7.2672660  19.8717730  76.3451680   7.2676300
  19.3003160  77.4118240   6.3579270  29.1581570  85.9320330   5.1217930
  28.5393010  86.3877830   4.5512370  30.0133350  86.0871790   4.7207630
  28.3519820  81.9159320   6.7284970  28.2828100  80.9749260   6.5674100
  29.1139680  82.0060730   7.3007540  20.5426490  72.5213840   9.0541590
  20.3629330  71.6239590   9.3344350  20.1406570  73.0685710   9.7288540
  29.3824990  74.7229700   6.9553900  29.7589810  73.8501580   6.8427570
  29.2844500  75.0588400   6.0644340  23.5130000  73.0955330   2.4171340
  23.6196750  73.9959060   2.7240100  22.6022360  73.0473300   2.1265990
  33.1649110  72.2180140   3.8882240  33.9858730  71.7276710   3.9307720
  33.1983190  72.8077800   4.6414080  21.1613160  75.0174340   7.6623930
  21.8423270  75.2812710   8.2811330  20.8461210  74.1775210   7.9961940
  25.3537730  76.0641700   6.7496520  25.8615950  76.5622670   7.3901540
  25.8850970  75.2876900   6.5735880  37.4548660  74.2346890  10.4525870
  36.7500830  74.6228600   9.9340980  37.7206580  74.9297180  11.0546800
  23.6373830  70.7040260  11.0159940  23.6392270  71.2212650  10.2105840
  22.8078140  70.2270440  10.9929870  30.0244920  80.8159570   2.5149840
  29.4062190  81.2809020   1.9512560  30.5368170  81.5087050   2.9319350
  24.8876680  80.3435440   9.1933440  24.5546060  80.9704360   9.8354510
  25.0643360  80.8697320   8.4135110  33.4010590  74.1580520   6.6609780
  32.6966160  74.4465410   7.2412890  33.7622750  74.9680630   6.3009340
  23.3189160  72.4150220   9.0230390  23.6605970  73.2592270   8.7284260
  22.3804970  72.5633960   9.1395730  24.0995780  82.3116240  11.0082620
  24.7169780  82.9867320  10.7267070  23.2388900  82.7204220  10.9170120
  35.0173370  83.7755650   8.9237260  34.3336890  84.4454760   8.9153930
  35.5567660  83.9736300   8.1582120  36.4697510  73.6035310   7.0518990
  35.5222420  73.6374290   7.1834420  36.7947500  74.4174260   7.4368350
  27.0017050  69.9032490   5.3474980  27.3092030  69.3479380   4.6310480
  26.0717750  70.0376950   5.1647970  32.5532110  85.6199780   7.6382440
  32.5659270  85.2162070   6.7704700  32.0007330  86.3947070   7.5343870
  33.8477530  82.3416000   2.7272610  33.7373860  81.3990330   2.8522030
  33.8445780  82.7031640   3.6135370  31.9517550  80.5229620   8.9665050
  32.3686340  80.3089730   8.1318510  32.6757370  80.7802410   9.5373670
  29.3897810  77.9681320   2.0835100  28.4627090  77.9018700   2.3123570
  29.5422630  78.9061450   1.9690340  35.8979650  78.9216840   9.0581290
  35.0698280  78.9909930   8.5831420  36.4930130  79.5071150   8.5897120
  33.4195100  79.5301620   2.5870350  32.8007520  79.1921170   1.9396650
  33.4019550  78.8861380   3.2949540  32.8621660  75.7086160  10.0036160
  32.4492840  76.5339870  10.2576150  32.1297610  75.1231200   9.8112520
  24.9954450  78.4946060   4.8654830  24.5911450  77.7823310   4.3700730
  25.0817570  78.1499300   5.7542870  25.4636150  82.1813620   7.0294040
  25.1664440  81.5759090   6.3501820  26.4135970  82.2190930   6.9183400
  23.7083070  75.2689270   8.6453870  24.2597660  75.3784610   7.8707120
  24.2226580  75.6426870   9.3609100  33.5521760  85.7545490  10.6917140
  33.0752320  86.5617680  10.4989750  32.8683550  85.1023820  10.8443350
  24.5554580  81.9195310  13.6801840  23.6583110  82.1435280  13.9275240
  24.5807450  82.0430250  12.7313240  23.3825800  78.7908630  12.2559210
  23.2433570  79.6631430  12.6246610  22.5007160  78.4481440  12.1107150
  29.7055180  83.7084500   3.5624340  30.1451090  84.4508830   3.1479730
  29.6442070  83.9511070   4.4863300  25.1806150  84.7330330  14.4644360
  25.1521580  85.1373280  13.5972790  25.0171120  83.8040690  14.3015960
  21.6959080  77.3891040   2.3661480  21.5756680  78.1153130   1.7542750
  21.3859970  76.6193950   1.8889390  37.1320970  85.5157430  15.7608530
  37.6080690  85.9940320  16.4397610  37.7528130  85.4474920  15.0354030
  19.3344450  80.5606180   8.1730120  19.4124870  80.6954950   7.2285840
  19.9486130  79.8522070   8.3658240  20.5792080  82.2606370   4.5836300
  20.1720160  82.4020960   3.7289900  21.4705090  81.9766530   4.3807510
  36.5354220  82.7070280  12.9208540  36.6617280  82.4682160  12.0025720
  36.5775600  81.8754820  13.3930620  30.3970960  86.4098280  11.4903350
  30.9115630  86.3206290  12.2925780  29.5540040  86.7557980  11.7831260
  24.8513740  86.4752150   2.6958970  24.6756220  85.5587690   2.4826770
  23.9969480  86.8339440   2.9356770  31.6401420  85.8303890   3.5533840
  32.0958370  85.0493270   3.8672460  31.9793940  86.5410710   4.0975020
  36.3878230  74.7602740  13.8858280  35.7722500  75.2682410  13.3573740
  36.0674650  73.8601070  13.8284220  19.3903970  81.6020350  10.7124580
  19.5535010  81.1325710   9.8943950  19.8556420  81.0943910  11.3773420
  24.1622740  70.7326110   5.7485150  23.7190890  71.5135650   5.4169670
  24.7207730  71.0556000   6.4556090  28.4492550  73.5994630  11.3520470
  27.9871920  73.8077650  12.1640410  28.0470660  72.7853980  11.0491140
  33.4497060  74.8203580  12.4817130  32.5990650  74.5209330  12.8026200
  33.2898850  75.0645590  11.5700950  30.5446770  76.3205330  14.5815920
  30.8700180  75.4869080  14.2418150  31.3327100  76.8433850  14.7294250
  26.1998640  71.2773440   7.6074750  26.4970970  72.1836270   7.5266770
  26.7484200  70.7892220   6.9934320  23.9536960  75.8559680   3.4766400
  23.7277880  75.6396850   4.3813020  23.1729490  76.2888140   3.1312370
  31.1834720  75.8623050   2.0757050  30.5843610  76.5858850   1.8920670
  31.7314330  75.7999830   1.2933500  26.3936170  76.7545260  14.1426670
  26.2979770  75.8139990  13.9927070  27.2368150  76.9760330  13.7474740
  29.7899590  74.4986590   4.1060330  30.1829160  74.8158790   3.2929020
  30.1516440  73.6198470   4.2204850  21.5246710  73.1658930  12.2960450
  21.1310100  74.0134140  12.5033230  20.8365110  72.5285300  12.4869090
  28.0991760  73.2493900  15.3657190  27.4090080  73.0566100  16.0003280
  28.8424060  73.5328540  15.8981490  18.8263760  71.0887390   6.3290530
  18.5376810  71.6590250   7.0415510  19.5709520  70.6091840   6.6921760
  30.3754730  77.0892340   8.2011110  29.6435850  77.5979150   8.5501210
  29.9779070  76.2722320   7.8999890  26.8132120  73.7646540   6.6063600
  26.8168180  73.3236490   5.7568140  27.7083240  74.0863870   6.7135420
  22.6634500  73.6473030   5.5657810  22.3234550  74.1248260   6.3224860
  21.9011820  73.1938150   5.2058910  30.8380640  72.5426020   7.6134050
  30.8553380  72.9934670   8.4575900  30.5896220  71.6431660   7.8267490
  34.2651390  69.9558200  13.4520430  34.5897160  69.2247860  13.9778410
  34.3007900  69.6371840  12.5501420  20.9642950  80.9771780  12.8720390
  20.5797740  80.3365450  13.4703350  21.2755140  81.6807900  13.4415120
  27.1140090  77.8248320   8.3529010  27.4810220  77.3506890   9.0990350
  26.9245150  78.6989890   8.6937350  19.9780580  72.5692010   4.4822480
  19.6927500  72.2047680   5.3201100  19.9159440  71.8372470   3.8685620
  24.9039460  76.8656960  10.6713220  24.5996530  77.7448940  10.8963580
  25.8585920  76.9256750  10.7070660  34.1909230  80.0683310   7.0606460
  34.9108350  80.5638600   6.6702570  33.9891050  79.3901200   6.4160330
  29.5728030  80.1392370  12.9475460  29.5065340  79.2188040  12.6933050
  28.9433170  80.2367810  13.6620100  23.4758650  80.7398330   4.9058880
  23.9937320  79.9366590   4.8515770  23.0242670  80.6777470   5.7475710
  20.9603190  77.7059700  11.8184580  20.6018130  78.3713550  12.4057920
  20.6657750  76.8743250  12.1897200  24.1616310  78.1643940  14.7024130
  23.8616450  78.3101120  13.8051950  24.9327550  77.6049230  14.6097520
  29.5044760  82.9612940  12.6979260  29.5189300  82.0293900  12.4798170
  28.7969860  83.0472700  13.3369030  35.7155970  79.6020280  12.0447840
  34.9904160  80.1949060  11.8477230  36.2431430  79.5943820  11.2461210
  31.2455560  81.3280450   5.5431690  31.5979380  80.7308580   4.8833060
  30.3617890  81.0024680   5.7139940  27.3318840  82.0878140   2.9502100
  28.0189970  82.6347350   3.3309690  26.5451260  82.6318870   2.9851710
  26.6346050  79.0924170   2.5627460  27.0908830  79.9029420   2.7887650
  26.2834260  78.7747310   3.3945950  28.9378660  84.6030510   9.7919760
  29.5820880  84.8089890  10.4693180  29.3008100  83.8418910   9.3390610
  22.5357830  69.4361820   3.0349980  22.4072460  69.4279720   3.9834900
  21.7119850  69.7744910   2.6840990  30.2110740  82.6062860   8.5097210
  30.8532970  81.9056020   8.6229380  30.7360090  83.3861300   8.3294100
  31.9848360  83.4057760  11.7133270  32.3204600  83.9924450  12.3911190
  31.0648700  83.2750470  11.9431060  19.5351760  71.1952940  12.4956680
  18.8210280  71.3949860  13.1009290  19.9546800  70.4192510  12.8671480
  19.8224350  85.1833200  13.4823210  19.9315470  84.2427940  13.3418600
  19.1704910  85.4487950  12.8336940  27.8136940  83.4549090  14.8821330
  27.4933810  82.7358330  15.4267020  27.1395300  84.1304160  14.9557390
  31.0290540  73.6875250  10.2458130  31.3971360  72.8670460  10.5737700
  30.1688740  73.7477140  10.6613780  26.3636600  74.9218140   2.4703570
  25.6552750  75.3904480   2.9117180  26.6481080  74.2640150   3.1048760
  27.9892530  76.3414840  10.4696100  28.4877780  76.8160660  11.1347950
  28.1315480  75.4178360  10.6766130  30.3952030  71.6468800   3.9099360
  30.2719810  71.6654930   2.9608870  31.3436590  71.6947740   4.0297760
  27.4828820  86.8824100   3.1827340  27.7370320  86.8445490   2.2606710
  26.5341300  86.7557430   3.1755590  35.1959390  72.5582800  11.3124490
  34.6932990  73.2988200  11.6518300  36.0116050  72.9466800  10.9961280
  33.4881400  77.8015980   4.7585850  32.5471540  77.8166210   4.9333540
  33.8025470  77.0151940   5.2046150  35.4906980  84.9724830   6.4340110
  35.6154400  85.7956000   6.9063920  36.3572540  84.7615560   6.0864260
  22.9624510  87.0656040   6.1057240  23.6986990  86.5171500   6.3765810
  23.3465430  87.9312050   5.9663230  19.8469990  83.1329610   1.9798750
  18.9209770  83.3750750   1.9704160  20.3126420  83.9603870   1.8583500
  21.9682790  86.2502110  15.2942820  22.7695520  86.5714160  15.7078220
  21.4534610  85.8897690  16.0162730  30.8047420  82.3581980  15.2418230
  30.1985580  82.3813580  14.5013980  30.5001530  81.6265020  15.7785480
  32.2347790  86.0862270  13.8527640  33.1869540  86.0020290  13.8027880
  32.0876010  86.7503980  14.5261430  19.6880600  78.7375570  14.2378870
  20.1919620  78.1582850  14.8095100  18.9488020  79.0215800  14.7755240
  26.7418540  80.1446560  13.7714390  25.9764210  80.7131560  13.6869060
  26.9234500  79.8522770  12.8782620  33.8841890  81.8751890  14.3289410
  34.6251360  82.2127650  13.8256870  33.1214570  82.0443950  13.7759180
  21.7203680  76.8805160  15.1328940  21.7609020  76.5819030  16.0414170
  22.5749180  77.2812770  14.9736460  23.6609490  75.4597260  13.1003430
  23.1305950  74.9688210  12.4726770  24.3297560  75.8881460  12.5661360
  32.5587550  79.9266720  12.8644620  32.9728570  80.0811800  13.7135040
  31.6238550  80.0521940  13.0270400  33.0309720  77.2662880  14.8683770
  33.6130490  76.5115200  14.7804250  33.2071490  77.7970320  14.0915250
  24.1481790  72.4259630  13.1800720  24.0538660  71.8080380  12.4551590
  23.5679180  73.1525920  12.9530630  26.9143230  70.9832870  10.2128110
  26.4660530  71.0057130   9.3673660  26.2808430  70.5851890  10.8098410
  27.3202780  79.8787200  10.8340550  27.7390890  80.7219930  10.6616790
  26.4011410  80.0159240  10.6047330  29.6566680  77.6103380  12.2178390
  29.7762890  77.0144520  12.9573230  30.5160680  77.6473070  11.7979690
  31.9954580  78.1640570  10.7940900  31.4689800  78.6883190  10.1906040
  32.3385920  78.7967960  11.4250630  25.1710200  86.1840210  11.9498280
  24.6331290  86.9086270  11.6306980  25.4244160  85.7070550  11.1595620
  26.4235450  74.1524730  13.4754210  27.0135140  73.8440580  14.1632030
  25.6055690  73.6804480  13.6314110  31.2428880  73.7690540  13.7087230
  30.5544400  73.1072080  13.6437220  31.9634900  73.3228810  14.1535690
  28.0272410  87.4191420  12.2084930  27.9531110  88.3226560  12.5157300
  27.1251250  87.1003320  12.1807000  19.4299700  84.7466010   5.5118550
  19.7602710  83.8787070   5.2797190  19.8590700  84.9524530   6.3423510
  24.0261620  83.0775020   3.1720520  23.7257160  82.9539990   4.0724430
  23.9199110  82.2183610   2.7636250  19.9189910  85.6136600   8.2500180
  19.4820900  85.7937400   9.0824330  20.4867590  86.3711220   8.1081900
  35.5552090  85.1153600  12.5377490  34.9554080  85.1746160  11.7941410
  35.6845990  84.1758580  12.6674340  19.7514340  78.1256830   4.6089060
  19.0963180  77.8568470   3.9648760  20.5892290  78.0161310   4.1591040
  37.2569970  80.4569000   5.2223330  37.6278800  79.6736320   4.8159300
  37.8971900  81.1458100   5.0440630  34.2403730  81.8405580  10.6353650
  33.4263570  82.2702740  10.8979440  34.6477930  82.4523990  10.0222700
  36.1994510  77.8322260   2.5283350  35.8238110  77.0650190   2.0964640
  35.4697630  78.2144960   3.0158280  20.7890270  78.5109400   9.1492400
  21.1563310  78.4236800  10.0288420  20.2201090  77.7475950   9.0499260
  35.5894130  76.9793780  12.1622870  35.3580220  76.7506530  11.2620820
  35.8498680  77.8993330  12.1167760  20.3406270  75.4218490  13.0550820
  19.4462320  75.3885250  13.3944530  20.8803820  75.6205280  13.8202070
  34.0282200  72.2050210  14.9402570  34.9052380  72.2133610  15.3236570
  34.0403040  71.4681050  14.3294920  35.4745470  76.0579750   5.8290590
  35.9982950  75.5642400   5.1980760  36.0604890  76.1930110   6.5738160
  35.6535190  76.1419620   9.3510140  34.7037900  76.1083160   9.4655130
  35.8348200  77.0519730   9.1159910  34.9645440  75.3153100   1.7683000
  35.4604560  75.0823970   2.5531880  34.7661510  74.4764940   1.3520640
  20.8445980  69.6966820   7.4034040  21.4922170  69.1464200   6.9629200
  21.2647820  69.9509970   8.2249850  36.3932600  73.9514050   4.3020680
  36.2831880  73.7970090   5.2402950  37.1540190  73.4234990   4.0596090
  34.7398320  69.8908180  10.7603680  35.3770540  70.5042320  11.1262870
  34.8873210  69.9268840   9.8152910  34.2979780  86.5924180   4.1621920
  34.8938850  86.2708750   3.4856340  34.5557930  86.1196000   4.9535190
  20.5977980  69.8522490  10.1459360  20.2492800  70.3086310  10.9117540
  20.2665680  68.9579620  10.2281790  22.2042350  83.0242090  14.3112550
  22.1611980  82.6535000  15.1927010  22.3353360  83.9619660  14.4514370
  25.9048380  84.5801680   9.9122270  25.6639740  84.8476240   9.0252790
  26.8451020  84.7507410   9.9673130  28.1102800  71.0434370  13.6678780
  28.0491690  71.6356200  14.4174190  29.0503180  70.9360330  13.5229040
  30.7477360  70.7004430  13.3071070  31.3617770  71.0183720  12.6452150
  31.2926920  70.2153020  13.9266930  37.1652540  86.5996060  10.7132910
  36.6710820  86.9964930   9.9960040  36.5565830  85.9745270  11.1070190
  21.2698620  69.3798690  13.4210130  21.8181610  69.1986740  12.6576240
  21.3353930  68.5892800  13.9566440  22.0430380  85.9704340  11.4310330
  21.4490700  85.8389040  12.1700370  22.0354220  85.1342480  10.9652430
  31.4885400  69.2636570   9.6340360  30.6145240  69.5971680   9.4313290
  31.3796150  68.7909750  10.4592230  32.3957380  71.4707440  11.0182080
  32.0670740  70.6559200  10.6383810  33.3439680  71.4277250  10.8947770
  34.8491990  87.2419480   7.9919650  34.3894960  87.9935290   7.6177670
  34.2204450  86.5225950   7.9334450  21.6742610  83.3362720  10.3818370
  20.9476670  82.7168010  10.3144320  21.7351760  83.7303330   9.5116450
  25.2787710  85.5507720   7.1667780  25.7952730  84.9395080   6.6416040
  25.9285090  86.0536500   7.6578790  28.0183210  86.4416210   7.9936760
  28.3061020  86.1870510   7.1169770  28.5306430  85.8893570   8.5842330
  29.2360220  70.1806410   8.5733270  28.4532010  70.6551910   8.8530030
  28.9423150  69.2761240   8.4646450  33.7881290  70.8829510   6.6182360
  34.2289380  70.8274610   5.7703960  33.5188880  71.7987520   6.6892540
  35.6519860  70.5144750   4.6291180  35.5908260  69.5705970   4.4822200
  36.4311890  70.6224840   5.1744640  19.9572610  86.6537110   3.5915130
  19.7894650  86.0207790   4.2897020  19.0907120  86.8596510   3.2409320
  27.1214440  72.5993160   4.0849300  26.3088950  72.2250050   3.7445180
  27.6256080  71.8438240   4.3870490  31.6239420  69.2635610   5.3232370
  32.2268790  69.8355820   5.7980890  30.8832410  69.8275050   5.1006270
  25.1463620  70.7493080   2.6894350  24.5166360  70.0480390   2.8564480
  24.6068760  71.5097210   2.4727510  28.0855570  87.3632310  15.3604960
  29.0122880  87.1276580  15.4040920  28.0706000  88.1904310  14.8790990
  36.3200630  86.9057880   2.3579210  36.4952820  86.2195620   1.7140130
  35.6222200  87.4304930   1.9655880  25.2719180  70.0277060  15.1246840
  24.9903450  70.5310660  14.3607660  25.6538880  69.2298810  14.7588970
  31.8734640  69.4430640  15.7027310  31.7600090  69.7625250  16.5978830
  32.6904380  69.8443150  15.4064590  34.6533130  86.5902170  15.1846000
  35.4458450  86.0951400  14.9771960  34.9466280  87.2692310  15.7921610
  30.7792790  58.6879620  79.9379500  30.6986840  57.7734230  79.6671210
  30.3657210  59.1846690  79.2319210  28.9110830  60.4658640  81.8188770
  28.1352930  59.9859080  82.1087340  29.5623760  59.7864290  81.6444930
  22.9276660  60.7778450  82.6964530  22.0961540  60.5227160  83.0961040
  23.5357640  60.8489220  83.4322450  32.9318260  64.8718830  80.5987900
  32.4699790  64.1006070  80.9275070  33.7443810  64.8984900  81.1040350
  22.9077920  64.8118540  82.8922550  23.2105960  63.9216280  82.7132770
  23.6521510  65.3688760  82.6644800  21.3368610  55.7380340  76.4806920
  20.4485310  56.0796310  76.3786800  21.6209800  55.5380660  75.5887750
  19.3001620  58.3385990  82.3646620  19.8717730  57.5708190  82.3650260
  19.3003160  58.6374750  81.4553230  29.1581570  67.1576840  80.2191890
  28.5393010  67.6134340  79.6486330  30.0133350  67.3128300  79.8181590
  28.3519820  63.1415830  81.8258930  28.2828100  62.2005770  81.6648060
  29.1139680  63.2317240  82.3981500  20.5426490  53.7470350  84.1515550
  20.3629330  52.8496100  84.4318310  20.1406570  54.2942220  84.8262500
  29.3824990  55.9486210  82.0527860  29.7589810  55.0758090  81.9401530
  29.2844500  56.2844910  81.1618300  23.5130000  54.3211840  77.5145300
  23.6196750  55.2215570  77.8214060  22.6022360  54.2729810  77.2239950
  33.1649110  53.4436650  78.9856200  33.9858730  52.9533220  79.0281680
  33.1983190  54.0334310  79.7388040  21.1613160  56.2430850  82.7597890
  21.8423270  56.5069220  83.3785290  20.8461210  55.4031720  83.0935900
  25.3537730  57.2898210  81.8470480  25.8615950  57.7879180  82.4875500
  25.8850970  56.5133410  81.6709840  37.4548660  55.4603400  85.5499830
  36.7500830  55.8485110  85.0314940  37.7206580  56.1553690  86.1520760
  23.6373830  51.9296770  86.1133900  23.6392270  52.4469160  85.3079800
  22.8078140  51.4526950  86.0903830  30.0244920  62.0416080  77.6123800
  29.4062190  62.5065530  77.0486520  30.5368170  62.7343560  78.0293310
  24.8876680  61.5691950  84.2907400  24.5546060  62.1960870  84.9328470
  25.0643360  62.0953830  83.5109070  33.4010590  55.3837030  81.7583740
  32.6966160  55.6721920  82.3386850  33.7622750  56.1937140  81.3983300
  23.3189160  53.6406730  84.1204350  23.6605970  54.4848780  83.8258220
  22.3804970  53.7890470  84.2369690  24.0995780  63.5372750  86.1056580
  24.7169780  64.2123830  85.8241030  23.2388900  63.9460730  86.0144080
  19.3928120  62.7272610  74.9863430  19.0156100  63.2159710  74.2548330
  19.6501190  63.3997890  75.6169960  35.0173370  65.0012160  84.0211220
  34.3336890  65.6711270  84.0127890  35.5567660  65.1992810  83.2556080
  36.4697510  54.8291820  82.1492950  35.5222420  54.8630800  82.2808380
  36.7947500  55.6430770  82.5342310  27.0017050  51.1289000  80.4448940
  27.3092030  50.5735890  79.7284440  26.0717750  51.2633460  80.2621930
  32.5532110  66.8456290  82.7356400  32.5659270  66.4418580  81.8678660
  32.0007330  67.6203580  82.6317830  33.8477530  63.5672510  77.8246570
  33.7373860  62.6246840  77.9495990  33.8445780  63.9288150  78.7109330
  31.9517550  61.7486130  84.0639010  32.3686340  61.5346240  83.2292470
  32.6757370  62.0058920  84.6347630  29.3897810  59.1937830  77.1809060
  28.4627090  59.1275210  77.4097530  29.5422630  60.1317960  77.0664300
  29.3766890  55.4654830  74.1776220  28.4370560  55.6268790  74.2628680
  29.6950150  56.1840510  73.6312210  35.8979650  60.1473350  84.1555250
  35.0698280  60.2166440  83.6805380  36.4930130  60.7327660  83.6871080
  33.4195100  60.7558130  77.6844310  32.8007520  60.4177680  77.0370610
  33.4019550  60.1117890  78.3923500  32.8621660  56.9342670  85.1010120
  32.4492840  57.7596380  85.3550110  32.1297610  56.3487710  84.9086480
  24.9954450  59.7202570  79.9628790  24.5911450  59.0079820  79.4674690
  25.0817570  59.3755810  80.8516830  25.4636150  63.4070130  82.1268000
  25.1664440  62.8015600  81.4475780  26.4135970  63.4447440  82.0157360
  23.7083070  56.4945780  83.7427830  24.2597660  56.6041120  82.9681080
  24.2226580  56.8683380  84.4583060  33.5521760  66.9802000  85.7891100
  33.0752320  67.7874190  85.5963710  32.8683550  66.3280330  85.9417310
  31.5959800  59.9944940  74.6917060  32.0353080  59.1567370  74.5454880
  32.3088220  60.6274340  74.7781200  29.7055180  64.9341010  78.6598300
  30.1451090  65.6765340  78.2453690  29.6442070  65.1767580  79.5837260
  35.1776940  51.2487750  73.0058100  34.8649600  51.3414580  73.9057170
  35.9389410  51.8268780  72.9555530  21.6959080  58.6147550  77.4635440
  21.5756680  59.3409640  76.8516710  21.3859970  57.8450460  76.9863350
  19.3344450  61.7862690  83.2704080  19.4124870  61.9211460  82.3259800
  19.9486130  61.0778580  83.4632200  20.5792080  63.4862880  79.6810260
  20.1720160  63.6277470  78.8263860  21.4705090  63.2023040  79.4781470
  32.3725360  67.9210130  76.0161310  32.2126500  67.6313070  76.9143140
  32.2072070  67.1450260  75.4806540  24.8513740  67.7008660  77.7932930
  24.6756220  66.7844200  77.5800730  23.9969480  68.0595950  78.0330730
  32.0751490  65.4297690  74.5759310  31.3816650  65.4274980  73.9161590
  32.8174350  65.0057010  74.1453480  31.6401420  67.0560400  78.6507800
  32.0958370  66.2749780  78.9646420  31.9793940  67.7667220  79.1948980
  19.3903970  62.8276860  85.8098540  19.5535010  62.3582220  84.9917910
  19.8556420  62.3200420  86.4747380  24.1622740  51.9582620  80.8459110
  23.7190890  52.7392160  80.5143630  24.7207730  52.2812510  81.5530050
  27.2781560  51.5793320  75.7264940  26.6535740  51.5753190  76.4518250
  27.1911680  50.7124280  75.3300910  26.1998640  52.5029950  82.7048710
  26.4970970  53.4092780  82.6240730  26.7484200  52.0148730  82.0908280
  23.9536960  57.0816190  78.5740360  23.7277880  56.8653360  79.4786980
  23.1729490  57.5144650  78.2286330  31.1834720  57.0879560  77.1731010
  30.5843610  57.8115360  76.9894630  31.7314330  57.0256340  76.3907460
  29.7899590  55.7243100  79.2034290  30.1829160  56.0415300  78.3902980
  30.1516440  54.8454980  79.3178810  18.8263760  52.3143900  81.4264490
  18.5376810  52.8846760  82.1389470  19.5709520  51.8348350  81.7895720
  19.0133990  56.2564020  72.6367210  18.9308660  57.1994780  72.7782200
  18.6617050  56.1138930  71.7579560  30.3754730  58.3148850  83.2985070
  29.6435850  58.8235660  83.6475170  29.9779070  57.4978830  82.9973850
  26.8132120  54.9903050  81.7037560  26.8168180  54.5493000  80.8542100
  27.7083240  55.3120380  81.8109380  22.6634500  54.8729540  80.6631770
  22.3234550  55.3504770  81.4198820  21.9011820  54.4194660  80.3032870
  26.8752270  55.9915130  74.6944320  26.9965090  55.9501610  75.6430140
  26.4900780  56.8539280  74.5391050  30.8380640  53.7682530  82.7108010
  30.8553380  54.2191180  83.5549860  30.5896220  52.8688170  82.9241450
  25.8873770  58.3016270  74.0927620  25.3190670  57.8534520  73.4663530
  26.5962770  58.6609050  73.5592770  27.1140090  59.0504830  83.4502970
  27.4810220  58.5763400  84.1964310  26.9245150  59.9246400  83.7911310
  19.9780580  53.7948520  79.5796440  19.6927500  53.4304190  80.4175060
  19.9159440  53.0628980  78.9659580  24.9039460  58.0913470  85.7687180
  24.5996530  58.9705450  85.9937540  25.8585920  58.1513260  85.8044620
  23.4321250  62.2974460  76.3654030  22.6583510  61.7572080  76.2052750
  24.1615880  61.7781070  76.0271790  34.1909230  61.2939820  82.1580420
  34.9108350  61.7895110  81.7676530  33.9891050  60.6157710  81.5134290
  29.6519170  52.6877780  76.3009810  28.8383780  52.1890950  76.2255120
  29.4581120  53.5276030  75.8846160  32.3667560  57.0597430  74.5971970
  33.2547180  57.3714660  74.4223310  32.3372650  56.1869680  74.2052550
  23.4758650  61.9654840  80.0032840  23.9937320  61.1623100  79.9489730
  23.0242670  61.9033980  80.8449670  28.3628150  63.2321120  75.2760140
  28.7043850  63.9763350  74.7803460  27.5340860  63.5452240  75.6384970
  34.6381830  58.3709270  74.0651830  34.5545550  58.8023490  73.2148270
  35.3576020  58.8307620  74.4978650  35.6669080  65.2251530  76.7933960
  35.0245240  64.5707150  77.0677680  35.2799740  65.6306620  76.0174630
  31.2455560  62.5536960  80.6405650  31.5979380  61.9565090  79.9807020
  30.3617890  62.2281190  80.8113900  27.3318840  63.3134650  78.0476060
  28.0189970  63.8603860  78.4283650  26.5451260  63.8575380  78.0825670
  19.4711240  58.9307470  73.5393140  20.3406090  59.2132270  73.8229060
  18.9801560  59.7443340  73.4241950  26.6346050  60.3180680  77.6601420
  27.0908830  61.1285930  77.8861610  26.2834260  60.0003820  78.4919910
  28.9378660  65.8287020  84.8893720  29.5820880  66.0346400  85.5667140
  29.3008100  65.0675420  84.4364570  22.5357830  50.6618330  78.1323940
  22.4072460  50.6536230  79.0808860  21.7119850  51.0001420  77.7814950
  30.2110740  63.8319370  83.6071170  30.8532970  63.1312530  83.7203340
  30.7360090  64.6117810  83.4268060  34.0566460  64.1167990  73.3310310
  33.8304040  63.3998430  73.9234950  33.6662660  63.8680430  72.4932060
  19.8382490  68.1434850  74.1054770  20.1980130  68.7424190  73.4512040
  19.6974830  68.6894740  74.8789800  33.6382710  62.0339930  74.9924470
  33.3504410  62.4952620  75.7802350  34.4334880  61.5737700  75.2608690
  25.8551110  65.5266050  74.9228440  25.8461210  66.2595740  74.3072950
  24.9349470  65.2797630  75.0155400  21.4557750  60.7480940  75.6675200
  20.8485700  61.4879840  75.6770500  21.9307100  60.8380300  74.8413400
  31.0290540  54.9131760  85.3432090  31.3971360  54.0926970  85.6711660
  30.1688740  54.9733650  85.7587740  34.3952570  53.8688700  76.1519650
  33.7665730  53.9734370  75.4377880  33.9004490  54.0885480  76.9413530
  28.8410710  65.5894290  73.5853630  28.9422690  65.3858280  72.6555610
  27.9412450  65.3352570  73.7901410  26.3636600  56.1474650  77.5677530
  25.6552750  56.6160990  78.0091140  26.6481080  55.4896660  78.2022720
  27.9892530  57.5671350  85.5670060  28.4877780  58.0417170  86.2321910
  28.1315480  56.6434870  85.7740090  30.3952030  52.8725310  79.0073320
  30.2719810  52.8911440  78.0582830  31.3436590  52.9204250  79.1271720
  27.4828820  68.1080610  78.2801300  27.7370320  68.0702000  77.3580670
  26.5341300  67.9813940  78.2729550  24.5671620  54.4559730  74.9428240
  25.4162150  54.8929880  74.8768430  24.2002890  54.7679990  75.7700300
  35.1959390  53.7839310  86.4098450  34.6932990  54.5244710  86.7492260
  36.0116050  54.1723310  86.0935240  33.4881400  59.0272490  79.8559810
  32.5471540  59.0422720  80.0307500  33.8025470  58.2408450  80.3020110
  23.4663040  60.7092090  73.4163770  24.2326310  60.5973450  73.9789200
  23.5437730  60.0130060  72.7640540  22.1609800  58.1417160  74.0996660
  22.2413390  57.1944670  74.2114060  23.0529550  58.4724040  74.2057320
  35.4906980  66.1981340  81.5314070  35.6154400  67.0212510  82.0037880
  36.3572540  65.9872070  81.1838220  22.9624510  68.2912550  81.2031200
  23.6986990  67.7428010  81.4739770  23.3465430  69.1568560  81.0637190
  19.8469990  64.3586120  77.0772710  18.9209770  64.6007260  77.0678120
  20.3126420  65.1860380  76.9557460  26.0726820  67.4642860  73.0256770
  26.8655430  67.7531690  72.5738560  25.5531170  67.0335030  72.3469250
  35.1256990  66.6912990  74.4493510  34.8398500  66.2778130  73.6347690
  34.9276540  67.6200700  74.3294030  26.5904220  62.6846270  72.8899120
  26.4854860  62.0698620  73.6160500  26.4228440  62.1612160  72.1062130
  29.8306950  61.7466300  73.4941110  29.2817050  62.1935600  74.1383850
  30.4526210  61.2415550  74.0178780  25.4982070  60.7057220  75.3906410
  25.9198490  60.5397090  76.2337800  25.6232910  59.8957450  74.8961550
  28.0109710  59.7294830  72.6383510  28.5315370  59.0143850  72.2724660
  28.6578110  60.3680700  72.9384020  26.9143230  52.2089380  85.3102070
  26.4660530  52.2313640  84.4647620  26.2808430  51.8108400  85.9072370
  27.3202780  61.1043710  85.9314510  27.7390890  61.9476440  85.7590750
  26.4011410  61.2415750  85.7021290  31.9954580  59.3897080  85.8914860
  31.4689800  59.9139700  85.2880000  32.3385920  60.0224470  86.5224590
  24.3940970  56.7790450  72.3364570  24.1930030  55.9157810  72.6977910
  24.2233020  56.6923810  71.3986170  31.8729280  51.5898680  74.8651450
  32.1531570  50.7466580  75.2210870  31.0995010  51.8221790  75.3790200
  23.1923770  53.8791070  72.3242450  23.4949670  53.8858500  71.4161600
  23.9318360  53.5288930  72.8210110  26.4108700  52.8225690  73.3098650
  26.0630700  52.1449680  72.7301100  26.6121470  52.3615200  74.1242040
  28.5757740  67.8106440  74.9285250  29.4708530  68.1491410  74.9504010
  28.6075370  67.0885850  74.3009530  22.2153900  63.1833490  73.1572250
  22.6528770  63.7263160  73.8129830  22.7001630  62.3580440  73.1668590
  19.4299700  65.9722520  80.6092510  19.7602710  65.1043580  80.3771150
  19.8590700  66.1781040  81.4397470  24.0261620  64.3031530  78.2694480
  23.7257160  64.1796500  79.1698390  23.9199110  63.4440120  77.8610210
  19.9189910  66.8393110  83.3474140  19.4820900  67.0193910  84.1798290
  20.4867590  67.5967730  83.2055860  36.7953540  64.0827930  72.9721160
  35.9646500  64.1504580  73.4428390  36.9725370  64.9732050  72.6688020
  36.2510000  60.8275410  75.4755360  37.0128910  61.3972060  75.5815050
  36.2664370  60.2602610  76.2463670  19.7514340  59.3513340  79.7063020
  19.0963180  59.0824980  79.0622720  20.5892290  59.2417820  79.2565000
  37.2569970  61.6825510  80.3197290  37.6278800  60.8992830  79.9133260
  37.8971900  62.3714610  80.1414590  34.2403730  63.0662090  85.7327610
  33.4263570  63.4959250  85.9953400  34.6477930  63.6780500  85.1196660
  36.3029170  61.1209780  72.6327880  36.5778010  62.0288660  72.5047100
  36.1139910  61.0572310  73.5689870  32.7004780  54.1454630  73.9281510
  33.1189660  53.9585610  73.0878170  32.3940840  53.2933680  74.2384440
  36.1994510  59.0578770  77.6257310  35.8238110  58.2906700  77.1938600
  35.4697630  59.4401470  78.1132240  20.7890270  59.7365910  84.2466360
  21.1563310  59.6493310  85.1262380  20.2201090  58.9732460  84.1473220
  18.9652420  56.5612270  75.6488350  18.0616500  56.8242470  75.4740010
  19.4493040  56.8323440  74.8688310  35.4745470  57.2836260  80.9264550
  35.9982950  56.7898910  80.2954720  36.0604890  57.4186620  81.6712120
  35.6535190  57.3676130  84.4484100  34.7037900  57.3339670  84.5629090
  35.8348200  58.2776240  84.2133870  21.5079630  55.6177810  73.5582730
  22.2171330  55.1961030  73.0730010  20.7919570  55.6853040  72.9266080
  21.1553790  51.6717140  72.5985380  21.8781920  52.2126080  72.9166600
  21.4278310  51.3980560  71.7226920  34.9645440  56.5409610  76.8656960
  35.4604560  56.3080480  77.6505840  34.7661510  55.7021450  76.4494600
  20.8445980  50.9223330  82.5008000  21.4922170  50.3720710  82.0603160
  21.2647820  51.1766480  83.3223810  36.3932600  55.1770560  79.3994640
  36.2831880  55.0226600  80.3376910  37.1540190  54.6491500  79.1570050
  34.7398320  51.1164690  85.8577640  35.3770540  51.7298830  86.2236830
  34.8873210  51.1525350  84.9126870  37.2822870  53.0078480  72.6400780
  38.2072180  52.8759660  72.4319070  37.2598660  53.0871300  73.5937230
  37.3561360  53.7789140  75.2657490  36.5612860  53.7134260  75.7950400
  37.5604640  54.7139780  75.2542840  34.2979780  67.8180690  79.2595880
  34.8938850  67.4965260  78.5830300  34.5557930  67.3452510  80.0509150
  20.5977980  51.0779000  85.2433320  20.2492800  51.5342820  86.0091500
  20.2665680  50.1836130  85.3255750  25.9048380  65.8058190  85.0096230
  25.6639740  66.0732750  84.1226750  26.8451020  65.9763920  85.0647090
  37.1652540  67.8252570  85.8106870  36.6710820  68.2221440  85.0934000
  36.5565830  67.2001780  86.2044150  31.4885400  50.4893080  84.7314320
  30.6145240  50.8228190  84.5287250  31.3796150  50.0166260  85.5566190
  32.3957380  52.6963950  86.1156040  32.0670740  51.8815710  85.7357770
  33.3439680  52.6533760  85.9921730  34.8491990  68.4675990  83.0893610
  34.3894960  69.2191800  82.7151630  34.2204450  67.7482460  83.0308410
  21.6742610  64.5619230  85.4792330  20.9476670  63.9424520  85.4118280
  21.7351760  64.9559840  84.6090410  25.2787710  66.7764230  82.2641740
  25.7952730  66.1651590  81.7390000  25.9285090  67.2793010  82.7552750
  28.0183210  67.6672720  83.0910720  28.3061020  67.4127020  82.2143730
  28.5306430  67.1150080  83.6816290  29.2360220  51.4062920  83.6707230
  28.4532010  51.8808420  83.9503990  28.9423150  50.5017750  83.5620410
  33.7881290  52.1086020  81.7156320  34.2289380  52.0531120  80.8677920
  33.5188880  53.0244030  81.7866500  35.6519860  51.7401260  79.7265140
  35.5908260  50.7962480  79.5796160  36.4311890  51.8481350  80.2718600
  19.9572610  67.8793620  78.6889090  19.7894650  67.2464300  79.3870980
  19.0907120  68.0853020  78.3383280  20.5800630  51.7110400  76.1920950
  21.3379990  51.8239280  75.6184980  20.1177800  52.5479600  76.1464380
  27.1214440  53.8249670  79.1823260  26.3088950  53.4506560  78.8419140
  27.6256080  53.0694750  79.4844450  31.6239420  50.4892120  80.4206330
  32.2268790  51.0612330  80.8954850  30.8832410  51.0531560  80.1980230
  34.7674020  50.8913680  75.6946610  34.9624650  51.7897130  75.9614040
  33.9803890  50.6600760  76.1879560  21.5635310  66.5726850  76.1339230
  21.0382930  66.9534880  75.4301190  21.4879890  67.1977620  76.8548940
  22.9525780  52.2374450  74.7322920  23.4818540  51.4504250  74.6030870
  23.5854100  52.9165640  74.9658450  25.1463620  51.9749590  77.7868310
  24.5166360  51.2736900  77.9538440  24.6068760  52.7353720  77.5701470
  36.3200630  68.1314390  77.4553170  36.4952820  67.4452130  76.8114090
  35.6222200  68.6561440  77.0629840  24.1628280  68.5209230  75.0088480
  24.8947100  68.2368510  74.4612370  24.4221950  68.2822510  75.8987860
  23.3243070  64.6373960  75.0134810  22.6951950  65.1059060  75.5620640
  23.4390900  63.7923180  75.4481000  28.9110830  60.4658640  63.0445280
  28.1352930  59.9859080  63.3343850  29.5623760  59.7864290  62.8701440
  22.9276660  60.7778450  63.9221040  22.0961540  60.5227160  64.3217550
  23.5357640  60.8489220  64.6578960  32.9318260  64.8718830  61.8244410
  32.4699790  64.1006070  62.1531580  33.7443810  64.8984900  62.3296860
  22.9077920  64.8118540  64.1179060  23.2105960  63.9216280  63.9389280
  23.6521510  65.3688760  63.8901310  21.3368610  55.7380340  57.7063430
  20.4485310  56.0796310  57.6043310  21.6209800  55.5380660  56.8144260
  19.3001620  58.3385990  63.5903130  19.8717730  57.5708190  63.5906770
  19.3003160  58.6374750  62.6809740  29.1581570  67.1576840  61.4448400
  28.5393010  67.6134340  60.8742840  30.0133350  67.3128300  61.0438100
  28.3519820  63.1415830  63.0515440  28.2828100  62.2005770  62.8904570
  29.1139680  63.2317240  63.6238010  20.5426490  53.7470350  65.3772060
  20.3629330  52.8496100  65.6574820  20.1406570  54.2942220  66.0519010
  21.1613160  56.2430850  63.9854400  21.8423270  56.5069220  64.6041800
  20.8461210  55.4031720  64.3192410  25.3537730  57.2898210  63.0726990
  25.8615950  57.7879180  63.7132010  25.8850970  56.5133410  62.8966350
  37.4548660  55.4603400  66.7756340  36.7500830  55.8485110  66.2571450
  37.7206580  56.1553690  67.3777270  23.6373830  51.9296770  67.3390410
  23.6392270  52.4469160  66.5336310  22.8078140  51.4526950  67.3160340
  24.8876680  61.5691950  65.5163910  24.5546060  62.1960870  66.1584980
  25.0643360  62.0953830  64.7365580  23.3189160  53.6406730  65.3460860
  23.6605970  54.4848780  65.0514730  22.3804970  53.7890470  65.4626200
  24.0995780  63.5372750  67.3313090  24.7169780  64.2123830  67.0497540
  23.2388900  63.9460730  67.2400590  19.3928120  62.7272610  56.2119940
  19.0156100  63.2159710  55.4804840  19.6501190  63.3997890  56.8426470
  35.0173370  65.0012160  65.2467730  34.3336890  65.6711270  65.2384400
  35.5567660  65.1992810  64.4812590  36.4697510  54.8291820  63.3749460
  35.5222420  54.8630800  63.5064890  36.7947500  55.6430770  63.7598820
  32.5532110  66.8456290  63.9612910  32.5659270  66.4418580  63.0935170
  32.0007330  67.6203580  63.8574340  31.9517550  61.7486130  65.2895520
  32.3686340  61.5346240  64.4548980  32.6757370  62.0058920  65.8604140
  35.8979650  60.1473350  65.3811760  35.0698280  60.2166440  64.9061890
  36.4930130  60.7327660  64.9127590  32.8621660  56.9342670  66.3266630
  32.4492840  57.7596380  66.5806620  32.1297610  56.3487710  66.1342990
  24.9954450  59.7202570  61.1885300  24.5911450  59.0079820  60.6931200
  25.0817570  59.3755810  62.0773340  25.4636150  63.4070130  63.3524510
  25.1664440  62.8015600  62.6732290  26.4135970  63.4447440  63.2413870
  23.7083070  56.4945780  64.9684340  24.2597660  56.6041120  64.1937590
  24.2226580  56.8683380  65.6839570  33.5521760  66.9802000  67.0147610
  33.0752320  67.7874190  66.8220220  32.8683550  66.3280330  67.1673820
  24.5554580  63.1451820  70.0032310  23.6583110  63.3691790  70.2505710
  24.5807450  63.2686760  69.0543710  23.3825800  60.0165140  68.5789680
  23.2433570  60.8887940  68.9477080  22.5007160  59.6737950  68.4337620
  29.7055180  64.9341010  59.8854810  30.1451090  65.6765340  59.4710200
  29.6442070  65.1767580  60.8093770  25.1806150  65.9586840  70.7874830
  25.1521580  66.3629790  69.9203260  25.0171120  65.0297200  70.6246430
  21.6959080  58.6147550  58.6891950  21.5756680  59.3409640  58.0773220
  21.3859970  57.8450460  58.2119860  37.1320970  66.7413940  72.0839000
  37.6080690  67.2196830  72.7628080  37.7528130  66.6731430  71.3584500
  19.3344450  61.7862690  64.4960590  19.4124870  61.9211460  63.5516310
  19.9486130  61.0778580  64.6888710  20.5792080  63.4862880  60.9066770
  20.1720160  63.6277470  60.0520370  21.4705090  63.2023040  60.7037980
  36.5354220  63.9326790  69.2439010  36.6617280  63.6938670  68.3256190
  36.5775600  63.1011330  69.7161090  30.3970960  67.6354790  67.8133820
  30.9115630  67.5462800  68.6156250  29.5540040  67.9814490  68.1061730
  32.3725360  67.9210130  57.2417820  32.2126500  67.6313070  58.1399650
  32.2072070  67.1450260  56.7063050  24.8513740  67.7008660  59.0189440
  24.6756220  66.7844200  58.8057240  23.9969480  68.0595950  59.2587240
  32.0751490  65.4297690  55.8015820  31.3816650  65.4274980  55.1418100
  32.8174350  65.0057010  55.3709990  31.6401420  67.0560400  59.8764310
  32.0958370  66.2749780  60.1902930  31.9793940  67.7667220  60.4205490
  36.3878230  55.9859250  70.2088750  35.7722500  56.4938920  69.6804210
  36.0674650  55.0857580  70.1514690  19.3903970  62.8276860  67.0355050
  19.5535010  62.3582220  66.2174420  19.8556420  62.3200420  67.7003890
  24.1622740  51.9582620  62.0715620  23.7190890  52.7392160  61.7400140
  24.7207730  52.2812510  62.7786560  28.4492550  54.8251140  67.6750940
  27.9871920  55.0334160  68.4870880  28.0470660  54.0110490  67.3721610
  33.4497060  56.0460090  68.8047600  32.5990650  55.7465840  69.1256670
  33.2898850  56.2902100  67.8931420  30.5446770  57.5461840  70.9046390
  30.8700180  56.7125590  70.5648620  31.3327100  58.0690360  71.0524720
  26.1998640  52.5029950  63.9305220  26.4970970  53.4092780  63.8497240
  26.7484200  52.0148730  63.3164790  26.3936170  57.9801770  70.4657140
  26.2979770  57.0396500  70.3157540  27.2368150  58.2016840  70.0705210
  21.5246710  54.3915440  68.6190920  21.1310100  55.2390650  68.8263700
  20.8365110  53.7541810  68.8099560  28.0991760  54.4750410  71.6887660
  27.4090080  54.2822610  72.3233750  28.8424060  54.7585050  72.2211960
  18.8263760  52.3143900  62.6521000  18.5376810  52.8846760  63.3645980
  19.5709520  51.8348350  63.0152230  19.0133990  56.2564020  53.8623720
  18.9308660  57.1994780  54.0038710  18.6617050  56.1138930  52.9836070
  30.3754730  58.3148850  64.5241580  29.6435850  58.8235660  64.8731680
  29.9779070  57.4978830  64.2230360  22.6634500  54.8729540  61.8888280
  22.3234550  55.3504770  62.6455330  21.9011820  54.4194660  61.5289380
  30.8380640  53.7682530  63.9364520  30.8553380  54.2191180  64.7806370
  30.5896220  52.8688170  64.1497960  34.2651390  51.1814710  69.7750900
  34.5897160  50.4504370  70.3008880  34.3007900  50.8628350  68.8731890
  20.9642950  62.2028290  69.1950860  20.5797740  61.5621960  69.7933820
  21.2755140  62.9064410  69.7645590  27.1140090  59.0504830  64.6759480
  27.4810220  58.5763400  65.4220820  26.9245150  59.9246400  65.0167820
  19.9780580  53.7948520  60.8052950  19.6927500  53.4304190  61.6431570
  19.9159440  53.0628980  60.1916090  24.9039460  58.0913470  66.9943690
  24.5996530  58.9705450  67.2194050  25.8585920  58.1513260  67.0301130
  23.4321250  62.2974460  57.5910540  22.6583510  61.7572080  57.4309260
  24.1615880  61.7781070  57.2528300  34.1909230  61.2939820  63.3836930
  34.9108350  61.7895110  62.9933040  33.9891050  60.6157710  62.7390800
  29.5728030  61.3648880  69.2705930  29.5065340  60.4444550  69.0163520
  28.9433170  61.4624320  69.9850570  23.4758650  61.9654840  61.2289350
  23.9937320  61.1623100  61.1746240  23.0242670  61.9033980  62.0706180
  28.3628150  63.2321120  56.5016650  28.7043850  63.9763350  56.0059970
  27.5340860  63.5452240  56.8641480  20.9603190  58.9316210  68.1415050
  20.6018130  59.5970060  68.7288390  20.6657750  58.0999760  68.5127670
  24.1616310  59.3900450  71.0254600  23.8616450  59.5357630  70.1282420
  24.9327550  58.8305740  70.9327990  29.5044760  64.1869450  69.0209730
  29.5189300  63.2550410  68.8028640  28.7969860  64.2729210  69.6599500
  35.7155970  60.8276790  68.3678310  34.9904160  61.4205570  68.1707700
  36.2431430  60.8200330  67.5691680  31.2455560  62.5536960  61.8662160
  31.5979380  61.9565090  61.2063530  30.3617890  62.2281190  62.0370410
  27.3318840  63.3134650  59.2732570  28.0189970  63.8603860  59.6540160
  26.5451260  63.8575380  59.3082180  19.4711240  58.9307470  54.7649650
  20.3406090  59.2132270  55.0485570  18.9801560  59.7443340  54.6498460
  28.9378660  65.8287020  66.1150230  29.5820880  66.0346400  66.7923650
  29.3008100  65.0675420  65.6621080  22.5357830  50.6618330  59.3580450
  22.4072460  50.6536230  60.3065370  21.7119850  51.0001420  59.0071460
  30.2110740  63.8319370  64.8327680  30.8532970  63.1312530  64.9459850
  30.7360090  64.6117810  64.6524570  31.9848360  64.6314270  68.0363740
  32.3204600  65.2180960  68.7141660  31.0648700  64.5006980  68.2661530
  19.8382490  68.1434850  55.3311280  20.1980130  68.7424190  54.6768550
  19.6974830  68.6894740  56.1046310  19.5351760  52.4209450  68.8187150
  18.8210280  52.6206370  69.4239760  19.9546800  51.6449020  69.1901950
  19.8224350  66.4089710  69.8053680  19.9315470  65.4684450  69.6649070
  19.1704910  66.6744460  69.1567410  27.8136940  64.6805600  71.2051800
  27.4933810  63.9614840  71.7497490  27.1395300  65.3560670  71.2787860
  25.8551110  65.5266050  56.1484950  25.8461210  66.2595740  55.5329460
  24.9349470  65.2797630  56.2411910  21.4557750  60.7480940  56.8931710
  20.8485700  61.4879840  56.9027010  21.9307100  60.8380300  56.0669910
  31.0290540  54.9131760  66.5688600  31.3971360  54.0926970  66.8968170
  30.1688740  54.9733650  66.9844250  28.8410710  65.5894290  54.8110140
  28.9422690  65.3858280  53.8812120  27.9412450  65.3352570  55.0157920
  27.9892530  57.5671350  66.7926570  28.4877780  58.0417170  67.4578420
  28.1315480  56.6434870  66.9996600  27.4828820  68.1080610  59.5057810
  27.7370320  68.0702000  58.5837180  26.5341300  67.9813940  59.4986060
  35.1959390  53.7839310  67.6354960  34.6932990  54.5244710  67.9748770
  36.0116050  54.1723310  67.3191750  23.4663040  60.7092090  54.6420280
  24.2326310  60.5973450  55.2045710  23.5437730  60.0130060  53.9897050
  22.1609800  58.1417160  55.3253170  22.2413390  57.1944670  55.4370570
  23.0529550  58.4724040  55.4313830  35.4906980  66.1981340  62.7570580
  35.6154400  67.0212510  63.2294390  36.3572540  65.9872070  62.4094730
  22.9624510  68.2912550  62.4287710  23.6986990  67.7428010  62.6996280
  23.3465430  69.1568560  62.2893700  19.8469990  64.3586120  58.3029220
  18.9209770  64.6007260  58.2934630  20.3126420  65.1860380  58.1813970
  21.9682790  67.4758620  71.6173290  22.7695520  67.7970670  72.0308690
  21.4534610  67.1154200  72.3393200  26.0726820  67.4642860  54.2513280
  26.8655430  67.7531690  53.7995070  25.5531170  67.0335030  53.5725760
  30.8047420  63.5838490  71.5648700  30.1985580  63.6070090  70.8244450
  30.5001530  62.8521530  72.1015950  32.2347790  67.3118780  70.1758110
  33.1869540  67.2276800  70.1258350  32.0876010  67.9760490  70.8491900
  19.6880600  59.9632080  70.5609340  20.1919620  59.3839360  71.1325570
  18.9488020  60.2472310  71.0985710  26.5904220  62.6846270  54.1155630
  26.4854860  62.0698620  54.8417010  26.4228440  62.1612160  53.3318640
  26.7418540  61.3703070  70.0944860  25.9764210  61.9388070  70.0099530
  26.9234500  61.0779280  69.2013090  33.8841890  63.1008400  70.6519880
  34.6251360  63.4384160  70.1487340  33.1214570  63.2700460  70.0989650
  21.7203680  58.1061670  71.4559410  21.7609020  57.8075540  72.3644640
  22.5749180  58.5069280  71.2966930  23.6609490  56.6853770  69.4233900
  23.1305950  56.1944720  68.7957240  24.3297560  57.1137970  68.8891830
  32.5587550  61.1523230  69.1875090  32.9728570  61.3068310  70.0365510
  31.6238550  61.2778450  69.3500870  33.0309720  58.4919390  71.1914240
  33.6130490  57.7371710  71.1034720  33.2071490  59.0226830  70.4145720
  24.1481790  53.6516140  69.5031190  24.0538660  53.0336890  68.7782060
  23.5679180  54.3782430  69.2761100  26.9143230  52.2089380  66.5358580
  26.4660530  52.2313640  65.6904130  26.2808430  51.8108400  67.1328880
  27.3202780  61.1043710  67.1571020  27.7390890  61.9476440  66.9847260
  26.4011410  61.2415750  66.9277800  29.6566680  58.8359890  68.5408860
  29.7762890  58.2401030  69.2803700  30.5160680  58.8729580  68.1210160
  31.9954580  59.3897080  67.1171370  31.4689800  59.9139700  66.5136510
  32.3385920  60.0224470  67.7481100  25.1710200  67.4096720  68.2728750
  24.6331290  68.1342780  67.9537450  25.4244160  66.9327060  67.4826090
  26.4235450  55.3781240  69.7984680  27.0135140  55.0697090  70.4862500
  25.6055690  54.9060990  69.9544580  31.2428880  54.9947050  70.0317700
  30.5544400  54.3328590  69.9667690  31.9634900  54.5485320  70.4766160
  28.0272410  68.6447930  68.5315400  27.9531110  69.5483070  68.8387770
  27.1251250  68.3259830  68.5037470  28.5757740  67.8106440  56.1541760
  29.4708530  68.1491410  56.1760520  28.6075370  67.0885850  55.5266040
  22.2153900  63.1833490  54.3828760  22.6528770  63.7263160  55.0386340
  22.7001630  62.3580440  54.3925100  19.4299700  65.9722520  61.8349020
  19.7602710  65.1043580  61.6027660  19.8590700  66.1781040  62.6653980
  24.0261620  64.3031530  59.4950990  23.7257160  64.1796500  60.3954900
  23.9199110  63.4440120  59.0866720  19.9189910  66.8393110  64.5730650
  19.4820900  67.0193910  65.4054800  20.4867590  67.5967730  64.4312370
  35.5552090  66.3410110  68.8607960  34.9554080  66.4002670  68.1171880
  35.6845990  65.4015090  68.9904810  19.7514340  59.3513340  60.9319530
  19.0963180  59.0824980  60.2879230  20.5892290  59.2417820  60.4821510
  34.2403730  63.0662090  66.9584120  33.4263570  63.4959250  67.2209910
  34.6477930  63.6780500  66.3453170  20.7890270  59.7365910  65.4722870
  21.1563310  59.6493310  66.3518890  20.2201090  58.9732460  65.3729730
  35.5894130  58.2050290  68.4853340  35.3580220  57.9763040  67.5851290
  35.8498680  59.1249840  68.4398230  20.3406270  56.6475000  69.3781290
  19.4462320  56.6141760  69.7175000  20.8803820  56.8461790  70.1432540
  34.0282200  53.4306720  71.2633040  34.9052380  53.4390120  71.6467040
  34.0403040  52.6937560  70.6525390  18.9652420  56.5612270  56.8744860
  18.0616500  56.8242470  56.6996520  19.4493040  56.8323440  56.0944820
  35.6535190  57.3676130  65.6740610  34.7037900  57.3339670  65.7885600
  35.8348200  58.2776240  65.4390380  21.5079630  55.6177810  54.7839240
  22.2171330  55.1961030  54.2986520  20.7919570  55.6853040  54.1522590
  21.1553790  51.6717140  53.8241890  21.8781920  52.2126080  54.1423110
  21.4278310  51.3980560  52.9483430  20.8445980  50.9223330  63.7264510
  21.4922170  50.3720710  63.2859670  21.2647820  51.1766480  64.5480320
  34.7398320  51.1164690  67.0834150  35.3770540  51.7298830  67.4493340
  34.8873210  51.1525350  66.1383380  34.2979780  67.8180690  60.4852390
  34.8938850  67.4965260  59.8086810  34.5557930  67.3452510  61.2765660
  20.5977980  51.0779000  66.4689830  20.2492800  51.5342820  67.2348010
  20.2665680  50.1836130  66.5512260  22.2042350  64.2498600  70.6343020
  22.1611980  63.8791510  71.5157480  22.3353360  65.1876170  70.7744840
  25.9048380  65.8058190  66.2352740  25.6639740  66.0732750  65.3483260
  26.8451020  65.9763920  66.2903600  28.1102800  52.2690880  69.9909250
  28.0491690  52.8612710  70.7404660  29.0503180  52.1616840  69.8459510
  30.7477360  51.9260940  69.6301540  31.3617770  52.2440230  68.9682620
  31.2926920  51.4409530  70.2497400  37.1652540  67.8252570  67.0363380
  36.6710820  68.2221440  66.3190510  36.5565830  67.2001780  67.4300660
  21.2698620  50.6055200  69.7440600  21.8181610  50.4243250  68.9806710
  21.3353930  49.8149310  70.2796910  22.0430380  67.1960850  67.7540800
  21.4490700  67.0645550  68.4930840  22.0354220  66.3598990  67.2882900
  31.4885400  50.4893080  65.9570830  30.6145240  50.8228190  65.7543760
  31.3796150  50.0166260  66.7822700  32.3957380  52.6963950  67.3412550
  32.0670740  51.8815710  66.9614280  33.3439680  52.6533760  67.2178240
  34.8491990  68.4675990  64.3150120  34.3894960  69.2191800  63.9408140
  34.2204450  67.7482460  64.2564920  21.6742610  64.5619230  66.7048840
  20.9476670  63.9424520  66.6374790  21.7351760  64.9559840  65.8346920
  25.2787710  66.7764230  63.4898250  25.7952730  66.1651590  62.9646510
  25.9285090  67.2793010  63.9809260  28.0183210  67.6672720  64.3167230
  28.3061020  67.4127020  63.4400240  28.5306430  67.1150080  64.9072800
  29.2360220  51.4062920  64.8963740  28.4532010  51.8808420  65.1760500
  28.9423150  50.5017750  64.7876920  19.9572610  67.8793620  59.9145600
  19.7894650  67.2464300  60.6127490  19.0907120  68.0853020  59.5639790
  20.5800630  51.7110400  57.4177460  21.3379990  51.8239280  56.8441490
  20.1177800  52.5479600  57.3720890  21.5635310  66.5726850  57.3595740
  21.0382930  66.9534880  56.6557700  21.4879890  67.1977620  58.0805450
  22.9525780  52.2374450  55.9579430  23.4818540  51.4504250  55.8287380
  23.5854100  52.9165640  56.1914960  28.0855570  68.5888820  71.6835430
  29.0122880  68.3533090  71.7271390  28.0706000  69.4160820  71.2021460
  25.2719180  51.2533570  71.4477310  24.9903450  51.7567170  70.6838130
  25.6538880  50.4555320  71.0819440  24.1628280  68.5209230  56.2344990
  24.8947100  68.2368510  55.6868880  24.4221950  68.2822510  57.1244370
  23.3243070  64.6373960  56.2391320  22.6951950  65.1059060  56.7877150
  23.4390900  63.7923180  56.6737510  31.8734640  50.6687150  72.0257780
  31.7600090  50.9881760  72.9209300  32.6904380  51.0699660  71.7295060
  34.6533130  67.8158680  71.5076470  35.4458450  67.3207910  71.3002430
  34.9466280  68.4948820  72.1152080  32.9318260  64.8718830  43.0500920
  32.4699790  64.1006070  43.3788090  33.7443810  64.8984900  43.5553370
  22.9077920  64.8118540  45.3435570  23.2105960  63.9216280  45.1645790
  23.6521510  65.3688760  45.1157820  21.3368610  55.7380340  38.9319940
  20.4485310  56.0796310  38.8299820  21.6209800  55.5380660  38.0400770
  19.3001620  58.3385990  44.8159640  19.8717730  57.5708190  44.8163280
  19.3003160  58.6374750  43.9066250  29.1581570  67.1576840  42.6704910
  28.5393010  67.6134340  42.0999350  30.0133350  67.3128300  42.2694610
  28.3519820  63.1415830  44.2771950  28.2828100  62.2005770  44.1161080
  29.1139680  63.2317240  44.8494520  20.5426490  53.7470350  46.6028570
  20.3629330  52.8496100  46.8831330  20.1406570  54.2942220  47.2775520
  21.1613160  56.2430850  45.2110910  21.8423270  56.5069220  45.8298310
  20.8461210  55.4031720  45.5448920  23.3189160  53.6406730  46.5717370
  23.6605970  54.4848780  46.2771240  22.3804970  53.7890470  46.6882710
  24.0995780  63.5372750  48.5569600  24.7169780  64.2123830  48.2754050
  23.2388900  63.9460730  48.4657100  19.3928120  62.7272610  37.4376450
  19.0156100  63.2159710  36.7061350  19.6501190  63.3997890  38.0682980
  32.5532110  66.8456290  45.1869420  32.5659270  66.4418580  44.3191680
  32.0007330  67.6203580  45.0830850  25.4636150  63.4070130  44.5781020
  25.1664440  62.8015600  43.8988800  26.4135970  63.4447440  44.4670380
  33.5521760  66.9802000  48.2404120  33.0752320  67.7874190  48.0476730
  32.8683550  66.3280330  48.3930330  24.5554580  63.1451820  51.2288820
  23.6583110  63.3691790  51.4762220  24.5807450  63.2686760  50.2800220
  29.7055180  64.9341010  41.1111320  30.1451090  65.6765340  40.6966710
  29.6442070  65.1767580  42.0350280  25.1806150  65.9586840  52.0131340
  25.1521580  66.3629790  51.1459770  25.0171120  65.0297200  51.8502940
  19.3344450  61.7862690  45.7217100  19.4124870  61.9211460  44.7772820
  19.9486130  61.0778580  45.9145220  20.5792080  63.4862880  42.1323280
  20.1720160  63.6277470  41.2776880  21.4705090  63.2023040  41.9294490
  30.3970960  67.6354790  49.0390330  30.9115630  67.5462800  49.8412760
  29.5540040  67.9814490  49.3318240  32.3725360  67.9210130  38.4674330
  32.2126500  67.6313070  39.3656160  32.2072070  67.1450260  37.9319560
  24.8513740  67.7008660  40.2445950  24.6756220  66.7844200  40.0313750
  23.9969480  68.0595950  40.4843750  31.6401420  67.0560400  41.1020820
  32.0958370  66.2749780  41.4159440  31.9793940  67.7667220  41.6462000
  19.3903970  62.8276860  48.2611560  19.5535010  62.3582220  47.4430930
  19.8556420  62.3200420  48.9260400  24.1622740  51.9582620  43.2972130
  23.7190890  52.7392160  42.9656650  24.7207730  52.2812510  44.0043070
  21.5246710  54.3915440  49.8447430  21.1310100  55.2390650  50.0520210
  20.8365110  53.7541810  50.0356070  18.8263760  52.3143900  43.8777510
  18.5376810  52.8846760  44.5902490  19.5709520  51.8348350  44.2408740
  19.0133990  56.2564020  35.0880230  18.9308660  57.1994780  35.2295220
  18.6617050  56.1138930  34.2092580  20.9642950  62.2028290  50.4207370
  20.5797740  61.5621960  51.0190330  21.2755140  62.9064410  50.9902100
  19.9780580  53.7948520  42.0309460  19.6927500  53.4304190  42.8688080
  19.9159440  53.0628980  41.4172600  23.4758650  61.9654840  42.4545860
  23.9937320  61.1623100  42.4002750  23.0242670  61.9033980  43.2962690
  20.9603190  58.9316210  49.3671560  20.6018130  59.5970060  49.9544900
  20.6657750  58.0999760  49.7384180  29.5044760  64.1869450  50.2466240
  29.5189300  63.2550410  50.0285150  28.7969860  64.2729210  50.8856010
  27.3318840  63.3134650  40.4989080  28.0189970  63.8603860  40.8796670
  26.5451260  63.8575380  40.5338690  19.4711240  58.9307470  35.9906160
  20.3406090  59.2132270  36.2742080  18.9801560  59.7443340  35.8754970
  28.9378660  65.8287020  47.3406740  29.5820880  66.0346400  48.0180160
  29.3008100  65.0675420  46.8877590  22.5357830  50.6618330  40.5836960
  22.4072460  50.6536230  41.5321880  21.7119850  51.0001420  40.2327970
  31.9848360  64.6314270  49.2620250  32.3204600  65.2180960  49.9398170
  31.0648700  64.5006980  49.4918040  19.8382490  68.1434850  36.5567790
  20.1980130  68.7424190  35.9025060  19.6974830  68.6894740  37.3302820
  19.5351760  52.4209450  50.0443660  18.8210280  52.6206370  50.6496270
  19.9546800  51.6449020  50.4158460  19.8224350  66.4089710  51.0310190
  19.9315470  65.4684450  50.8905580  19.1704910  66.6744460  50.3823920
  27.8136940  64.6805600  52.4308310  27.4933810  63.9614840  52.9754000
  27.1395300  65.3560670  52.5044370  25.8551110  65.5266050  37.3741460
  25.8461210  66.2595740  36.7585970  24.9349470  65.2797630  37.4668420
  21.4557750  60.7480940  38.1188220  20.8485700  61.4879840  38.1283520
  21.9307100  60.8380300  37.2926420  28.8410710  65.5894290  36.0366650
  28.9422690  65.3858280  35.1068630  27.9412450  65.3352570  36.2414430
  27.4828820  68.1080610  40.7314320  27.7370320  68.0702000  39.8093690
  26.5341300  67.9813940  40.7242570  22.9624510  68.2912550  43.6544220
  23.6986990  67.7428010  43.9252790  23.3465430  69.1568560  43.5150210
  19.8469990  64.3586120  39.5285730  18.9209770  64.6007260  39.5191140
  20.3126420  65.1860380  39.4070480  21.9682790  67.4758620  52.8429800
  22.7695520  67.7970670  53.2565200  21.4534610  67.1154200  53.5649710
  26.0726820  67.4642860  35.4769790  26.8655430  67.7531690  35.0251580
  25.5531170  67.0335030  34.7982270  30.8047420  63.5838490  52.7905210
  30.1985580  63.6070090  52.0500960  30.5001530  62.8521530  53.3272460
  32.2347790  67.3118780  51.4014620  33.1869540  67.2276800  51.3514860
  32.0876010  67.9760490  52.0748410  19.6880600  59.9632080  51.7865850
  20.1919620  59.3839360  52.3582080  18.9488020  60.2472310  52.3242220
  26.7418540  61.3703070  51.3201370  25.9764210  61.9388070  51.2356040
  26.9234500  61.0779280  50.4269600  21.7203680  58.1061670  52.6815920
  21.7609020  57.8075540  53.5901150  22.5749180  58.5069280  52.5223440
  25.1710200  67.4096720  49.4985260  24.6331290  68.1342780  49.1793960
  25.4244160  66.9327060  48.7082600  28.0272410  68.6447930  49.7571910
  27.9531110  69.5483070  50.0644280  27.1251250  68.3259830  49.7293980
  28.5757740  67.8106440  37.3798270  29.4708530  68.1491410  37.4017030
  28.6075370  67.0885850  36.7522550  22.2153900  63.1833490  35.6085270
  22.6528770  63.7263160  36.2642850  22.7001630  62.3580440  35.6181610
  19.4299700  65.9722520  43.0605530  19.7602710  65.1043580  42.8284170
  19.8590700  66.1781040  43.8910490  24.0261620  64.3031530  40.7207500
  23.7257160  64.1796500  41.6211410  23.9199110  63.4440120  40.3123230
  19.9189910  66.8393110  45.7987160  19.4820900  67.0193910  46.6311310
  20.4867590  67.5967730  45.6568880  19.7514340  59.3513340  42.1576040
  19.0963180  59.0824980  41.5135740  20.5892290  59.2417820  41.7078020
  20.7890270  59.7365910  46.6979380  21.1563310  59.6493310  47.5775400
  20.2201090  58.9732460  46.5986240  20.3406270  56.6475000  50.6037800
  19.4462320  56.6141760  50.9431510  20.8803820  56.8461790  51.3689050
  18.9652420  56.5612270  38.1001370  18.0616500  56.8242470  37.9253030
  19.4493040  56.8323440  37.3201330  21.5079630  55.6177810  36.0095750
  22.2171330  55.1961030  35.5243030  20.7919570  55.6853040  35.3779100
  21.1553790  51.6717140  35.0498400  21.8781920  52.2126080  35.3679620
  21.4278310  51.3980560  34.1739940  20.8445980  50.9223330  44.9521020
  21.4922170  50.3720710  44.5116180  21.2647820  51.1766480  45.7736830
  34.2979780  67.8180690  41.7108900  34.8938850  67.4965260  41.0343320
  34.5557930  67.3452510  42.5022170  20.5977980  51.0779000  47.6946340
  20.2492800  51.5342820  48.4604520  20.2665680  50.1836130  47.7768770
  22.2042350  64.2498600  51.8599530  22.1611980  63.8791510  52.7413990
  22.3353360  65.1876170  52.0001350  25.9048380  65.8058190  47.4609250
  25.6639740  66.0732750  46.5739770  26.8451020  65.9763920  47.5160110
  21.2698620  50.6055200  50.9697110  21.8181610  50.4243250  50.2063220
  21.3353930  49.8149310  51.5053420  22.0430380  67.1960850  48.9797310
  21.4490700  67.0645550  49.7187350  22.0354220  66.3598990  48.5139410
  21.6742610  64.5619230  47.9305350  20.9476670  63.9424520  47.8631300
  21.7351760  64.9559840  47.0603430  25.2787710  66.7764230  44.7154760
  25.7952730  66.1651590  44.1903020  25.9285090  67.2793010  45.2065770
  28.0183210  67.6672720  45.5423740  28.3061020  67.4127020  44.6656750
  28.5306430  67.1150080  46.1329310  19.9572610  67.8793620  41.1402110
  19.7894650  67.2464300  41.8384000  19.0907120  68.0853020  40.7896300
  20.5800630  51.7110400  38.6433970  21.3379990  51.8239280  38.0698000
  20.1177800  52.5479600  38.5977400  21.5635310  66.5726850  38.5852250
  21.0382930  66.9534880  37.8814210  21.4879890  67.1977620  39.3061960
  22.9525780  52.2374450  37.1835940  23.4818540  51.4504250  37.0543890
  23.5854100  52.9165640  37.4171470  28.0855570  68.5888820  52.9091940
  29.0122880  68.3533090  52.9527900  28.0706000  69.4160820  52.4277970
  24.1628280  68.5209230  37.4601500  24.8947100  68.2368510  36.9125390
  24.4221950  68.2822510  38.3500880  23.3243070  64.6373960  37.4647830
  22.6951950  65.1059060  38.0133660  23.4390900  63.7923180  37.8994020
  22.9077920  64.8118540  26.5692080  23.2105960  63.9216280  26.3902300
  23.6521510  65.3688760  26.3414330  21.3368610  55.7380340  20.1576450
  20.4485310  56.0796310  20.0556330  21.6209800  55.5380660  19.2657280
  19.3001620  58.3385990  26.0416150  19.8717730  57.5708190  26.0419790
  19.3003160  58.6374750  25.1322760  29.1581570  67.1576840  23.8961420
  28.5393010  67.6134340  23.3255860  30.0133350  67.3128300  23.4951120
  20.5426490  53.7470350  27.8285080  20.3629330  52.8496100  28.1087840
  20.1406570  54.2942220  28.5032030  23.5130000  54.3211840  21.1914830
  23.6196750  55.2215570  21.4983590  22.6022360  54.2729810  20.9009480
  21.1613160  56.2430850  26.4367420  21.8423270  56.5069220  27.0554820
  20.8461210  55.4031720  26.7705430  30.0244920  62.0416080  21.2893330
  29.4062190  62.5065530  20.7256050  30.5368170  62.7343560  21.7062840
  23.3189160  53.6406730  27.7973880  23.6605970  54.4848780  27.5027750
  22.3804970  53.7890470  27.9139220  19.3928120  62.7272610  18.6632960
  19.0156100  63.2159710  17.9317860  19.6501190  63.3997890  19.2939490
  32.5532110  66.8456290  26.4125930  32.5659270  66.4418580  25.5448190
  32.0007330  67.6203580  26.3087360  33.8477530  63.5672510  21.5016100
  33.7373860  62.6246840  21.6265520  33.8445780  63.9288150  22.3878860
  29.3897810  59.1937830  20.8578590  28.4627090  59.1275210  21.0867060
  29.5422630  60.1317960  20.7433830  29.3766890  55.4654830  17.8545750
  28.4370560  55.6268790  17.9398210  29.6950150  56.1840510  17.3081740
  33.4195100  60.7558130  21.3613840  32.8007520  60.4177680  20.7140140
  33.4019550  60.1117890  22.0693030  33.5521760  66.9802000  29.4660630
  33.0752320  67.7874190  29.2733240  32.8683550  66.3280330  29.6186840
  31.5959800  59.9944940  18.3686590  32.0353080  59.1567370  18.2224410
  32.3088220  60.6274340  18.4550730  29.7055180  64.9341010  22.3367830
  30.1451090  65.6765340  21.9223220  29.6442070  65.1767580  23.2606790
  25.1806150  65.9586840  33.2387850  25.1521580  66.3629790  32.3716280
  25.0171120  65.0297200  33.0759450  35.1776940  51.2487750  16.6827630
  34.8649600  51.3414580  17.5826700  35.9389410  51.8268780  16.6325060
  21.6959080  58.6147550  21.1404970  21.5756680  59.3409640  20.5286240
  21.3859970  57.8450460  20.6632880  19.3344450  61.7862690  26.9473610
  19.4124870  61.9211460  26.0029330  19.9486130  61.0778580  27.1401730
  20.5792080  63.4862880  23.3579790  20.1720160  63.6277470  22.5033390
  21.4705090  63.2023040  23.1551000  30.3970960  67.6354790  30.2646840
  30.9115630  67.5462800  31.0669270  29.5540040  67.9814490  30.5574750
  32.3725360  67.9210130  19.6930840  32.2126500  67.6313070  20.5912670
  32.2072070  67.1450260  19.1576070  24.8513740  67.7008660  21.4702460
  24.6756220  66.7844200  21.2570260  23.9969480  68.0595950  21.7100260
  32.0751490  65.4297690  18.2528840  31.3816650  65.4274980  17.5931120
  32.8174350  65.0057010  17.8223010  31.6401420  67.0560400  22.3277330
  32.0958370  66.2749780  22.6415950  31.9793940  67.7667220  22.8718510
  19.3903970  62.8276860  29.4868070  19.5535010  62.3582220  28.6687440
  19.8556420  62.3200420  30.1516910  27.2781560  51.5793320  19.4034470
  26.6535740  51.5753190  20.1287780  27.1911680  50.7124280  19.0070440
  31.1834720  57.0879560  20.8500540  30.5843610  57.8115360  20.6664160
  31.7314330  57.0256340  20.0676990  21.5246710  54.3915440  31.0703940
  21.1310100  55.2390650  31.2776720  20.8365110  53.7541810  31.2612580
  18.8263760  52.3143900  25.1034020  18.5376810  52.8846760  25.8159000
  19.5709520  51.8348350  25.4665250  19.0133990  56.2564020  16.3136740
  18.9308660  57.1994780  16.4551730  18.6617050  56.1138930  15.4349090
  22.6634500  54.8729540  24.3401300  22.3234550  55.3504770  25.0968350
  21.9011820  54.4194660  23.9802400  26.8752270  55.9915130  18.3713850
  26.9965090  55.9501610  19.3199670  26.4900780  56.8539280  18.2160580
  25.8873770  58.3016270  17.7697150  25.3190670  57.8534520  17.1433060
  26.5962770  58.6609050  17.2362300  20.9642950  62.2028290  31.6463880
  20.5797740  61.5621960  32.2446840  21.2755140  62.9064410  32.2158610
  19.9780580  53.7948520  23.2565970  19.6927500  53.4304190  24.0944590
  19.9159440  53.0628980  22.6429110  23.4321250  62.2974460  20.0423560
  22.6583510  61.7572080  19.8822280  24.1615880  61.7781070  19.7041320
  29.6519170  52.6877780  19.9779340  28.8383780  52.1890950  19.9024650
  29.4581120  53.5276030  19.5615690  32.3667560  57.0597430  18.2741500
  33.2547180  57.3714660  18.0992840  32.3372650  56.1869680  17.8822080
  28.3628150  63.2321120  18.9529670  28.7043850  63.9763350  18.4572990
  27.5340860  63.5452240  19.3154500  20.9603190  58.9316210  30.5928070
  20.6018130  59.5970060  31.1801410  20.6657750  58.0999760  30.9640690
  34.6381830  58.3709270  17.7421360  34.5545550  58.8023490  16.8917800
  35.3576020  58.8307620  18.1748180  35.6669080  65.2251530  20.4703490
  35.0245240  64.5707150  20.7447210  35.2799740  65.6306620  19.6944160
  27.3318840  63.3134650  21.7245590  28.0189970  63.8603860  22.1053180
  26.5451260  63.8575380  21.7595200  19.4711240  58.9307470  17.2162670
  20.3406090  59.2132270  17.4998590  18.9801560  59.7443340  17.1011480
  26.6346050  60.3180680  21.3370950  27.0908830  61.1285930  21.5631140
  26.2834260  60.0003820  22.1689440  28.9378660  65.8287020  28.5663250
  29.5820880  66.0346400  29.2436670  29.3008100  65.0675420  28.1134100
  22.5357830  50.6618330  21.8093470  22.4072460  50.6536230  22.7578390
  21.7119850  51.0001420  21.4584480  34.0566460  64.1167990  17.0079840
  33.8304040  63.3998430  17.6004480  33.6662660  63.8680430  16.1701590
  19.8382490  68.1434850  17.7824300  20.1980130  68.7424190  17.1281570
  19.6974830  68.6894740  18.5559330  19.5351760  52.4209450  31.2700170
  18.8210280  52.6206370  31.8752780  19.9546800  51.6449020  31.6414970
  33.6382710  62.0339930  18.6694000  33.3504410  62.4952620  19.4571880
  34.4334880  61.5737700  18.9378220  19.8224350  66.4089710  32.2566700
  19.9315470  65.4684450  32.1162090  19.1704910  66.6744460  31.6080430
  27.8136940  64.6805600  33.6564820  27.4933810  63.9614840  34.2010510
  27.1395300  65.3560670  33.7300880  25.8551110  65.5266050  18.5997970
  25.8461210  66.2595740  17.9842480  24.9349470  65.2797630  18.6924930
  21.4557750  60.7480940  19.3444730  20.8485700  61.4879840  19.3540030
  21.9307100  60.8380300  18.5182930  34.3952570  53.8688700  19.8289180
  33.7665730  53.9734370  19.1147410  33.9004490  54.0885480  20.6183060
  28.8410710  65.5894290  17.2623160  28.9422690  65.3858280  16.3325140
  27.9412450  65.3352570  17.4670940  26.3636600  56.1474650  21.2447060
  25.6552750  56.6160990  21.6860670  26.6481080  55.4896660  21.8792250
  27.4828820  68.1080610  21.9570830  27.7370320  68.0702000  21.0350200
  26.5341300  67.9813940  21.9499080  24.5671620  54.4559730  18.6197770
  25.4162150  54.8929880  18.5537960  24.2002890  54.7679990  19.4469830
  23.4663040  60.7092090  17.0933300  24.2326310  60.5973450  17.6558730
  23.5437730  60.0130060  16.4410070  22.1609800  58.1417160  17.7766190
  22.2413390  57.1944670  17.8883590  23.0529550  58.4724040  17.8826850
  22.9624510  68.2912550  24.8800730  23.6986990  67.7428010  25.1509300
  23.3465430  69.1568560  24.7406720  19.8469990  64.3586120  20.7542240
  18.9209770  64.6007260  20.7447650  20.3126420  65.1860380  20.6326990
  21.9682790  67.4758620  34.0686310  22.7695520  67.7970670  34.4821710
  21.4534610  67.1154200  34.7906220  26.0726820  67.4642860  16.7026300
  26.8655430  67.7531690  16.2508090  25.5531170  67.0335030  16.0238780
  32.2347790  67.3118780  32.6271130  33.1869540  67.2276800  32.5771370
  32.0876010  67.9760490  33.3004920  35.1256990  66.6912990  18.1263040
  34.8398500  66.2778130  17.3117220  34.9276540  67.6200700  18.0063560
  19.6880600  59.9632080  33.0122360  20.1919620  59.3839360  33.5838590
  18.9488020  60.2472310  33.5498730  26.5904220  62.6846270  16.5668650
  26.4854860  62.0698620  17.2930030  26.4228440  62.1612160  15.7831660
  29.8306950  61.7466300  17.1710640  29.2817050  62.1935600  17.8153380
  30.4526210  61.2415550  17.6948310  25.4982070  60.7057220  19.0675940
  25.9198490  60.5397090  19.9107330  25.6232910  59.8957450  18.5731080
  28.0109710  59.7294830  16.3153040  28.5315370  59.0143850  15.9494190
  28.6578110  60.3680700  16.6153550  24.3940970  56.7790450  16.0134100
  24.1930030  55.9157810  16.3747440  24.2233020  56.6923810  15.0755700
  25.1710200  67.4096720  30.7241770  24.6331290  68.1342780  30.4050470
  25.4244160  66.9327060  29.9339110  31.8729280  51.5898680  18.5420980
  32.1531570  50.7466580  18.8980400  31.0995010  51.8221790  19.0559730
  23.1923770  53.8791070  16.0011980  23.4949670  53.8858500  15.0931130
  23.9318360  53.5288930  16.4979640  28.0272410  68.6447930  30.9828420
  27.9531110  69.5483070  31.2900790  27.1251250  68.3259830  30.9550490
  26.4108700  52.8225690  16.9868180  26.0630700  52.1449680  16.4070630
  26.6121470  52.3615200  17.8011570  28.5757740  67.8106440  18.6054780
  29.4708530  68.1491410  18.6273540  28.6075370  67.0885850  17.9779060
  22.2153900  63.1833490  16.8341780  22.6528770  63.7263160  17.4899360
  22.7001630  62.3580440  16.8438120  19.4299700  65.9722520  24.2862040
  19.7602710  65.1043580  24.0540680  19.8590700  66.1781040  25.1167000
  24.0261620  64.3031530  21.9464010  23.7257160  64.1796500  22.8467920
  23.9199110  63.4440120  21.5379740  19.9189910  66.8393110  27.0243670
  19.4820900  67.0193910  27.8567820  20.4867590  67.5967730  26.8825390
  36.7953540  64.0827930  16.6490690  35.9646500  64.1504580  17.1197920
  36.9725370  64.9732050  16.3457550  36.2510000  60.8275410  19.1524890
  37.0128910  61.3972060  19.2584580  36.2664370  60.2602610  19.9233200
  19.7514340  59.3513340  23.3832550  19.0963180  59.0824980  22.7392250
  20.5892290  59.2417820  22.9334530  36.3029170  61.1209780  16.3097410
  36.5778010  62.0288660  16.1816630  36.1139910  61.0572310  17.2459400
  32.7004780  54.1454630  17.6051040  33.1189660  53.9585610  16.7647700
  32.3940840  53.2933680  17.9153970  20.7890270  59.7365910  27.9235890
  21.1563310  59.6493310  28.8031910  20.2201090  58.9732460  27.8242750
  20.3406270  56.6475000  31.8294310  19.4462320  56.6141760  32.1688020
  20.8803820  56.8461790  32.5945560  18.9652420  56.5612270  19.3257880
  18.0616500  56.8242470  19.1509540  19.4493040  56.8323440  18.5457840
  21.5079630  55.6177810  17.2352260  22.2171330  55.1961030  16.7499540
  20.7919570  55.6853040  16.6035610  21.1553790  51.6717140  16.2754910
  21.8781920  52.2126080  16.5936130  21.4278310  51.3980560  15.3996450
  34.9645440  56.5409610  20.5426490  35.4604560  56.3080480  21.3275370
  34.7661510  55.7021450  20.1264130  20.8445980  50.9223330  26.1777530
  21.4922170  50.3720710  25.7372690  21.2647820  51.1766480  26.9993340
  37.2822870  53.0078480  16.3170310  38.2072180  52.8759660  16.1088600
  37.2598660  53.0871300  17.2706760  37.3561360  53.7789140  18.9427020
  36.5612860  53.7134260  19.4719930  37.5604640  54.7139780  18.9312370
  34.2979780  67.8180690  22.9365410  34.8938850  67.4965260  22.2599830
  34.5557930  67.3452510  23.7278680  20.5977980  51.0779000  28.9202850
  20.2492800  51.5342820  29.6861030  20.2665680  50.1836130  29.0025280
  22.2042350  64.2498600  33.0856040  22.1611980  63.8791510  33.9670500
  22.3353360  65.1876170  33.2257860  25.9048380  65.8058190  28.6865760
  25.6639740  66.0732750  27.7996280  26.8451020  65.9763920  28.7416620
  21.2698620  50.6055200  32.1953620  21.8181610  50.4243250  31.4319730
  21.3353930  49.8149310  32.7309930  22.0430380  67.1960850  30.2053820
  21.4490700  67.0645550  30.9443860  22.0354220  66.3598990  29.7395920
  21.6742610  64.5619230  29.1561860  20.9476670  63.9424520  29.0887810
  21.7351760  64.9559840  28.2859940  25.2787710  66.7764230  25.9411270
  25.7952730  66.1651590  25.4159530  25.9285090  67.2793010  26.4322280
  28.0183210  67.6672720  26.7680250  28.3061020  67.4127020  25.8913260
  28.5306430  67.1150080  27.3585820  19.9572610  67.8793620  22.3658620
  19.7894650  67.2464300  23.0640510  19.0907120  68.0853020  22.0152810
  20.5800630  51.7110400  19.8690480  21.3379990  51.8239280  19.2954510
  20.1177800  52.5479600  19.8233910  34.7674020  50.8913680  19.3716140
  34.9624650  51.7897130  19.6383570  33.9803890  50.6600760  19.8649090
  21.5635310  66.5726850  19.8108760  21.0382930  66.9534880  19.1070720
  21.4879890  67.1977620  20.5318470  22.9525780  52.2374450  18.4092450
  23.4818540  51.4504250  18.2800400  23.5854100  52.9165640  18.6427980
  25.1463620  51.9749590  21.4637840  24.5166360  51.2736900  21.6307970
  24.6068760  52.7353720  21.2471000  28.0855570  68.5888820  34.1348450
  29.0122880  68.3533090  34.1784410  28.0706000  69.4160820  33.6534480
  36.3200630  68.1314390  21.1322700  36.4952820  67.4452130  20.4883620
  35.6222200  68.6561440  20.7399370  24.1628280  68.5209230  18.6858010
  24.8947100  68.2368510  18.1381900  24.4221950  68.2822510  19.5757390
  23.3243070  64.6373960  18.6904340  22.6951950  65.1059060  19.2390170
  23.4390900  63.7923180  19.1250530  30.7792790  58.6879620   4.8405540
  30.6986840  57.7734230   4.5697250  30.3657210  59.1846690   4.1345250
  28.9110830  60.4658640   6.7214810  28.1352930  59.9859080   7.0113380
  29.5623760  59.7864290   6.5470970  22.9276660  60.7778450   7.5990570
  22.0961540  60.5227160   7.9987080  23.5357640  60.8489220   8.3348490
  32.9318260  64.8718830   5.5013940  32.4699790  64.1006070   5.8301110
  33.7443810  64.8984900   6.0066390  22.9077920  64.8118540   7.7948590
  23.2105960  63.9216280   7.6158810  23.6521510  65.3688760   7.5670840
  19.3001620  58.3385990   7.2672660  19.8717730  57.5708190   7.2676300
  19.3003160  58.6374750   6.3579270  29.1581570  67.1576840   5.1217930
  28.5393010  67.6134340   4.5512370  30.0133350  67.3128300   4.7207630
  28.3519820  63.1415830   6.7284970  28.2828100  62.2005770   6.5674100
  29.1139680  63.2317240   7.3007540  20.5426490  53.7470350   9.0541590
  20.3629330  52.8496100   9.3344350  20.1406570  54.2942220   9.7288540
  29.3824990  55.9486210   6.9553900  29.7589810  55.0758090   6.8427570
  29.2844500  56.2844910   6.0644340  23.5130000  54.3211840   2.4171340
  23.6196750  55.2215570   2.7240100  22.6022360  54.2729810   2.1265990
  33.1649110  53.4436650   3.8882240  33.9858730  52.9533220   3.9307720
  33.1983190  54.0334310   4.6414080  21.1613160  56.2430850   7.6623930
  21.8423270  56.5069220   8.2811330  20.8461210  55.4031720   7.9961940
  25.3537730  57.2898210   6.7496520  25.8615950  57.7879180   7.3901540
  25.8850970  56.5133410   6.5735880  37.4548660  55.4603400  10.4525870
  36.7500830  55.8485110   9.9340980  37.7206580  56.1553690  11.0546800
  23.6373830  51.9296770  11.0159940  23.6392270  52.4469160  10.2105840
  22.8078140  51.4526950  10.9929870  30.0244920  62.0416080   2.5149840
  29.4062190  62.5065530   1.9512560  30.5368170  62.7343560   2.9319350
  24.8876680  61.5691950   9.1933440  24.5546060  62.1960870   9.8354510
  25.0643360  62.0953830   8.4135110  33.4010590  55.3837030   6.6609780
  32.6966160  55.6721920   7.2412890  33.7622750  56.1937140   6.3009340
  23.3189160  53.6406730   9.0230390  23.6605970  54.4848780   8.7284260
  22.3804970  53.7890470   9.1395730  24.0995780  63.5372750  11.0082620
  24.7169780  64.2123830  10.7267070  23.2388900  63.9460730  10.9170120
  35.0173370  65.0012160   8.9237260  34.3336890  65.6711270   8.9153930
  35.5567660  65.1992810   8.1582120  36.4697510  54.8291820   7.0518990
  35.5222420  54.8630800   7.1834420  36.7947500  55.6430770   7.4368350
  27.0017050  51.1289000   5.3474980  27.3092030  50.5735890   4.6310480
  26.0717750  51.2633460   5.1647970  32.5532110  66.8456290   7.6382440
  32.5659270  66.4418580   6.7704700  32.0007330  67.6203580   7.5343870
  33.8477530  63.5672510   2.7272610  33.7373860  62.6246840   2.8522030
  33.8445780  63.9288150   3.6135370  31.9517550  61.7486130   8.9665050
  32.3686340  61.5346240   8.1318510  32.6757370  62.0058920   9.5373670
  29.3897810  59.1937830   2.0835100  28.4627090  59.1275210   2.3123570
  29.5422630  60.1317960   1.9690340  35.8979650  60.1473350   9.0581290
  35.0698280  60.2166440   8.5831420  36.4930130  60.7327660   8.5897120
  33.4195100  60.7558130   2.5870350  32.8007520  60.4177680   1.9396650
  33.4019550  60.1117890   3.2949540  32.8621660  56.9342670  10.0036160
  32.4492840  57.7596380  10.2576150  32.1297610  56.3487710   9.8112520
  24.9954450  59.7202570   4.8654830  24.5911450  59.0079820   4.3700730
  25.0817570  59.3755810   5.7542870  25.4636150  63.4070130   7.0294040
  25.1664440  62.8015600   6.3501820  26.4135970  63.4447440   6.9183400
  23.7083070  56.4945780   8.6453870  24.2597660  56.6041120   7.8707120
  24.2226580  56.8683380   9.3609100  33.5521760  66.9802000  10.6917140
  33.0752320  67.7874190  10.4989750  32.8683550  66.3280330  10.8443350
  24.5554580  63.1451820  13.6801840  23.6583110  63.3691790  13.9275240
  24.5807450  63.2686760  12.7313240  23.3825800  60.0165140  12.2559210
  23.2433570  60.8887940  12.6246610  22.5007160  59.6737950  12.1107150
  29.7055180  64.9341010   3.5624340  30.1451090  65.6765340   3.1479730
  29.6442070  65.1767580   4.4863300  25.1806150  65.9586840  14.4644360
  25.1521580  66.3629790  13.5972790  25.0171120  65.0297200  14.3015960
  21.6959080  58.6147550   2.3661480  21.5756680  59.3409640   1.7542750
  21.3859970  57.8450460   1.8889390  37.1320970  66.7413940  15.7608530
  37.6080690  67.2196830  16.4397610  37.7528130  66.6731430  15.0354030
  19.3344450  61.7862690   8.1730120  19.4124870  61.9211460   7.2285840
  19.9486130  61.0778580   8.3658240  20.5792080  63.4862880   4.5836300
  20.1720160  63.6277470   3.7289900  21.4705090  63.2023040   4.3807510
  36.5354220  63.9326790  12.9208540  36.6617280  63.6938670  12.0025720
  36.5775600  63.1011330  13.3930620  30.3970960  67.6354790  11.4903350
  30.9115630  67.5462800  12.2925780  29.5540040  67.9814490  11.7831260
  24.8513740  67.7008660   2.6958970  24.6756220  66.7844200   2.4826770
  23.9969480  68.0595950   2.9356770  31.6401420  67.0560400   3.5533840
  32.0958370  66.2749780   3.8672460  31.9793940  67.7667220   4.0975020
  36.3878230  55.9859250  13.8858280  35.7722500  56.4938920  13.3573740
  36.0674650  55.0857580  13.8284220  19.3903970  62.8276860  10.7124580
  19.5535010  62.3582220   9.8943950  19.8556420  62.3200420  11.3773420
  24.1622740  51.9582620   5.7485150  23.7190890  52.7392160   5.4169670
  24.7207730  52.2812510   6.4556090  28.4492550  54.8251140  11.3520470
  27.9871920  55.0334160  12.1640410  28.0470660  54.0110490  11.0491140
  33.4497060  56.0460090  12.4817130  32.5990650  55.7465840  12.8026200
  33.2898850  56.2902100  11.5700950  30.5446770  57.5461840  14.5815920
  30.8700180  56.7125590  14.2418150  31.3327100  58.0690360  14.7294250
  26.1998640  52.5029950   7.6074750  26.4970970  53.4092780   7.5266770
  26.7484200  52.0148730   6.9934320  23.9536960  57.0816190   3.4766400
  23.7277880  56.8653360   4.3813020  23.1729490  57.5144650   3.1312370
  31.1834720  57.0879560   2.0757050  30.5843610  57.8115360   1.8920670
  31.7314330  57.0256340   1.2933500  26.3936170  57.9801770  14.1426670
  26.2979770  57.0396500  13.9927070  27.2368150  58.2016840  13.7474740
  29.7899590  55.7243100   4.1060330  30.1829160  56.0415300   3.2929020
  30.1516440  54.8454980   4.2204850  21.5246710  54.3915440  12.2960450
  21.1310100  55.2390650  12.5033230  20.8365110  53.7541810  12.4869090
  28.0991760  54.4750410  15.3657190  27.4090080  54.2822610  16.0003280
  28.8424060  54.7585050  15.8981490  18.8263760  52.3143900   6.3290530
  18.5376810  52.8846760   7.0415510  19.5709520  51.8348350   6.6921760
  30.3754730  58.3148850   8.2011110  29.6435850  58.8235660   8.5501210
  29.9779070  57.4978830   7.8999890  26.8132120  54.9903050   6.6063600
  26.8168180  54.5493000   5.7568140  27.7083240  55.3120380   6.7135420
  22.6634500  54.8729540   5.5657810  22.3234550  55.3504770   6.3224860
  21.9011820  54.4194660   5.2058910  30.8380640  53.7682530   7.6134050
  30.8553380  54.2191180   8.4575900  30.5896220  52.8688170   7.8267490
  34.2651390  51.1814710  13.4520430  34.5897160  50.4504370  13.9778410
  34.3007900  50.8628350  12.5501420  20.9642950  62.2028290  12.8720390
  20.5797740  61.5621960  13.4703350  21.2755140  62.9064410  13.4415120
  27.1140090  59.0504830   8.3529010  27.4810220  58.5763400   9.0990350
  26.9245150  59.9246400   8.6937350  19.9780580  53.7948520   4.4822480
  19.6927500  53.4304190   5.3201100  19.9159440  53.0628980   3.8685620
  24.9039460  58.0913470  10.6713220  24.5996530  58.9705450  10.8963580
  25.8585920  58.1513260  10.7070660  34.1909230  61.2939820   7.0606460
  34.9108350  61.7895110   6.6702570  33.9891050  60.6157710   6.4160330
  29.5728030  61.3648880  12.9475460  29.5065340  60.4444550  12.6933050
  28.9433170  61.4624320  13.6620100  23.4758650  61.9654840   4.9058880
  23.9937320  61.1623100   4.8515770  23.0242670  61.9033980   5.7475710
  20.9603190  58.9316210  11.8184580  20.6018130  59.5970060  12.4057920
  20.6657750  58.0999760  12.1897200  24.1616310  59.3900450  14.7024130
  23.8616450  59.5357630  13.8051950  24.9327550  58.8305740  14.6097520
  29.5044760  64.1869450  12.6979260  29.5189300  63.2550410  12.4798170
  28.7969860  64.2729210  13.3369030  35.7155970  60.8276790  12.0447840
  34.9904160  61.4205570  11.8477230  36.2431430  60.8200330  11.2461210
  31.2455560  62.5536960   5.5431690  31.5979380  61.9565090   4.8833060
  30.3617890  62.2281190   5.7139940  27.3318840  63.3134650   2.9502100
  28.0189970  63.8603860   3.3309690  26.5451260  63.8575380   2.9851710
  26.6346050  60.3180680   2.5627460  27.0908830  61.1285930   2.7887650
  26.2834260  60.0003820   3.3945950  28.9378660  65.8287020   9.7919760
  29.5820880  66.0346400  10.4693180  29.3008100  65.0675420   9.3390610
  22.5357830  50.6618330   3.0349980  22.4072460  50.6536230   3.9834900
  21.7119850  51.0001420   2.6840990  30.2110740  63.8319370   8.5097210
  30.8532970  63.1312530   8.6229380  30.7360090  64.6117810   8.3294100
  31.9848360  64.6314270  11.7133270  32.3204600  65.2180960  12.3911190
  31.0648700  64.5006980  11.9431060  19.5351760  52.4209450  12.4956680
  18.8210280  52.6206370  13.1009290  19.9546800  51.6449020  12.8671480
  19.8224350  66.4089710  13.4823210  19.9315470  65.4684450  13.3418600
  19.1704910  66.6744460  12.8336940  27.8136940  64.6805600  14.8821330
  27.4933810  63.9614840  15.4267020  27.1395300  65.3560670  14.9557390
  31.0290540  54.9131760  10.2458130  31.3971360  54.0926970  10.5737700
  30.1688740  54.9733650  10.6613780  26.3636600  56.1474650   2.4703570
  25.6552750  56.6160990   2.9117180  26.6481080  55.4896660   3.1048760
  27.9892530  57.5671350  10.4696100  28.4877780  58.0417170  11.1347950
  28.1315480  56.6434870  10.6766130  30.3952030  52.8725310   3.9099360
  30.2719810  52.8911440   2.9608870  31.3436590  52.9204250   4.0297760
  27.4828820  68.1080610   3.1827340  27.7370320  68.0702000   2.2606710
  26.5341300  67.9813940   3.1755590  35.1959390  53.7839310  11.3124490
  34.6932990  54.5244710  11.6518300  36.0116050  54.1723310  10.9961280
  33.4881400  59.0272490   4.7585850  32.5471540  59.0422720   4.9333540
  33.8025470  58.2408450   5.2046150  35.4906980  66.1981340   6.4340110
  35.6154400  67.0212510   6.9063920  36.3572540  65.9872070   6.0864260
  22.9624510  68.2912550   6.1057240  23.6986990  67.7428010   6.3765810
  23.3465430  69.1568560   5.9663230  19.8469990  64.3586120   1.9798750
  18.9209770  64.6007260   1.9704160  20.3126420  65.1860380   1.8583500
  21.9682790  67.4758620  15.2942820  22.7695520  67.7970670  15.7078220
  21.4534610  67.1154200  16.0162730  30.8047420  63.5838490  15.2418230
  30.1985580  63.6070090  14.5013980  30.5001530  62.8521530  15.7785480
  32.2347790  67.3118780  13.8527640  33.1869540  67.2276800  13.8027880
  32.0876010  67.9760490  14.5261430  19.6880600  59.9632080  14.2378870
  20.1919620  59.3839360  14.8095100  18.9488020  60.2472310  14.7755240
  26.7418540  61.3703070  13.7714390  25.9764210  61.9388070  13.6869060
  26.9234500  61.0779280  12.8782620  33.8841890  63.1008400  14.3289410
  34.6251360  63.4384160  13.8256870  33.1214570  63.2700460  13.7759180
  21.7203680  58.1061670  15.1328940  21.7609020  57.8075540  16.0414170
  22.5749180  58.5069280  14.9736460  23.6609490  56.6853770  13.1003430
  23.1305950  56.1944720  12.4726770  24.3297560  57.1137970  12.5661360
  32.5587550  61.1523230  12.8644620  32.9728570  61.3068310  13.7135040
  31.6238550  61.2778450  13.0270400  33.0309720  58.4919390  14.8683770
  33.6130490  57.7371710  14.7804250  33.2071490  59.0226830  14.0915250
  24.1481790  53.6516140  13.1800720  24.0538660  53.0336890  12.4551590
  23.5679180  54.3782430  12.9530630  26.9143230  52.2089380  10.2128110
  26.4660530  52.2313640   9.3673660  26.2808430  51.8108400  10.8098410
  27.3202780  61.1043710  10.8340550  27.7390890  61.9476440  10.6616790
  26.4011410  61.2415750  10.6047330  29.6566680  58.8359890  12.2178390
  29.7762890  58.2401030  12.9573230  30.5160680  58.8729580  11.7979690
  31.9954580  59.3897080  10.7940900  31.4689800  59.9139700  10.1906040
  32.3385920  60.0224470  11.4250630  25.1710200  67.4096720  11.9498280
  24.6331290  68.1342780  11.6306980  25.4244160  66.9327060  11.1595620
  26.4235450  55.3781240  13.4754210  27.0135140  55.0697090  14.1632030
  25.6055690  54.9060990  13.6314110  31.2428880  54.9947050  13.7087230
  30.5544400  54.3328590  13.6437220  31.9634900  54.5485320  14.1535690
  28.0272410  68.6447930  12.2084930  27.9531110  69.5483070  12.5157300
  27.1251250  68.3259830  12.1807000  19.4299700  65.9722520   5.5118550
  19.7602710  65.1043580   5.2797190  19.8590700  66.1781040   6.3423510
  24.0261620  64.3031530   3.1720520  23.7257160  64.1796500   4.0724430
  23.9199110  63.4440120   2.7636250  19.9189910  66.8393110   8.2500180
  19.4820900  67.0193910   9.0824330  20.4867590  67.5967730   8.1081900
  35.5552090  66.3410110  12.5377490  34.9554080  66.4002670  11.7941410
  35.6845990  65.4015090  12.6674340  19.7514340  59.3513340   4.6089060
  19.0963180  59.0824980   3.9648760  20.5892290  59.2417820   4.1591040
  37.2569970  61.6825510   5.2223330  37.6278800  60.8992830   4.8159300
  37.8971900  62.3714610   5.0440630  34.2403730  63.0662090  10.6353650
  33.4263570  63.4959250  10.8979440  34.6477930  63.6780500  10.0222700
  36.1994510  59.0578770   2.5283350  35.8238110  58.2906700   2.0964640
  35.4697630  59.4401470   3.0158280  20.7890270  59.7365910   9.1492400
  21.1563310  59.6493310  10.0288420  20.2201090  58.9732460   9.0499260
  35.5894130  58.2050290  12.1622870  35.3580220  57.9763040  11.2620820
  35.8498680  59.1249840  12.1167760  20.3406270  56.6475000  13.0550820
  19.4462320  56.6141760  13.3944530  20.8803820  56.8461790  13.8202070
  34.0282200  53.4306720  14.9402570  34.9052380  53.4390120  15.3236570
  34.0403040  52.6937560  14.3294920  35.4745470  57.2836260   5.8290590
  35.9982950  56.7898910   5.1980760  36.0604890  57.4186620   6.5738160
  35.6535190  57.3676130   9.3510140  34.7037900  57.3339670   9.4655130
  35.8348200  58.2776240   9.1159910  34.9645440  56.5409610   1.7683000
  35.4604560  56.3080480   2.5531880  34.7661510  55.7021450   1.3520640
  20.8445980  50.9223330   7.4034040  21.4922170  50.3720710   6.9629200
  21.2647820  51.1766480   8.2249850  36.3932600  55.1770560   4.3020680
  36.2831880  55.0226600   5.2402950  37.1540190  54.6491500   4.0596090
  34.7398320  51.1164690  10.7603680  35.3770540  51.7298830  11.1262870
  34.8873210  51.1525350   9.8152910  34.2979780  67.8180690   4.1621920
  34.8938850  67.4965260   3.4856340  34.5557930  67.3452510   4.9535190
  20.5977980  51.0779000  10.1459360  20.2492800  51.5342820  10.9117540
  20.2665680  50.1836130  10.2281790  22.2042350  64.2498600  14.3112550
  22.1611980  63.8791510  15.1927010  22.3353360  65.1876170  14.4514370
  25.9048380  65.8058190   9.9122270  25.6639740  66.0732750   9.0252790
  26.8451020  65.9763920   9.9673130  28.1102800  52.2690880  13.6678780
  28.0491690  52.8612710  14.4174190  29.0503180  52.1616840  13.5229040
  30.7477360  51.9260940  13.3071070  31.3617770  52.2440230  12.6452150
  31.2926920  51.4409530  13.9266930  37.1652540  67.8252570  10.7132910
  36.6710820  68.2221440   9.9960040  36.5565830  67.2001780  11.1070190
  21.2698620  50.6055200  13.4210130  21.8181610  50.4243250  12.6576240
  21.3353930  49.8149310  13.9566440  22.0430380  67.1960850  11.4310330
  21.4490700  67.0645550  12.1700370  22.0354220  66.3598990  10.9652430
  31.4885400  50.4893080   9.6340360  30.6145240  50.8228190   9.4313290
  31.3796150  50.0166260  10.4592230  32.3957380  52.6963950  11.0182080
  32.0670740  51.8815710  10.6383810  33.3439680  52.6533760  10.8947770
  34.8491990  68.4675990   7.9919650  34.3894960  69.2191800   7.6177670
  34.2204450  67.7482460   7.9334450  21.6742610  64.5619230  10.3818370
  20.9476670  63.9424520  10.3144320  21.7351760  64.9559840   9.5116450
  25.2787710  66.7764230   7.1667780  25.7952730  66.1651590   6.6416040
  25.9285090  67.2793010   7.6578790  28.0183210  67.6672720   7.9936760
  28.3061020  67.4127020   7.1169770  28.5306430  67.1150080   8.5842330
  29.2360220  51.4062920   8.5733270  28.4532010  51.8808420   8.8530030
  28.9423150  50.5017750   8.4646450  33.7881290  52.1086020   6.6182360
  34.2289380  52.0531120   5.7703960  33.5188880  53.0244030   6.6892540
  35.6519860  51.7401260   4.6291180  35.5908260  50.7962480   4.4822200
  36.4311890  51.8481350   5.1744640  19.9572610  67.8793620   3.5915130
  19.7894650  67.2464300   4.2897020  19.0907120  68.0853020   3.2409320
  27.1214440  53.8249670   4.0849300  26.3088950  53.4506560   3.7445180
  27.6256080  53.0694750   4.3870490  31.6239420  50.4892120   5.3232370
  32.2268790  51.0612330   5.7980890  30.8832410  51.0531560   5.1006270
  25.1463620  51.9749590   2.6894350  24.5166360  51.2736900   2.8564480
  24.6068760  52.7353720   2.4727510  28.0855570  68.5888820  15.3604960
  29.0122880  68.3533090  15.4040920  28.0706000  69.4160820  14.8790990
  36.3200630  68.1314390   2.3579210  36.4952820  67.4452130   1.7140130
  35.6222200  68.6561440   1.9655880  25.2719180  51.2533570  15.1246840
  24.9903450  51.7567170  14.3607660  25.6538880  50.4555320  14.7588970
  31.8734640  50.6687150  15.7027310  31.7600090  50.9881760  16.5978830
  32.6904380  51.0699660  15.4064590  34.6533130  67.8158680  15.1846000
  35.4458450  67.3207910  14.9771960  34.9466280  68.4948820  15.7921610
  30.7792790  39.9136130  79.9379500  30.6986840  38.9990740  79.6671210
  30.3657210  40.4103200  79.2319210  28.9110830  41.6915150  81.8188770
  28.1352930  41.2115590  82.1087340  29.5623760  41.0120800  81.6444930
  22.9276660  42.0034960  82.6964530  22.0961540  41.7483670  83.0961040
  23.5357640  42.0745730  83.4322450  32.9318260  46.0975340  80.5987900
  32.4699790  45.3262580  80.9275070  33.7443810  46.1241410  81.1040350
  22.9077920  46.0375050  82.8922550  23.2105960  45.1472790  82.7132770
  23.6521510  46.5945270  82.6644800  21.3368610  36.9636850  76.4806920
  20.4485310  37.3052820  76.3786800  21.6209800  36.7637170  75.5887750
  19.3001620  39.5642500  82.3646620  19.8717730  38.7964700  82.3650260
  19.3003160  39.8631260  81.4553230  29.1581570  48.3833350  80.2191890
  28.5393010  48.8390850  79.6486330  30.0133350  48.5384810  79.8181590
  28.3519820  44.3672340  81.8258930  28.2828100  43.4262280  81.6648060
  29.1139680  44.4573750  82.3981500  20.5426490  34.9726860  84.1515550
  20.3629330  34.0752610  84.4318310  20.1406570  35.5198730  84.8262500
  29.3824990  37.1742720  82.0527860  29.7589810  36.3014600  81.9401530
  29.2844500  37.5101420  81.1618300  23.5130000  35.5468350  77.5145300
  23.6196750  36.4472080  77.8214060  22.6022360  35.4986320  77.2239950
  33.1649110  34.6693160  78.9856200  33.9858730  34.1789730  79.0281680
  33.1983190  35.2590820  79.7388040  21.1613160  37.4687360  82.7597890
  21.8423270  37.7325730  83.3785290  20.8461210  36.6288230  83.0935900
  25.3537730  38.5154720  81.8470480  25.8615950  39.0135690  82.4875500
  25.8850970  37.7389920  81.6709840  37.4548660  36.6859910  85.5499830
  36.7500830  37.0741620  85.0314940  37.7206580  37.3810200  86.1520760
  23.6373830  33.1553280  86.1133900  23.6392270  33.6725670  85.3079800
  22.8078140  32.6783460  86.0903830  30.0244920  43.2672590  77.6123800
  29.4062190  43.7322040  77.0486520  30.5368170  43.9600070  78.0293310
  24.8876680  42.7948460  84.2907400  24.5546060  43.4217380  84.9328470
  25.0643360  43.3210340  83.5109070  33.4010590  36.6093540  81.7583740
  32.6966160  36.8978430  82.3386850  33.7622750  37.4193650  81.3983300
  23.3189160  34.8663240  84.1204350  23.6605970  35.7105290  83.8258220
  22.3804970  35.0146980  84.2369690  24.0995780  44.7629260  86.1056580
  24.7169780  45.4380340  85.8241030  23.2388900  45.1717240  86.0144080
  19.3928120  43.9529120  74.9863430  19.0156100  44.4416220  74.2548330
  19.6501190  44.6254400  75.6169960  35.0173370  46.2268670  84.0211220
  34.3336890  46.8967780  84.0127890  35.5567660  46.4249320  83.2556080
  36.4697510  36.0548330  82.1492950  35.5222420  36.0887310  82.2808380
  36.7947500  36.8687280  82.5342310  27.0017050  32.3545510  80.4448940
  27.3092030  31.7992400  79.7284440  26.0717750  32.4889970  80.2621930
  32.5532110  48.0712800  82.7356400  32.5659270  47.6675090  81.8678660
  32.0007330  48.8460090  82.6317830  33.8477530  44.7929020  77.8246570
  33.7373860  43.8503350  77.9495990  33.8445780  45.1544660  78.7109330
  31.9517550  42.9742640  84.0639010  32.3686340  42.7602750  83.2292470
  32.6757370  43.2315430  84.6347630  29.3897810  40.4194340  77.1809060
  28.4627090  40.3531720  77.4097530  29.5422630  41.3574470  77.0664300
  29.3766890  36.6911340  74.1776220  28.4370560  36.8525300  74.2628680
  29.6950150  37.4097020  73.6312210  35.8979650  41.3729860  84.1555250
  35.0698280  41.4422950  83.6805380  36.4930130  41.9584170  83.6871080
  33.4195100  41.9814640  77.6844310  32.8007520  41.6434190  77.0370610
  33.4019550  41.3374400  78.3923500  32.8621660  38.1599180  85.1010120
  32.4492840  38.9852890  85.3550110  32.1297610  37.5744220  84.9086480
  24.9954450  40.9459080  79.9628790  24.5911450  40.2336330  79.4674690
  25.0817570  40.6012320  80.8516830  25.4636150  44.6326640  82.1268000
  25.1664440  44.0272110  81.4475780  26.4135970  44.6703950  82.0157360
  23.7083070  37.7202290  83.7427830  24.2597660  37.8297630  82.9681080
  24.2226580  38.0939890  84.4583060  33.5521760  48.2058510  85.7891100
  33.0752320  49.0130700  85.5963710  32.8683550  47.5536840  85.9417310
  31.5959800  41.2201450  74.6917060  32.0353080  40.3823880  74.5454880
  32.3088220  41.8530850  74.7781200  29.7055180  46.1597520  78.6598300
  30.1451090  46.9021850  78.2453690  29.6442070  46.4024090  79.5837260
  35.1776940  32.4744260  73.0058100  34.8649600  32.5671090  73.9057170
  35.9389410  33.0525290  72.9555530  21.6959080  39.8404060  77.4635440
  21.5756680  40.5666150  76.8516710  21.3859970  39.0706970  76.9863350
  19.3344450  43.0119200  83.2704080  19.4124870  43.1467970  82.3259800
  19.9486130  42.3035090  83.4632200  20.5792080  44.7119390  79.6810260
  20.1720160  44.8533980  78.8263860  21.4705090  44.4279550  79.4781470
  32.3725360  49.1466640  76.0161310  32.2126500  48.8569580  76.9143140
  32.2072070  48.3706770  75.4806540  24.8513740  48.9265170  77.7932930
  24.6756220  48.0100710  77.5800730  23.9969480  49.2852460  78.0330730
  32.0751490  46.6554200  74.5759310  31.3816650  46.6531490  73.9161590
  32.8174350  46.2313520  74.1453480  31.6401420  48.2816910  78.6507800
  32.0958370  47.5006290  78.9646420  31.9793940  48.9923730  79.1948980
  19.3903970  44.0533370  85.8098540  19.5535010  43.5838730  84.9917910
  19.8556420  43.5456930  86.4747380  24.1622740  33.1839130  80.8459110
  23.7190890  33.9648670  80.5143630  24.7207730  33.5069020  81.5530050
  27.2781560  32.8049830  75.7264940  26.6535740  32.8009700  76.4518250
  27.1911680  31.9380790  75.3300910  26.1998640  33.7286460  82.7048710
  26.4970970  34.6349290  82.6240730  26.7484200  33.2405240  82.0908280
  23.9536960  38.3072700  78.5740360  23.7277880  38.0909870  79.4786980
  23.1729490  38.7401160  78.2286330  31.1834720  38.3136070  77.1731010
  30.5843610  39.0371870  76.9894630  31.7314330  38.2512850  76.3907460
  29.7899590  36.9499610  79.2034290  30.1829160  37.2671810  78.3902980
  30.1516440  36.0711490  79.3178810  18.8263760  33.5400410  81.4264490
  18.5376810  34.1103270  82.1389470  19.5709520  33.0604860  81.7895720
  19.0133990  37.4820530  72.6367210  18.9308660  38.4251290  72.7782200
  18.6617050  37.3395440  71.7579560  30.3754730  39.5405360  83.2985070
  29.6435850  40.0492170  83.6475170  29.9779070  38.7235340  82.9973850
  26.8132120  36.2159560  81.7037560  26.8168180  35.7749510  80.8542100
  27.7083240  36.5376890  81.8109380  22.6634500  36.0986050  80.6631770
  22.3234550  36.5761280  81.4198820  21.9011820  35.6451170  80.3032870
  26.8752270  37.2171640  74.6944320  26.9965090  37.1758120  75.6430140
  26.4900780  38.0795790  74.5391050  30.8380640  34.9939040  82.7108010
  30.8553380  35.4447690  83.5549860  30.5896220  34.0944680  82.9241450
  25.8873770  39.5272780  74.0927620  25.3190670  39.0791030  73.4663530
  26.5962770  39.8865560  73.5592770  27.1140090  40.2761340  83.4502970
  27.4810220  39.8019910  84.1964310  26.9245150  41.1502910  83.7911310
  19.9780580  35.0205030  79.5796440  19.6927500  34.6560700  80.4175060
  19.9159440  34.2885490  78.9659580  24.9039460  39.3169980  85.7687180
  24.5996530  40.1961960  85.9937540  25.8585920  39.3769770  85.8044620
  23.4321250  43.5230970  76.3654030  22.6583510  42.9828590  76.2052750
  24.1615880  43.0037580  76.0271790  34.1909230  42.5196330  82.1580420
  34.9108350  43.0151620  81.7676530  33.9891050  41.8414220  81.5134290
  29.6519170  33.9134290  76.3009810  28.8383780  33.4147460  76.2255120
  29.4581120  34.7532540  75.8846160  32.3667560  38.2853940  74.5971970
  33.2547180  38.5971170  74.4223310  32.3372650  37.4126190  74.2052550
  23.4758650  43.1911350  80.0032840  23.9937320  42.3879610  79.9489730
  23.0242670  43.1290490  80.8449670  28.3628150  44.4577630  75.2760140
  28.7043850  45.2019860  74.7803460  27.5340860  44.7708750  75.6384970
  34.6381830  39.5965780  74.0651830  34.5545550  40.0280000  73.2148270
  35.3576020  40.0564130  74.4978650  35.6669080  46.4508040  76.7933960
  35.0245240  45.7963660  77.0677680  35.2799740  46.8563130  76.0174630
  31.2455560  43.7793470  80.6405650  31.5979380  43.1821600  79.9807020
  30.3617890  43.4537700  80.8113900  27.3318840  44.5391160  78.0476060
  28.0189970  45.0860370  78.4283650  26.5451260  45.0831890  78.0825670
  19.4711240  40.1563980  73.5393140  20.3406090  40.4388780  73.8229060
  18.9801560  40.9699850  73.4241950  26.6346050  41.5437190  77.6601420
  27.0908830  42.3542440  77.8861610  26.2834260  41.2260330  78.4919910
  28.9378660  47.0543530  84.8893720  29.5820880  47.2602910  85.5667140
  29.3008100  46.2931930  84.4364570  22.5357830  31.8874840  78.1323940
  22.4072460  31.8792740  79.0808860  21.7119850  32.2257930  77.7814950
  30.2110740  45.0575880  83.6071170  30.8532970  44.3569040  83.7203340
  30.7360090  45.8374320  83.4268060  34.0566460  45.3424500  73.3310310
  33.8304040  44.6254940  73.9234950  33.6662660  45.0936940  72.4932060
  19.8382490  49.3691360  74.1054770  20.1980130  49.9680700  73.4512040
  19.6974830  49.9151250  74.8789800  33.6382710  43.2596440  74.9924470
  33.3504410  43.7209130  75.7802350  34.4334880  42.7994210  75.2608690
  25.8551110  46.7522560  74.9228440  25.8461210  47.4852250  74.3072950
  24.9349470  46.5054140  75.0155400  21.4557750  41.9737450  75.6675200
  20.8485700  42.7136350  75.6770500  21.9307100  42.0636810  74.8413400
  31.0290540  36.1388270  85.3432090  31.3971360  35.3183480  85.6711660
  30.1688740  36.1990160  85.7587740  34.3952570  35.0945210  76.1519650
  33.7665730  35.1990880  75.4377880  33.9004490  35.3141990  76.9413530
  28.8410710  46.8150800  73.5853630  28.9422690  46.6114790  72.6555610
  27.9412450  46.5609080  73.7901410  26.3636600  37.3731160  77.5677530
  25.6552750  37.8417500  78.0091140  26.6481080  36.7153170  78.2022720
  27.9892530  38.7927860  85.5670060  28.4877780  39.2673680  86.2321910
  28.1315480  37.8691380  85.7740090  30.3952030  34.0981820  79.0073320
  30.2719810  34.1167950  78.0582830  31.3436590  34.1460760  79.1271720
  27.4828820  49.3337120  78.2801300  27.7370320  49.2958510  77.3580670
  26.5341300  49.2070450  78.2729550  24.5671620  35.6816240  74.9428240
  25.4162150  36.1186390  74.8768430  24.2002890  35.9936500  75.7700300
  35.1959390  35.0095820  86.4098450  34.6932990  35.7501220  86.7492260
  36.0116050  35.3979820  86.0935240  33.4881400  40.2529000  79.8559810
  32.5471540  40.2679230  80.0307500  33.8025470  39.4664960  80.3020110
  23.4663040  41.9348600  73.4163770  24.2326310  41.8229960  73.9789200
  23.5437730  41.2386570  72.7640540  22.1609800  39.3673670  74.0996660
  22.2413390  38.4201180  74.2114060  23.0529550  39.6980550  74.2057320
  35.4906980  47.4237850  81.5314070  35.6154400  48.2469020  82.0037880
  36.3572540  47.2128580  81.1838220  22.9624510  49.5169060  81.2031200
  23.6986990  48.9684520  81.4739770  23.3465430  50.3825070  81.0637190
  19.8469990  45.5842630  77.0772710  18.9209770  45.8263770  77.0678120
  20.3126420  46.4116890  76.9557460  26.0726820  48.6899370  73.0256770
  26.8655430  48.9788200  72.5738560  25.5531170  48.2591540  72.3469250
  35.1256990  47.9169500  74.4493510  34.8398500  47.5034640  73.6347690
  34.9276540  48.8457210  74.3294030  26.5904220  43.9102780  72.8899120
  26.4854860  43.2955130  73.6160500  26.4228440  43.3868670  72.1062130
  29.8306950  42.9722810  73.4941110  29.2817050  43.4192110  74.1383850
  30.4526210  42.4672060  74.0178780  25.4982070  41.9313730  75.3906410
  25.9198490  41.7653600  76.2337800  25.6232910  41.1213960  74.8961550
  28.0109710  40.9551340  72.6383510  28.5315370  40.2400360  72.2724660
  28.6578110  41.5937210  72.9384020  26.9143230  33.4345890  85.3102070
  26.4660530  33.4570150  84.4647620  26.2808430  33.0364910  85.9072370
  27.3202780  42.3300220  85.9314510  27.7390890  43.1732950  85.7590750
  26.4011410  42.4672260  85.7021290  31.9954580  40.6153590  85.8914860
  31.4689800  41.1396210  85.2880000  32.3385920  41.2480980  86.5224590
  24.3940970  38.0046960  72.3364570  24.1930030  37.1414320  72.6977910
  24.2233020  37.9180320  71.3986170  31.8729280  32.8155190  74.8651450
  32.1531570  31.9723090  75.2210870  31.0995010  33.0478300  75.3790200
  23.1923770  35.1047580  72.3242450  23.4949670  35.1115010  71.4161600
  23.9318360  34.7545440  72.8210110  26.4108700  34.0482200  73.3098650
  26.0630700  33.3706190  72.7301100  26.6121470  33.5871710  74.1242040
  28.5757740  49.0362950  74.9285250  29.4708530  49.3747920  74.9504010
  28.6075370  48.3142360  74.3009530  22.2153900  44.4090000  73.1572250
  22.6528770  44.9519670  73.8129830  22.7001630  43.5836950  73.1668590
  19.4299700  47.1979030  80.6092510  19.7602710  46.3300090  80.3771150
  19.8590700  47.4037550  81.4397470  24.0261620  45.5288040  78.2694480
  23.7257160  45.4053010  79.1698390  23.9199110  44.6696630  77.8610210
  19.9189910  48.0649620  83.3474140  19.4820900  48.2450420  84.1798290
  20.4867590  48.8224240  83.2055860  36.7953540  45.3084440  72.9721160
  35.9646500  45.3761090  73.4428390  36.9725370  46.1988560  72.6688020
  36.2510000  42.0531920  75.4755360  37.0128910  42.6228570  75.5815050
  36.2664370  41.4859120  76.2463670  19.7514340  40.5769850  79.7063020
  19.0963180  40.3081490  79.0622720  20.5892290  40.4674330  79.2565000
  37.2569970  42.9082020  80.3197290  37.6278800  42.1249340  79.9133260
  37.8971900  43.5971120  80.1414590  34.2403730  44.2918600  85.7327610
  33.4263570  44.7215760  85.9953400  34.6477930  44.9037010  85.1196660
  36.3029170  42.3466290  72.6327880  36.5778010  43.2545170  72.5047100
  36.1139910  42.2828820  73.5689870  32.7004780  35.3711140  73.9281510
  33.1189660  35.1842120  73.0878170  32.3940840  34.5190190  74.2384440
  36.1994510  40.2835280  77.6257310  35.8238110  39.5163210  77.1938600
  35.4697630  40.6657980  78.1132240  20.7890270  40.9622420  84.2466360
  21.1563310  40.8749820  85.1262380  20.2201090  40.1988970  84.1473220
  18.9652420  37.7868780  75.6488350  18.0616500  38.0498980  75.4740010
  19.4493040  38.0579950  74.8688310  35.4745470  38.5092770  80.9264550
  35.9982950  38.0155420  80.2954720  36.0604890  38.6443130  81.6712120
  35.6535190  38.5932640  84.4484100  34.7037900  38.5596180  84.5629090
  35.8348200  39.5032750  84.2133870  21.5079630  36.8434320  73.5582730
  22.2171330  36.4217540  73.0730010  20.7919570  36.9109550  72.9266080
  21.1553790  32.8973650  72.5985380  21.8781920  33.4382590  72.9166600
  21.4278310  32.6237070  71.7226920  34.9645440  37.7666120  76.8656960
  35.4604560  37.5336990  77.6505840  34.7661510  36.9277960  76.4494600
  20.8445980  32.1479840  82.5008000  21.4922170  31.5977220  82.0603160
  21.2647820  32.4022990  83.3223810  36.3932600  36.4027070  79.3994640
  36.2831880  36.2483110  80.3376910  37.1540190  35.8748010  79.1570050
  34.7398320  32.3421200  85.8577640  35.3770540  32.9555340  86.2236830
  34.8873210  32.3781860  84.9126870  37.2822870  34.2334990  72.6400780
  38.2072180  34.1016170  72.4319070  37.2598660  34.3127810  73.5937230
  37.3561360  35.0045650  75.2657490  36.5612860  34.9390770  75.7950400
  37.5604640  35.9396290  75.2542840  34.2979780  49.0437200  79.2595880
  34.8938850  48.7221770  78.5830300  34.5557930  48.5709020  80.0509150
  20.5977980  32.3035510  85.2433320  20.2492800  32.7599330  86.0091500
  20.2665680  31.4092640  85.3255750  25.9048380  47.0314700  85.0096230
  25.6639740  47.2989260  84.1226750  26.8451020  47.2020430  85.0647090
  37.1652540  49.0509080  85.8106870  36.6710820  49.4477950  85.0934000
  36.5565830  48.4258290  86.2044150  31.4885400  31.7149590  84.7314320
  30.6145240  32.0484700  84.5287250  31.3796150  31.2422770  85.5566190
  32.3957380  33.9220460  86.1156040  32.0670740  33.1072220  85.7357770
  33.3439680  33.8790270  85.9921730  34.8491990  49.6932500  83.0893610
  34.3894960  50.4448310  82.7151630  34.2204450  48.9738970  83.0308410
  21.6742610  45.7875740  85.4792330  20.9476670  45.1681030  85.4118280
  21.7351760  46.1816350  84.6090410  25.2787710  48.0020740  82.2641740
  25.7952730  47.3908100  81.7390000  25.9285090  48.5049520  82.7552750
  28.0183210  48.8929230  83.0910720  28.3061020  48.6383530  82.2143730
  28.5306430  48.3406590  83.6816290  29.2360220  32.6319430  83.6707230
  28.4532010  33.1064930  83.9503990  28.9423150  31.7274260  83.5620410
  33.7881290  33.3342530  81.7156320  34.2289380  33.2787630  80.8677920
  33.5188880  34.2500540  81.7866500  35.6519860  32.9657770  79.7265140
  35.5908260  32.0218990  79.5796160  36.4311890  33.0737860  80.2718600
  19.9572610  49.1050130  78.6889090  19.7894650  48.4720810  79.3870980
  19.0907120  49.3109530  78.3383280  20.5800630  32.9366910  76.1920950
  21.3379990  33.0495790  75.6184980  20.1177800  33.7736110  76.1464380
  27.1214440  35.0506180  79.1823260  26.3088950  34.6763070  78.8419140
  27.6256080  34.2951260  79.4844450  31.6239420  31.7148630  80.4206330
  32.2268790  32.2868840  80.8954850  30.8832410  32.2788070  80.1980230
  34.7674020  32.1170190  75.6946610  34.9624650  33.0153640  75.9614040
  33.9803890  31.8857270  76.1879560  21.5635310  47.7983360  76.1339230
  21.0382930  48.1791390  75.4301190  21.4879890  48.4234130  76.8548940
  22.9525780  33.4630960  74.7322920  23.4818540  32.6760760  74.6030870
  23.5854100  34.1422150  74.9658450  25.1463620  33.2006100  77.7868310
  24.5166360  32.4993410  77.9538440  24.6068760  33.9610230  77.5701470
  36.3200630  49.3570900  77.4553170  36.4952820  48.6708640  76.8114090
  35.6222200  49.8817950  77.0629840  24.1628280  49.7465740  75.0088480
  24.8947100  49.4625020  74.4612370  24.4221950  49.5079020  75.8987860
  23.3243070  45.8630470  75.0134810  22.6951950  46.3315570  75.5620640
  23.4390900  45.0179690  75.4481000  28.9110830  41.6915150  63.0445280
  28.1352930  41.2115590  63.3343850  29.5623760  41.0120800  62.8701440
  22.9276660  42.0034960  63.9221040  22.0961540  41.7483670  64.3217550
  23.5357640  42.0745730  64.6578960  22.9077920  46.0375050  64.1179060
  23.2105960  45.1472790  63.9389280  23.6521510  46.5945270  63.8901310
  21.3368610  36.9636850  57.7063430  20.4485310  37.3052820  57.6043310
  21.6209800  36.7637170  56.8144260  19.3001620  39.5642500  63.5903130
  19.8717730  38.7964700  63.5906770  19.3003160  39.8631260  62.6809740
  20.5426490  34.9726860  65.3772060  20.3629330  34.0752610  65.6574820
  20.1406570  35.5198730  66.0519010  23.5130000  35.5468350  58.7401810
  23.6196750  36.4472080  59.0470570  22.6022360  35.4986320  58.4496460
  21.1613160  37.4687360  63.9854400  21.8423270  37.7325730  64.6041800
  20.8461210  36.6288230  64.3192410  25.3537730  38.5154720  63.0726990
  25.8615950  39.0135690  63.7132010  25.8850970  37.7389920  62.8966350
  37.4548660  36.6859910  66.7756340  36.7500830  37.0741620  66.2571450
  37.7206580  37.3810200  67.3777270  23.6373830  33.1553280  67.3390410
  23.6392270  33.6725670  66.5336310  22.8078140  32.6783460  67.3160340
  24.8876680  42.7948460  65.5163910  24.5546060  43.4217380  66.1584980
  25.0643360  43.3210340  64.7365580  23.3189160  34.8663240  65.3460860
  23.6605970  35.7105290  65.0514730  22.3804970  35.0146980  65.4626200
  24.0995780  44.7629260  67.3313090  24.7169780  45.4380340  67.0497540
  23.2388900  45.1717240  67.2400590  19.3928120  43.9529120  56.2119940
  19.0156100  44.4416220  55.4804840  19.6501190  44.6254400  56.8426470
  35.0173370  46.2268670  65.2467730  34.3336890  46.8967780  65.2384400
  35.5567660  46.4249320  64.4812590  31.9517550  42.9742640  65.2895520
  32.3686340  42.7602750  64.4548980  32.6757370  43.2315430  65.8604140
  35.8979650  41.3729860  65.3811760  35.0698280  41.4422950  64.9061890
  36.4930130  41.9584170  64.9127590  32.8621660  38.1599180  66.3266630
  32.4492840  38.9852890  66.5806620  32.1297610  37.5744220  66.1342990
  23.7083070  37.7202290  64.9684340  24.2597660  37.8297630  64.1937590
  24.2226580  38.0939890  65.6839570  33.5521760  48.2058510  67.0147610
  33.0752320  49.0130700  66.8220220  32.8683550  47.5536840  67.1673820
  24.5554580  44.3708330  70.0032310  23.6583110  44.5948300  70.2505710
  24.5807450  44.4943270  69.0543710  23.3825800  41.2421650  68.5789680
  23.2433570  42.1144450  68.9477080  22.5007160  40.8994460  68.4337620
  25.1806150  47.1843350  70.7874830  25.1521580  47.5886300  69.9203260
  25.0171120  46.2553710  70.6246430  21.6959080  39.8404060  58.6891950
  21.5756680  40.5666150  58.0773220  21.3859970  39.0706970  58.2119860
  37.1320970  47.9670450  72.0839000  37.6080690  48.4453340  72.7628080
  37.7528130  47.8987940  71.3584500  19.3344450  43.0119200  64.4960590
  19.4124870  43.1467970  63.5516310  19.9486130  42.3035090  64.6888710
  20.5792080  44.7119390  60.9066770  20.1720160  44.8533980  60.0520370
  21.4705090  44.4279550  60.7037980  36.5354220  45.1583300  69.2439010
  36.6617280  44.9195180  68.3256190  36.5775600  44.3267840  69.7161090
  30.3970960  48.8611300  67.8133820  30.9115630  48.7719310  68.6156250
  29.5540040  49.2071000  68.1061730  24.8513740  48.9265170  59.0189440
  24.6756220  48.0100710  58.8057240  23.9969480  49.2852460  59.2587240
  36.3878230  37.2115760  70.2088750  35.7722500  37.7195430  69.6804210
  36.0674650  36.3114090  70.1514690  19.3903970  44.0533370  67.0355050
  19.5535010  43.5838730  66.2174420  19.8556420  43.5456930  67.7003890
  24.1622740  33.1839130  62.0715620  23.7190890  33.9648670  61.7400140
  24.7207730  33.5069020  62.7786560  28.4492550  36.0507650  67.6750940
  27.9871920  36.2590670  68.4870880  28.0470660  35.2367000  67.3721610
  33.4497060  37.2716600  68.8047600  32.5990650  36.9722350  69.1256670
  33.2898850  37.5158610  67.8931420  30.5446770  38.7718350  70.9046390
  30.8700180  37.9382100  70.5648620  31.3327100  39.2946870  71.0524720
  26.1998640  33.7286460  63.9305220  26.4970970  34.6349290  63.8497240
  26.7484200  33.2405240  63.3164790  26.3936170  39.2058280  70.4657140
  26.2979770  38.2653010  70.3157540  27.2368150  39.4273350  70.0705210
  21.5246710  35.6171950  68.6190920  21.1310100  36.4647160  68.8263700
  20.8365110  34.9798320  68.8099560  28.0991760  35.7006920  71.6887660
  27.4090080  35.5079120  72.3233750  28.8424060  35.9841560  72.2211960
  18.8263760  33.5400410  62.6521000  18.5376810  34.1103270  63.3645980
  19.5709520  33.0604860  63.0152230  19.0133990  37.4820530  53.8623720
  18.9308660  38.4251290  54.0038710  18.6617050  37.3395440  52.9836070
  30.3754730  39.5405360  64.5241580  29.6435850  40.0492170  64.8731680
  29.9779070  38.7235340  64.2230360  22.6634500  36.0986050  61.8888280
  22.3234550  36.5761280  62.6455330  21.9011820  35.6451170  61.5289380
  34.2651390  32.4071220  69.7750900  34.5897160  31.6760880  70.3008880
  34.3007900  32.0884860  68.8731890  20.9642950  43.4284800  69.1950860
  20.5797740  42.7878470  69.7933820  21.2755140  44.1320920  69.7645590
  27.1140090  40.2761340  64.6759480  27.4810220  39.8019910  65.4220820
  26.9245150  41.1502910  65.0167820  19.9780580  35.0205030  60.8052950
  19.6927500  34.6560700  61.6431570  19.9159440  34.2885490  60.1916090
  24.9039460  39.3169980  66.9943690  24.5996530  40.1961960  67.2194050
  25.8585920  39.3769770  67.0301130  23.4321250  43.5230970  57.5910540
  22.6583510  42.9828590  57.4309260  24.1615880  43.0037580  57.2528300
  34.1909230  42.5196330  63.3836930  34.9108350  43.0151620  62.9933040
  33.9891050  41.8414220  62.7390800  29.5728030  42.5905390  69.2705930
  29.5065340  41.6701060  69.0163520  28.9433170  42.6880830  69.9850570
  23.4758650  43.1911350  61.2289350  23.9937320  42.3879610  61.1746240
  23.0242670  43.1290490  62.0706180  20.9603190  40.1572720  68.1415050
  20.6018130  40.8226570  68.7288390  20.6657750  39.3256270  68.5127670
  24.1616310  40.6156960  71.0254600  23.8616450  40.7614140  70.1282420
  24.9327550  40.0562250  70.9327990  29.5044760  45.4125960  69.0209730
  29.5189300  44.4806920  68.8028640  28.7969860  45.4985720  69.6599500
  35.7155970  42.0533300  68.3678310  34.9904160  42.6462080  68.1707700
  36.2431430  42.0456840  67.5691680  19.4711240  40.1563980  54.7649650
  20.3406090  40.4388780  55.0485570  18.9801560  40.9699850  54.6498460
  28.9378660  47.0543530  66.1150230  29.5820880  47.2602910  66.7923650
  29.3008100  46.2931930  65.6621080  22.5357830  31.8874840  59.3580450
  22.4072460  31.8792740  60.3065370  21.7119850  32.2257930  59.0071460
  30.2110740  45.0575880  64.8327680  30.8532970  44.3569040  64.9459850
  30.7360090  45.8374320  64.6524570  31.9848360  45.8570780  68.0363740
  32.3204600  46.4437470  68.7141660  31.0648700  45.7263490  68.2661530
  19.8382490  49.3691360  55.3311280  20.1980130  49.9680700  54.6768550
  19.6974830  49.9151250  56.1046310  19.5351760  33.6465960  68.8187150
  18.8210280  33.8462880  69.4239760  19.9546800  32.8705530  69.1901950
  19.8224350  47.6346220  69.8053680  19.9315470  46.6940960  69.6649070
  19.1704910  47.9000970  69.1567410  27.8136940  45.9062110  71.2051800
  27.4933810  45.1871350  71.7497490  27.1395300  46.5817180  71.2787860
  21.4557750  41.9737450  56.8931710  20.8485700  42.7136350  56.9027010
  21.9307100  42.0636810  56.0669910  31.0290540  36.1388270  66.5688600
  31.3971360  35.3183480  66.8968170  30.1688740  36.1990160  66.9844250
  27.9892530  38.7927860  66.7926570  28.4877780  39.2673680  67.4578420
  28.1315480  37.8691380  66.9996600  35.1959390  35.0095820  67.6354960
  34.6932990  35.7501220  67.9748770  36.0116050  35.3979820  67.3191750
  23.4663040  41.9348600  54.6420280  24.2326310  41.8229960  55.2045710
  23.5437730  41.2386570  53.9897050  22.1609800  39.3673670  55.3253170
  22.2413390  38.4201180  55.4370570  23.0529550  39.6980550  55.4313830
  22.9624510  49.5169060  62.4287710  23.6986990  48.9684520  62.6996280
  23.3465430  50.3825070  62.2893700  19.8469990  45.5842630  58.3029220
  18.9209770  45.8263770  58.2934630  20.3126420  46.4116890  58.1813970
  21.9682790  48.7015130  71.6173290  22.7695520  49.0227180  72.0308690
  21.4534610  48.3410710  72.3393200  30.8047420  44.8095000  71.5648700
  30.1985580  44.8326600  70.8244450  30.5001530  44.0778040  72.1015950
  32.2347790  48.5375290  70.1758110  33.1869540  48.4533310  70.1258350
  32.0876010  49.2017000  70.8491900  19.6880600  41.1888590  70.5609340
  20.1919620  40.6095870  71.1325570  18.9488020  41.4728820  71.0985710
  26.7418540  42.5959580  70.0944860  25.9764210  43.1644580  70.0099530
  26.9234500  42.3035790  69.2013090  33.8841890  44.3264910  70.6519880
  34.6251360  44.6640670  70.1487340  33.1214570  44.4956970  70.0989650
  21.7203680  39.3318180  71.4559410  21.7609020  39.0332050  72.3644640
  22.5749180  39.7325790  71.2966930  23.6609490  37.9110280  69.4233900
  23.1305950  37.4201230  68.7957240  24.3297560  38.3394480  68.8891830
  32.5587550  42.3779740  69.1875090  32.9728570  42.5324820  70.0365510
  31.6238550  42.5034960  69.3500870  33.0309720  39.7175900  71.1914240
  33.6130490  38.9628220  71.1034720  33.2071490  40.2483340  70.4145720
  24.1481790  34.8772650  69.5031190  24.0538660  34.2593400  68.7782060
  23.5679180  35.6038940  69.2761100  26.9143230  33.4345890  66.5358580
  26.4660530  33.4570150  65.6904130  26.2808430  33.0364910  67.1328880
  27.3202780  42.3300220  67.1571020  27.7390890  43.1732950  66.9847260
  26.4011410  42.4672260  66.9277800  29.6566680  40.0616400  68.5408860
  29.7762890  39.4657540  69.2803700  30.5160680  40.0986090  68.1210160
  31.9954580  40.6153590  67.1171370  31.4689800  41.1396210  66.5136510
  32.3385920  41.2480980  67.7481100  25.1710200  48.6353230  68.2728750
  24.6331290  49.3599290  67.9537450  25.4244160  48.1583570  67.4826090
  26.4235450  36.6037750  69.7984680  27.0135140  36.2953600  70.4862500
  25.6055690  36.1317500  69.9544580  31.2428880  36.2203560  70.0317700
  30.5544400  35.5585100  69.9667690  31.9634900  35.7741830  70.4766160
  23.1923770  35.1047580  53.5498960  23.4949670  35.1115010  52.6418110
  23.9318360  34.7545440  54.0466620  28.0272410  49.8704440  68.5315400
  27.9531110  50.7739580  68.8387770  27.1251250  49.5516340  68.5037470
  22.2153900  44.4090000  54.3828760  22.6528770  44.9519670  55.0386340
  22.7001630  43.5836950  54.3925100  19.4299700  47.1979030  61.8349020
  19.7602710  46.3300090  61.6027660  19.8590700  47.4037550  62.6653980
  24.0261620  45.5288040  59.4950990  23.7257160  45.4053010  60.3954900
  23.9199110  44.6696630  59.0866720  19.9189910  48.0649620  64.5730650
  19.4820900  48.2450420  65.4054800  20.4867590  48.8224240  64.4312370
  35.5552090  47.5666620  68.8607960  34.9554080  47.6259180  68.1171880
  35.6845990  46.6271600  68.9904810  19.7514340  40.5769850  60.9319530
  19.0963180  40.3081490  60.2879230  20.5892290  40.4674330  60.4821510
  34.2403730  44.2918600  66.9584120  33.4263570  44.7215760  67.2209910
  34.6477930  44.9037010  66.3453170  20.7890270  40.9622420  65.4722870
  21.1563310  40.8749820  66.3518890  20.2201090  40.1988970  65.3729730
  35.5894130  39.4306800  68.4853340  35.3580220  39.2019550  67.5851290
  35.8498680  40.3506350  68.4398230  20.3406270  37.8731510  69.3781290
  19.4462320  37.8398270  69.7175000  20.8803820  38.0718300  70.1432540
  34.0282200  34.6563230  71.2633040  34.9052380  34.6646630  71.6467040
  34.0403040  33.9194070  70.6525390  18.9652420  37.7868780  56.8744860
  18.0616500  38.0498980  56.6996520  19.4493040  38.0579950  56.0944820
  35.6535190  38.5932640  65.6740610  34.7037900  38.5596180  65.7885600
  35.8348200  39.5032750  65.4390380  21.5079630  36.8434320  54.7839240
  22.2171330  36.4217540  54.2986520  20.7919570  36.9109550  54.1522590
  21.1553790  32.8973650  53.8241890  21.8781920  33.4382590  54.1423110
  21.4278310  32.6237070  52.9483430  20.8445980  32.1479840  63.7264510
  21.4922170  31.5977220  63.2859670  21.2647820  32.4022990  64.5480320
  34.7398320  32.3421200  67.0834150  35.3770540  32.9555340  67.4493340
  34.8873210  32.3781860  66.1383380  20.5977980  32.3035510  66.4689830
  20.2492800  32.7599330  67.2348010  20.2665680  31.4092640  66.5512260
  22.2042350  45.4755110  70.6343020  22.1611980  45.1048020  71.5157480
  22.3353360  46.4132680  70.7744840  25.9048380  47.0314700  66.2352740
  25.6639740  47.2989260  65.3483260  26.8451020  47.2020430  66.2903600
  28.1102800  33.4947390  69.9909250  28.0491690  34.0869220  70.7404660
  29.0503180  33.3873350  69.8459510  30.7477360  33.1517450  69.6301540
  31.3617770  33.4696740  68.9682620  31.2926920  32.6666040  70.2497400
  37.1652540  49.0509080  67.0363380  36.6710820  49.4477950  66.3190510
  36.5565830  48.4258290  67.4300660  21.2698620  31.8311710  69.7440600
  21.8181610  31.6499760  68.9806710  21.3353930  31.0405820  70.2796910
  22.0430380  48.4217360  67.7540800  21.4490700  48.2902060  68.4930840
  22.0354220  47.5855500  67.2882900  31.4885400  31.7149590  65.9570830
  30.6145240  32.0484700  65.7543760  31.3796150  31.2422770  66.7822700
  32.3957380  33.9220460  67.3412550  32.0670740  33.1072220  66.9614280
  33.3439680  33.8790270  67.2178240  21.6742610  45.7875740  66.7048840
  20.9476670  45.1681030  66.6374790  21.7351760  46.1816350  65.8346920
  25.2787710  48.0020740  63.4898250  25.7952730  47.3908100  62.9646510
  25.9285090  48.5049520  63.9809260  28.0183210  48.8929230  64.3167230
  28.3061020  48.6383530  63.4400240  28.5306430  48.3406590  64.9072800
  29.2360220  32.6319430  64.8963740  28.4532010  33.1064930  65.1760500
  28.9423150  31.7274260  64.7876920  19.9572610  49.1050130  59.9145600
  19.7894650  48.4720810  60.6127490  19.0907120  49.3109530  59.5639790
  20.5800630  32.9366910  57.4177460  21.3379990  33.0495790  56.8441490
  20.1177800  33.7736110  57.3720890  21.5635310  47.7983360  57.3595740
  21.0382930  48.1791390  56.6557700  21.4879890  48.4234130  58.0805450
  22.9525780  33.4630960  55.9579430  23.4818540  32.6760760  55.8287380
  23.5854100  34.1422150  56.1914960  28.0855570  49.8145330  71.6835430
  29.0122880  49.5789600  71.7271390  28.0706000  50.6417330  71.2021460
  25.2719180  32.4790080  71.4477310  24.9903450  32.9823680  70.6838130
  25.6538880  31.6811830  71.0819440  24.1628280  49.7465740  56.2344990
  24.8947100  49.4625020  55.6868880  24.4221950  49.5079020  57.1244370
  31.8734640  31.8943660  72.0257780  31.7600090  32.2138270  72.9209300
  32.6904380  32.2956170  71.7295060  34.6533130  49.0415190  71.5076470
  35.4458450  48.5464420  71.3002430  34.9466280  49.7205330  72.1152080
  22.9276660  42.0034960  45.1477550  22.0961540  41.7483670  45.5474060
  23.5357640  42.0745730  45.8835470  22.9077920  46.0375050  45.3435570
  23.2105960  45.1472790  45.1645790  23.6521510  46.5945270  45.1157820
  21.3368610  36.9636850  38.9319940  20.4485310  37.3052820  38.8299820
  21.6209800  36.7637170  38.0400770  19.3001620  39.5642500  44.8159640
  19.8717730  38.7964700  44.8163280  19.3003160  39.8631260  43.9066250
  20.5426490  34.9726860  46.6028570  20.3629330  34.0752610  46.8831330
  20.1406570  35.5198730  47.2775520  21.1613160  37.4687360  45.2110910
  21.8423270  37.7325730  45.8298310  20.8461210  36.6288230  45.5448920
  23.6373830  33.1553280  48.5646920  23.6392270  33.6725670  47.7592820
  22.8078140  32.6783460  48.5416850  19.3928120  43.9529120  37.4376450
  19.0156100  44.4416220  36.7061350  19.6501190  44.6254400  38.0682980
  23.3825800  41.2421650  49.8046190  23.2433570  42.1144450  50.1733590
  22.5007160  40.8994460  49.6594130  21.6959080  39.8404060  39.9148460
  21.5756680  40.5666150  39.3029730  21.3859970  39.0706970  39.4376370
  19.3344450  43.0119200  45.7217100  19.4124870  43.1467970  44.7772820
  19.9486130  42.3035090  45.9145220  20.5792080  44.7119390  42.1323280
  20.1720160  44.8533980  41.2776880  21.4705090  44.4279550  41.9294490
  19.3903970  44.0533370  48.2611560  19.5535010  43.5838730  47.4430930
  19.8556420  43.5456930  48.9260400  21.5246710  35.6171950  49.8447430
  21.1310100  36.4647160  50.0520210  20.8365110  34.9798320  50.0356070
  18.8263760  33.5400410  43.8777510  18.5376810  34.1103270  44.5902490
  19.5709520  33.0604860  44.2408740  19.0133990  37.4820530  35.0880230
  18.9308660  38.4251290  35.2295220  18.6617050  37.3395440  34.2092580
  20.9642950  43.4284800  50.4207370  20.5797740  42.7878470  51.0190330
  21.2755140  44.1320920  50.9902100  19.9780580  35.0205030  42.0309460
  19.6927500  34.6560700  42.8688080  19.9159440  34.2885490  41.4172600
  20.9603190  40.1572720  49.3671560  20.6018130  40.8226570  49.9544900
  20.6657750  39.3256270  49.7384180  19.4711240  40.1563980  35.9906160
  20.3406090  40.4388780  36.2742080  18.9801560  40.9699850  35.8754970
  22.5357830  31.8874840  40.5836960  22.4072460  31.8792740  41.5321880
  21.7119850  32.2257930  40.2327970  19.8382490  49.3691360  36.5567790
  20.1980130  49.9680700  35.9025060  19.6974830  49.9151250  37.3302820
  19.5351760  33.6465960  50.0443660  18.8210280  33.8462880  50.6496270
  19.9546800  32.8705530  50.4158460  19.8224350  47.6346220  51.0310190
  19.9315470  46.6940960  50.8905580  19.1704910  47.9000970  50.3823920
  21.4557750  41.9737450  38.1188220  20.8485700  42.7136350  38.1283520
  21.9307100  42.0636810  37.2926420  19.8469990  45.5842630  39.5285730
  18.9209770  45.8263770  39.5191140  20.3126420  46.4116890  39.4070480
  21.9682790  48.7015130  52.8429800  22.7695520  49.0227180  53.2565200
  21.4534610  48.3410710  53.5649710  19.6880600  41.1888590  51.7865850
  20.1919620  40.6095870  52.3582080  18.9488020  41.4728820  52.3242220
  21.7203680  39.3318180  52.6815920  21.7609020  39.0332050  53.5901150
  22.5749180  39.7325790  52.5223440  23.6609490  37.9110280  50.6490410
  23.1305950  37.4201230  50.0213750  24.3297560  38.3394480  50.1148340
  19.4299700  47.1979030  43.0605530  19.7602710  46.3300090  42.8284170
  19.8590700  47.4037550  43.8910490  19.9189910  48.0649620  45.7987160
  19.4820900  48.2450420  46.6311310  20.4867590  48.8224240  45.6568880
  19.7514340  40.5769850  42.1576040  19.0963180  40.3081490  41.5135740
  20.5892290  40.4674330  41.7078020  20.7890270  40.9622420  46.6979380
  21.1563310  40.8749820  47.5775400  20.2201090  40.1988970  46.5986240
  20.3406270  37.8731510  50.6037800  19.4462320  37.8398270  50.9431510
  20.8803820  38.0718300  51.3689050  18.9652420  37.7868780  38.1001370
  18.0616500  38.0498980  37.9253030  19.4493040  38.0579950  37.3201330
  21.1553790  32.8973650  35.0498400  21.8781920  33.4382590  35.3679620
  21.4278310  32.6237070  34.1739940  20.8445980  32.1479840  44.9521020
  21.4922170  31.5977220  44.5116180  21.2647820  32.4022990  45.7736830
  20.5977980  32.3035510  47.6946340  20.2492800  32.7599330  48.4604520
  20.2665680  31.4092640  47.7768770  22.2042350  45.4755110  51.8599530
  22.1611980  45.1048020  52.7413990  22.3353360  46.4132680  52.0001350
  21.2698620  31.8311710  50.9697110  21.8181610  31.6499760  50.2063220
  21.3353930  31.0405820  51.5053420  22.0430380  48.4217360  48.9797310
  21.4490700  48.2902060  49.7187350  22.0354220  47.5855500  48.5139410
  21.6742610  45.7875740  47.9305350  20.9476670  45.1681030  47.8631300
  21.7351760  46.1816350  47.0603430  19.9572610  49.1050130  41.1402110
  19.7894650  48.4720810  41.8384000  19.0907120  49.3109530  40.7896300
  20.5800630  32.9366910  38.6433970  21.3379990  33.0495790  38.0698000
  20.1177800  33.7736110  38.5977400  21.5635310  47.7983360  38.5852250
  21.0382930  48.1791390  37.8814210  21.4879890  48.4234130  39.3061960
  21.3368610  36.9636850  20.1576450  20.4485310  37.3052820  20.0556330
  21.6209800  36.7637170  19.2657280  19.3001620  39.5642500  26.0416150
  19.8717730  38.7964700  26.0419790  19.3003160  39.8631260  25.1322760
  20.5426490  34.9726860  27.8285080  20.3629330  34.0752610  28.1087840
  20.1406570  35.5198730  28.5032030  23.5130000  35.5468350  21.1914830
  23.6196750  36.4472080  21.4983590  22.6022360  35.4986320  20.9009480
  23.6373830  33.1553280  29.7903430  23.6392270  33.6725670  28.9849330
  22.8078140  32.6783460  29.7673360  30.0244920  43.2672590  21.2893330
  29.4062190  43.7322040  20.7256050  30.5368170  43.9600070  21.7062840
  19.3928120  43.9529120  18.6632960  19.0156100  44.4416220  17.9317860
  19.6501190  44.6254400  19.2939490  29.3897810  40.4194340  20.8578590
  28.4627090  40.3531720  21.0867060  29.5422630  41.3574470  20.7433830
  29.3766890  36.6911340  17.8545750  28.4370560  36.8525300  17.9398210
  29.6950150  37.4097020  17.3081740  31.5959800  41.2201450  18.3686590
  32.0353080  40.3823880  18.2224410  32.3088220  41.8530850  18.4550730
  35.1776940  32.4744260  16.6827630  34.8649600  32.5671090  17.5826700
  35.9389410  33.0525290  16.6325060  21.6959080  39.8404060  21.1404970
  21.5756680  40.5666150  20.5286240  21.3859970  39.0706970  20.6632880
  19.3344450  43.0119200  26.9473610  19.4124870  43.1467970  26.0029330
  19.9486130  42.3035090  27.1401730  20.5792080  44.7119390  23.3579790
  20.1720160  44.8533980  22.5033390  21.4705090  44.4279550  23.1551000
  32.3725360  49.1466640  19.6930840  32.2126500  48.8569580  20.5912670
  32.2072070  48.3706770  19.1576070  24.8513740  48.9265170  21.4702460
  24.6756220  48.0100710  21.2570260  23.9969480  49.2852460  21.7100260
  32.0751490  46.6554200  18.2528840  31.3816650  46.6531490  17.5931120
  32.8174350  46.2313520  17.8223010  19.3903970  44.0533370  29.4868070
  19.5535010  43.5838730  28.6687440  19.8556420  43.5456930  30.1516910
  24.1622740  33.1839130  24.5228640  23.7190890  33.9648670  24.1913160
  24.7207730  33.5069020  25.2299580  27.2781560  32.8049830  19.4034470
  26.6535740  32.8009700  20.1287780  27.1911680  31.9380790  19.0070440
  23.9536960  38.3072700  22.2509890  23.7277880  38.0909870  23.1556510
  23.1729490  38.7401160  21.9055860  31.1834720  38.3136070  20.8500540
  30.5843610  39.0371870  20.6664160  31.7314330  38.2512850  20.0676990
  29.7899590  36.9499610  22.8803820  30.1829160  37.2671810  22.0672510
  30.1516440  36.0711490  22.9948340  18.8263760  33.5400410  25.1034020
  18.5376810  34.1103270  25.8159000  19.5709520  33.0604860  25.4665250
  19.0133990  37.4820530  16.3136740  18.9308660  38.4251290  16.4551730
  18.6617050  37.3395440  15.4349090  26.8752270  37.2171640  18.3713850
  26.9965090  37.1758120  19.3199670  26.4900780  38.0795790  18.2160580
  25.8873770  39.5272780  17.7697150  25.3190670  39.0791030  17.1433060
  26.5962770  39.8865560  17.2362300  20.9642950  43.4284800  31.6463880
  20.5797740  42.7878470  32.2446840  21.2755140  44.1320920  32.2158610
  19.9780580  35.0205030  23.2565970  19.6927500  34.6560700  24.0944590
  19.9159440  34.2885490  22.6429110  23.4321250  43.5230970  20.0423560
  22.6583510  42.9828590  19.8822280  24.1615880  43.0037580  19.7041320
  29.6519170  33.9134290  19.9779340  28.8383780  33.4147460  19.9024650
  29.4581120  34.7532540  19.5615690  32.3667560  38.2853940  18.2741500
  33.2547180  38.5971170  18.0992840  32.3372650  37.4126190  17.8822080
  28.3628150  44.4577630  18.9529670  28.7043850  45.2019860  18.4572990
  27.5340860  44.7708750  19.3154500  20.9603190  40.1572720  30.5928070
  20.6018130  40.8226570  31.1801410  20.6657750  39.3256270  30.9640690
  34.6381830  39.5965780  17.7421360  34.5545550  40.0280000  16.8917800
  35.3576020  40.0564130  18.1748180  35.6669080  46.4508040  20.4703490
  35.0245240  45.7963660  20.7447210  35.2799740  46.8563130  19.6944160
  27.3318840  44.5391160  21.7245590  28.0189970  45.0860370  22.1053180
  26.5451260  45.0831890  21.7595200  19.4711240  40.1563980  17.2162670
  20.3406090  40.4388780  17.4998590  18.9801560  40.9699850  17.1011480
  26.6346050  41.5437190  21.3370950  27.0908830  42.3542440  21.5631140
  26.2834260  41.2260330  22.1689440  22.5357830  31.8874840  21.8093470
  22.4072460  31.8792740  22.7578390  21.7119850  32.2257930  21.4584480
  34.0566460  45.3424500  17.0079840  33.8304040  44.6254940  17.6004480
  33.6662660  45.0936940  16.1701590  19.8382490  49.3691360  17.7824300
  20.1980130  49.9680700  17.1281570  19.6974830  49.9151250  18.5559330
  19.5351760  33.6465960  31.2700170  18.8210280  33.8462880  31.8752780
  19.9546800  32.8705530  31.6414970  33.6382710  43.2596440  18.6694000
  33.3504410  43.7209130  19.4571880  34.4334880  42.7994210  18.9378220
  19.8224350  47.6346220  32.2566700  19.9315470  46.6940960  32.1162090
  19.1704910  47.9000970  31.6080430  25.8551110  46.7522560  18.5997970
  25.8461210  47.4852250  17.9842480  24.9349470  46.5054140  18.6924930
  21.4557750  41.9737450  19.3444730  20.8485700  42.7136350  19.3540030
  21.9307100  42.0636810  18.5182930  34.3952570  35.0945210  19.8289180
  33.7665730  35.1990880  19.1147410  33.9004490  35.3141990  20.6183060
  28.8410710  46.8150800  17.2623160  28.9422690  46.6114790  16.3325140
  27.9412450  46.5609080  17.4670940  26.3636600  37.3731160  21.2447060
  25.6552750  37.8417500  21.6860670  26.6481080  36.7153170  21.8792250
  27.4828820  49.3337120  21.9570830  27.7370320  49.2958510  21.0350200
  26.5341300  49.2070450  21.9499080  24.5671620  35.6816240  18.6197770
  25.4162150  36.1186390  18.5537960  24.2002890  35.9936500  19.4469830
  23.4663040  41.9348600  17.0933300  24.2326310  41.8229960  17.6558730
  23.5437730  41.2386570  16.4410070  22.1609800  39.3673670  17.7766190
  22.2413390  38.4201180  17.8883590  23.0529550  39.6980550  17.8826850
  19.8469990  45.5842630  20.7542240  18.9209770  45.8263770  20.7447650
  20.3126420  46.4116890  20.6326990  26.0726820  48.6899370  16.7026300
  26.8655430  48.9788200  16.2508090  25.5531170  48.2591540  16.0238780
  35.1256990  47.9169500  18.1263040  34.8398500  47.5034640  17.3117220
  34.9276540  48.8457210  18.0063560  19.6880600  41.1888590  33.0122360
  20.1919620  40.6095870  33.5838590  18.9488020  41.4728820  33.5498730
  26.5904220  43.9102780  16.5668650  26.4854860  43.2955130  17.2930030
  26.4228440  43.3868670  15.7831660  29.8306950  42.9722810  17.1710640
  29.2817050  43.4192110  17.8153380  30.4526210  42.4672060  17.6948310
  25.4982070  41.9313730  19.0675940  25.9198490  41.7653600  19.9107330
  25.6232910  41.1213960  18.5731080  28.0109710  40.9551340  16.3153040
  28.5315370  40.2400360  15.9494190  28.6578110  41.5937210  16.6153550
  24.3940970  38.0046960  16.0134100  24.1930030  37.1414320  16.3747440
  24.2233020  37.9180320  15.0755700  31.8729280  32.8155190  18.5420980
  32.1531570  31.9723090  18.8980400  31.0995010  33.0478300  19.0559730
  23.1923770  35.1047580  16.0011980  23.4949670  35.1115010  15.0931130
  23.9318360  34.7545440  16.4979640  26.4108700  34.0482200  16.9868180
  26.0630700  33.3706190  16.4070630  26.6121470  33.5871710  17.8011570
  28.5757740  49.0362950  18.6054780  29.4708530  49.3747920  18.6273540
  28.6075370  48.3142360  17.9779060  22.2153900  44.4090000  16.8341780
  22.6528770  44.9519670  17.4899360  22.7001630  43.5836950  16.8438120
  19.4299700  47.1979030  24.2862040  19.7602710  46.3300090  24.0540680
  19.8590700  47.4037550  25.1167000  24.0261620  45.5288040  21.9464010
  23.7257160  45.4053010  22.8467920  23.9199110  44.6696630  21.5379740
  19.9189910  48.0649620  27.0243670  19.4820900  48.2450420  27.8567820
  20.4867590  48.8224240  26.8825390  36.7953540  45.3084440  16.6490690
  35.9646500  45.3761090  17.1197920  36.9725370  46.1988560  16.3457550
  36.2510000  42.0531920  19.1524890  37.0128910  42.6228570  19.2584580
  36.2664370  41.4859120  19.9233200  19.7514340  40.5769850  23.3832550
  19.0963180  40.3081490  22.7392250  20.5892290  40.4674330  22.9334530
  36.3029170  42.3466290  16.3097410  36.5778010  43.2545170  16.1816630
  36.1139910  42.2828820  17.2459400  32.7004780  35.3711140  17.6051040
  33.1189660  35.1842120  16.7647700  32.3940840  34.5190190  17.9153970
  18.9652420  37.7868780  19.3257880  18.0616500  38.0498980  19.1509540
  19.4493040  38.0579950  18.5457840  21.5079630  36.8434320  17.2352260
  22.2171330  36.4217540  16.7499540  20.7919570  36.9109550  16.6035610
  21.1553790  32.8973650  16.2754910  21.8781920  33.4382590  16.5936130
  21.4278310  32.6237070  15.3996450  34.9645440  37.7666120  20.5426490
  35.4604560  37.5336990  21.3275370  34.7661510  36.9277960  20.1264130
  20.8445980  32.1479840  26.1777530  21.4922170  31.5977220  25.7372690
  21.2647820  32.4022990  26.9993340  37.2822870  34.2334990  16.3170310
  38.2072180  34.1016170  16.1088600  37.2598660  34.3127810  17.2706760
  37.3561360  35.0045650  18.9427020  36.5612860  34.9390770  19.4719930
  37.5604640  35.9396290  18.9312370  20.5977980  32.3035510  28.9202850
  20.2492800  32.7599330  29.6861030  20.2665680  31.4092640  29.0025280
  21.2698620  31.8311710  32.1953620  21.8181610  31.6499760  31.4319730
  21.3353930  31.0405820  32.7309930  21.6742610  45.7875740  29.1561860
  20.9476670  45.1681030  29.0887810  21.7351760  46.1816350  28.2859940
  19.9572610  49.1050130  22.3658620  19.7894650  48.4720810  23.0640510
  19.0907120  49.3109530  22.0152810  20.5800630  32.9366910  19.8690480
  21.3379990  33.0495790  19.2954510  20.1177800  33.7736110  19.8233910
  27.1214440  35.0506180  22.8592790  26.3088950  34.6763070  22.5188670
  27.6256080  34.2951260  23.1613980  34.7674020  32.1170190  19.3716140
  34.9624650  33.0153640  19.6383570  33.9803890  31.8857270  19.8649090
  21.5635310  47.7983360  19.8108760  21.0382930  48.1791390  19.1070720
  21.4879890  48.4234130  20.5318470  22.9525780  33.4630960  18.4092450
  23.4818540  32.6760760  18.2800400  23.5854100  34.1422150  18.6427980
  25.1463620  33.2006100  21.4637840  24.5166360  32.4993410  21.6307970
  24.6068760  33.9610230  21.2471000  36.3200630  49.3570900  21.1322700
  36.4952820  48.6708640  20.4883620  35.6222200  49.8817950  20.7399370
  24.1628280  49.7465740  18.6858010  24.8947100  49.4625020  18.1381900
  24.4221950  49.5079020  19.5757390  23.3243070  45.8630470  18.6904340
  22.6951950  46.3315570  19.2390170  23.4390900  45.0179690  19.1250530
  30.7792790  39.9136130   4.8405540  30.6986840  38.9990740   4.5697250
  30.3657210  40.4103200   4.1345250  28.9110830  41.6915150   6.7214810
  28.1352930  41.2115590   7.0113380  29.5623760  41.0120800   6.5470970
  22.9276660  42.0034960   7.5990570  22.0961540  41.7483670   7.9987080
  23.5357640  42.0745730   8.3348490  32.9318260  46.0975340   5.5013940
  32.4699790  45.3262580   5.8301110  33.7443810  46.1241410   6.0066390
  22.9077920  46.0375050   7.7948590  23.2105960  45.1472790   7.6158810
  23.6521510  46.5945270   7.5670840  19.3001620  39.5642500   7.2672660
  19.8717730  38.7964700   7.2676300  19.3003160  39.8631260   6.3579270
  29.1581570  48.3833350   5.1217930  28.5393010  48.8390850   4.5512370
  30.0133350  48.5384810   4.7207630  28.3519820  44.3672340   6.7284970
  28.2828100  43.4262280   6.5674100  29.1139680  44.4573750   7.3007540
  20.5426490  34.9726860   9.0541590  20.3629330  34.0752610   9.3344350
  20.1406570  35.5198730   9.7288540  29.3824990  37.1742720   6.9553900
  29.7589810  36.3014600   6.8427570  29.2844500  37.5101420   6.0644340
  23.5130000  35.5468350   2.4171340  23.6196750  36.4472080   2.7240100
  22.6022360  35.4986320   2.1265990  33.1649110  34.6693160   3.8882240
  33.9858730  34.1789730   3.9307720  33.1983190  35.2590820   4.6414080
  21.1613160  37.4687360   7.6623930  21.8423270  37.7325730   8.2811330
  20.8461210  36.6288230   7.9961940  25.3537730  38.5154720   6.7496520
  25.8615950  39.0135690   7.3901540  25.8850970  37.7389920   6.5735880
  37.4548660  36.6859910  10.4525870  36.7500830  37.0741620   9.9340980
  37.7206580  37.3810200  11.0546800  23.6373830  33.1553280  11.0159940
  23.6392270  33.6725670  10.2105840  22.8078140  32.6783460  10.9929870
  30.0244920  43.2672590   2.5149840  29.4062190  43.7322040   1.9512560
  30.5368170  43.9600070   2.9319350  24.8876680  42.7948460   9.1933440
  24.5546060  43.4217380   9.8354510  25.0643360  43.3210340   8.4135110
  33.4010590  36.6093540   6.6609780  32.6966160  36.8978430   7.2412890
  33.7622750  37.4193650   6.3009340  23.3189160  34.8663240   9.0230390
  23.6605970  35.7105290   8.7284260  22.3804970  35.0146980   9.1395730
  24.0995780  44.7629260  11.0082620  24.7169780  45.4380340  10.7267070
  23.2388900  45.1717240  10.9170120  35.0173370  46.2268670   8.9237260
  34.3336890  46.8967780   8.9153930  35.5567660  46.4249320   8.1582120
  36.4697510  36.0548330   7.0518990  35.5222420  36.0887310   7.1834420
  36.7947500  36.8687280   7.4368350  27.0017050  32.3545510   5.3474980
  27.3092030  31.7992400   4.6310480  26.0717750  32.4889970   5.1647970
  32.5532110  48.0712800   7.6382440  32.5659270  47.6675090   6.7704700
  32.0007330  48.8460090   7.5343870  33.8477530  44.7929020   2.7272610
  33.7373860  43.8503350   2.8522030  33.8445780  45.1544660   3.6135370
  31.9517550  42.9742640   8.9665050  32.3686340  42.7602750   8.1318510
  32.6757370  43.2315430   9.5373670  29.3897810  40.4194340   2.0835100
  28.4627090  40.3531720   2.3123570  29.5422630  41.3574470   1.9690340
  35.8979650  41.3729860   9.0581290  35.0698280  41.4422950   8.5831420
  36.4930130  41.9584170   8.5897120  33.4195100  41.9814640   2.5870350
  32.8007520  41.6434190   1.9396650  33.4019550  41.3374400   3.2949540
  32.8621660  38.1599180  10.0036160  32.4492840  38.9852890  10.2576150
  32.1297610  37.5744220   9.8112520  24.9954450  40.9459080   4.8654830
  24.5911450  40.2336330   4.3700730  25.0817570  40.6012320   5.7542870
  25.4636150  44.6326640   7.0294040  25.1664440  44.0272110   6.3501820
  26.4135970  44.6703950   6.9183400  23.7083070  37.7202290   8.6453870
  24.2597660  37.8297630   7.8707120  24.2226580  38.0939890   9.3609100
  33.5521760  48.2058510  10.6917140  33.0752320  49.0130700  10.4989750
  32.8683550  47.5536840  10.8443350  24.5554580  44.3708330  13.6801840
  23.6583110  44.5948300  13.9275240  24.5807450  44.4943270  12.7313240
  23.3825800  41.2421650  12.2559210  23.2433570  42.1144450  12.6246610
  22.5007160  40.8994460  12.1107150  29.7055180  46.1597520   3.5624340
  30.1451090  46.9021850   3.1479730  29.6442070  46.4024090   4.4863300
  25.1806150  47.1843350  14.4644360  25.1521580  47.5886300  13.5972790
  25.0171120  46.2553710  14.3015960  21.6959080  39.8404060   2.3661480
  21.5756680  40.5666150   1.7542750  21.3859970  39.0706970   1.8889390
  37.1320970  47.9670450  15.7608530  37.6080690  48.4453340  16.4397610
  37.7528130  47.8987940  15.0354030  19.3344450  43.0119200   8.1730120
  19.4124870  43.1467970   7.2285840  19.9486130  42.3035090   8.3658240
  20.5792080  44.7119390   4.5836300  20.1720160  44.8533980   3.7289900
  21.4705090  44.4279550   4.3807510  36.5354220  45.1583300  12.9208540
  36.6617280  44.9195180  12.0025720  36.5775600  44.3267840  13.3930620
  30.3970960  48.8611300  11.4903350  30.9115630  48.7719310  12.2925780
  29.5540040  49.2071000  11.7831260  24.8513740  48.9265170   2.6958970
  24.6756220  48.0100710   2.4826770  23.9969480  49.2852460   2.9356770
  31.6401420  48.2816910   3.5533840  32.0958370  47.5006290   3.8672460
  31.9793940  48.9923730   4.0975020  36.3878230  37.2115760  13.8858280
  35.7722500  37.7195430  13.3573740  36.0674650  36.3114090  13.8284220
  19.3903970  44.0533370  10.7124580  19.5535010  43.5838730   9.8943950
  19.8556420  43.5456930  11.3773420  24.1622740  33.1839130   5.7485150
  23.7190890  33.9648670   5.4169670  24.7207730  33.5069020   6.4556090
  28.4492550  36.0507650  11.3520470  27.9871920  36.2590670  12.1640410
  28.0470660  35.2367000  11.0491140  33.4497060  37.2716600  12.4817130
  32.5990650  36.9722350  12.8026200  33.2898850  37.5158610  11.5700950
  30.5446770  38.7718350  14.5815920  30.8700180  37.9382100  14.2418150
  31.3327100  39.2946870  14.7294250  26.1998640  33.7286460   7.6074750
  26.4970970  34.6349290   7.5266770  26.7484200  33.2405240   6.9934320
  23.9536960  38.3072700   3.4766400  23.7277880  38.0909870   4.3813020
  23.1729490  38.7401160   3.1312370  31.1834720  38.3136070   2.0757050
  30.5843610  39.0371870   1.8920670  31.7314330  38.2512850   1.2933500
  26.3936170  39.2058280  14.1426670  26.2979770  38.2653010  13.9927070
  27.2368150  39.4273350  13.7474740  29.7899590  36.9499610   4.1060330
  30.1829160  37.2671810   3.2929020  30.1516440  36.0711490   4.2204850
  21.5246710  35.6171950  12.2960450  21.1310100  36.4647160  12.5033230
  20.8365110  34.9798320  12.4869090  28.0991760  35.7006920  15.3657190
  27.4090080  35.5079120  16.0003280  28.8424060  35.9841560  15.8981490
  18.8263760  33.5400410   6.3290530  18.5376810  34.1103270   7.0415510
  19.5709520  33.0604860   6.6921760  30.3754730  39.5405360   8.2011110
  29.6435850  40.0492170   8.5501210  29.9779070  38.7235340   7.8999890
  26.8132120  36.2159560   6.6063600  26.8168180  35.7749510   5.7568140
  27.7083240  36.5376890   6.7135420  22.6634500  36.0986050   5.5657810
  22.3234550  36.5761280   6.3224860  21.9011820  35.6451170   5.2058910
  30.8380640  34.9939040   7.6134050  30.8553380  35.4447690   8.4575900
  30.5896220  34.0944680   7.8267490  34.2651390  32.4071220  13.4520430
  34.5897160  31.6760880  13.9778410  34.3007900  32.0884860  12.5501420
  20.9642950  43.4284800  12.8720390  20.5797740  42.7878470  13.4703350
  21.2755140  44.1320920  13.4415120  27.1140090  40.2761340   8.3529010
  27.4810220  39.8019910   9.0990350  26.9245150  41.1502910   8.6937350
  19.9780580  35.0205030   4.4822480  19.6927500  34.6560700   5.3201100
  19.9159440  34.2885490   3.8685620  24.9039460  39.3169980  10.6713220
  24.5996530  40.1961960  10.8963580  25.8585920  39.3769770  10.7070660
  34.1909230  42.5196330   7.0606460  34.9108350  43.0151620   6.6702570
  33.9891050  41.8414220   6.4160330  29.5728030  42.5905390  12.9475460
  29.5065340  41.6701060  12.6933050  28.9433170  42.6880830  13.6620100
  23.4758650  43.1911350   4.9058880  23.9937320  42.3879610   4.8515770
  23.0242670  43.1290490   5.7475710  20.9603190  40.1572720  11.8184580
  20.6018130  40.8226570  12.4057920  20.6657750  39.3256270  12.1897200
  24.1616310  40.6156960  14.7024130  23.8616450  40.7614140  13.8051950
  24.9327550  40.0562250  14.6097520  29.5044760  45.4125960  12.6979260
  29.5189300  44.4806920  12.4798170  28.7969860  45.4985720  13.3369030
  35.7155970  42.0533300  12.0447840  34.9904160  42.6462080  11.8477230
  36.2431430  42.0456840  11.2461210  31.2455560  43.7793470   5.5431690
  31.5979380  43.1821600   4.8833060  30.3617890  43.4537700   5.7139940
  27.3318840  44.5391160   2.9502100  28.0189970  45.0860370   3.3309690
  26.5451260  45.0831890   2.9851710  26.6346050  41.5437190   2.5627460
  27.0908830  42.3542440   2.7887650  26.2834260  41.2260330   3.3945950
  28.9378660  47.0543530   9.7919760  29.5820880  47.2602910  10.4693180
  29.3008100  46.2931930   9.3390610  22.5357830  31.8874840   3.0349980
  22.4072460  31.8792740   3.9834900  21.7119850  32.2257930   2.6840990
  30.2110740  45.0575880   8.5097210  30.8532970  44.3569040   8.6229380
  30.7360090  45.8374320   8.3294100  31.9848360  45.8570780  11.7133270
  32.3204600  46.4437470  12.3911190  31.0648700  45.7263490  11.9431060
  19.5351760  33.6465960  12.4956680  18.8210280  33.8462880  13.1009290
  19.9546800  32.8705530  12.8671480  19.8224350  47.6346220  13.4823210
  19.9315470  46.6940960  13.3418600  19.1704910  47.9000970  12.8336940
  27.8136940  45.9062110  14.8821330  27.4933810  45.1871350  15.4267020
  27.1395300  46.5817180  14.9557390  31.0290540  36.1388270  10.2458130
  31.3971360  35.3183480  10.5737700  30.1688740  36.1990160  10.6613780
  26.3636600  37.3731160   2.4703570  25.6552750  37.8417500   2.9117180
  26.6481080  36.7153170   3.1048760  27.9892530  38.7927860  10.4696100
  28.4877780  39.2673680  11.1347950  28.1315480  37.8691380  10.6766130
  30.3952030  34.0981820   3.9099360  30.2719810  34.1167950   2.9608870
  31.3436590  34.1460760   4.0297760  27.4828820  49.3337120   3.1827340
  27.7370320  49.2958510   2.2606710  26.5341300  49.2070450   3.1755590
  35.1959390  35.0095820  11.3124490  34.6932990  35.7501220  11.6518300
  36.0116050  35.3979820  10.9961280  33.4881400  40.2529000   4.7585850
  32.5471540  40.2679230   4.9333540  33.8025470  39.4664960   5.2046150
  35.4906980  47.4237850   6.4340110  35.6154400  48.2469020   6.9063920
  36.3572540  47.2128580   6.0864260  22.9624510  49.5169060   6.1057240
  23.6986990  48.9684520   6.3765810  23.3465430  50.3825070   5.9663230
  19.8469990  45.5842630   1.9798750  18.9209770  45.8263770   1.9704160
  20.3126420  46.4116890   1.8583500  21.9682790  48.7015130  15.2942820
  22.7695520  49.0227180  15.7078220  21.4534610  48.3410710  16.0162730
  30.8047420  44.8095000  15.2418230  30.1985580  44.8326600  14.5013980
  30.5001530  44.0778040  15.7785480  32.2347790  48.5375290  13.8527640
  33.1869540  48.4533310  13.8027880  32.0876010  49.2017000  14.5261430
  19.6880600  41.1888590  14.2378870  20.1919620  40.6095870  14.8095100
  18.9488020  41.4728820  14.7755240  26.7418540  42.5959580  13.7714390
  25.9764210  43.1644580  13.6869060  26.9234500  42.3035790  12.8782620
  33.8841890  44.3264910  14.3289410  34.6251360  44.6640670  13.8256870
  33.1214570  44.4956970  13.7759180  21.7203680  39.3318180  15.1328940
  21.7609020  39.0332050  16.0414170  22.5749180  39.7325790  14.9736460
  23.6609490  37.9110280  13.1003430  23.1305950  37.4201230  12.4726770
  24.3297560  38.3394480  12.5661360  32.5587550  42.3779740  12.8644620
  32.9728570  42.5324820  13.7135040  31.6238550  42.5034960  13.0270400
  33.0309720  39.7175900  14.8683770  33.6130490  38.9628220  14.7804250
  33.2071490  40.2483340  14.0915250  24.1481790  34.8772650  13.1800720
  24.0538660  34.2593400  12.4551590  23.5679180  35.6038940  12.9530630
  26.9143230  33.4345890  10.2128110  26.4660530  33.4570150   9.3673660
  26.2808430  33.0364910  10.8098410  27.3202780  42.3300220  10.8340550
  27.7390890  43.1732950  10.6616790  26.4011410  42.4672260  10.6047330
  29.6566680  40.0616400  12.2178390  29.7762890  39.4657540  12.9573230
  30.5160680  40.0986090  11.7979690  31.9954580  40.6153590  10.7940900
  31.4689800  41.1396210  10.1906040  32.3385920  41.2480980  11.4250630
  25.1710200  48.6353230  11.9498280  24.6331290  49.3599290  11.6306980
  25.4244160  48.1583570  11.1595620  26.4235450  36.6037750  13.4754210
  27.0135140  36.2953600  14.1632030  25.6055690  36.1317500  13.6314110
  31.2428880  36.2203560  13.7087230  30.5544400  35.5585100  13.6437220
  31.9634900  35.7741830  14.1535690  28.0272410  49.8704440  12.2084930
  27.9531110  50.7739580  12.5157300  27.1251250  49.5516340  12.1807000
  19.4299700  47.1979030   5.5118550  19.7602710  46.3300090   5.2797190
  19.8590700  47.4037550   6.3423510  24.0261620  45.5288040   3.1720520
  23.7257160  45.4053010   4.0724430  23.9199110  44.6696630   2.7636250
  19.9189910  48.0649620   8.2500180  19.4820900  48.2450420   9.0824330
  20.4867590  48.8224240   8.1081900  35.5552090  47.5666620  12.5377490
  34.9554080  47.6259180  11.7941410  35.6845990  46.6271600  12.6674340
  19.7514340  40.5769850   4.6089060  19.0963180  40.3081490   3.9648760
  20.5892290  40.4674330   4.1591040  37.2569970  42.9082020   5.2223330
  37.6278800  42.1249340   4.8159300  37.8971900  43.5971120   5.0440630
  34.2403730  44.2918600  10.6353650  33.4263570  44.7215760  10.8979440
  34.6477930  44.9037010  10.0222700  36.1994510  40.2835280   2.5283350
  35.8238110  39.5163210   2.0964640  35.4697630  40.6657980   3.0158280
  20.7890270  40.9622420   9.1492400  21.1563310  40.8749820  10.0288420
  20.2201090  40.1988970   9.0499260  35.5894130  39.4306800  12.1622870
  35.3580220  39.2019550  11.2620820  35.8498680  40.3506350  12.1167760
  20.3406270  37.8731510  13.0550820  19.4462320  37.8398270  13.3944530
  20.8803820  38.0718300  13.8202070  34.0282200  34.6563230  14.9402570
  34.9052380  34.6646630  15.3236570  34.0403040  33.9194070  14.3294920
  35.4745470  38.5092770   5.8290590  35.9982950  38.0155420   5.1980760
  36.0604890  38.6443130   6.5738160  35.6535190  38.5932640   9.3510140
  34.7037900  38.5596180   9.4655130  35.8348200  39.5032750   9.1159910
  34.9645440  37.7666120   1.7683000  35.4604560  37.5336990   2.5531880
  34.7661510  36.9277960   1.3520640  20.8445980  32.1479840   7.4034040
  21.4922170  31.5977220   6.9629200  21.2647820  32.4022990   8.2249850
  36.3932600  36.4027070   4.3020680  36.2831880  36.2483110   5.2402950
  37.1540190  35.8748010   4.0596090  34.7398320  32.3421200  10.7603680
  35.3770540  32.9555340  11.1262870  34.8873210  32.3781860   9.8152910
  34.2979780  49.0437200   4.1621920  34.8938850  48.7221770   3.4856340
  34.5557930  48.5709020   4.9535190  20.5977980  32.3035510  10.1459360
  20.2492800  32.7599330  10.9117540  20.2665680  31.4092640  10.2281790
  22.2042350  45.4755110  14.3112550  22.1611980  45.1048020  15.1927010
  22.3353360  46.4132680  14.4514370  25.9048380  47.0314700   9.9122270
  25.6639740  47.2989260   9.0252790  26.8451020  47.2020430   9.9673130
  28.1102800  33.4947390  13.6678780  28.0491690  34.0869220  14.4174190
  29.0503180  33.3873350  13.5229040  30.7477360  33.1517450  13.3071070
  31.3617770  33.4696740  12.6452150  31.2926920  32.6666040  13.9266930
  37.1652540  49.0509080  10.7132910  36.6710820  49.4477950   9.9960040
  36.5565830  48.4258290  11.1070190  21.2698620  31.8311710  13.4210130
  21.8181610  31.6499760  12.6576240  21.3353930  31.0405820  13.9566440
  22.0430380  48.4217360  11.4310330  21.4490700  48.2902060  12.1700370
  22.0354220  47.5855500  10.9652430  31.4885400  31.7149590   9.6340360
  30.6145240  32.0484700   9.4313290  31.3796150  31.2422770  10.4592230
  32.3957380  33.9220460  11.0182080  32.0670740  33.1072220  10.6383810
  33.3439680  33.8790270  10.8947770  34.8491990  49.6932500   7.9919650
  34.3894960  50.4448310   7.6177670  34.2204450  48.9738970   7.9334450
  21.6742610  45.7875740  10.3818370  20.9476670  45.1681030  10.3144320
  21.7351760  46.1816350   9.5116450  25.2787710  48.0020740   7.1667780
  25.7952730  47.3908100   6.6416040  25.9285090  48.5049520   7.6578790
  28.0183210  48.8929230   7.9936760  28.3061020  48.6383530   7.1169770
  28.5306430  48.3406590   8.5842330  29.2360220  32.6319430   8.5733270
  28.4532010  33.1064930   8.8530030  28.9423150  31.7274260   8.4646450
  33.7881290  33.3342530   6.6182360  34.2289380  33.2787630   5.7703960
  33.5188880  34.2500540   6.6892540  35.6519860  32.9657770   4.6291180
  35.5908260  32.0218990   4.4822200  36.4311890  33.0737860   5.1744640
  19.9572610  49.1050130   3.5915130  19.7894650  48.4720810   4.2897020
  19.0907120  49.3109530   3.2409320  27.1214440  35.0506180   4.0849300
  26.3088950  34.6763070   3.7445180  27.6256080  34.2951260   4.3870490
  31.6239420  31.7148630   5.3232370  32.2268790  32.2868840   5.7980890
  30.8832410  32.2788070   5.1006270  25.1463620  33.2006100   2.6894350
  24.5166360  32.4993410   2.8564480  24.6068760  33.9610230   2.4727510
  28.0855570  49.8145330  15.3604960  29.0122880  49.5789600  15.4040920
  28.0706000  50.6417330  14.8790990  36.3200630  49.3570900   2.3579210
  36.4952820  48.6708640   1.7140130  35.6222200  49.8817950   1.9655880
  25.2719180  32.4790080  15.1246840  24.9903450  32.9823680  14.3607660
  25.6538880  31.6811830  14.7588970  31.8734640  31.8943660  15.7027310
  31.7600090  32.2138270  16.5978830  32.6904380  32.2956170  15.4064590
  34.6533130  49.0415190  15.1846000  35.4458450  48.5464420  14.9771960
  34.9466280  49.7205330  15.7921610  30.7792790  21.1392640  79.9379500
  30.6986840  20.2247250  79.6671210  30.3657210  21.6359710  79.2319210
  28.9110830  22.9171660  81.8188770  28.1352930  22.4372100  82.1087340
  29.5623760  22.2377310  81.6444930  22.9276660  23.2291470  82.6964530
  22.0961540  22.9740180  83.0961040  23.5357640  23.3002240  83.4322450
  32.9318260  27.3231850  80.5987900  32.4699790  26.5519090  80.9275070
  33.7443810  27.3497920  81.1040350  22.9077920  27.2631560  82.8922550
  23.2105960  26.3729300  82.7132770  23.6521510  27.8201780  82.6644800
  21.3368610  18.1893360  76.4806920  20.4485310  18.5309330  76.3786800
  21.6209800  17.9893680  75.5887750  19.3001620  20.7899010  82.3646620
  19.8717730  20.0221210  82.3650260  19.3003160  21.0887770  81.4553230
  29.1581570  29.6089860  80.2191890  28.5393010  30.0647360  79.6486330
  30.0133350  29.7641320  79.8181590  28.3519820  25.5928850  81.8258930
  28.2828100  24.6518790  81.6648060  29.1139680  25.6830260  82.3981500
  20.5426490  16.1983370  84.1515550  20.3629330  15.3009120  84.4318310
  20.1406570  16.7455240  84.8262500  29.3824990  18.3999230  82.0527860
  29.7589810  17.5271110  81.9401530  29.2844500  18.7357930  81.1618300
  23.5130000  16.7724860  77.5145300  23.6196750  17.6728590  77.8214060
  22.6022360  16.7242830  77.2239950  33.1649110  15.8949670  78.9856200
  33.9858730  15.4046240  79.0281680  33.1983190  16.4847330  79.7388040
  21.1613160  18.6943870  82.7597890  21.8423270  18.9582240  83.3785290
  20.8461210  17.8544740  83.0935900  25.3537730  19.7411230  81.8470480
  25.8615950  20.2392200  82.4875500  25.8850970  18.9646430  81.6709840
  37.4548660  17.9116420  85.5499830  36.7500830  18.2998130  85.0314940
  37.7206580  18.6066710  86.1520760  23.6373830  14.3809790  86.1133900
  23.6392270  14.8982180  85.3079800  22.8078140  13.9039970  86.0903830
  30.0244920  24.4929100  77.6123800  29.4062190  24.9578550  77.0486520
  30.5368170  25.1856580  78.0293310  24.8876680  24.0204970  84.2907400
  24.5546060  24.6473890  84.9328470  25.0643360  24.5466850  83.5109070
  33.4010590  17.8350050  81.7583740  32.6966160  18.1234940  82.3386850
  33.7622750  18.6450160  81.3983300  23.3189160  16.0919750  84.1204350
  23.6605970  16.9361800  83.8258220  22.3804970  16.2403490  84.2369690
  24.0995780  25.9885770  86.1056580  24.7169780  26.6636850  85.8241030
  23.2388900  26.3973750  86.0144080  19.3928120  25.1785630  74.9863430
  19.0156100  25.6672730  74.2548330  19.6501190  25.8510910  75.6169960
  35.0173370  27.4525180  84.0211220  34.3336890  28.1224290  84.0127890
  35.5567660  27.6505830  83.2556080  36.4697510  17.2804840  82.1492950
  35.5222420  17.3143820  82.2808380  36.7947500  18.0943790  82.5342310
  27.0017050  13.5802020  80.4448940  27.3092030  13.0248910  79.7284440
  26.0717750  13.7146480  80.2621930  32.5532110  29.2969310  82.7356400
  32.5659270  28.8931600  81.8678660  32.0007330  30.0716600  82.6317830
  33.8477530  26.0185530  77.8246570  33.7373860  25.0759860  77.9495990
  33.8445780  26.3801170  78.7109330  31.9517550  24.1999150  84.0639010
  32.3686340  23.9859260  83.2292470  32.6757370  24.4571940  84.6347630
  29.3897810  21.6450850  77.1809060  28.4627090  21.5788230  77.4097530
  29.5422630  22.5830980  77.0664300  29.3766890  17.9167850  74.1776220
  28.4370560  18.0781810  74.2628680  29.6950150  18.6353530  73.6312210
  35.8979650  22.5986370  84.1555250  35.0698280  22.6679460  83.6805380
  36.4930130  23.1840680  83.6871080  33.4195100  23.2071150  77.6844310
  32.8007520  22.8690700  77.0370610  33.4019550  22.5630910  78.3923500
  32.8621660  19.3855690  85.1010120  32.4492840  20.2109400  85.3550110
  32.1297610  18.8000730  84.9086480  24.9954450  22.1715590  79.9628790
  24.5911450  21.4592840  79.4674690  25.0817570  21.8268830  80.8516830
  25.4636150  25.8583150  82.1268000  25.1664440  25.2528620  81.4475780
  26.4135970  25.8960460  82.0157360  23.7083070  18.9458800  83.7427830
  24.2597660  19.0554140  82.9681080  24.2226580  19.3196400  84.4583060
  33.5521760  29.4315020  85.7891100  33.0752320  30.2387210  85.5963710
  32.8683550  28.7793350  85.9417310  31.5959800  22.4457960  74.6917060
  32.0353080  21.6080390  74.5454880  32.3088220  23.0787360  74.7781200
  29.7055180  27.3854030  78.6598300  30.1451090  28.1278360  78.2453690
  29.6442070  27.6280600  79.5837260  35.1776940  13.7000770  73.0058100
  34.8649600  13.7927600  73.9057170  35.9389410  14.2781800  72.9555530
  21.6959080  21.0660570  77.4635440  21.5756680  21.7922660  76.8516710
  21.3859970  20.2963480  76.9863350  19.3344450  24.2375710  83.2704080
  19.4124870  24.3724480  82.3259800  19.9486130  23.5291600  83.4632200
  20.5792080  25.9375900  79.6810260  20.1720160  26.0790490  78.8263860
  21.4705090  25.6536060  79.4781470  32.3725360  30.3723150  76.0161310
  32.2126500  30.0826090  76.9143140  32.2072070  29.5963280  75.4806540
  24.8513740  30.1521680  77.7932930  24.6756220  29.2357220  77.5800730
  23.9969480  30.5108970  78.0330730  32.0751490  27.8810710  74.5759310
  31.3816650  27.8788000  73.9161590  32.8174350  27.4570030  74.1453480
  31.6401420  29.5073420  78.6507800  32.0958370  28.7262800  78.9646420
  31.9793940  30.2180240  79.1948980  19.3903970  25.2789880  85.8098540
  19.5535010  24.8095240  84.9917910  19.8556420  24.7713440  86.4747380
  24.1622740  14.4095640  80.8459110  23.7190890  15.1905180  80.5143630
  24.7207730  14.7325530  81.5530050  27.2781560  14.0306340  75.7264940
  26.6535740  14.0266210  76.4518250  27.1911680  13.1637300  75.3300910
  26.1998640  14.9542970  82.7048710  26.4970970  15.8605800  82.6240730
  26.7484200  14.4661750  82.0908280  23.9536960  19.5329210  78.5740360
  23.7277880  19.3166380  79.4786980  23.1729490  19.9657670  78.2286330
  31.1834720  19.5392580  77.1731010  30.5843610  20.2628380  76.9894630
  31.7314330  19.4769360  76.3907460  29.7899590  18.1756120  79.2034290
  30.1829160  18.4928320  78.3902980  30.1516440  17.2968000  79.3178810
  18.8263760  14.7656920  81.4264490  18.5376810  15.3359780  82.1389470
  19.5709520  14.2861370  81.7895720  19.0133990  18.7077040  72.6367210
  18.9308660  19.6507800  72.7782200  18.6617050  18.5651950  71.7579560
  30.3754730  20.7661870  83.2985070  29.6435850  21.2748680  83.6475170
  29.9779070  19.9491850  82.9973850  26.8132120  17.4416070  81.7037560
  26.8168180  17.0006020  80.8542100  27.7083240  17.7633400  81.8109380
  22.6634500  17.3242560  80.6631770  22.3234550  17.8017790  81.4198820
  21.9011820  16.8707680  80.3032870  26.8752270  18.4428150  74.6944320
  26.9965090  18.4014630  75.6430140  26.4900780  19.3052300  74.5391050
  30.8380640  16.2195550  82.7108010  30.8553380  16.6704200  83.5549860
  30.5896220  15.3201190  82.9241450  25.8873770  20.7529290  74.0927620
  25.3190670  20.3047540  73.4663530  26.5962770  21.1122070  73.5592770
  27.1140090  21.5017850  83.4502970  27.4810220  21.0276420  84.1964310
  26.9245150  22.3759420  83.7911310  19.9780580  16.2461540  79.5796440
  19.6927500  15.8817210  80.4175060  19.9159440  15.5142000  78.9659580
  24.9039460  20.5426490  85.7687180  24.5996530  21.4218470  85.9937540
  25.8585920  20.6026280  85.8044620  23.4321250  24.7487480  76.3654030
  22.6583510  24.2085100  76.2052750  24.1615880  24.2294090  76.0271790
  34.1909230  23.7452840  82.1580420  34.9108350  24.2408130  81.7676530
  33.9891050  23.0670730  81.5134290  29.6519170  15.1390800  76.3009810
  28.8383780  14.6403970  76.2255120  29.4581120  15.9789050  75.8846160
  32.3667560  19.5110450  74.5971970  33.2547180  19.8227680  74.4223310
  32.3372650  18.6382700  74.2052550  23.4758650  24.4167860  80.0032840
  23.9937320  23.6136120  79.9489730  23.0242670  24.3547000  80.8449670
  28.3628150  25.6834140  75.2760140  28.7043850  26.4276370  74.7803460
  27.5340860  25.9965260  75.6384970  34.6381830  20.8222290  74.0651830
  34.5545550  21.2536510  73.2148270  35.3576020  21.2820640  74.4978650
  35.6669080  27.6764550  76.7933960  35.0245240  27.0220170  77.0677680
  35.2799740  28.0819640  76.0174630  31.2455560  25.0049980  80.6405650
  31.5979380  24.4078110  79.9807020  30.3617890  24.6794210  80.8113900
  27.3318840  25.7647670  78.0476060  28.0189970  26.3116880  78.4283650
  26.5451260  26.3088400  78.0825670  19.4711240  21.3820490  73.5393140
  20.3406090  21.6645290  73.8229060  18.9801560  22.1956360  73.4241950
  26.6346050  22.7693700  77.6601420  27.0908830  23.5798950  77.8861610
  26.2834260  22.4516840  78.4919910  28.9378660  28.2800040  84.8893720
  29.5820880  28.4859420  85.5667140  29.3008100  27.5188440  84.4364570
  22.5357830  13.1131350  78.1323940  22.4072460  13.1049250  79.0808860
  21.7119850  13.4514440  77.7814950  30.2110740  26.2832390  83.6071170
  30.8532970  25.5825550  83.7203340  30.7360090  27.0630830  83.4268060
  34.0566460  26.5681010  73.3310310  33.8304040  25.8511450  73.9234950
  33.6662660  26.3193450  72.4932060  19.8382490  30.5947870  74.1054770
  20.1980130  31.1937210  73.4512040  19.6974830  31.1407760  74.8789800
  33.6382710  24.4852950  74.9924470  33.3504410  24.9465640  75.7802350
  34.4334880  24.0250720  75.2608690  25.8551110  27.9779070  74.9228440
  25.8461210  28.7108760  74.3072950  24.9349470  27.7310650  75.0155400
  21.4557750  23.1993960  75.6675200  20.8485700  23.9392860  75.6770500
  21.9307100  23.2893320  74.8413400  31.0290540  17.3644780  85.3432090
  31.3971360  16.5439990  85.6711660  30.1688740  17.4246670  85.7587740
  34.3952570  16.3201720  76.1519650  33.7665730  16.4247390  75.4377880
  33.9004490  16.5398500  76.9413530  28.8410710  28.0407310  73.5853630
  28.9422690  27.8371300  72.6555610  27.9412450  27.7865590  73.7901410
  26.3636600  18.5987670  77.5677530  25.6552750  19.0674010  78.0091140
  26.6481080  17.9409680  78.2022720  27.9892530  20.0184370  85.5670060
  28.4877780  20.4930190  86.2321910  28.1315480  19.0947890  85.7740090
  30.3952030  15.3238330  79.0073320  30.2719810  15.3424460  78.0582830
  31.3436590  15.3717270  79.1271720  27.4828820  30.5593630  78.2801300
  27.7370320  30.5215020  77.3580670  26.5341300  30.4326960  78.2729550
  24.5671620  16.9072750  74.9428240  25.4162150  17.3442900  74.8768430
  24.2002890  17.2193010  75.7700300  35.1959390  16.2352330  86.4098450
  34.6932990  16.9757730  86.7492260  36.0116050  16.6236330  86.0935240
  33.4881400  21.4785510  79.8559810  32.5471540  21.4935740  80.0307500
  33.8025470  20.6921470  80.3020110  23.4663040  23.1605110  73.4163770
  24.2326310  23.0486470  73.9789200  23.5437730  22.4643080  72.7640540
  22.1609800  20.5930180  74.0996660  22.2413390  19.6457690  74.2114060
  23.0529550  20.9237060  74.2057320  35.4906980  28.6494360  81.5314070
  35.6154400  29.4725530  82.0037880  36.3572540  28.4385090  81.1838220
  22.9624510  30.7425570  81.2031200  23.6986990  30.1941030  81.4739770
  23.3465430  31.6081580  81.0637190  19.8469990  26.8099140  77.0772710
  18.9209770  27.0520280  77.0678120  20.3126420  27.6373400  76.9557460
  26.0726820  29.9155880  73.0256770  26.8655430  30.2044710  72.5738560
  25.5531170  29.4848050  72.3469250  35.1256990  29.1426010  74.4493510
  34.8398500  28.7291150  73.6347690  34.9276540  30.0713720  74.3294030
  26.5904220  25.1359290  72.8899120  26.4854860  24.5211640  73.6160500
  26.4228440  24.6125180  72.1062130  29.8306950  24.1979320  73.4941110
  29.2817050  24.6448620  74.1383850  30.4526210  23.6928570  74.0178780
  25.4982070  23.1570240  75.3906410  25.9198490  22.9910110  76.2337800
  25.6232910  22.3470470  74.8961550  28.0109710  22.1807850  72.6383510
  28.5315370  21.4656870  72.2724660  28.6578110  22.8193720  72.9384020
  26.9143230  14.6602400  85.3102070  26.4660530  14.6826660  84.4647620
  26.2808430  14.2621420  85.9072370  27.3202780  23.5556730  85.9314510
  27.7390890  24.3989460  85.7590750  26.4011410  23.6928770  85.7021290
  31.9954580  21.8410100  85.8914860  31.4689800  22.3652720  85.2880000
  32.3385920  22.4737490  86.5224590  24.3940970  19.2303470  72.3364570
  24.1930030  18.3670830  72.6977910  24.2233020  19.1436830  71.3986170
  31.8729280  14.0411700  74.8651450  32.1531570  13.1979600  75.2210870
  31.0995010  14.2734810  75.3790200  23.1923770  16.3304090  72.3242450
  23.4949670  16.3371520  71.4161600  23.9318360  15.9801950  72.8210110
  26.4108700  15.2738710  73.3098650  26.0630700  14.5962700  72.7301100
  26.6121470  14.8128220  74.1242040  28.5757740  30.2619460  74.9285250
  29.4708530  30.6004430  74.9504010  28.6075370  29.5398870  74.3009530
  22.2153900  25.6346510  73.1572250  22.6528770  26.1776180  73.8129830
  22.7001630  24.8093460  73.1668590  19.4299700  28.4235540  80.6092510
  19.7602710  27.5556600  80.3771150  19.8590700  28.6294060  81.4397470
  24.0261620  26.7544550  78.2694480  23.7257160  26.6309520  79.1698390
  23.9199110  25.8953140  77.8610210  19.9189910  29.2906130  83.3474140
  19.4820900  29.4706930  84.1798290  20.4867590  30.0480750  83.2055860
  36.7953540  26.5340950  72.9721160  35.9646500  26.6017600  73.4428390
  36.9725370  27.4245070  72.6688020  36.2510000  23.2788430  75.4755360
  37.0128910  23.8485080  75.5815050  36.2664370  22.7115630  76.2463670
  19.7514340  21.8026360  79.7063020  19.0963180  21.5338000  79.0622720
  20.5892290  21.6930840  79.2565000  37.2569970  24.1338530  80.3197290
  37.6278800  23.3505850  79.9133260  37.8971900  24.8227630  80.1414590
  34.2403730  25.5175110  85.7327610  33.4263570  25.9472270  85.9953400
  34.6477930  26.1293520  85.1196660  36.3029170  23.5722800  72.6327880
  36.5778010  24.4801680  72.5047100  36.1139910  23.5085330  73.5689870
  32.7004780  16.5967650  73.9281510  33.1189660  16.4098630  73.0878170
  32.3940840  15.7446700  74.2384440  36.1994510  21.5091790  77.6257310
  35.8238110  20.7419720  77.1938600  35.4697630  21.8914490  78.1132240
  20.7890270  22.1878930  84.2466360  21.1563310  22.1006330  85.1262380
  20.2201090  21.4245480  84.1473220  18.9652420  19.0125290  75.6488350
  18.0616500  19.2755490  75.4740010  19.4493040  19.2836460  74.8688310
  35.4745470  19.7349280  80.9264550  35.9982950  19.2411930  80.2954720
  36.0604890  19.8699640  81.6712120  35.6535190  19.8189150  84.4484100
  34.7037900  19.7852690  84.5629090  35.8348200  20.7289260  84.2133870
  21.5079630  18.0690830  73.5582730  22.2171330  17.6474050  73.0730010
  20.7919570  18.1366060  72.9266080  21.1553790  14.1230160  72.5985380
  21.8781920  14.6639100  72.9166600  21.4278310  13.8493580  71.7226920
  34.9645440  18.9922630  76.8656960  35.4604560  18.7593500  77.6505840
  34.7661510  18.1534470  76.4494600  20.8445980  13.3736350  82.5008000
  21.4922170  12.8233730  82.0603160  21.2647820  13.6279500  83.3223810
  36.3932600  17.6283580  79.3994640  36.2831880  17.4739620  80.3376910
  37.1540190  17.1004520  79.1570050  34.7398320  13.5677710  85.8577640
  35.3770540  14.1811850  86.2236830  34.8873210  13.6038370  84.9126870
  37.2822870  15.4591500  72.6400780  38.2072180  15.3272680  72.4319070
  37.2598660  15.5384320  73.5937230  37.3561360  16.2302160  75.2657490
  36.5612860  16.1647280  75.7950400  37.5604640  17.1652800  75.2542840
  34.2979780  30.2693710  79.2595880  34.8938850  29.9478280  78.5830300
  34.5557930  29.7965530  80.0509150  20.5977980  13.5292020  85.2433320
  20.2492800  13.9855840  86.0091500  20.2665680  12.6349150  85.3255750
  25.9048380  28.2571210  85.0096230  25.6639740  28.5245770  84.1226750
  26.8451020  28.4276940  85.0647090  37.1652540  30.2765590  85.8106870
  36.6710820  30.6734460  85.0934000  36.5565830  29.6514800  86.2044150
  31.4885400  12.9406100  84.7314320  30.6145240  13.2741210  84.5287250
  31.3796150  12.4679280  85.5566190  32.3957380  15.1476970  86.1156040
  32.0670740  14.3328730  85.7357770  33.3439680  15.1046780  85.9921730
  34.8491990  30.9189010  83.0893610  34.3894960  31.6704820  82.7151630
  34.2204450  30.1995480  83.0308410  21.6742610  27.0132250  85.4792330
  20.9476670  26.3937540  85.4118280  21.7351760  27.4072860  84.6090410
  25.2787710  29.2277250  82.2641740  25.7952730  28.6164610  81.7390000
  25.9285090  29.7306030  82.7552750  28.0183210  30.1185740  83.0910720
  28.3061020  29.8640040  82.2143730  28.5306430  29.5663100  83.6816290
  29.2360220  13.8575940  83.6707230  28.4532010  14.3321440  83.9503990
  28.9423150  12.9530770  83.5620410  33.7881290  14.5599040  81.7156320
  34.2289380  14.5044140  80.8677920  33.5188880  15.4757050  81.7866500
  35.6519860  14.1914280  79.7265140  35.5908260  13.2475500  79.5796160
  36.4311890  14.2994370  80.2718600  19.9572610  30.3306640  78.6889090
  19.7894650  29.6977320  79.3870980  19.0907120  30.5366040  78.3383280
  20.5800630  14.1623420  76.1920950  21.3379990  14.2752300  75.6184980
  20.1177800  14.9992620  76.1464380  27.1214440  16.2762690  79.1823260
  26.3088950  15.9019580  78.8419140  27.6256080  15.5207770  79.4844450
  31.6239420  12.9405140  80.4206330  32.2268790  13.5125350  80.8954850
  30.8832410  13.5044580  80.1980230  34.7674020  13.3426700  75.6946610
  34.9624650  14.2410150  75.9614040  33.9803890  13.1113780  76.1879560
  21.5635310  29.0239870  76.1339230  21.0382930  29.4047900  75.4301190
  21.4879890  29.6490640  76.8548940  22.9525780  14.6887470  74.7322920
  23.4818540  13.9017270  74.6030870  23.5854100  15.3678660  74.9658450
  25.1463620  14.4262610  77.7868310  24.5166360  13.7249920  77.9538440
  24.6068760  15.1866740  77.5701470  36.3200630  30.5827410  77.4553170
  36.4952820  29.8965150  76.8114090  35.6222200  31.1074460  77.0629840
  24.1628280  30.9722250  75.0088480  24.8947100  30.6881530  74.4612370
  24.4221950  30.7335530  75.8987860  23.3243070  27.0886980  75.0134810
  22.6951950  27.5572080  75.5620640  23.4390900  26.2436200  75.4481000
  30.7792790  21.1392640  61.1636010  30.6986840  20.2247250  60.8927720
  30.3657210  21.6359710  60.4575720  22.9276660  23.2291470  63.9221040
  22.0961540  22.9740180  64.3217550  23.5357640  23.3002240  64.6578960
  22.9077920  27.2631560  64.1179060  23.2105960  26.3729300  63.9389280
  23.6521510  27.8201780  63.8901310  21.3368610  18.1893360  57.7063430
  20.4485310  18.5309330  57.6043310  21.6209800  17.9893680  56.8144260
  19.3001620  20.7899010  63.5903130  19.8717730  20.0221210  63.5906770
  19.3003160  21.0887770  62.6809740  28.3519820  25.5928850  63.0515440
  28.2828100  24.6518790  62.8904570  29.1139680  25.6830260  63.6238010
  20.5426490  16.1983370  65.3772060  20.3629330  15.3009120  65.6574820
  20.1406570  16.7455240  66.0519010  29.3824990  18.3999230  63.2784370
  29.7589810  17.5271110  63.1658040  29.2844500  18.7357930  62.3874810
  23.5130000  16.7724860  58.7401810  23.6196750  17.6728590  59.0470570
  22.6022360  16.7242830  58.4496460  33.1649110  15.8949670  60.2112710
  33.9858730  15.4046240  60.2538190  33.1983190  16.4847330  60.9644550
  21.1613160  18.6943870  63.9854400  21.8423270  18.9582240  64.6041800
  20.8461210  17.8544740  64.3192410  25.3537730  19.7411230  63.0726990
  25.8615950  20.2392200  63.7132010  25.8850970  18.9646430  62.8966350
  37.4548660  17.9116420  66.7756340  36.7500830  18.2998130  66.2571450
  37.7206580  18.6066710  67.3777270  23.6373830  14.3809790  67.3390410
  23.6392270  14.8982180  66.5336310  22.8078140  13.9039970  67.3160340
  24.8876680  24.0204970  65.5163910  24.5546060  24.6473890  66.1584980
  25.0643360  24.5466850  64.7365580  33.4010590  17.8350050  62.9840250
  32.6966160  18.1234940  63.5643360  33.7622750  18.6450160  62.6239810
  23.3189160  16.0919750  65.3460860  23.6605970  16.9361800  65.0514730
  22.3804970  16.2403490  65.4626200  24.0995780  25.9885770  67.3313090
  24.7169780  26.6636850  67.0497540  23.2388900  26.3973750  67.2400590
  19.3928120  25.1785630  56.2119940  19.0156100  25.6672730  55.4804840
  19.6501190  25.8510910  56.8426470  36.4697510  17.2804840  63.3749460
  35.5222420  17.3143820  63.5064890  36.7947500  18.0943790  63.7598820
  27.0017050  13.5802020  61.6705450  27.3092030  13.0248910  60.9540950
  26.0717750  13.7146480  61.4878440  29.3766890  17.9167850  55.4032730
  28.4370560  18.0781810  55.4885190  29.6950150  18.6353530  54.8568720
  32.8621660  19.3855690  66.3266630  32.4492840  20.2109400  66.5806620
  32.1297610  18.8000730  66.1342990  24.9954450  22.1715590  61.1885300
  24.5911450  21.4592840  60.6931200  25.0817570  21.8268830  62.0773340
  25.4636150  25.8583150  63.3524510  25.1664440  25.2528620  62.6732290
  26.4135970  25.8960460  63.2413870  23.7083070  18.9458800  64.9684340
  24.2597660  19.0554140  64.1937590  24.2226580  19.3196400  65.6839570
  33.5521760  29.4315020  67.0147610  33.0752320  30.2387210  66.8220220
  32.8683550  28.7793350  67.1673820  24.5554580  25.5964840  70.0032310
  23.6583110  25.8204810  70.2505710  24.5807450  25.7199780  69.0543710
  23.3825800  22.4678160  68.5789680  23.2433570  23.3400960  68.9477080
  22.5007160  22.1250970  68.4337620  25.1806150  28.4099860  70.7874830
  25.1521580  28.8142810  69.9203260  25.0171120  27.4810220  70.6246430
  35.1776940  13.7000770  54.2314610  34.8649600  13.7927600  55.1313680
  35.9389410  14.2781800  54.1812040  21.6959080  21.0660570  58.6891950
  21.5756680  21.7922660  58.0773220  21.3859970  20.2963480  58.2119860
  37.1320970  29.1926960  72.0839000  37.6080690  29.6709850  72.7628080
  37.7528130  29.1244450  71.3584500  19.3344450  24.2375710  64.4960590
  19.4124870  24.3724480  63.5516310  19.9486130  23.5291600  64.6888710
  20.5792080  25.9375900  60.9066770  20.1720160  26.0790490  60.0520370
  21.4705090  25.6536060  60.7037980  36.5354220  26.3839810  69.2439010
  36.6617280  26.1451690  68.3256190  36.5775600  25.5524350  69.7161090
  30.3970960  30.0867810  67.8133820  30.9115630  29.9975820  68.6156250
  29.5540040  30.4327510  68.1061730  24.8513740  30.1521680  59.0189440
  24.6756220  29.2357220  58.8057240  23.9969480  30.5108970  59.2587240
  36.3878230  18.4372270  70.2088750  35.7722500  18.9451940  69.6804210
  36.0674650  17.5370600  70.1514690  19.3903970  25.2789880  67.0355050
  19.5535010  24.8095240  66.2174420  19.8556420  24.7713440  67.7003890
  24.1622740  14.4095640  62.0715620  23.7190890  15.1905180  61.7400140
  24.7207730  14.7325530  62.7786560  28.4492550  17.2764160  67.6750940
  27.9871920  17.4847180  68.4870880  28.0470660  16.4623510  67.3721610
  33.4497060  18.4973110  68.8047600  32.5990650  18.1978860  69.1256670
  33.2898850  18.7415120  67.8931420  30.5446770  19.9974860  70.9046390
  30.8700180  19.1638610  70.5648620  31.3327100  20.5203380  71.0524720
  27.2781560  14.0306340  56.9521450  26.6535740  14.0266210  57.6774760
  27.1911680  13.1637300  56.5557420  26.1998640  14.9542970  63.9305220
  26.4970970  15.8605800  63.8497240  26.7484200  14.4661750  63.3164790
  23.9536960  19.5329210  59.7996870  23.7277880  19.3166380  60.7043490
  23.1729490  19.9657670  59.4542840  31.1834720  19.5392580  58.3987520
  30.5843610  20.2628380  58.2151140  31.7314330  19.4769360  57.6163970
  26.3936170  20.4314790  70.4657140  26.2979770  19.4909520  70.3157540
  27.2368150  20.6529860  70.0705210  29.7899590  18.1756120  60.4290800
  30.1829160  18.4928320  59.6159490  30.1516440  17.2968000  60.5435320
  21.5246710  16.8428460  68.6190920  21.1310100  17.6903670  68.8263700
  20.8365110  16.2054830  68.8099560  28.0991760  16.9263430  71.6887660
  27.4090080  16.7335630  72.3233750  28.8424060  17.2098070  72.2211960
  18.8263760  14.7656920  62.6521000  18.5376810  15.3359780  63.3645980
  19.5709520  14.2861370  63.0152230  19.0133990  18.7077040  53.8623720
  18.9308660  19.6507800  54.0038710  18.6617050  18.5651950  52.9836070
  30.3754730  20.7661870  64.5241580  29.6435850  21.2748680  64.8731680
  29.9779070  19.9491850  64.2230360  26.8132120  17.4416070  62.9294070
  26.8168180  17.0006020  62.0798610  27.7083240  17.7633400  63.0365890
  22.6634500  17.3242560  61.8888280  22.3234550  17.8017790  62.6455330
  21.9011820  16.8707680  61.5289380  26.8752270  18.4428150  55.9200830
  26.9965090  18.4014630  56.8686650  26.4900780  19.3052300  55.7647560
  30.8380640  16.2195550  63.9364520  30.8553380  16.6704200  64.7806370
  30.5896220  15.3201190  64.1497960  25.8873770  20.7529290  55.3184130
  25.3190670  20.3047540  54.6920040  26.5962770  21.1122070  54.7849280
  34.2651390  13.6327730  69.7750900  34.5897160  12.9017390  70.3008880
  34.3007900  13.3141370  68.8731890  20.9642950  24.6541310  69.1950860
  20.5797740  24.0134980  69.7933820  21.2755140  25.3577430  69.7645590
  27.1140090  21.5017850  64.6759480  27.4810220  21.0276420  65.4220820
  26.9245150  22.3759420  65.0167820  19.9780580  16.2461540  60.8052950
  19.6927500  15.8817210  61.6431570  19.9159440  15.5142000  60.1916090
  24.9039460  20.5426490  66.9943690  24.5996530  21.4218470  67.2194050
  25.8585920  20.6026280  67.0301130  23.4321250  24.7487480  57.5910540
  22.6583510  24.2085100  57.4309260  24.1615880  24.2294090  57.2528300
  29.6519170  15.1390800  57.5266320  28.8383780  14.6403970  57.4511630
  29.4581120  15.9789050  57.1102670  29.5728030  23.8161900  69.2705930
  29.5065340  22.8957570  69.0163520  28.9433170  23.9137340  69.9850570
  32.3667560  19.5110450  55.8228480  33.2547180  19.8227680  55.6479820
  32.3372650  18.6382700  55.4309060  23.4758650  24.4167860  61.2289350
  23.9937320  23.6136120  61.1746240  23.0242670  24.3547000  62.0706180
  20.9603190  21.3829230  68.1415050  20.6018130  22.0483080  68.7288390
  20.6657750  20.5512780  68.5127670  24.1616310  21.8413470  71.0254600
  23.8616450  21.9870650  70.1282420  24.9327550  21.2818760  70.9327990
  29.5044760  26.6382470  69.0209730  29.5189300  25.7063430  68.8028640
  28.7969860  26.7242230  69.6599500  34.6381830  20.8222290  55.2908340
  34.5545550  21.2536510  54.4404780  35.3576020  21.2820640  55.7235160
  35.7155970  23.2789810  68.3678310  34.9904160  23.8718590  68.1707700
  36.2431430  23.2713350  67.5691680  27.3318840  25.7647670  59.2732570
  28.0189970  26.3116880  59.6540160  26.5451260  26.3088400  59.3082180
  19.4711240  21.3820490  54.7649650  20.3406090  21.6645290  55.0485570
  18.9801560  22.1956360  54.6498460  26.6346050  22.7693700  58.8857930
  27.0908830  23.5798950  59.1118120  26.2834260  22.4516840  59.7176420
  28.9378660  28.2800040  66.1150230  29.5820880  28.4859420  66.7923650
  29.3008100  27.5188440  65.6621080  22.5357830  13.1131350  59.3580450
  22.4072460  13.1049250  60.3065370  21.7119850  13.4514440  59.0071460
  31.9848360  27.0827290  68.0363740  32.3204600  27.6693980  68.7141660
  31.0648700  26.9520000  68.2661530  19.8382490  30.5947870  55.3311280
  20.1980130  31.1937210  54.6768550  19.6974830  31.1407760  56.1046310
  19.5351760  14.8722470  68.8187150  18.8210280  15.0719390  69.4239760
  19.9546800  14.0962040  69.1901950  19.8224350  28.8602730  69.8053680
  19.9315470  27.9197470  69.6649070  19.1704910  29.1257480  69.1567410
  27.8136940  27.1318620  71.2051800  27.4933810  26.4127860  71.7497490
  27.1395300  27.8073690  71.2787860  25.8551110  27.9779070  56.1484950
  25.8461210  28.7108760  55.5329460  24.9349470  27.7310650  56.2411910
  21.4557750  23.1993960  56.8931710  20.8485700  23.9392860  56.9027010
  21.9307100  23.2893320  56.0669910  31.0290540  17.3644780  66.5688600
  31.3971360  16.5439990  66.8968170  30.1688740  17.4246670  66.9844250
  34.3952570  16.3201720  57.3776160  33.7665730  16.4247390  56.6634390
  33.9004490  16.5398500  58.1670040  26.3636600  18.5987670  58.7934040
  25.6552750  19.0674010  59.2347650  26.6481080  17.9409680  59.4279230
  27.9892530  20.0184370  66.7926570  28.4877780  20.4930190  67.4578420
  28.1315480  19.0947890  66.9996600  30.3952030  15.3238330  60.2329830
  30.2719810  15.3424460  59.2839340  31.3436590  15.3717270  60.3528230
  24.5671620  16.9072750  56.1684750  25.4162150  17.3442900  56.1024940
  24.2002890  17.2193010  56.9956810  35.1959390  16.2352330  67.6354960
  34.6932990  16.9757730  67.9748770  36.0116050  16.6236330  67.3191750
  23.4663040  23.1605110  54.6420280  24.2326310  23.0486470  55.2045710
  23.5437730  22.4643080  53.9897050  22.1609800  20.5930180  55.3253170
  22.2413390  19.6457690  55.4370570  23.0529550  20.9237060  55.4313830
  22.9624510  30.7425570  62.4287710  23.6986990  30.1941030  62.6996280
  23.3465430  31.6081580  62.2893700  19.8469990  26.8099140  58.3029220
  18.9209770  27.0520280  58.2934630  20.3126420  27.6373400  58.1813970
  21.9682790  29.9271640  71.6173290  22.7695520  30.2483690  72.0308690
  21.4534610  29.5667220  72.3393200  26.0726820  29.9155880  54.2513280
  26.8655430  30.2044710  53.7995070  25.5531170  29.4848050  53.5725760
  30.8047420  26.0351510  71.5648700  30.1985580  26.0583110  70.8244450
  30.5001530  25.3034550  72.1015950  32.2347790  29.7631800  70.1758110
  33.1869540  29.6789820  70.1258350  32.0876010  30.4273510  70.8491900
  19.6880600  22.4145100  70.5609340  20.1919620  21.8352380  71.1325570
  18.9488020  22.6985330  71.0985710  26.5904220  25.1359290  54.1155630
  26.4854860  24.5211640  54.8417010  26.4228440  24.6125180  53.3318640
  26.7418540  23.8216090  70.0944860  25.9764210  24.3901090  70.0099530
  26.9234500  23.5292300  69.2013090  33.8841890  25.5521420  70.6519880
  34.6251360  25.8897180  70.1487340  33.1214570  25.7213480  70.0989650
  21.7203680  20.5574690  71.4559410  21.7609020  20.2588560  72.3644640
  22.5749180  20.9582300  71.2966930  25.4982070  23.1570240  56.6162920
  25.9198490  22.9910110  57.4594310  25.6232910  22.3470470  56.1218060
  23.6609490  19.1366790  69.4233900  23.1305950  18.6457740  68.7957240
  24.3297560  19.5650990  68.8891830  32.5587550  23.6036250  69.1875090
  32.9728570  23.7581330  70.0365510  31.6238550  23.7291470  69.3500870
  33.0309720  20.9432410  71.1914240  33.6130490  20.1884730  71.1034720
  33.2071490  21.4739850  70.4145720  24.1481790  16.1029160  69.5031190
  24.0538660  15.4849910  68.7782060  23.5679180  16.8295450  69.2761100
  26.9143230  14.6602400  66.5358580  26.4660530  14.6826660  65.6904130
  26.2808430  14.2621420  67.1328880  27.3202780  23.5556730  67.1571020
  27.7390890  24.3989460  66.9847260  26.4011410  23.6928770  66.9277800
  29.6566680  21.2872910  68.5408860  29.7762890  20.6914050  69.2803700
  30.5160680  21.3242600  68.1210160  24.3940970  19.2303470  53.5621080
  24.1930030  18.3670830  53.9234420  24.2233020  19.1436830  52.6242680
  25.1710200  29.8609740  68.2728750  24.6331290  30.5855800  67.9537450
  25.4244160  29.3840080  67.4826090  26.4235450  17.8294260  69.7984680
  27.0135140  17.5210110  70.4862500  25.6055690  17.3574010  69.9544580
  31.2428880  17.4460070  70.0317700  30.5544400  16.7841610  69.9667690
  31.9634900  16.9998340  70.4766160  31.8729280  14.0411700  56.0907960
  32.1531570  13.1979600  56.4467380  31.0995010  14.2734810  56.6046710
  23.1923770  16.3304090  53.5498960  23.4949670  16.3371520  52.6418110
  23.9318360  15.9801950  54.0466620  28.0272410  31.0960950  68.5315400
  27.9531110  31.9996090  68.8387770  27.1251250  30.7772850  68.5037470
  26.4108700  15.2738710  54.5355160  26.0630700  14.5962700  53.9557610
  26.6121470  14.8128220  55.3498550  22.2153900  25.6346510  54.3828760
  22.6528770  26.1776180  55.0386340  22.7001630  24.8093460  54.3925100
  19.4299700  28.4235540  61.8349020  19.7602710  27.5556600  61.6027660
  19.8590700  28.6294060  62.6653980  24.0261620  26.7544550  59.4950990
  23.7257160  26.6309520  60.3954900  23.9199110  25.8953140  59.0866720
  19.9189910  29.2906130  64.5730650  19.4820900  29.4706930  65.4054800
  20.4867590  30.0480750  64.4312370  35.5552090  28.7923130  68.8607960
  34.9554080  28.8515690  68.1171880  35.6845990  27.8528110  68.9904810
  19.7514340  21.8026360  60.9319530  19.0963180  21.5338000  60.2879230
  20.5892290  21.6930840  60.4821510  32.7004780  16.5967650  55.1538020
  33.1189660  16.4098630  54.3134680  32.3940840  15.7446700  55.4640950
  20.7890270  22.1878930  65.4722870  21.1563310  22.1006330  66.3518890
  20.2201090  21.4245480  65.3729730  35.5894130  20.6563310  68.4853340
  35.3580220  20.4276060  67.5851290  35.8498680  21.5762860  68.4398230
  20.3406270  19.0988020  69.3781290  19.4462320  19.0654780  69.7175000
  20.8803820  19.2974810  70.1432540  34.0282200  15.8819740  71.2633040
  34.9052380  15.8903140  71.6467040  34.0403040  15.1450580  70.6525390
  18.9652420  19.0125290  56.8744860  18.0616500  19.2755490  56.6996520
  19.4493040  19.2836460  56.0944820  35.4745470  19.7349280  62.1521060
  35.9982950  19.2411930  61.5211230  36.0604890  19.8699640  62.8968630
  35.6535190  19.8189150  65.6740610  34.7037900  19.7852690  65.7885600
  35.8348200  20.7289260  65.4390380  21.5079630  18.0690830  54.7839240
  22.2171330  17.6474050  54.2986520  20.7919570  18.1366060  54.1522590
  21.1553790  14.1230160  53.8241890  21.8781920  14.6639100  54.1423110
  21.4278310  13.8493580  52.9483430  34.9645440  18.9922630  58.0913470
  35.4604560  18.7593500  58.8762350  34.7661510  18.1534470  57.6751110
  20.8445980  13.3736350  63.7264510  21.4922170  12.8233730  63.2859670
  21.2647820  13.6279500  64.5480320  36.3932600  17.6283580  60.6251150
  36.2831880  17.4739620  61.5633420  37.1540190  17.1004520  60.3826560
  34.7398320  13.5677710  67.0834150  35.3770540  14.1811850  67.4493340
  34.8873210  13.6038370  66.1383380  37.2822870  15.4591500  53.8657290
  38.2072180  15.3272680  53.6575580  37.2598660  15.5384320  54.8193740
  37.3561360  16.2302160  56.4914000  36.5612860  16.1647280  57.0206910
  37.5604640  17.1652800  56.4799350  20.5977980  13.5292020  66.4689830
  20.2492800  13.9855840  67.2348010  20.2665680  12.6349150  66.5512260
  22.2042350  26.7011620  70.6343020  22.1611980  26.3304530  71.5157480
  22.3353360  27.6389190  70.7744840  25.9048380  28.2571210  66.2352740
  25.6639740  28.5245770  65.3483260  26.8451020  28.4276940  66.2903600
  28.1102800  14.7203900  69.9909250  28.0491690  15.3125730  70.7404660
  29.0503180  14.6129860  69.8459510  30.7477360  14.3773960  69.6301540
  31.3617770  14.6953250  68.9682620  31.2926920  13.8922550  70.2497400
  37.1652540  30.2765590  67.0363380  36.6710820  30.6734460  66.3190510
  36.5565830  29.6514800  67.4300660  21.2698620  13.0568220  69.7440600
  21.8181610  12.8756270  68.9806710  21.3353930  12.2662330  70.2796910
  22.0430380  29.6473870  67.7540800  21.4490700  29.5158570  68.4930840
  22.0354220  28.8112010  67.2882900  31.4885400  12.9406100  65.9570830
  30.6145240  13.2741210  65.7543760  31.3796150  12.4679280  66.7822700
  32.3957380  15.1476970  67.3412550  32.0670740  14.3328730  66.9614280
  33.3439680  15.1046780  67.2178240  21.6742610  27.0132250  66.7048840
  20.9476670  26.3937540  66.6374790  21.7351760  27.4072860  65.8346920
  25.2787710  29.2277250  63.4898250  25.7952730  28.6164610  62.9646510
  25.9285090  29.7306030  63.9809260  28.0183210  30.1185740  64.3167230
  28.3061020  29.8640040  63.4400240  28.5306430  29.5663100  64.9072800
  29.2360220  13.8575940  64.8963740  28.4532010  14.3321440  65.1760500
  28.9423150  12.9530770  64.7876920  33.7881290  14.5599040  62.9412830
  34.2289380  14.5044140  62.0934430  33.5188880  15.4757050  63.0123010
  35.6519860  14.1914280  60.9521650  35.5908260  13.2475500  60.8052670
  36.4311890  14.2994370  61.4975110  19.9572610  30.3306640  59.9145600
  19.7894650  29.6977320  60.6127490  19.0907120  30.5366040  59.5639790
  20.5800630  14.1623420  57.4177460  21.3379990  14.2752300  56.8441490
  20.1177800  14.9992620  57.3720890  27.1214440  16.2762690  60.4079770
  26.3088950  15.9019580  60.0675650  27.6256080  15.5207770  60.7100960
  31.6239420  12.9405140  61.6462840  32.2268790  13.5125350  62.1211360
  30.8832410  13.5044580  61.4236740  34.7674020  13.3426700  56.9203120
  34.9624650  14.2410150  57.1870550  33.9803890  13.1113780  57.4136070
  21.5635310  29.0239870  57.3595740  21.0382930  29.4047900  56.6557700
  21.4879890  29.6490640  58.0805450  22.9525780  14.6887470  55.9579430
  23.4818540  13.9017270  55.8287380  23.5854100  15.3678660  56.1914960
  25.1463620  14.4262610  59.0124820  24.5166360  13.7249920  59.1794950
  24.6068760  15.1866740  58.7957980  28.0855570  31.0401840  71.6835430
  29.0122880  30.8046110  71.7271390  28.0706000  31.8673840  71.2021460
  25.2719180  13.7046590  71.4477310  24.9903450  14.2080190  70.6838130
  25.6538880  12.9068340  71.0819440  24.1628280  30.9722250  56.2344990
  24.8947100  30.6881530  55.6868880  24.4221950  30.7335530  57.1244370
  23.3243070  27.0886980  56.2391320  22.6951950  27.5572080  56.7877150
  23.4390900  26.2436200  56.6737510  31.8734640  13.1200170  72.0257780
  31.7600090  13.4394780  72.9209300  32.6904380  13.5212680  71.7295060
  34.6533130  30.2671700  71.5076470  35.4458450  29.7720930  71.3002430
  34.9466280  30.9461840  72.1152080  30.7792790  21.1392640  42.3892520
  30.6986840  20.2247250  42.1184230  30.3657210  21.6359710  41.6832230
  28.9110830  22.9171660  44.2701790  28.1352930  22.4372100  44.5600360
  29.5623760  22.2377310  44.0957950  22.9276660  23.2291470  45.1477550
  22.0961540  22.9740180  45.5474060  23.5357640  23.3002240  45.8835470
  22.9077920  27.2631560  45.3435570  23.2105960  26.3729300  45.1645790
  23.6521510  27.8201780  45.1157820  21.3368610  18.1893360  38.9319940
  20.4485310  18.5309330  38.8299820  21.6209800  17.9893680  38.0400770
  19.3001620  20.7899010  44.8159640  19.8717730  20.0221210  44.8163280
  19.3003160  21.0887770  43.9066250  20.5426490  16.1983370  46.6028570
  20.3629330  15.3009120  46.8831330  20.1406570  16.7455240  47.2775520
  29.3824990  18.3999230  44.5040880  29.7589810  17.5271110  44.3914550
  29.2844500  18.7357930  43.6131320  23.5130000  16.7724860  39.9658320
  23.6196750  17.6728590  40.2727080  22.6022360  16.7242830  39.6752970
  33.1649110  15.8949670  41.4369220  33.9858730  15.4046240  41.4794700
  33.1983190  16.4847330  42.1901060  21.1613160  18.6943870  45.2110910
  21.8423270  18.9582240  45.8298310  20.8461210  17.8544740  45.5448920
  25.3537730  19.7411230  44.2983500  25.8615950  20.2392200  44.9388520
  25.8850970  18.9646430  44.1222860  37.4548660  17.9116420  48.0012850
  36.7500830  18.2998130  47.4827960  37.7206580  18.6066710  48.6033780
  23.6373830  14.3809790  48.5646920  23.6392270  14.8982180  47.7592820
  22.8078140  13.9039970  48.5416850  24.8876680  24.0204970  46.7420420
  24.5546060  24.6473890  47.3841490  25.0643360  24.5466850  45.9622090
  33.4010590  17.8350050  44.2096760  32.6966160  18.1234940  44.7899870
  33.7622750  18.6450160  43.8496320  23.3189160  16.0919750  46.5717370
  23.6605970  16.9361800  46.2771240  22.3804970  16.2403490  46.6882710
  24.0995780  25.9885770  48.5569600  24.7169780  26.6636850  48.2754050
  23.2388900  26.3973750  48.4657100  19.3928120  25.1785630  37.4376450
  19.0156100  25.6672730  36.7061350  19.6501190  25.8510910  38.0682980
  36.4697510  17.2804840  44.6005970  35.5222420  17.3143820  44.7321400
  36.7947500  18.0943790  44.9855330  27.0017050  13.5802020  42.8961960
  27.3092030  13.0248910  42.1797460  26.0717750  13.7146480  42.7134950
  29.3897810  21.6450850  39.6322080  28.4627090  21.5788230  39.8610550
  29.5422630  22.5830980  39.5177320  29.3766890  17.9167850  36.6289240
  28.4370560  18.0781810  36.7141700  29.6950150  18.6353530  36.0825230
  32.8621660  19.3855690  47.5523140  32.4492840  20.2109400  47.8063130
  32.1297610  18.8000730  47.3599500  24.9954450  22.1715590  42.4141810
  24.5911450  21.4592840  41.9187710  25.0817570  21.8268830  43.3029850
  23.7083070  18.9458800  46.1940850  24.2597660  19.0554140  45.4194100
  24.2226580  19.3196400  46.9096080  24.5554580  25.5964840  51.2288820
  23.6583110  25.8204810  51.4762220  24.5807450  25.7199780  50.2800220
  23.3825800  22.4678160  49.8046190  23.2433570  23.3400960  50.1733590
  22.5007160  22.1250970  49.6594130  25.1806150  28.4099860  52.0131340
  25.1521580  28.8142810  51.1459770  25.0171120  27.4810220  51.8502940
  35.1776940  13.7000770  35.4571120  34.8649600  13.7927600  36.3570190
  35.9389410  14.2781800  35.4068550  21.6959080  21.0660570  39.9148460
  21.5756680  21.7922660  39.3029730  21.3859970  20.2963480  39.4376370
  19.3344450  24.2375710  45.7217100  19.4124870  24.3724480  44.7772820
  19.9486130  23.5291600  45.9145220  20.5792080  25.9375900  42.1323280
  20.1720160  26.0790490  41.2776880  21.4705090  25.6536060  41.9294490
  24.8513740  30.1521680  40.2445950  24.6756220  29.2357220  40.0313750
  23.9969480  30.5108970  40.4843750  36.3878230  18.4372270  51.4345260
  35.7722500  18.9451940  50.9060720  36.0674650  17.5370600  51.3771200
  19.3903970  25.2789880  48.2611560  19.5535010  24.8095240  47.4430930
  19.8556420  24.7713440  48.9260400  24.1622740  14.4095640  43.2972130
  23.7190890  15.1905180  42.9656650  24.7207730  14.7325530  44.0043070
  28.4492550  17.2764160  48.9007450  27.9871920  17.4847180  49.7127390
  28.0470660  16.4623510  48.5978120  33.4497060  18.4973110  50.0304110
  32.5990650  18.1978860  50.3513180  33.2898850  18.7415120  49.1187930
  30.5446770  19.9974860  52.1302900  30.8700180  19.1638610  51.7905130
  31.3327100  20.5203380  52.2781230  27.2781560  14.0306340  38.1777960
  26.6535740  14.0266210  38.9031270  27.1911680  13.1637300  37.7813930
  26.1998640  14.9542970  45.1561730  26.4970970  15.8605800  45.0753750
  26.7484200  14.4661750  44.5421300  23.9536960  19.5329210  41.0253380
  23.7277880  19.3166380  41.9300000  23.1729490  19.9657670  40.6799350
  31.1834720  19.5392580  39.6244030  30.5843610  20.2628380  39.4407650
  31.7314330  19.4769360  38.8420480  26.3936170  20.4314790  51.6913650
  26.2979770  19.4909520  51.5414050  27.2368150  20.6529860  51.2961720
  29.7899590  18.1756120  41.6547310  30.1829160  18.4928320  40.8416000
  30.1516440  17.2968000  41.7691830  21.5246710  16.8428460  49.8447430
  21.1310100  17.6903670  50.0520210  20.8365110  16.2054830  50.0356070
  28.0991760  16.9263430  52.9144170  27.4090080  16.7335630  53.5490260
  28.8424060  17.2098070  53.4468470  18.8263760  14.7656920  43.8777510
  18.5376810  15.3359780  44.5902490  19.5709520  14.2861370  44.2408740
  19.0133990  18.7077040  35.0880230  18.9308660  19.6507800  35.2295220
  18.6617050  18.5651950  34.2092580  30.3754730  20.7661870  45.7498090
  29.6435850  21.2748680  46.0988190  29.9779070  19.9491850  45.4486870
  26.8132120  17.4416070  44.1550580  26.8168180  17.0006020  43.3055120
  27.7083240  17.7633400  44.2622400  22.6634500  17.3242560  43.1144790
  22.3234550  17.8017790  43.8711840  21.9011820  16.8707680  42.7545890
  26.8752270  18.4428150  37.1457340  26.9965090  18.4014630  38.0943160
  26.4900780  19.3052300  36.9904070  30.8380640  16.2195550  45.1621030
  30.8553380  16.6704200  46.0062880  30.5896220  15.3201190  45.3754470
  25.8873770  20.7529290  36.5440640  25.3190670  20.3047540  35.9176550
  26.5962770  21.1122070  36.0105790  34.2651390  13.6327730  51.0007410
  34.5897160  12.9017390  51.5265390  34.3007900  13.3141370  50.0988400
  20.9642950  24.6541310  50.4207370  20.5797740  24.0134980  51.0190330
  21.2755140  25.3577430  50.9902100  27.1140090  21.5017850  45.9015990
  27.4810220  21.0276420  46.6477330  26.9245150  22.3759420  46.2424330
  19.9780580  16.2461540  42.0309460  19.6927500  15.8817210  42.8688080
  19.9159440  15.5142000  41.4172600  24.9039460  20.5426490  48.2200200
  24.5996530  21.4218470  48.4450560  25.8585920  20.6026280  48.2557640
  23.4321250  24.7487480  38.8167050  22.6583510  24.2085100  38.6565770
  24.1615880  24.2294090  38.4784810  29.6519170  15.1390800  38.7522830
  28.8383780  14.6403970  38.6768140  29.4581120  15.9789050  38.3359180
  32.3667560  19.5110450  37.0484990  33.2547180  19.8227680  36.8736330
  32.3372650  18.6382700  36.6565570  23.4758650  24.4167860  42.4545860
  23.9937320  23.6136120  42.4002750  23.0242670  24.3547000  43.2962690
  20.9603190  21.3829230  49.3671560  20.6018130  22.0483080  49.9544900
  20.6657750  20.5512780  49.7384180  24.1616310  21.8413470  52.2511110
  23.8616450  21.9870650  51.3538930  24.9327550  21.2818760  52.1584500
  34.6381830  20.8222290  36.5164850  34.5545550  21.2536510  35.6661290
  35.3576020  21.2820640  36.9491670  19.4711240  21.3820490  35.9906160
  20.3406090  21.6645290  36.2742080  18.9801560  22.1956360  35.8754970
  22.5357830  13.1131350  40.5836960  22.4072460  13.1049250  41.5321880
  21.7119850  13.4514440  40.2327970  19.8382490  30.5947870  36.5567790
  20.1980130  31.1937210  35.9025060  19.6974830  31.1407760  37.3302820
  19.5351760  14.8722470  50.0443660  18.8210280  15.0719390  50.6496270
  19.9546800  14.0962040  50.4158460  19.8224350  28.8602730  51.0310190
  19.9315470  27.9197470  50.8905580  19.1704910  29.1257480  50.3823920
  21.4557750  23.1993960  38.1188220  20.8485700  23.9392860  38.1283520
  21.9307100  23.2893320  37.2926420  31.0290540  17.3644780  47.7945110
  31.3971360  16.5439990  48.1224680  30.1688740  17.4246670  48.2100760
  34.3952570  16.3201720  38.6032670  33.7665730  16.4247390  37.8890900
  33.9004490  16.5398500  39.3926550  26.3636600  18.5987670  40.0190550
  25.6552750  19.0674010  40.4604160  26.6481080  17.9409680  40.6535740
  27.9892530  20.0184370  48.0183080  28.4877780  20.4930190  48.6834930
  28.1315480  19.0947890  48.2253110  30.3952030  15.3238330  41.4586340
  30.2719810  15.3424460  40.5095850  31.3436590  15.3717270  41.5784740
  24.5671620  16.9072750  37.3941260  25.4162150  17.3442900  37.3281450
  24.2002890  17.2193010  38.2213320  35.1959390  16.2352330  48.8611470
  34.6932990  16.9757730  49.2005280  36.0116050  16.6236330  48.5448260
  23.4663040  23.1605110  35.8676790  24.2326310  23.0486470  36.4302220
  23.5437730  22.4643080  35.2153560  22.1609800  20.5930180  36.5509680
  22.2413390  19.6457690  36.6627080  23.0529550  20.9237060  36.6570340
  22.9624510  30.7425570  43.6544220  23.6986990  30.1941030  43.9252790
  23.3465430  31.6081580  43.5150210  19.8469990  26.8099140  39.5285730
  18.9209770  27.0520280  39.5191140  20.3126420  27.6373400  39.4070480
  21.9682790  29.9271640  52.8429800  22.7695520  30.2483690  53.2565200
  21.4534610  29.5667220  53.5649710  19.6880600  22.4145100  51.7865850
  20.1919620  21.8352380  52.3582080  18.9488020  22.6985330  52.3242220
  26.7418540  23.8216090  51.3201370  25.9764210  24.3901090  51.2356040
  26.9234500  23.5292300  50.4269600  21.7203680  20.5574690  52.6815920
  21.7609020  20.2588560  53.5901150  22.5749180  20.9582300  52.5223440
  25.4982070  23.1570240  37.8419430  25.9198490  22.9910110  38.6850820
  25.6232910  22.3470470  37.3474570  23.6609490  19.1366790  50.6490410
  23.1305950  18.6457740  50.0213750  24.3297560  19.5650990  50.1148340
  28.0109710  22.1807850  35.0896530  28.5315370  21.4656870  34.7237680
  28.6578110  22.8193720  35.3897040  33.0309720  20.9432410  52.4170750
  33.6130490  20.1884730  52.3291230  33.2071490  21.4739850  51.6402230
  24.1481790  16.1029160  50.7287700  24.0538660  15.4849910  50.0038570
  23.5679180  16.8295450  50.5017610  26.9143230  14.6602400  47.7615090
  26.4660530  14.6826660  46.9160640  26.2808430  14.2621420  48.3585390
  29.6566680  21.2872910  49.7665370  29.7762890  20.6914050  50.5060210
  30.5160680  21.3242600  49.3466670  24.3940970  19.2303470  34.7877590
  24.1930030  18.3670830  35.1490930  24.2233020  19.1436830  33.8499190
  25.1710200  29.8609740  49.4985260  24.6331290  30.5855800  49.1793960
  25.4244160  29.3840080  48.7082600  26.4235450  17.8294260  51.0241190
  27.0135140  17.5210110  51.7119010  25.6055690  17.3574010  51.1801090
  31.2428880  17.4460070  51.2574210  30.5544400  16.7841610  51.1924200
  31.9634900  16.9998340  51.7022670  31.8729280  14.0411700  37.3164470
  32.1531570  13.1979600  37.6723890  31.0995010  14.2734810  37.8303220
  23.1923770  16.3304090  34.7755470  23.4949670  16.3371520  33.8674620
  23.9318360  15.9801950  35.2723130  26.4108700  15.2738710  35.7611670
  26.0630700  14.5962700  35.1814120  26.6121470  14.8128220  36.5755060
  22.2153900  25.6346510  35.6085270  22.6528770  26.1776180  36.2642850
  22.7001630  24.8093460  35.6181610  19.4299700  28.4235540  43.0605530
  19.7602710  27.5556600  42.8284170  19.8590700  28.6294060  43.8910490
  24.0261620  26.7544550  40.7207500  23.7257160  26.6309520  41.6211410
  23.9199110  25.8953140  40.3123230  19.9189910  29.2906130  45.7987160
  19.4820900  29.4706930  46.6311310  20.4867590  30.0480750  45.6568880
  19.7514340  21.8026360  42.1576040  19.0963180  21.5338000  41.5135740
  20.5892290  21.6930840  41.7078020  32.7004780  16.5967650  36.3794530
  33.1189660  16.4098630  35.5391190  32.3940840  15.7446700  36.6897460
  36.1994510  21.5091790  40.0770330  35.8238110  20.7419720  39.6451620
  35.4697630  21.8914490  40.5645260  20.7890270  22.1878930  46.6979380
  21.1563310  22.1006330  47.5775400  20.2201090  21.4245480  46.5986240
  20.3406270  19.0988020  50.6037800  19.4462320  19.0654780  50.9431510
  20.8803820  19.2974810  51.3689050  34.0282200  15.8819740  52.4889550
  34.9052380  15.8903140  52.8723550  34.0403040  15.1450580  51.8781900
  18.9652420  19.0125290  38.1001370  18.0616500  19.2755490  37.9253030
  19.4493040  19.2836460  37.3201330  35.4745470  19.7349280  43.3777570
  35.9982950  19.2411930  42.7467740  36.0604890  19.8699640  44.1225140
  35.6535190  19.8189150  46.8997120  34.7037900  19.7852690  47.0142110
  35.8348200  20.7289260  46.6646890  21.5079630  18.0690830  36.0095750
  22.2171330  17.6474050  35.5243030  20.7919570  18.1366060  35.3779100
  21.1553790  14.1230160  35.0498400  21.8781920  14.6639100  35.3679620
  21.4278310  13.8493580  34.1739940  34.9645440  18.9922630  39.3169980
  35.4604560  18.7593500  40.1018860  34.7661510  18.1534470  38.9007620
  20.8445980  13.3736350  44.9521020  21.4922170  12.8233730  44.5116180
  21.2647820  13.6279500  45.7736830  36.3932600  17.6283580  41.8507660
  36.2831880  17.4739620  42.7889930  37.1540190  17.1004520  41.6083070
  34.7398320  13.5677710  48.3090660  35.3770540  14.1811850  48.6749850
  34.8873210  13.6038370  47.3639890  37.2822870  15.4591500  35.0913800
  38.2072180  15.3272680  34.8832090  37.2598660  15.5384320  36.0450250
  37.3561360  16.2302160  37.7170510  36.5612860  16.1647280  38.2463420
  37.5604640  17.1652800  37.7055860  20.5977980  13.5292020  47.6946340
  20.2492800  13.9855840  48.4604520  20.2665680  12.6349150  47.7768770
  22.2042350  26.7011620  51.8599530  22.1611980  26.3304530  52.7413990
  22.3353360  27.6389190  52.0001350  28.1102800  14.7203900  51.2165760
  28.0491690  15.3125730  51.9661170  29.0503180  14.6129860  51.0716020
  30.7477360  14.3773960  50.8558050  31.3617770  14.6953250  50.1939130
  31.2926920  13.8922550  51.4753910  21.2698620  13.0568220  50.9697110
  21.8181610  12.8756270  50.2063220  21.3353930  12.2662330  51.5053420
  22.0430380  29.6473870  48.9797310  21.4490700  29.5158570  49.7187350
  22.0354220  28.8112010  48.5139410  31.4885400  12.9406100  47.1827340
  30.6145240  13.2741210  46.9800270  31.3796150  12.4679280  48.0079210
  32.3957380  15.1476970  48.5669060  32.0670740  14.3328730  48.1870790
  33.3439680  15.1046780  48.4434750  21.6742610  27.0132250  47.9305350
  20.9476670  26.3937540  47.8631300  21.7351760  27.4072860  47.0603430
  29.2360220  13.8575940  46.1220250  28.4532010  14.3321440  46.4017010
  28.9423150  12.9530770  46.0133430  33.7881290  14.5599040  44.1669340
  34.2289380  14.5044140  43.3190940  33.5188880  15.4757050  44.2379520
  35.6519860  14.1914280  42.1778160  35.5908260  13.2475500  42.0309180
  36.4311890  14.2994370  42.7231620  19.9572610  30.3306640  41.1402110
  19.7894650  29.6977320  41.8384000  19.0907120  30.5366040  40.7896300
  20.5800630  14.1623420  38.6433970  21.3379990  14.2752300  38.0698000
  20.1177800  14.9992620  38.5977400  27.1214440  16.2762690  41.6336280
  26.3088950  15.9019580  41.2932160  27.6256080  15.5207770  41.9357470
  31.6239420  12.9405140  42.8719350  32.2268790  13.5125350  43.3467870
  30.8832410  13.5044580  42.6493250  34.7674020  13.3426700  38.1459630
  34.9624650  14.2410150  38.4127060  33.9803890  13.1113780  38.6392580
  21.5635310  29.0239870  38.5852250  21.0382930  29.4047900  37.8814210
  21.4879890  29.6490640  39.3061960  22.9525780  14.6887470  37.1835940
  23.4818540  13.9017270  37.0543890  23.5854100  15.3678660  37.4171470
  25.1463620  14.4262610  40.2381330  24.5166360  13.7249920  40.4051460
  24.6068760  15.1866740  40.0214490  25.2719180  13.7046590  52.6733820
  24.9903450  14.2080190  51.9094640  25.6538880  12.9068340  52.3075950
  24.1628280  30.9722250  37.4601500  24.8947100  30.6881530  36.9125390
  24.4221950  30.7335530  38.3500880  23.3243070  27.0886980  37.4647830
  22.6951950  27.5572080  38.0133660  23.4390900  26.2436200  37.8994020
  31.8734640  13.1200170  53.2514290  31.7600090  13.4394780  54.1465810
  32.6904380  13.5212680  52.9551570  30.7792790  21.1392640  23.6149030
  30.6986840  20.2247250  23.3440740  30.3657210  21.6359710  22.9088740
  28.9110830  22.9171660  25.4958300  28.1352930  22.4372100  25.7856870
  29.5623760  22.2377310  25.3214460  22.9276660  23.2291470  26.3734060
  22.0961540  22.9740180  26.7730570  23.5357640  23.3002240  27.1091980
  22.9077920  27.2631560  26.5692080  23.2105960  26.3729300  26.3902300
  23.6521510  27.8201780  26.3414330  21.3368610  18.1893360  20.1576450
  20.4485310  18.5309330  20.0556330  21.6209800  17.9893680  19.2657280
  19.3001620  20.7899010  26.0416150  19.8717730  20.0221210  26.0419790
  19.3003160  21.0887770  25.1322760  20.5426490  16.1983370  27.8285080
  20.3629330  15.3009120  28.1087840  20.1406570  16.7455240  28.5032030
  29.3824990  18.3999230  25.7297390  29.7589810  17.5271110  25.6171060
  29.2844500  18.7357930  24.8387830  23.5130000  16.7724860  21.1914830
  23.6196750  17.6728590  21.4983590  22.6022360  16.7242830  20.9009480
  33.1649110  15.8949670  22.6625730  33.9858730  15.4046240  22.7051210
  33.1983190  16.4847330  23.4157570  21.1613160  18.6943870  26.4367420
  21.8423270  18.9582240  27.0554820  20.8461210  17.8544740  26.7705430
  25.3537730  19.7411230  25.5240010  25.8615950  20.2392200  26.1645030
  25.8850970  18.9646430  25.3479370  37.4548660  17.9116420  29.2269360
  36.7500830  18.2998130  28.7084470  37.7206580  18.6066710  29.8290290
  23.6373830  14.3809790  29.7903430  23.6392270  14.8982180  28.9849330
  22.8078140  13.9039970  29.7673360  30.0244920  24.4929100  21.2893330
  29.4062190  24.9578550  20.7256050  30.5368170  25.1856580  21.7062840
  24.8876680  24.0204970  27.9676930  24.5546060  24.6473890  28.6098000
  25.0643360  24.5466850  27.1878600  33.4010590  17.8350050  25.4353270
  32.6966160  18.1234940  26.0156380  33.7622750  18.6450160  25.0752830
  23.3189160  16.0919750  27.7973880  23.6605970  16.9361800  27.5027750
  22.3804970  16.2403490  27.9139220  19.3928120  25.1785630  18.6632960
  19.0156100  25.6672730  17.9317860  19.6501190  25.8510910  19.2939490
  36.4697510  17.2804840  25.8262480  35.5222420  17.3143820  25.9577910
  36.7947500  18.0943790  26.2111840  27.0017050  13.5802020  24.1218470
  27.3092030  13.0248910  23.4053970  26.0717750  13.7146480  23.9391460
  33.8477530  26.0185530  21.5016100  33.7373860  25.0759860  21.6265520
  33.8445780  26.3801170  22.3878860  29.3897810  21.6450850  20.8578590
  28.4627090  21.5788230  21.0867060  29.5422630  22.5830980  20.7433830
  29.3766890  17.9167850  17.8545750  28.4370560  18.0781810  17.9398210
  29.6950150  18.6353530  17.3081740  35.8979650  22.5986370  27.8324780
  35.0698280  22.6679460  27.3574910  36.4930130  23.1840680  27.3640610
  33.4195100  23.2071150  21.3613840  32.8007520  22.8690700  20.7140140
  33.4019550  22.5630910  22.0693030  32.8621660  19.3855690  28.7779650
  32.4492840  20.2109400  29.0319640  32.1297610  18.8000730  28.5856010
  24.9954450  22.1715590  23.6398320  24.5911450  21.4592840  23.1444220
  25.0817570  21.8268830  24.5286360  25.4636150  25.8583150  25.8037530
  25.1664440  25.2528620  25.1245310  26.4135970  25.8960460  25.6926890
  23.7083070  18.9458800  27.4197360  24.2597660  19.0554140  26.6450610
  24.2226580  19.3196400  28.1352590  31.5959800  22.4457960  18.3686590
  32.0353080  21.6080390  18.2224410  32.3088220  23.0787360  18.4550730
  23.3825800  22.4678160  31.0302700  23.2433570  23.3400960  31.3990100
  22.5007160  22.1250970  30.8850640  29.7055180  27.3854030  22.3367830
  30.1451090  28.1278360  21.9223220  29.6442070  27.6280600  23.2606790
  35.1776940  13.7000770  16.6827630  34.8649600  13.7927600  17.5826700
  35.9389410  14.2781800  16.6325060  21.6959080  21.0660570  21.1404970
  21.5756680  21.7922660  20.5286240  21.3859970  20.2963480  20.6632880
  19.3344450  24.2375710  26.9473610  19.4124870  24.3724480  26.0029330
  19.9486130  23.5291600  27.1401730  20.5792080  25.9375900  23.3579790
  20.1720160  26.0790490  22.5033390  21.4705090  25.6536060  23.1551000
  32.3725360  30.3723150  19.6930840  32.2126500  30.0826090  20.5912670
  32.2072070  29.5963280  19.1576070  24.8513740  30.1521680  21.4702460
  24.6756220  29.2357220  21.2570260  23.9969480  30.5108970  21.7100260
  32.0751490  27.8810710  18.2528840  31.3816650  27.8788000  17.5931120
  32.8174350  27.4570030  17.8223010  31.6401420  29.5073420  22.3277330
  32.0958370  28.7262800  22.6415950  31.9793940  30.2180240  22.8718510
  36.3878230  18.4372270  32.6601770  35.7722500  18.9451940  32.1317230
  36.0674650  17.5370600  32.6027710  19.3903970  25.2789880  29.4868070
  19.5535010  24.8095240  28.6687440  19.8556420  24.7713440  30.1516910
  24.1622740  14.4095640  24.5228640  23.7190890  15.1905180  24.1913160
  24.7207730  14.7325530  25.2299580  28.4492550  17.2764160  30.1263960
  27.9871920  17.4847180  30.9383900  28.0470660  16.4623510  29.8234630
  33.4497060  18.4973110  31.2560620  32.5990650  18.1978860  31.5769690
  33.2898850  18.7415120  30.3444440  30.5446770  19.9974860  33.3559410
  30.8700180  19.1638610  33.0161640  31.3327100  20.5203380  33.5037740
  27.2781560  14.0306340  19.4034470  26.6535740  14.0266210  20.1287780
  27.1911680  13.1637300  19.0070440  26.1998640  14.9542970  26.3818240
  26.4970970  15.8605800  26.3010260  26.7484200  14.4661750  25.7677810
  23.9536960  19.5329210  22.2509890  23.7277880  19.3166380  23.1556510
  23.1729490  19.9657670  21.9055860  31.1834720  19.5392580  20.8500540
  30.5843610  20.2628380  20.6664160  31.7314330  19.4769360  20.0676990
  26.3936170  20.4314790  32.9170160  26.2979770  19.4909520  32.7670560
  27.2368150  20.6529860  32.5218230  29.7899590  18.1756120  22.8803820
  30.1829160  18.4928320  22.0672510  30.1516440  17.2968000  22.9948340
  21.5246710  16.8428460  31.0703940  21.1310100  17.6903670  31.2776720
  20.8365110  16.2054830  31.2612580  28.0991760  16.9263430  34.1400680
  27.4090080  16.7335630  34.7746770  28.8424060  17.2098070  34.6724980
  18.8263760  14.7656920  25.1034020  18.5376810  15.3359780  25.8159000
  19.5709520  14.2861370  25.4665250  19.0133990  18.7077040  16.3136740
  18.9308660  19.6507800  16.4551730  18.6617050  18.5651950  15.4349090
  30.3754730  20.7661870  26.9754600  29.6435850  21.2748680  27.3244700
  29.9779070  19.9491850  26.6743380  26.8132120  17.4416070  25.3807090
  26.8168180  17.0006020  24.5311630  27.7083240  17.7633400  25.4878910
  22.6634500  17.3242560  24.3401300  22.3234550  17.8017790  25.0968350
  21.9011820  16.8707680  23.9802400  26.8752270  18.4428150  18.3713850
  26.9965090  18.4014630  19.3199670  26.4900780  19.3052300  18.2160580
  30.8380640  16.2195550  26.3877540  30.8553380  16.6704200  27.2319390
  30.5896220  15.3201190  26.6010980  25.8873770  20.7529290  17.7697150
  25.3190670  20.3047540  17.1433060  26.5962770  21.1122070  17.2362300
  34.2651390  13.6327730  32.2263920  34.5897160  12.9017390  32.7521900
  34.3007900  13.3141370  31.3244910  20.9642950  24.6541310  31.6463880
  20.5797740  24.0134980  32.2446840  21.2755140  25.3577430  32.2158610
  27.1140090  21.5017850  27.1272500  27.4810220  21.0276420  27.8733840
  26.9245150  22.3759420  27.4680840  19.9780580  16.2461540  23.2565970
  19.6927500  15.8817210  24.0944590  19.9159440  15.5142000  22.6429110
  24.9039460  20.5426490  29.4456710  24.5996530  21.4218470  29.6707070
  25.8585920  20.6026280  29.4814150  23.4321250  24.7487480  20.0423560
  22.6583510  24.2085100  19.8822280  24.1615880  24.2294090  19.7041320
  34.1909230  23.7452840  25.8349950  34.9108350  24.2408130  25.4446060
  33.9891050  23.0670730  25.1903820  29.6519170  15.1390800  19.9779340
  28.8383780  14.6403970  19.9024650  29.4581120  15.9789050  19.5615690
  32.3667560  19.5110450  18.2741500  33.2547180  19.8227680  18.0992840
  32.3372650  18.6382700  17.8822080  23.4758650  24.4167860  23.6802370
  23.9937320  23.6136120  23.6259260  23.0242670  24.3547000  24.5219200
  28.3628150  25.6834140  18.9529670  28.7043850  26.4276370  18.4572990
  27.5340860  25.9965260  19.3154500  20.9603190  21.3829230  30.5928070
  20.6018130  22.0483080  31.1801410  20.6657750  20.5512780  30.9640690
  24.1616310  21.8413470  33.4767620  23.8616450  21.9870650  32.5795440
  24.9327550  21.2818760  33.3841010  34.6381830  20.8222290  17.7421360
  34.5545550  21.2536510  16.8917800  35.3576020  21.2820640  18.1748180
  35.7155970  23.2789810  30.8191330  34.9904160  23.8718590  30.6220720
  36.2431430  23.2713350  30.0204700  35.6669080  27.6764550  20.4703490
  35.0245240  27.0220170  20.7447210  35.2799740  28.0819640  19.6944160
  27.3318840  25.7647670  21.7245590  28.0189970  26.3116880  22.1053180
  26.5451260  26.3088400  21.7595200  19.4711240  21.3820490  17.2162670
  20.3406090  21.6645290  17.4998590  18.9801560  22.1956360  17.1011480
  26.6346050  22.7693700  21.3370950  27.0908830  23.5798950  21.5631140
  26.2834260  22.4516840  22.1689440  22.5357830  13.1131350  21.8093470
  22.4072460  13.1049250  22.7578390  21.7119850  13.4514440  21.4584480
  34.0566460  26.5681010  17.0079840  33.8304040  25.8511450  17.6004480
  33.6662660  26.3193450  16.1701590  19.8382490  30.5947870  17.7824300
  20.1980130  31.1937210  17.1281570  19.6974830  31.1407760  18.5559330
  19.5351760  14.8722470  31.2700170  18.8210280  15.0719390  31.8752780
  19.9546800  14.0962040  31.6414970  33.6382710  24.4852950  18.6694000
  33.3504410  24.9465640  19.4571880  34.4334880  24.0250720  18.9378220
  19.8224350  28.8602730  32.2566700  19.9315470  27.9197470  32.1162090
  19.1704910  29.1257480  31.6080430  25.8551110  27.9779070  18.5997970
  25.8461210  28.7108760  17.9842480  24.9349470  27.7310650  18.6924930
  21.4557750  23.1993960  19.3444730  20.8485700  23.9392860  19.3540030
  21.9307100  23.2893320  18.5182930  31.0290540  17.3644780  29.0201620
  31.3971360  16.5439990  29.3481190  30.1688740  17.4246670  29.4357270
  34.3952570  16.3201720  19.8289180  33.7665730  16.4247390  19.1147410
  33.9004490  16.5398500  20.6183060  28.8410710  28.0407310  17.2623160
  28.9422690  27.8371300  16.3325140  27.9412450  27.7865590  17.4670940
  26.3636600  18.5987670  21.2447060  25.6552750  19.0674010  21.6860670
  26.6481080  17.9409680  21.8792250  27.9892530  20.0184370  29.2439590
  28.4877780  20.4930190  29.9091440  28.1315480  19.0947890  29.4509620
  30.3952030  15.3238330  22.6842850  30.2719810  15.3424460  21.7352360
  31.3436590  15.3717270  22.8041250  27.4828820  30.5593630  21.9570830
  27.7370320  30.5215020  21.0350200  26.5341300  30.4326960  21.9499080
  24.5671620  16.9072750  18.6197770  25.4162150  17.3442900  18.5537960
  24.2002890  17.2193010  19.4469830  35.1959390  16.2352330  30.0867980
  34.6932990  16.9757730  30.4261790  36.0116050  16.6236330  29.7704770
  33.4881400  21.4785510  23.5329340  32.5471540  21.4935740  23.7077030
  33.8025470  20.6921470  23.9789640  23.4663040  23.1605110  17.0933300
  24.2326310  23.0486470  17.6558730  23.5437730  22.4643080  16.4410070
  22.1609800  20.5930180  17.7766190  22.2413390  19.6457690  17.8883590
  23.0529550  20.9237060  17.8826850  22.9624510  30.7425570  24.8800730
  23.6986990  30.1941030  25.1509300  23.3465430  31.6081580  24.7406720
  19.8469990  26.8099140  20.7542240  18.9209770  27.0520280  20.7447650
  20.3126420  27.6373400  20.6326990  21.9682790  29.9271640  34.0686310
  22.7695520  30.2483690  34.4821710  21.4534610  29.5667220  34.7906220
  26.0726820  29.9155880  16.7026300  26.8655430  30.2044710  16.2508090
  25.5531170  29.4848050  16.0238780  35.1256990  29.1426010  18.1263040
  34.8398500  28.7291150  17.3117220  34.9276540  30.0713720  18.0063560
  19.6880600  22.4145100  33.0122360  20.1919620  21.8352380  33.5838590
  18.9488020  22.6985330  33.5498730  26.5904220  25.1359290  16.5668650
  26.4854860  24.5211640  17.2930030  26.4228440  24.6125180  15.7831660
  26.7418540  23.8216090  32.5457880  25.9764210  24.3901090  32.4612550
  26.9234500  23.5292300  31.6526110  29.8306950  24.1979320  17.1710640
  29.2817050  24.6448620  17.8153380  30.4526210  23.6928570  17.6948310
  21.7203680  20.5574690  33.9072430  21.7609020  20.2588560  34.8157660
  22.5749180  20.9582300  33.7479950  25.4982070  23.1570240  19.0675940
  25.9198490  22.9910110  19.9107330  25.6232910  22.3470470  18.5731080
  23.6609490  19.1366790  31.8746920  23.1305950  18.6457740  31.2470260
  24.3297560  19.5650990  31.3404850  28.0109710  22.1807850  16.3153040
  28.5315370  21.4656870  15.9494190  28.6578110  22.8193720  16.6153550
  33.0309720  20.9432410  33.6427260  33.6130490  20.1884730  33.5547740
  33.2071490  21.4739850  32.8658740  24.1481790  16.1029160  31.9544210
  24.0538660  15.4849910  31.2295080  23.5679180  16.8295450  31.7274120
  26.9143230  14.6602400  28.9871600  26.4660530  14.6826660  28.1417150
  26.2808430  14.2621420  29.5841900  27.3202780  23.5556730  29.6084040
  27.7390890  24.3989460  29.4360280  26.4011410  23.6928770  29.3790820
  29.6566680  21.2872910  30.9921880  29.7762890  20.6914050  31.7316720
  30.5160680  21.3242600  30.5723180  31.9954580  21.8410100  29.5684390
  31.4689800  22.3652720  28.9649530  32.3385920  22.4737490  30.1994120
  24.3940970  19.2303470  16.0134100  24.1930030  18.3670830  16.3747440
  24.2233020  19.1436830  15.0755700  26.4235450  17.8294260  32.2497700
  27.0135140  17.5210110  32.9375520  25.6055690  17.3574010  32.4057600
  31.2428880  17.4460070  32.4830720  30.5544400  16.7841610  32.4180710
  31.9634900  16.9998340  32.9279180  31.8729280  14.0411700  18.5420980
  32.1531570  13.1979600  18.8980400  31.0995010  14.2734810  19.0559730
  23.1923770  16.3304090  16.0011980  23.4949670  16.3371520  15.0931130
  23.9318360  15.9801950  16.4979640  26.4108700  15.2738710  16.9868180
  26.0630700  14.5962700  16.4070630  26.6121470  14.8128220  17.8011570
  28.5757740  30.2619460  18.6054780  29.4708530  30.6004430  18.6273540
  28.6075370  29.5398870  17.9779060  22.2153900  25.6346510  16.8341780
  22.6528770  26.1776180  17.4899360  22.7001630  24.8093460  16.8438120
  19.4299700  28.4235540  24.2862040  19.7602710  27.5556600  24.0540680
  19.8590700  28.6294060  25.1167000  24.0261620  26.7544550  21.9464010
  23.7257160  26.6309520  22.8467920  23.9199110  25.8953140  21.5379740
  19.9189910  29.2906130  27.0243670  19.4820900  29.4706930  27.8567820
  20.4867590  30.0480750  26.8825390  36.7953540  26.5340950  16.6490690
  35.9646500  26.6017600  17.1197920  36.9725370  27.4245070  16.3457550
  36.2510000  23.2788430  19.1524890  37.0128910  23.8485080  19.2584580
  36.2664370  22.7115630  19.9233200  19.7514340  21.8026360  23.3832550
  19.0963180  21.5338000  22.7392250  20.5892290  21.6930840  22.9334530
  37.2569970  24.1338530  23.9966820  37.6278800  23.3505850  23.5902790
  37.8971900  24.8227630  23.8184120  36.3029170  23.5722800  16.3097410
  36.5778010  24.4801680  16.1816630  36.1139910  23.5085330  17.2459400
  32.7004780  16.5967650  17.6051040  33.1189660  16.4098630  16.7647700
  32.3940840  15.7446700  17.9153970  36.1994510  21.5091790  21.3026840
  35.8238110  20.7419720  20.8708130  35.4697630  21.8914490  21.7901770
  20.7890270  22.1878930  27.9235890  21.1563310  22.1006330  28.8031910
  20.2201090  21.4245480  27.8242750  35.5894130  20.6563310  30.9366360
  35.3580220  20.4276060  30.0364310  35.8498680  21.5762860  30.8911250
  20.3406270  19.0988020  31.8294310  19.4462320  19.0654780  32.1688020
  20.8803820  19.2974810  32.5945560  34.0282200  15.8819740  33.7146060
  34.9052380  15.8903140  34.0980060  34.0403040  15.1450580  33.1038410
  18.9652420  19.0125290  19.3257880  18.0616500  19.2755490  19.1509540
  19.4493040  19.2836460  18.5457840  35.4745470  19.7349280  24.6034080
  35.9982950  19.2411930  23.9724250  36.0604890  19.8699640  25.3481650
  35.6535190  19.8189150  28.1253630  34.7037900  19.7852690  28.2398620
  35.8348200  20.7289260  27.8903400  21.5079630  18.0690830  17.2352260
  22.2171330  17.6474050  16.7499540  20.7919570  18.1366060  16.6035610
  21.1553790  14.1230160  16.2754910  21.8781920  14.6639100  16.5936130
  21.4278310  13.8493580  15.3996450  34.9645440  18.9922630  20.5426490
  35.4604560  18.7593500  21.3275370  34.7661510  18.1534470  20.1264130
  20.8445980  13.3736350  26.1777530  21.4922170  12.8233730  25.7372690
  21.2647820  13.6279500  26.9993340  36.3932600  17.6283580  23.0764170
  36.2831880  17.4739620  24.0146440  37.1540190  17.1004520  22.8339580
  34.7398320  13.5677710  29.5347170  35.3770540  14.1811850  29.9006360
  34.8873210  13.6038370  28.5896400  37.2822870  15.4591500  16.3170310
  38.2072180  15.3272680  16.1088600  37.2598660  15.5384320  17.2706760
  37.3561360  16.2302160  18.9427020  36.5612860  16.1647280  19.4719930
  37.5604640  17.1652800  18.9312370  34.2979780  30.2693710  22.9365410
  34.8938850  29.9478280  22.2599830  34.5557930  29.7965530  23.7278680
  20.5977980  13.5292020  28.9202850  20.2492800  13.9855840  29.6861030
  20.2665680  12.6349150  29.0025280  22.2042350  26.7011620  33.0856040
  22.1611980  26.3304530  33.9670500  22.3353360  27.6389190  33.2257860
  28.1102800  14.7203900  32.4422270  28.0491690  15.3125730  33.1917680
  29.0503180  14.6129860  32.2972530  30.7477360  14.3773960  32.0814560
  31.3617770  14.6953250  31.4195640  31.2926920  13.8922550  32.7010420
  21.2698620  13.0568220  32.1953620  21.8181610  12.8756270  31.4319730
  21.3353930  12.2662330  32.7309930  22.0430380  29.6473870  30.2053820
  21.4490700  29.5158570  30.9443860  22.0354220  28.8112010  29.7395920
  31.4885400  12.9406100  28.4083850  30.6145240  13.2741210  28.2056780
  31.3796150  12.4679280  29.2335720  32.3957380  15.1476970  29.7925570
  32.0670740  14.3328730  29.4127300  33.3439680  15.1046780  29.6691260
  21.6742610  27.0132250  29.1561860  20.9476670  26.3937540  29.0887810
  21.7351760  27.4072860  28.2859940  29.2360220  13.8575940  27.3476760
  28.4532010  14.3321440  27.6273520  28.9423150  12.9530770  27.2389940
  33.7881290  14.5599040  25.3925850  34.2289380  14.5044140  24.5447450
  33.5188880  15.4757050  25.4636030  35.6519860  14.1914280  23.4034670
  35.5908260  13.2475500  23.2565690  36.4311890  14.2994370  23.9488130
  19.9572610  30.3306640  22.3658620  19.7894650  29.6977320  23.0640510
  19.0907120  30.5366040  22.0152810  20.5800630  14.1623420  19.8690480
  21.3379990  14.2752300  19.2954510  20.1177800  14.9992620  19.8233910
  27.1214440  16.2762690  22.8592790  26.3088950  15.9019580  22.5188670
  27.6256080  15.5207770  23.1613980  31.6239420  12.9405140  24.0975860
  32.2268790  13.5125350  24.5724380  30.8832410  13.5044580  23.8749760
  34.7674020  13.3426700  19.3716140  34.9624650  14.2410150  19.6383570
  33.9803890  13.1113780  19.8649090  21.5635310  29.0239870  19.8108760
  21.0382930  29.4047900  19.1070720  21.4879890  29.6490640  20.5318470
  22.9525780  14.6887470  18.4092450  23.4818540  13.9017270  18.2800400
  23.5854100  15.3678660  18.6427980  25.1463620  14.4262610  21.4637840
  24.5166360  13.7249920  21.6307970  24.6068760  15.1866740  21.2471000
  36.3200630  30.5827410  21.1322700  36.4952820  29.8965150  20.4883620
  35.6222200  31.1074460  20.7399370  25.2719180  13.7046590  33.8990330
  24.9903450  14.2080190  33.1351150  25.6538880  12.9068340  33.5332460
  24.1628280  30.9722250  18.6858010  24.8947100  30.6881530  18.1381900
  24.4221950  30.7335530  19.5757390  23.3243070  27.0886980  18.6904340
  22.6951950  27.5572080  19.2390170  23.4390900  26.2436200  19.1250530
  31.8734640  13.1200170  34.4770800  31.7600090  13.4394780  35.3722320
  32.6904380  13.5212680  34.1808080  30.7792790  21.1392640   4.8405540
  30.6986840  20.2247250   4.5697250  30.3657210  21.6359710   4.1345250
  28.9110830  22.9171660   6.7214810  28.1352930  22.4372100   7.0113380
  29.5623760  22.2377310   6.5470970  22.9276660  23.2291470   7.5990570
  22.0961540  22.9740180   7.9987080  23.5357640  23.3002240   8.3348490
  32.9318260  27.3231850   5.5013940  32.4699790  26.5519090   5.8301110
  33.7443810  27.3497920   6.0066390  22.9077920  27.2631560   7.7948590
  23.2105960  26.3729300   7.6158810  23.6521510  27.8201780   7.5670840
  19.3001620  20.7899010   7.2672660  19.8717730  20.0221210   7.2676300
  19.3003160  21.0887770   6.3579270  29.1581570  29.6089860   5.1217930
  28.5393010  30.0647360   4.5512370  30.0133350  29.7641320   4.7207630
  28.3519820  25.5928850   6.7284970  28.2828100  24.6518790   6.5674100
  29.1139680  25.6830260   7.3007540  20.5426490  16.1983370   9.0541590
  20.3629330  15.3009120   9.3344350  20.1406570  16.7455240   9.7288540
  29.3824990  18.3999230   6.9553900  29.7589810  17.5271110   6.8427570
  29.2844500  18.7357930   6.0644340  23.5130000  16.7724860   2.4171340
  23.6196750  17.6728590   2.7240100  22.6022360  16.7242830   2.1265990
  33.1649110  15.8949670   3.8882240  33.9858730  15.4046240   3.9307720
  33.1983190  16.4847330   4.6414080  21.1613160  18.6943870   7.6623930
  21.8423270  18.9582240   8.2811330  20.8461210  17.8544740   7.9961940
  25.3537730  19.7411230   6.7496520  25.8615950  20.2392200   7.3901540
  25.8850970  18.9646430   6.5735880  37.4548660  17.9116420  10.4525870
  36.7500830  18.2998130   9.9340980  37.7206580  18.6066710  11.0546800
  23.6373830  14.3809790  11.0159940  23.6392270  14.8982180  10.2105840
  22.8078140  13.9039970  10.9929870  30.0244920  24.4929100   2.5149840
  29.4062190  24.9578550   1.9512560  30.5368170  25.1856580   2.9319350
  24.8876680  24.0204970   9.1933440  24.5546060  24.6473890   9.8354510
  25.0643360  24.5466850   8.4135110  33.4010590  17.8350050   6.6609780
  32.6966160  18.1234940   7.2412890  33.7622750  18.6450160   6.3009340
  23.3189160  16.0919750   9.0230390  23.6605970  16.9361800   8.7284260
  22.3804970  16.2403490   9.1395730  24.0995780  25.9885770  11.0082620
  24.7169780  26.6636850  10.7267070  23.2388900  26.3973750  10.9170120
  35.0173370  27.4525180   8.9237260  34.3336890  28.1224290   8.9153930
  35.5567660  27.6505830   8.1582120  36.4697510  17.2804840   7.0518990
  35.5222420  17.3143820   7.1834420  36.7947500  18.0943790   7.4368350
  27.0017050  13.5802020   5.3474980  27.3092030  13.0248910   4.6310480
  26.0717750  13.7146480   5.1647970  32.5532110  29.2969310   7.6382440
  32.5659270  28.8931600   6.7704700  32.0007330  30.0716600   7.5343870
  33.8477530  26.0185530   2.7272610  33.7373860  25.0759860   2.8522030
  33.8445780  26.3801170   3.6135370  31.9517550  24.1999150   8.9665050
  32.3686340  23.9859260   8.1318510  32.6757370  24.4571940   9.5373670
  29.3897810  21.6450850   2.0835100  28.4627090  21.5788230   2.3123570
  29.5422630  22.5830980   1.9690340  35.8979650  22.5986370   9.0581290
  35.0698280  22.6679460   8.5831420  36.4930130  23.1840680   8.5897120
  33.4195100  23.2071150   2.5870350  32.8007520  22.8690700   1.9396650
  33.4019550  22.5630910   3.2949540  32.8621660  19.3855690  10.0036160
  32.4492840  20.2109400  10.2576150  32.1297610  18.8000730   9.8112520
  24.9954450  22.1715590   4.8654830  24.5911450  21.4592840   4.3700730
  25.0817570  21.8268830   5.7542870  25.4636150  25.8583150   7.0294040
  25.1664440  25.2528620   6.3501820  26.4135970  25.8960460   6.9183400
  23.7083070  18.9458800   8.6453870  24.2597660  19.0554140   7.8707120
  24.2226580  19.3196400   9.3609100  33.5521760  29.4315020  10.6917140
  33.0752320  30.2387210  10.4989750  32.8683550  28.7793350  10.8443350
  24.5554580  25.5964840  13.6801840  23.6583110  25.8204810  13.9275240
  24.5807450  25.7199780  12.7313240  23.3825800  22.4678160  12.2559210
  23.2433570  23.3400960  12.6246610  22.5007160  22.1250970  12.1107150
  29.7055180  27.3854030   3.5624340  30.1451090  28.1278360   3.1479730
  29.6442070  27.6280600   4.4863300  25.1806150  28.4099860  14.4644360
  25.1521580  28.8142810  13.5972790  25.0171120  27.4810220  14.3015960
  21.6959080  21.0660570   2.3661480  21.5756680  21.7922660   1.7542750
  21.3859970  20.2963480   1.8889390  37.1320970  29.1926960  15.7608530
  37.6080690  29.6709850  16.4397610  37.7528130  29.1244450  15.0354030
  19.3344450  24.2375710   8.1730120  19.4124870  24.3724480   7.2285840
  19.9486130  23.5291600   8.3658240  20.5792080  25.9375900   4.5836300
  20.1720160  26.0790490   3.7289900  21.4705090  25.6536060   4.3807510
  36.5354220  26.3839810  12.9208540  36.6617280  26.1451690  12.0025720
  36.5775600  25.5524350  13.3930620  30.3970960  30.0867810  11.4903350
  30.9115630  29.9975820  12.2925780  29.5540040  30.4327510  11.7831260
  24.8513740  30.1521680   2.6958970  24.6756220  29.2357220   2.4826770
  23.9969480  30.5108970   2.9356770  31.6401420  29.5073420   3.5533840
  32.0958370  28.7262800   3.8672460  31.9793940  30.2180240   4.0975020
  36.3878230  18.4372270  13.8858280  35.7722500  18.9451940  13.3573740
  36.0674650  17.5370600  13.8284220  19.3903970  25.2789880  10.7124580
  19.5535010  24.8095240   9.8943950  19.8556420  24.7713440  11.3773420
  24.1622740  14.4095640   5.7485150  23.7190890  15.1905180   5.4169670
  24.7207730  14.7325530   6.4556090  28.4492550  17.2764160  11.3520470
  27.9871920  17.4847180  12.1640410  28.0470660  16.4623510  11.0491140
  33.4497060  18.4973110  12.4817130  32.5990650  18.1978860  12.8026200
  33.2898850  18.7415120  11.5700950  30.5446770  19.9974860  14.5815920
  30.8700180  19.1638610  14.2418150  31.3327100  20.5203380  14.7294250
  26.1998640  14.9542970   7.6074750  26.4970970  15.8605800   7.5266770
  26.7484200  14.4661750   6.9934320  23.9536960  19.5329210   3.4766400
  23.7277880  19.3166380   4.3813020  23.1729490  19.9657670   3.1312370
  31.1834720  19.5392580   2.0757050  30.5843610  20.2628380   1.8920670
  31.7314330  19.4769360   1.2933500  26.3936170  20.4314790  14.1426670
  26.2979770  19.4909520  13.9927070  27.2368150  20.6529860  13.7474740
  29.7899590  18.1756120   4.1060330  30.1829160  18.4928320   3.2929020
  30.1516440  17.2968000   4.2204850  21.5246710  16.8428460  12.2960450
  21.1310100  17.6903670  12.5033230  20.8365110  16.2054830  12.4869090
  28.0991760  16.9263430  15.3657190  27.4090080  16.7335630  16.0003280
  28.8424060  17.2098070  15.8981490  18.8263760  14.7656920   6.3290530
  18.5376810  15.3359780   7.0415510  19.5709520  14.2861370   6.6921760
  30.3754730  20.7661870   8.2011110  29.6435850  21.2748680   8.5501210
  29.9779070  19.9491850   7.8999890  26.8132120  17.4416070   6.6063600
  26.8168180  17.0006020   5.7568140  27.7083240  17.7633400   6.7135420
  22.6634500  17.3242560   5.5657810  22.3234550  17.8017790   6.3224860
  21.9011820  16.8707680   5.2058910  30.8380640  16.2195550   7.6134050
  30.8553380  16.6704200   8.4575900  30.5896220  15.3201190   7.8267490
  34.2651390  13.6327730  13.4520430  34.5897160  12.9017390  13.9778410
  34.3007900  13.3141370  12.5501420  20.9642950  24.6541310  12.8720390
  20.5797740  24.0134980  13.4703350  21.2755140  25.3577430  13.4415120
  27.1140090  21.5017850   8.3529010  27.4810220  21.0276420   9.0990350
  26.9245150  22.3759420   8.6937350  19.9780580  16.2461540   4.4822480
  19.6927500  15.8817210   5.3201100  19.9159440  15.5142000   3.8685620
  24.9039460  20.5426490  10.6713220  24.5996530  21.4218470  10.8963580
  25.8585920  20.6026280  10.7070660  34.1909230  23.7452840   7.0606460
  34.9108350  24.2408130   6.6702570  33.9891050  23.0670730   6.4160330
  29.5728030  23.8161900  12.9475460  29.5065340  22.8957570  12.6933050
  28.9433170  23.9137340  13.6620100  23.4758650  24.4167860   4.9058880
  23.9937320  23.6136120   4.8515770  23.0242670  24.3547000   5.7475710
  20.9603190  21.3829230  11.8184580  20.6018130  22.0483080  12.4057920
  20.6657750  20.5512780  12.1897200  24.1616310  21.8413470  14.7024130
  23.8616450  21.9870650  13.8051950  24.9327550  21.2818760  14.6097520
  29.5044760  26.6382470  12.6979260  29.5189300  25.7063430  12.4798170
  28.7969860  26.7242230  13.3369030  35.7155970  23.2789810  12.0447840
  34.9904160  23.8718590  11.8477230  36.2431430  23.2713350  11.2461210
  31.2455560  25.0049980   5.5431690  31.5979380  24.4078110   4.8833060
  30.3617890  24.6794210   5.7139940  27.3318840  25.7647670   2.9502100
  28.0189970  26.3116880   3.3309690  26.5451260  26.3088400   2.9851710
  26.6346050  22.7693700   2.5627460  27.0908830  23.5798950   2.7887650
  26.2834260  22.4516840   3.3945950  28.9378660  28.2800040   9.7919760
  29.5820880  28.4859420  10.4693180  29.3008100  27.5188440   9.3390610
  22.5357830  13.1131350   3.0349980  22.4072460  13.1049250   3.9834900
  21.7119850  13.4514440   2.6840990  30.2110740  26.2832390   8.5097210
  30.8532970  25.5825550   8.6229380  30.7360090  27.0630830   8.3294100
  31.9848360  27.0827290  11.7133270  32.3204600  27.6693980  12.3911190
  31.0648700  26.9520000  11.9431060  19.5351760  14.8722470  12.4956680
  18.8210280  15.0719390  13.1009290  19.9546800  14.0962040  12.8671480
  19.8224350  28.8602730  13.4823210  19.9315470  27.9197470  13.3418600
  19.1704910  29.1257480  12.8336940  27.8136940  27.1318620  14.8821330
  27.4933810  26.4127860  15.4267020  27.1395300  27.8073690  14.9557390
  31.0290540  17.3644780  10.2458130  31.3971360  16.5439990  10.5737700
  30.1688740  17.4246670  10.6613780  26.3636600  18.5987670   2.4703570
  25.6552750  19.0674010   2.9117180  26.6481080  17.9409680   3.1048760
  27.9892530  20.0184370  10.4696100  28.4877780  20.4930190  11.1347950
  28.1315480  19.0947890  10.6766130  30.3952030  15.3238330   3.9099360
  30.2719810  15.3424460   2.9608870  31.3436590  15.3717270   4.0297760
  27.4828820  30.5593630   3.1827340  27.7370320  30.5215020   2.2606710
  26.5341300  30.4326960   3.1755590  35.1959390  16.2352330  11.3124490
  34.6932990  16.9757730  11.6518300  36.0116050  16.6236330  10.9961280
  33.4881400  21.4785510   4.7585850  32.5471540  21.4935740   4.9333540
  33.8025470  20.6921470   5.2046150  35.4906980  28.6494360   6.4340110
  35.6154400  29.4725530   6.9063920  36.3572540  28.4385090   6.0864260
  22.9624510  30.7425570   6.1057240  23.6986990  30.1941030   6.3765810
  23.3465430  31.6081580   5.9663230  19.8469990  26.8099140   1.9798750
  18.9209770  27.0520280   1.9704160  20.3126420  27.6373400   1.8583500
  21.9682790  29.9271640  15.2942820  22.7695520  30.2483690  15.7078220
  21.4534610  29.5667220  16.0162730  30.8047420  26.0351510  15.2418230
  30.1985580  26.0583110  14.5013980  30.5001530  25.3034550  15.7785480
  32.2347790  29.7631800  13.8527640  33.1869540  29.6789820  13.8027880
  32.0876010  30.4273510  14.5261430  19.6880600  22.4145100  14.2378870
  20.1919620  21.8352380  14.8095100  18.9488020  22.6985330  14.7755240
  26.7418540  23.8216090  13.7714390  25.9764210  24.3901090  13.6869060
  26.9234500  23.5292300  12.8782620  33.8841890  25.5521420  14.3289410
  34.6251360  25.8897180  13.8256870  33.1214570  25.7213480  13.7759180
  21.7203680  20.5574690  15.1328940  21.7609020  20.2588560  16.0414170
  22.5749180  20.9582300  14.9736460  23.6609490  19.1366790  13.1003430
  23.1305950  18.6457740  12.4726770  24.3297560  19.5650990  12.5661360
  32.5587550  23.6036250  12.8644620  32.9728570  23.7581330  13.7135040
  31.6238550  23.7291470  13.0270400  33.0309720  20.9432410  14.8683770
  33.6130490  20.1884730  14.7804250  33.2071490  21.4739850  14.0915250
  24.1481790  16.1029160  13.1800720  24.0538660  15.4849910  12.4551590
  23.5679180  16.8295450  12.9530630  26.9143230  14.6602400  10.2128110
  26.4660530  14.6826660   9.3673660  26.2808430  14.2621420  10.8098410
  27.3202780  23.5556730  10.8340550  27.7390890  24.3989460  10.6616790
  26.4011410  23.6928770  10.6047330  29.6566680  21.2872910  12.2178390
  29.7762890  20.6914050  12.9573230  30.5160680  21.3242600  11.7979690
  31.9954580  21.8410100  10.7940900  31.4689800  22.3652720  10.1906040
  32.3385920  22.4737490  11.4250630  25.1710200  29.8609740  11.9498280
  24.6331290  30.5855800  11.6306980  25.4244160  29.3840080  11.1595620
  26.4235450  17.8294260  13.4754210  27.0135140  17.5210110  14.1632030
  25.6055690  17.3574010  13.6314110  31.2428880  17.4460070  13.7087230
  30.5544400  16.7841610  13.6437220  31.9634900  16.9998340  14.1535690
  28.0272410  31.0960950  12.2084930  27.9531110  31.9996090  12.5157300
  27.1251250  30.7772850  12.1807000  19.4299700  28.4235540   5.5118550
  19.7602710  27.5556600   5.2797190  19.8590700  28.6294060   6.3423510
  24.0261620  26.7544550   3.1720520  23.7257160  26.6309520   4.0724430
  23.9199110  25.8953140   2.7636250  19.9189910  29.2906130   8.2500180
  19.4820900  29.4706930   9.0824330  20.4867590  30.0480750   8.1081900
  35.5552090  28.7923130  12.5377490  34.9554080  28.8515690  11.7941410
  35.6845990  27.8528110  12.6674340  19.7514340  21.8026360   4.6089060
  19.0963180  21.5338000   3.9648760  20.5892290  21.6930840   4.1591040
  37.2569970  24.1338530   5.2223330  37.6278800  23.3505850   4.8159300
  37.8971900  24.8227630   5.0440630  34.2403730  25.5175110  10.6353650
  33.4263570  25.9472270  10.8979440  34.6477930  26.1293520  10.0222700
  36.1994510  21.5091790   2.5283350  35.8238110  20.7419720   2.0964640
  35.4697630  21.8914490   3.0158280  20.7890270  22.1878930   9.1492400
  21.1563310  22.1006330  10.0288420  20.2201090  21.4245480   9.0499260
  35.5894130  20.6563310  12.1622870  35.3580220  20.4276060  11.2620820
  35.8498680  21.5762860  12.1167760  20.3406270  19.0988020  13.0550820
  19.4462320  19.0654780  13.3944530  20.8803820  19.2974810  13.8202070
  34.0282200  15.8819740  14.9402570  34.9052380  15.8903140  15.3236570
  34.0403040  15.1450580  14.3294920  35.4745470  19.7349280   5.8290590
  35.9982950  19.2411930   5.1980760  36.0604890  19.8699640   6.5738160
  35.6535190  19.8189150   9.3510140  34.7037900  19.7852690   9.4655130
  35.8348200  20.7289260   9.1159910  34.9645440  18.9922630   1.7683000
  35.4604560  18.7593500   2.5531880  34.7661510  18.1534470   1.3520640
  20.8445980  13.3736350   7.4034040  21.4922170  12.8233730   6.9629200
  21.2647820  13.6279500   8.2249850  36.3932600  17.6283580   4.3020680
  36.2831880  17.4739620   5.2402950  37.1540190  17.1004520   4.0596090
  34.7398320  13.5677710  10.7603680  35.3770540  14.1811850  11.1262870
  34.8873210  13.6038370   9.8152910  34.2979780  30.2693710   4.1621920
  34.8938850  29.9478280   3.4856340  34.5557930  29.7965530   4.9535190
  20.5977980  13.5292020  10.1459360  20.2492800  13.9855840  10.9117540
  20.2665680  12.6349150  10.2281790  22.2042350  26.7011620  14.3112550
  22.1611980  26.3304530  15.1927010  22.3353360  27.6389190  14.4514370
  25.9048380  28.2571210   9.9122270  25.6639740  28.5245770   9.0252790
  26.8451020  28.4276940   9.9673130  28.1102800  14.7203900  13.6678780
  28.0491690  15.3125730  14.4174190  29.0503180  14.6129860  13.5229040
  30.7477360  14.3773960  13.3071070  31.3617770  14.6953250  12.6452150
  31.2926920  13.8922550  13.9266930  37.1652540  30.2765590  10.7132910
  36.6710820  30.6734460   9.9960040  36.5565830  29.6514800  11.1070190
  21.2698620  13.0568220  13.4210130  21.8181610  12.8756270  12.6576240
  21.3353930  12.2662330  13.9566440  22.0430380  29.6473870  11.4310330
  21.4490700  29.5158570  12.1700370  22.0354220  28.8112010  10.9652430
  31.4885400  12.9406100   9.6340360  30.6145240  13.2741210   9.4313290
  31.3796150  12.4679280  10.4592230  32.3957380  15.1476970  11.0182080
  32.0670740  14.3328730  10.6383810  33.3439680  15.1046780  10.8947770
  34.8491990  30.9189010   7.9919650  34.3894960  31.6704820   7.6177670
  34.2204450  30.1995480   7.9334450  21.6742610  27.0132250  10.3818370
  20.9476670  26.3937540  10.3144320  21.7351760  27.4072860   9.5116450
  25.2787710  29.2277250   7.1667780  25.7952730  28.6164610   6.6416040
  25.9285090  29.7306030   7.6578790  28.0183210  30.1185740   7.9936760
  28.3061020  29.8640040   7.1169770  28.5306430  29.5663100   8.5842330
  29.2360220  13.8575940   8.5733270  28.4532010  14.3321440   8.8530030
  28.9423150  12.9530770   8.4646450  33.7881290  14.5599040   6.6182360
  34.2289380  14.5044140   5.7703960  33.5188880  15.4757050   6.6892540
  35.6519860  14.1914280   4.6291180  35.5908260  13.2475500   4.4822200
  36.4311890  14.2994370   5.1744640  19.9572610  30.3306640   3.5915130
  19.7894650  29.6977320   4.2897020  19.0907120  30.5366040   3.2409320
  27.1214440  16.2762690   4.0849300  26.3088950  15.9019580   3.7445180
  27.6256080  15.5207770   4.3870490  31.6239420  12.9405140   5.3232370
  32.2268790  13.5125350   5.7980890  30.8832410  13.5044580   5.1006270
  25.1463620  14.4262610   2.6894350  24.5166360  13.7249920   2.8564480
  24.6068760  15.1866740   2.4727510  28.0855570  31.0401840  15.3604960
  29.0122880  30.8046110  15.4040920  28.0706000  31.8673840  14.8790990
  36.3200630  30.5827410   2.3579210  36.4952820  29.8965150   1.7140130
  35.6222200  31.1074460   1.9655880  25.2719180  13.7046590  15.1246840
  24.9903450  14.2080190  14.3607660  25.6538880  12.9068340  14.7588970
  31.8734640  13.1200170  15.7027310  31.7600090  13.4394780  16.5978830
  32.6904380  13.5212680  15.4064590  34.6533130  30.2671700  15.1846000
  35.4458450  29.7720930  14.9771960  34.9466280  30.9461840  15.7921610
  28.9110830   4.1428170  81.8188770  28.1352930   3.6628610  82.1087340
  29.5623760   3.4633820  81.6444930  22.9276660   4.4547980  82.6964530
  22.0961540   4.1996690  83.0961040  23.5357640   4.5258750  83.4322450
  32.9318260   8.5488360  80.5987900  32.4699790   7.7775600  80.9275070
  33.7443810   8.5754430  81.1040350  22.9077920   8.4888070  82.8922550
  23.2105960   7.5985810  82.7132770  23.6521510   9.0458290  82.6644800
  29.1581570  10.8346370  80.2191890  28.5393010  11.2903870  79.6486330
  30.0133350  10.9897830  79.8181590  28.3519820   6.8185360  81.8258930
  28.2828100   5.8775300  81.6648060  29.1139680   6.9086770  82.3981500
  30.0244920   5.7185610  77.6123800  29.4062190   6.1835060  77.0486520
  30.5368170   6.4113090  78.0293310  24.8876680   5.2461480  84.2907400
  24.5546060   5.8730400  84.9328470  25.0643360   5.7723360  83.5109070
  24.0995780   7.2142280  86.1056580  24.7169780   7.8893360  85.8241030
  23.2388900   7.6230260  86.0144080  19.3928120   6.4042140  74.9863430
  19.0156100   6.8929240  74.2548330  19.6501190   7.0767420  75.6169960
  35.0173370   8.6781690  84.0211220  34.3336890   9.3480800  84.0127890
  35.5567660   8.8762340  83.2556080  32.5532110  10.5225820  82.7356400
  32.5659270  10.1188110  81.8678660  32.0007330  11.2973110  82.6317830
  33.8477530   7.2442040  77.8246570  33.7373860   6.3016370  77.9495990
  33.8445780   7.6057680  78.7109330  31.9517550   5.4255660  84.0639010
  32.3686340   5.2115770  83.2292470  32.6757370   5.6828450  84.6347630
  29.3897810   2.8707360  77.1809060  28.4627090   2.8044740  77.4097530
  29.5422630   3.8087490  77.0664300  35.8979650   3.8242880  84.1555250
  35.0698280   3.8935970  83.6805380  36.4930130   4.4097190  83.6871080
  33.4195100   4.4327660  77.6844310  32.8007520   4.0947210  77.0370610
  33.4019550   3.7887420  78.3923500  24.9954450   3.3972100  79.9628790
  24.5911450   2.6849350  79.4674690  25.0817570   3.0525340  80.8516830
  25.4636150   7.0839660  82.1268000  25.1664440   6.4785130  81.4475780
  26.4135970   7.1216970  82.0157360  33.5521760  10.6571530  85.7891100
  33.0752320  11.4643720  85.5963710  32.8683550  10.0049860  85.9417310
  31.5959800   3.6714470  74.6917060  32.0353080   2.8336900  74.5454880
  32.3088220   4.3043870  74.7781200  29.7055180   8.6110540  78.6598300
  30.1451090   9.3534870  78.2453690  29.6442070   8.8537110  79.5837260
  21.6959080   2.2917080  77.4635440  21.5756680   3.0179170  76.8516710
  21.3859970   1.5219990  76.9863350  19.3344450   5.4632220  83.2704080
  19.4124870   5.5980990  82.3259800  19.9486130   4.7548110  83.4632200
  20.5792080   7.1632410  79.6810260  20.1720160   7.3047000  78.8263860
  21.4705090   6.8792570  79.4781470  32.3725360  11.5979660  76.0161310
  32.2126500  11.3082600  76.9143140  32.2072070  10.8219790  75.4806540
  24.8513740  11.3778190  77.7932930  24.6756220  10.4613730  77.5800730
  23.9969480  11.7365480  78.0330730  32.0751490   9.1067220  74.5759310
  31.3816650   9.1044510  73.9161590  32.8174350   8.6826540  74.1453480
  31.6401420  10.7329930  78.6507800  32.0958370   9.9519310  78.9646420
  31.9793940  11.4436750  79.1948980  19.3903970   6.5046390  85.8098540
  19.5535010   6.0351750  84.9917910  19.8556420   5.9969950  86.4747380
  25.8873770   1.9785800  74.0927620  25.3190670   1.5304050  73.4663530
  26.5962770   2.3378580  73.5592770  27.1140090   2.7274360  83.4502970
  27.4810220   2.2532930  84.1964310  26.9245150   3.6015930  83.7911310
  24.9039460   1.7683000  85.7687180  24.5996530   2.6474980  85.9937540
  25.8585920   1.8282790  85.8044620  23.4321250   5.9743990  76.3654030
  22.6583510   5.4341610  76.2052750  24.1615880   5.4550600  76.0271790
  34.1909230   4.9709350  82.1580420  34.9108350   5.4664640  81.7676530
  33.9891050   4.2927240  81.5134290  23.4758650   5.6424370  80.0032840
  23.9937320   4.8392630  79.9489730  23.0242670   5.5803510  80.8449670
  28.3628150   6.9090650  75.2760140  28.7043850   7.6532880  74.7803460
  27.5340860   7.2221770  75.6384970  34.6381830   2.0478800  74.0651830
  34.5545550   2.4793020  73.2148270  35.3576020   2.5077150  74.4978650
  35.6669080   8.9021060  76.7933960  35.0245240   8.2476680  77.0677680
  35.2799740   9.3076150  76.0174630  31.2455560   6.2306490  80.6405650
  31.5979380   5.6334620  79.9807020  30.3617890   5.9050720  80.8113900
  27.3318840   6.9904180  78.0476060  28.0189970   7.5373390  78.4283650
  26.5451260   7.5344910  78.0825670  19.4711240   2.6077000  73.5393140
  20.3406090   2.8901800  73.8229060  18.9801560   3.4212870  73.4241950
  26.6346050   3.9950210  77.6601420  27.0908830   4.8055460  77.8861610
  26.2834260   3.6773350  78.4919910  28.9378660   9.5056550  84.8893720
  29.5820880   9.7115930  85.5667140  29.3008100   8.7444950  84.4364570
  30.2110740   7.5088900  83.6071170  30.8532970   6.8082060  83.7203340
  30.7360090   8.2887340  83.4268060  34.0566460   7.7937520  73.3310310
  33.8304040   7.0767960  73.9234950  33.6662660   7.5449960  72.4932060
  19.8382490  11.8204380  74.1054770  20.1980130  12.4193720  73.4512040
  19.6974830  12.3664270  74.8789800  33.6382710   5.7109460  74.9924470
  33.3504410   6.1722150  75.7802350  34.4334880   5.2507230  75.2608690
  25.8551110   9.2035580  74.9228440  25.8461210   9.9365270  74.3072950
  24.9349470   8.9567160  75.0155400  21.4557750   4.4250470  75.6675200
  20.8485700   5.1649370  75.6770500  21.9307100   4.5149830  74.8413400
  28.8410710   9.2663820  73.5853630  28.9422690   9.0627810  72.6555610
  27.9412450   9.0122100  73.7901410  27.4828820  11.7850140  78.2801300
  27.7370320  11.7471530  77.3580670  26.5341300  11.6583470  78.2729550
  33.4881400   2.7042020  79.8559810  32.5471540   2.7192250  80.0307500
  33.8025470   1.9177980  80.3020110  23.4663040   4.3861620  73.4163770
  24.2326310   4.2742980  73.9789200  23.5437730   3.6899590  72.7640540
  35.4906980   9.8750870  81.5314070  35.6154400  10.6982040  82.0037880
  36.3572540   9.6641600  81.1838220  22.9624510  11.9682080  81.2031200
  23.6986990  11.4197540  81.4739770  23.3465430  12.8338090  81.0637190
  19.8469990   8.0355650  77.0772710  18.9209770   8.2776790  77.0678120
  20.3126420   8.8629910  76.9557460  26.0726820  11.1412390  73.0256770
  26.8655430  11.4301220  72.5738560  25.5531170  10.7104560  72.3469250
  35.1256990  10.3682520  74.4493510  34.8398500   9.9547660  73.6347690
  34.9276540  11.2970230  74.3294030  26.5904220   6.3615800  72.8899120
  26.4854860   5.7468150  73.6160500  26.4228440   5.8381690  72.1062130
  29.8306950   5.4235830  73.4941110  29.2817050   5.8705130  74.1383850
  30.4526210   4.9185080  74.0178780  25.4982070   4.3826750  75.3906410
  25.9198490   4.2166620  76.2337800  25.6232910   3.5726980  74.8961550
  28.0109710   3.4064360  72.6383510  28.5315370   2.6913380  72.2724660
  28.6578110   4.0450230  72.9384020  27.3202780   4.7813240  85.9314510
  27.7390890   5.6245970  85.7590750  26.4011410   4.9185280  85.7021290
  31.9954580   3.0666610  85.8914860  31.4689800   3.5909230  85.2880000
  32.3385920   3.6994000  86.5224590  28.5757740  11.4875970  74.9285250
  29.4708530  11.8260940  74.9504010  28.6075370  10.7655380  74.3009530
  22.2153900   6.8603020  73.1572250  22.6528770   7.4032690  73.8129830
  22.7001630   6.0349970  73.1668590  19.4299700   9.6492050  80.6092510
  19.7602710   8.7813110  80.3771150  19.8590700   9.8550570  81.4397470
  24.0261620   7.9801060  78.2694480  23.7257160   7.8566030  79.1698390
  23.9199110   7.1209650  77.8610210  19.9189910  10.5162640  83.3474140
  19.4820900  10.6963440  84.1798290  20.4867590  11.2737260  83.2055860
  36.7953540   7.7597460  72.9721160  35.9646500   7.8274110  73.4428390
  36.9725370   8.6501580  72.6688020  36.2510000   4.5044940  75.4755360
  37.0128910   5.0741590  75.5815050  36.2664370   3.9372140  76.2463670
  19.7514340   3.0282870  79.7063020  19.0963180   2.7594510  79.0622720
  20.5892290   2.9187350  79.2565000  37.2569970   5.3595040  80.3197290
  37.6278800   4.5762360  79.9133260  37.8971900   6.0484140  80.1414590
  34.2403730   6.7431620  85.7327610  33.4263570   7.1728780  85.9953400
  34.6477930   7.3550030  85.1196660  36.3029170   4.7979310  72.6327880
  36.5778010   5.7058190  72.5047100  36.1139910   4.7341840  73.5689870
  36.1994510   2.7348300  77.6257310  35.8238110   1.9676230  77.1938600
  35.4697630   3.1171000  78.1132240  20.7890270   3.4135440  84.2466360
  21.1563310   3.3262840  85.1262380  20.2201090   2.6501990  84.1473220
  34.2979780  11.4950220  79.2595880  34.8938850  11.1734790  78.5830300
  34.5557930  11.0222040  80.0509150  25.9048380   9.4827720  85.0096230
  25.6639740   9.7502280  84.1226750  26.8451020   9.6533450  85.0647090
  37.1652540  11.5022100  85.8106870  36.6710820  11.8990970  85.0934000
  36.5565830  10.8771310  86.2044150  34.8491990  12.1445520  83.0893610
  34.3894960  12.8961330  82.7151630  34.2204450  11.4251990  83.0308410
  21.6742610   8.2388760  85.4792330  20.9476670   7.6194050  85.4118280
  21.7351760   8.6329370  84.6090410  25.2787710  10.4533760  82.2641740
  25.7952730   9.8421120  81.7390000  25.9285090  10.9562540  82.7552750
  28.0183210  11.3442250  83.0910720  28.3061020  11.0896550  82.2143730
  28.5306430  10.7919610  83.6816290  19.9572610  11.5563150  78.6889090
  19.7894650  10.9233830  79.3870980  19.0907120  11.7622550  78.3383280
  21.5635310  10.2496380  76.1339230  21.0382930  10.6304410  75.4301190
  21.4879890  10.8747150  76.8548940  36.3200630  11.8083920  77.4553170
  36.4952820  11.1221660  76.8114090  35.6222200  12.3330970  77.0629840
  24.1628280  12.1978760  75.0088480  24.8947100  11.9138040  74.4612370
  24.4221950  11.9592040  75.8987860  23.3243070   8.3143490  75.0134810
  22.6951950   8.7828590  75.5620640  23.4390900   7.4692710  75.4481000
  28.9110830   4.1428170  63.0445280  28.1352930   3.6628610  63.3343850
  29.5623760   3.4633820  62.8701440  22.9276660   4.4547980  63.9221040
  22.0961540   4.1996690  64.3217550  23.5357640   4.5258750  64.6578960
  32.9318260   8.5488360  61.8244410  32.4699790   7.7775600  62.1531580
  33.7443810   8.5754430  62.3296860  22.9077920   8.4888070  64.1179060
  23.2105960   7.5985810  63.9389280  23.6521510   9.0458290  63.8901310
  29.1581570  10.8346370  61.4448400  28.5393010  11.2903870  60.8742840
  30.0133350  10.9897830  61.0438100  28.3519820   6.8185360  63.0515440
  28.2828100   5.8775300  62.8904570  29.1139680   6.9086770  63.6238010
  30.0244920   5.7185610  58.8380310  29.4062190   6.1835060  58.2743030
  30.5368170   6.4113090  59.2549820  24.8876680   5.2461480  65.5163910
  24.5546060   5.8730400  66.1584980  25.0643360   5.7723360  64.7365580
  24.0995780   7.2142280  67.3313090  24.7169780   7.8893360  67.0497540
  23.2388900   7.6230260  67.2400590  19.3928120   6.4042140  56.2119940
  19.0156100   6.8929240  55.4804840  19.6501190   7.0767420  56.8426470
  35.0173370   8.6781690  65.2467730  34.3336890   9.3480800  65.2384400
  35.5567660   8.8762340  64.4812590  32.5532110  10.5225820  63.9612910
  32.5659270  10.1188110  63.0935170  32.0007330  11.2973110  63.8574340
  33.8477530   7.2442040  59.0503080  33.7373860   6.3016370  59.1752500
  33.8445780   7.6057680  59.9365840  31.9517550   5.4255660  65.2895520
  32.3686340   5.2115770  64.4548980  32.6757370   5.6828450  65.8604140
  29.3897810   2.8707360  58.4065570  28.4627090   2.8044740  58.6354040
  29.5422630   3.8087490  58.2920810  35.8979650   3.8242880  65.3811760
  35.0698280   3.8935970  64.9061890  36.4930130   4.4097190  64.9127590
  33.4195100   4.4327660  58.9100820  32.8007520   4.0947210  58.2627120
  33.4019550   3.7887420  59.6180010  24.9954450   3.3972100  61.1885300
  24.5911450   2.6849350  60.6931200  25.0817570   3.0525340  62.0773340
  25.4636150   7.0839660  63.3524510  25.1664440   6.4785130  62.6732290
  26.4135970   7.1216970  63.2413870  33.5521760  10.6571530  67.0147610
  33.0752320  11.4643720  66.8220220  32.8683550  10.0049860  67.1673820
  24.5554580   6.8221350  70.0032310  23.6583110   7.0461320  70.2505710
  24.5807450   6.9456290  69.0543710  31.5959800   3.6714470  55.9173570
  32.0353080   2.8336900  55.7711390  32.3088220   4.3043870  56.0037710
  23.3825800   3.6934670  68.5789680  23.2433570   4.5657470  68.9477080
  22.5007160   3.3507480  68.4337620  29.7055180   8.6110540  59.8854810
  30.1451090   9.3534870  59.4710200  29.6442070   8.8537110  60.8093770
  25.1806150   9.6356370  70.7874830  25.1521580  10.0399320  69.9203260
  25.0171120   8.7066730  70.6246430  21.6959080   2.2917080  58.6891950
  21.5756680   3.0179170  58.0773220  21.3859970   1.5219990  58.2119860
  37.1320970  10.4183470  72.0839000  37.6080690  10.8966360  72.7628080
  37.7528130  10.3500960  71.3584500  19.3344450   5.4632220  64.4960590
  19.4124870   5.5980990  63.5516310  19.9486130   4.7548110  64.6888710
  20.5792080   7.1632410  60.9066770  20.1720160   7.3047000  60.0520370
  21.4705090   6.8792570  60.7037980  36.5354220   7.6096320  69.2439010
  36.6617280   7.3708200  68.3256190  36.5775600   6.7780860  69.7161090
  30.3970960  11.3124320  67.8133820  30.9115630  11.2232330  68.6156250
  29.5540040  11.6584020  68.1061730  32.3725360  11.5979660  57.2417820
  32.2126500  11.3082600  58.1399650  32.2072070  10.8219790  56.7063050
  24.8513740  11.3778190  59.0189440  24.6756220  10.4613730  58.8057240
  23.9969480  11.7365480  59.2587240  32.0751490   9.1067220  55.8015820
  31.3816650   9.1044510  55.1418100  32.8174350   8.6826540  55.3709990
  31.6401420  10.7329930  59.8764310  32.0958370   9.9519310  60.1902930
  31.9793940  11.4436750  60.4205490  19.3903970   6.5046390  67.0355050
  19.5535010   6.0351750  66.2174420  19.8556420   5.9969950  67.7003890
  25.8873770   1.9785800  55.3184130  25.3190670   1.5304050  54.6920040
  26.5962770   2.3378580  54.7849280  20.9642950   5.8797820  69.1950860
  20.5797740   5.2391490  69.7933820  21.2755140   6.5833940  69.7645590
  27.1140090   2.7274360  64.6759480  27.4810220   2.2532930  65.4220820
  26.9245150   3.6015930  65.0167820  24.9039460   1.7683000  66.9943690
  24.5996530   2.6474980  67.2194050  25.8585920   1.8282790  67.0301130
  23.4321250   5.9743990  57.5910540  22.6583510   5.4341610  57.4309260
  24.1615880   5.4550600  57.2528300  34.1909230   4.9709350  63.3836930
  34.9108350   5.4664640  62.9933040  33.9891050   4.2927240  62.7390800
  29.5728030   5.0418410  69.2705930  29.5065340   4.1214080  69.0163520
  28.9433170   5.1393850  69.9850570  23.4758650   5.6424370  61.2289350
  23.9937320   4.8392630  61.1746240  23.0242670   5.5803510  62.0706180
  28.3628150   6.9090650  56.5016650  28.7043850   7.6532880  56.0059970
  27.5340860   7.2221770  56.8641480  20.9603190   2.6085740  68.1415050
  20.6018130   3.2739590  68.7288390  20.6657750   1.7769290  68.5127670
  24.1616310   3.0669980  71.0254600  23.8616450   3.2127160  70.1282420
  24.9327550   2.5075270  70.9327990  29.5044760   7.8638980  69.0209730
  29.5189300   6.9319940  68.8028640  28.7969860   7.9498740  69.6599500
  34.6381830   2.0478800  55.2908340  34.5545550   2.4793020  54.4404780
  35.3576020   2.5077150  55.7235160  35.7155970   4.5046320  68.3678310
  34.9904160   5.0975100  68.1707700  36.2431430   4.4969860  67.5691680
  35.6669080   8.9021060  58.0190470  35.0245240   8.2476680  58.2934190
  35.2799740   9.3076150  57.2431140  31.2455560   6.2306490  61.8662160
  31.5979380   5.6334620  61.2063530  30.3617890   5.9050720  62.0370410
  27.3318840   6.9904180  59.2732570  28.0189970   7.5373390  59.6540160
  26.5451260   7.5344910  59.3082180  19.4711240   2.6077000  54.7649650
  20.3406090   2.8901800  55.0485570  18.9801560   3.4212870  54.6498460
  26.6346050   3.9950210  58.8857930  27.0908830   4.8055460  59.1118120
  26.2834260   3.6773350  59.7176420  28.9378660   9.5056550  66.1150230
  29.5820880   9.7115930  66.7923650  29.3008100   8.7444950  65.6621080
  30.2110740   7.5088900  64.8327680  30.8532970   6.8082060  64.9459850
  30.7360090   8.2887340  64.6524570  34.0566460   7.7937520  54.5566820
  33.8304040   7.0767960  55.1491460  33.6662660   7.5449960  53.7188570
  31.9848360   8.3083800  68.0363740  32.3204600   8.8950490  68.7141660
  31.0648700   8.1776510  68.2661530  19.8382490  11.8204380  55.3311280
  20.1980130  12.4193720  54.6768550  19.6974830  12.3664270  56.1046310
  33.6382710   5.7109460  56.2180980  33.3504410   6.1722150  57.0058860
  34.4334880   5.2507230  56.4865200  19.8224350  10.0859240  69.8053680
  19.9315470   9.1453980  69.6649070  19.1704910  10.3513990  69.1567410
  27.8136940   8.3575130  71.2051800  27.4933810   7.6384370  71.7497490
  27.1395300   9.0330200  71.2787860  25.8551110   9.2035580  56.1484950
  25.8461210   9.9365270  55.5329460  24.9349470   8.9567160  56.2411910
  21.4557750   4.4250470  56.8931710  20.8485700   5.1649370  56.9027010
  21.9307100   4.5149830  56.0669910  28.8410710   9.2663820  54.8110140
  28.9422690   9.0627810  53.8812120  27.9412450   9.0122100  55.0157920
  27.4828820  11.7850140  59.5057810  27.7370320  11.7471530  58.5837180
  26.5341300  11.6583470  59.4986060  33.4881400   2.7042020  61.0816320
  32.5471540   2.7192250  61.2564010  33.8025470   1.9177980  61.5276620
  23.4663040   4.3861620  54.6420280  24.2326310   4.2742980  55.2045710
  23.5437730   3.6899590  53.9897050  35.4906980   9.8750870  62.7570580
  35.6154400  10.6982040  63.2294390  36.3572540   9.6641600  62.4094730
  22.9624510  11.9682080  62.4287710  23.6986990  11.4197540  62.6996280
  23.3465430  12.8338090  62.2893700  19.8469990   8.0355650  58.3029220
  18.9209770   8.2776790  58.2934630  20.3126420   8.8629910  58.1813970
  21.9682790  11.1528150  71.6173290  22.7695520  11.4740200  72.0308690
  21.4534610  10.7923730  72.3393200  26.0726820  11.1412390  54.2513280
  26.8655430  11.4301220  53.7995070  25.5531170  10.7104560  53.5725760
  30.8047420   7.2608020  71.5648700  30.1985580   7.2839620  70.8244450
  30.5001530   6.5291060  72.1015950  32.2347790  10.9888310  70.1758110
  33.1869540  10.9046330  70.1258350  32.0876010  11.6530020  70.8491900
  35.1256990  10.3682520  55.6750020  34.8398500   9.9547660  54.8604200
  34.9276540  11.2970230  55.5550540  19.6880600   3.6401610  70.5609340
  20.1919620   3.0608890  71.1325570  18.9488020   3.9241840  71.0985710
  26.5904220   6.3615800  54.1155630  26.4854860   5.7468150  54.8417010
  26.4228440   5.8381690  53.3318640  26.7418540   5.0472600  70.0944860
  25.9764210   5.6157600  70.0099530  26.9234500   4.7548810  69.2013090
  29.8306950   5.4235830  54.7197620  29.2817050   5.8705130  55.3640360
  30.4526210   4.9185080  55.2435290  33.8841890   6.7777930  70.6519880
  34.6251360   7.1153690  70.1487340  33.1214570   6.9469990  70.0989650
  21.7203680   1.7831200  71.4559410  21.7609020   1.4845070  72.3644640
  22.5749180   2.1838810  71.2966930  25.4982070   4.3826750  56.6162920
  25.9198490   4.2166620  57.4594310  25.6232910   3.5726980  56.1218060
  28.0109710   3.4064360  53.8640020  28.5315370   2.6913380  53.4981170
  28.6578110   4.0450230  54.1640530  32.5587550   4.8292760  69.1875090
  32.9728570   4.9837840  70.0365510  31.6238550   4.9547980  69.3500870
  27.3202780   4.7813240  67.1571020  27.7390890   5.6245970  66.9847260
  26.4011410   4.9185280  66.9277800  29.6566680   2.5129420  68.5408860
  29.7762890   1.9170560  69.2803700  30.5160680   2.5499110  68.1210160
  31.9954580   3.0666610  67.1171370  31.4689800   3.5909230  66.5136510
  32.3385920   3.6994000  67.7481100  25.1710200  11.0866250  68.2728750
  24.6331290  11.8112310  67.9537450  25.4244160  10.6096590  67.4826090
  28.0272410  12.3217460  68.5315400  27.9531110  13.2252600  68.8387770
  27.1251250  12.0029360  68.5037470  28.5757740  11.4875970  56.1541760
  29.4708530  11.8260940  56.1760520  28.6075370  10.7655380  55.5266040
  22.2153900   6.8603020  54.3828760  22.6528770   7.4032690  55.0386340
  22.7001630   6.0349970  54.3925100  19.4299700   9.6492050  61.8349020
  19.7602710   8.7813110  61.6027660  19.8590700   9.8550570  62.6653980
  24.0261620   7.9801060  59.4950990  23.7257160   7.8566030  60.3954900
  23.9199110   7.1209650  59.0866720  19.9189910  10.5162640  64.5730650
  19.4820900  10.6963440  65.4054800  20.4867590  11.2737260  64.4312370
  35.5552090  10.0179640  68.8607960  34.9554080  10.0772200  68.1171880
  35.6845990   9.0784620  68.9904810  36.7953540   7.7597460  54.1977670
  35.9646500   7.8274110  54.6684900  36.9725370   8.6501580  53.8944530
  36.2510000   4.5044940  56.7011870  37.0128910   5.0741590  56.8071560
  36.2664370   3.9372140  57.4720180  19.7514340   3.0282870  60.9319530
  19.0963180   2.7594510  60.2879230  20.5892290   2.9187350  60.4821510
  37.2569970   5.3595040  61.5453800  37.6278800   4.5762360  61.1389770
  37.8971900   6.0484140  61.3671100  34.2403730   6.7431620  66.9584120
  33.4263570   7.1728780  67.2209910  34.6477930   7.3550030  66.3453170
  36.3029170   4.7979310  53.8584390  36.5778010   5.7058190  53.7303610
  36.1139910   4.7341840  54.7946380  36.1994510   2.7348300  58.8513820
  35.8238110   1.9676230  58.4195110  35.4697630   3.1171000  59.3388750
  20.7890270   3.4135440  65.4722870  21.1563310   3.3262840  66.3518890
  20.2201090   2.6501990  65.3729730  35.5894130   1.8819820  68.4853340
  35.3580220   1.6532570  67.5851290  35.8498680   2.8019370  68.4398230
  34.2979780  11.4950220  60.4852390  34.8938850  11.1734790  59.8086810
  34.5557930  11.0222040  61.2765660  22.2042350   7.9268130  70.6343020
  22.1611980   7.5561040  71.5157480  22.3353360   8.8645700  70.7744840
  25.9048380   9.4827720  66.2352740  25.6639740   9.7502280  65.3483260
  26.8451020   9.6533450  66.2903600  37.1652540  11.5022100  67.0363380
  36.6710820  11.8990970  66.3190510  36.5565830  10.8771310  67.4300660
  22.0430380  10.8730380  67.7540800  21.4490700  10.7415080  68.4930840
  22.0354220  10.0368520  67.2882900  34.8491990  12.1445520  64.3150120
  34.3894960  12.8961330  63.9408140  34.2204450  11.4251990  64.2564920
  21.6742610   8.2388760  66.7048840  20.9476670   7.6194050  66.6374790
  21.7351760   8.6329370  65.8346920  25.2787710  10.4533760  63.4898250
  25.7952730   9.8421120  62.9646510  25.9285090  10.9562540  63.9809260
  28.0183210  11.3442250  64.3167230  28.3061020  11.0896550  63.4400240
  28.5306430  10.7919610  64.9072800  19.9572610  11.5563150  59.9145600
  19.7894650  10.9233830  60.6127490  19.0907120  11.7622550  59.5639790
  21.5635310  10.2496380  57.3595740  21.0382930  10.6304410  56.6557700
  21.4879890  10.8747150  58.0805450  28.0855570  12.2658350  71.6835430
  29.0122880  12.0302620  71.7271390  28.0706000  13.0930350  71.2021460
  36.3200630  11.8083920  58.6809680  36.4952820  11.1221660  58.0370600
  35.6222200  12.3330970  58.2886350  24.1628280  12.1978760  56.2344990
  24.8947100  11.9138040  55.6868880  24.4221950  11.9592040  57.1244370
  23.3243070   8.3143490  56.2391320  22.6951950   8.7828590  56.7877150
  23.4390900   7.4692710  56.6737510  34.6533130  11.4928210  71.5076470
  35.4458450  10.9977440  71.3002430  34.9466280  12.1718350  72.1152080
  28.9110830   4.1428170  44.2701790  28.1352930   3.6628610  44.5600360
  29.5623760   3.4633820  44.0957950  22.9276660   4.4547980  45.1477550
  22.0961540   4.1996690  45.5474060  23.5357640   4.5258750  45.8835470
  32.9318260   8.5488360  43.0500920  32.4699790   7.7775600  43.3788090
  33.7443810   8.5754430  43.5553370  22.9077920   8.4888070  45.3435570
  23.2105960   7.5985810  45.1645790  23.6521510   9.0458290  45.1157820
  29.1581570  10.8346370  42.6704910  28.5393010  11.2903870  42.0999350
  30.0133350  10.9897830  42.2694610  28.3519820   6.8185360  44.2771950
  28.2828100   5.8775300  44.1161080  29.1139680   6.9086770  44.8494520
  30.0244920   5.7185610  40.0636820  29.4062190   6.1835060  39.4999540
  30.5368170   6.4113090  40.4806330  24.8876680   5.2461480  46.7420420
  24.5546060   5.8730400  47.3841490  25.0643360   5.7723360  45.9622090
  24.0995780   7.2142280  48.5569600  24.7169780   7.8893360  48.2754050
  23.2388900   7.6230260  48.4657100  19.3928120   6.4042140  37.4376450
  19.0156100   6.8929240  36.7061350  19.6501190   7.0767420  38.0682980
  35.0173370   8.6781690  46.4724240  34.3336890   9.3480800  46.4640910
  35.5567660   8.8762340  45.7069100  32.5532110  10.5225820  45.1869420
  32.5659270  10.1188110  44.3191680  32.0007330  11.2973110  45.0830850
  33.8477530   7.2442040  40.2759590  33.7373860   6.3016370  40.4009010
  33.8445780   7.6057680  41.1622350  31.9517550   5.4255660  46.5152030
  32.3686340   5.2115770  45.6805490  32.6757370   5.6828450  47.0860650
  29.3897810   2.8707360  39.6322080  28.4627090   2.8044740  39.8610550
  29.5422630   3.8087490  39.5177320  35.8979650   3.8242880  46.6068270
  35.0698280   3.8935970  46.1318400  36.4930130   4.4097190  46.1384100
  33.4195100   4.4327660  40.1357330  32.8007520   4.0947210  39.4883630
  33.4019550   3.7887420  40.8436520  24.9954450   3.3972100  42.4141810
  24.5911450   2.6849350  41.9187710  25.0817570   3.0525340  43.3029850
  25.4636150   7.0839660  44.5781020  25.1664440   6.4785130  43.8988800
  26.4135970   7.1216970  44.4670380  33.5521760  10.6571530  48.2404120
  33.0752320  11.4643720  48.0476730  32.8683550  10.0049860  48.3930330
  24.5554580   6.8221350  51.2288820  23.6583110   7.0461320  51.4762220
  24.5807450   6.9456290  50.2800220  31.5959800   3.6714470  37.1430080
  32.0353080   2.8336900  36.9967900  32.3088220   4.3043870  37.2294220
  23.3825800   3.6934670  49.8046190  23.2433570   4.5657470  50.1733590
  22.5007160   3.3507480  49.6594130  29.7055180   8.6110540  41.1111320
  30.1451090   9.3534870  40.6966710  29.6442070   8.8537110  42.0350280
  25.1806150   9.6356370  52.0131340  25.1521580  10.0399320  51.1459770
  25.0171120   8.7066730  51.8502940  21.6959080   2.2917080  39.9148460
  21.5756680   3.0179170  39.3029730  21.3859970   1.5219990  39.4376370
  37.1320970  10.4183470  53.3095510  37.6080690  10.8966360  53.9884590
  37.7528130  10.3500960  52.5841010  19.3344450   5.4632220  45.7217100
  19.4124870   5.5980990  44.7772820  19.9486130   4.7548110  45.9145220
  20.5792080   7.1632410  42.1323280  20.1720160   7.3047000  41.2776880
  21.4705090   6.8792570  41.9294490  36.5354220   7.6096320  50.4695520
  36.6617280   7.3708200  49.5512700  36.5775600   6.7780860  50.9417600
  30.3970960  11.3124320  49.0390330  30.9115630  11.2232330  49.8412760
  29.5540040  11.6584020  49.3318240  32.3725360  11.5979660  38.4674330
  32.2126500  11.3082600  39.3656160  32.2072070  10.8219790  37.9319560
  24.8513740  11.3778190  40.2445950  24.6756220  10.4613730  40.0313750
  23.9969480  11.7365480  40.4843750  32.0751490   9.1067220  37.0272330
  31.3816650   9.1044510  36.3674610  32.8174350   8.6826540  36.5966500
  31.6401420  10.7329930  41.1020820  32.0958370   9.9519310  41.4159440
  31.9793940  11.4436750  41.6462000  19.3903970   6.5046390  48.2611560
  19.5535010   6.0351750  47.4430930  19.8556420   5.9969950  48.9260400
  25.8873770   1.9785800  36.5440640  25.3190670   1.5304050  35.9176550
  26.5962770   2.3378580  36.0105790  20.9642950   5.8797820  50.4207370
  20.5797740   5.2391490  51.0190330  21.2755140   6.5833940  50.9902100
  27.1140090   2.7274360  45.9015990  27.4810220   2.2532930  46.6477330
  26.9245150   3.6015930  46.2424330  24.9039460   1.7683000  48.2200200
  24.5996530   2.6474980  48.4450560  25.8585920   1.8282790  48.2557640
  23.4321250   5.9743990  38.8167050  22.6583510   5.4341610  38.6565770
  24.1615880   5.4550600  38.4784810  34.1909230   4.9709350  44.6093440
  34.9108350   5.4664640  44.2189550  33.9891050   4.2927240  43.9647310
  29.5728030   5.0418410  50.4962440  29.5065340   4.1214080  50.2420030
  28.9433170   5.1393850  51.2107080  23.4758650   5.6424370  42.4545860
  23.9937320   4.8392630  42.4002750  23.0242670   5.5803510  43.2962690
  28.3628150   6.9090650  37.7273160  28.7043850   7.6532880  37.2316480
  27.5340860   7.2221770  38.0897990  20.9603190   2.6085740  49.3671560
  20.6018130   3.2739590  49.9544900  20.6657750   1.7769290  49.7384180
  24.1616310   3.0669980  52.2511110  23.8616450   3.2127160  51.3538930
  24.9327550   2.5075270  52.1584500  29.5044760   7.8638980  50.2466240
  29.5189300   6.9319940  50.0285150  28.7969860   7.9498740  50.8856010
  34.6381830   2.0478800  36.5164850  34.5545550   2.4793020  35.6661290
  35.3576020   2.5077150  36.9491670  35.7155970   4.5046320  49.5934820
  34.9904160   5.0975100  49.3964210  36.2431430   4.4969860  48.7948190
  35.6669080   8.9021060  39.2446980  35.0245240   8.2476680  39.5190700
  35.2799740   9.3076150  38.4687650  31.2455560   6.2306490  43.0918670
  31.5979380   5.6334620  42.4320040  30.3617890   5.9050720  43.2626920
  27.3318840   6.9904180  40.4989080  28.0189970   7.5373390  40.8796670
  26.5451260   7.5344910  40.5338690  19.4711240   2.6077000  35.9906160
  20.3406090   2.8901800  36.2742080  18.9801560   3.4212870  35.8754970
  26.6346050   3.9950210  40.1114440  27.0908830   4.8055460  40.3374630
  26.2834260   3.6773350  40.9432930  28.9378660   9.5056550  47.3406740
  29.5820880   9.7115930  48.0180160  29.3008100   8.7444950  46.8877590
  30.2110740   7.5088900  46.0584190  30.8532970   6.8082060  46.1716360
  30.7360090   8.2887340  45.8781080  34.0566460   7.7937520  35.7823330
  33.8304040   7.0767960  36.3747970  33.6662660   7.5449960  34.9445080
  31.9848360   8.3083800  49.2620250  32.3204600   8.8950490  49.9398170
  31.0648700   8.1776510  49.4918040  19.8382490  11.8204380  36.5567790
  20.1980130  12.4193720  35.9025060  19.6974830  12.3664270  37.3302820
  33.6382710   5.7109460  37.4437490  33.3504410   6.1722150  38.2315370
  34.4334880   5.2507230  37.7121710  19.8224350  10.0859240  51.0310190
  19.9315470   9.1453980  50.8905580  19.1704910  10.3513990  50.3823920
  27.8136940   8.3575130  52.4308310  27.4933810   7.6384370  52.9754000
  27.1395300   9.0330200  52.5044370  25.8551110   9.2035580  37.3741460
  25.8461210   9.9365270  36.7585970  24.9349470   8.9567160  37.4668420
  21.4557750   4.4250470  38.1188220  20.8485700   5.1649370  38.1283520
  21.9307100   4.5149830  37.2926420  28.8410710   9.2663820  36.0366650
  28.9422690   9.0627810  35.1068630  27.9412450   9.0122100  36.2414430
  27.4828820  11.7850140  40.7314320  27.7370320  11.7471530  39.8093690
  26.5341300  11.6583470  40.7242570  33.4881400   2.7042020  42.3072830
  32.5471540   2.7192250  42.4820520  33.8025470   1.9177980  42.7533130
  23.4663040   4.3861620  35.8676790  24.2326310   4.2742980  36.4302220
  23.5437730   3.6899590  35.2153560  35.4906980   9.8750870  43.9827090
  35.6154400  10.6982040  44.4550900  36.3572540   9.6641600  43.6351240
  22.9624510  11.9682080  43.6544220  23.6986990  11.4197540  43.9252790
  23.3465430  12.8338090  43.5150210  19.8469990   8.0355650  39.5285730
  18.9209770   8.2776790  39.5191140  20.3126420   8.8629910  39.4070480
  21.9682790  11.1528150  52.8429800  22.7695520  11.4740200  53.2565200
  21.4534610  10.7923730  53.5649710  26.0726820  11.1412390  35.4769790
  26.8655430  11.4301220  35.0251580  25.5531170  10.7104560  34.7982270
  30.8047420   7.2608020  52.7905210  30.1985580   7.2839620  52.0500960
  30.5001530   6.5291060  53.3272460  32.2347790  10.9888310  51.4014620
  33.1869540  10.9046330  51.3514860  32.0876010  11.6530020  52.0748410
  35.1256990  10.3682520  36.9006530  34.8398500   9.9547660  36.0860710
  34.9276540  11.2970230  36.7807050  19.6880600   3.6401610  51.7865850
  20.1919620   3.0608890  52.3582080  18.9488020   3.9241840  52.3242220
  26.5904220   6.3615800  35.3412140  26.4854860   5.7468150  36.0673520
  26.4228440   5.8381690  34.5575150  26.7418540   5.0472600  51.3201370
  25.9764210   5.6157600  51.2356040  26.9234500   4.7548810  50.4269600
  29.8306950   5.4235830  35.9454130  29.2817050   5.8705130  36.5896870
  30.4526210   4.9185080  36.4691800  33.8841890   6.7777930  51.8776390
  34.6251360   7.1153690  51.3743850  33.1214570   6.9469990  51.3246160
  21.7203680   1.7831200  52.6815920  21.7609020   1.4845070  53.5901150
  22.5749180   2.1838810  52.5223440  25.4982070   4.3826750  37.8419430
  25.9198490   4.2166620  38.6850820  25.6232910   3.5726980  37.3474570
  28.0109710   3.4064360  35.0896530  28.5315370   2.6913380  34.7237680
  28.6578110   4.0450230  35.3897040  32.5587550   4.8292760  50.4131600
  32.9728570   4.9837840  51.2622020  31.6238550   4.9547980  50.5757380
  27.3202780   4.7813240  48.3827530  27.7390890   5.6245970  48.2103770
  26.4011410   4.9185280  48.1534310  29.6566680   2.5129420  49.7665370
  29.7762890   1.9170560  50.5060210  30.5160680   2.5499110  49.3466670
  31.9954580   3.0666610  48.3427880  31.4689800   3.5909230  47.7393020
  32.3385920   3.6994000  48.9737610  25.1710200  11.0866250  49.4985260
  24.6331290  11.8112310  49.1793960  25.4244160  10.6096590  48.7082600
  28.0272410  12.3217460  49.7571910  27.9531110  13.2252600  50.0644280
  27.1251250  12.0029360  49.7293980  28.5757740  11.4875970  37.3798270
  29.4708530  11.8260940  37.4017030  28.6075370  10.7655380  36.7522550
  22.2153900   6.8603020  35.6085270  22.6528770   7.4032690  36.2642850
  22.7001630   6.0349970  35.6181610  19.4299700   9.6492050  43.0605530
  19.7602710   8.7813110  42.8284170  19.8590700   9.8550570  43.8910490
  24.0261620   7.9801060  40.7207500  23.7257160   7.8566030  41.6211410
  23.9199110   7.1209650  40.3123230  19.9189910  10.5162640  45.7987160
  19.4820900  10.6963440  46.6311310  20.4867590  11.2737260  45.6568880
  35.5552090  10.0179640  50.0864470  34.9554080  10.0772200  49.3428390
  35.6845990   9.0784620  50.2161320  36.7953540   7.7597460  35.4234180
  35.9646500   7.8274110  35.8941410  36.9725370   8.6501580  35.1201040
  36.2510000   4.5044940  37.9268380  37.0128910   5.0741590  38.0328070
  36.2664370   3.9372140  38.6976690  19.7514340   3.0282870  42.1576040
  19.0963180   2.7594510  41.5135740  20.5892290   2.9187350  41.7078020
  37.2569970   5.3595040  42.7710310  37.6278800   4.5762360  42.3646280
  37.8971900   6.0484140  42.5927610  34.2403730   6.7431620  48.1840630
  33.4263570   7.1728780  48.4466420  34.6477930   7.3550030  47.5709680
  36.3029170   4.7979310  35.0840900  36.5778010   5.7058190  34.9560120
  36.1139910   4.7341840  36.0202890  36.1994510   2.7348300  40.0770330
  35.8238110   1.9676230  39.6451620  35.4697630   3.1171000  40.5645260
  20.7890270   3.4135440  46.6979380  21.1563310   3.3262840  47.5775400
  20.2201090   2.6501990  46.5986240  35.5894130   1.8819820  49.7109850
  35.3580220   1.6532570  48.8107800  35.8498680   2.8019370  49.6654740
  34.2979780  11.4950220  41.7108900  34.8938850  11.1734790  41.0343320
  34.5557930  11.0222040  42.5022170  22.2042350   7.9268130  51.8599530
  22.1611980   7.5561040  52.7413990  22.3353360   8.8645700  52.0001350
  25.9048380   9.4827720  47.4609250  25.6639740   9.7502280  46.5739770
  26.8451020   9.6533450  47.5160110  37.1652540  11.5022100  48.2619890
  36.6710820  11.8990970  47.5447020  36.5565830  10.8771310  48.6557170
  22.0430380  10.8730380  48.9797310  21.4490700  10.7415080  49.7187350
  22.0354220  10.0368520  48.5139410  34.8491990  12.1445520  45.5406630
  34.3894960  12.8961330  45.1664650  34.2204450  11.4251990  45.4821430
  21.6742610   8.2388760  47.9305350  20.9476670   7.6194050  47.8631300
  21.7351760   8.6329370  47.0603430  25.2787710  10.4533760  44.7154760
  25.7952730   9.8421120  44.1903020  25.9285090  10.9562540  45.2065770
  28.0183210  11.3442250  45.5423740  28.3061020  11.0896550  44.6656750
  28.5306430  10.7919610  46.1329310  19.9572610  11.5563150  41.1402110
  19.7894650  10.9233830  41.8384000  19.0907120  11.7622550  40.7896300
  21.5635310  10.2496380  38.5852250  21.0382930  10.6304410  37.8814210
  21.4879890  10.8747150  39.3061960  28.0855570  12.2658350  52.9091940
  29.0122880  12.0302620  52.9527900  28.0706000  13.0930350  52.4277970
  36.3200630  11.8083920  39.9066190  36.4952820  11.1221660  39.2627110
  35.6222200  12.3330970  39.5142860  24.1628280  12.1978760  37.4601500
  24.8947100  11.9138040  36.9125390  24.4221950  11.9592040  38.3500880
  23.3243070   8.3143490  37.4647830  22.6951950   8.7828590  38.0133660
  23.4390900   7.4692710  37.8994020  34.6533130  11.4928210  52.7332980
  35.4458450  10.9977440  52.5258940  34.9466280  12.1718350  53.3408590
  28.9110830   4.1428170  25.4958300  28.1352930   3.6628610  25.7856870
  29.5623760   3.4633820  25.3214460  22.9276660   4.4547980  26.3734060
  22.0961540   4.1996690  26.7730570  23.5357640   4.5258750  27.1091980
  32.9318260   8.5488360  24.2757430  32.4699790   7.7775600  24.6044600
  33.7443810   8.5754430  24.7809880  22.9077920   8.4888070  26.5692080
  23.2105960   7.5985810  26.3902300  23.6521510   9.0458290  26.3414330
  29.1581570  10.8346370  23.8961420  28.5393010  11.2903870  23.3255860
  30.0133350  10.9897830  23.4951120  28.3519820   6.8185360  25.5028460
  28.2828100   5.8775300  25.3417590  29.1139680   6.9086770  26.0751030
  30.0244920   5.7185610  21.2893330  29.4062190   6.1835060  20.7256050
  30.5368170   6.4113090  21.7062840  24.8876680   5.2461480  27.9676930
  24.5546060   5.8730400  28.6098000  25.0643360   5.7723360  27.1878600
  24.0995780   7.2142280  29.7826110  24.7169780   7.8893360  29.5010560
  23.2388900   7.6230260  29.6913610  19.3928120   6.4042140  18.6632960
  19.0156100   6.8929240  17.9317860  19.6501190   7.0767420  19.2939490
  35.0173370   8.6781690  27.6980750  34.3336890   9.3480800  27.6897420
  35.5567660   8.8762340  26.9325610  32.5532110  10.5225820  26.4125930
  32.5659270  10.1188110  25.5448190  32.0007330  11.2973110  26.3087360
  33.8477530   7.2442040  21.5016100  33.7373860   6.3016370  21.6265520
  33.8445780   7.6057680  22.3878860  31.9517550   5.4255660  27.7408540
  32.3686340   5.2115770  26.9062000  32.6757370   5.6828450  28.3117160
  29.3897810   2.8707360  20.8578590  28.4627090   2.8044740  21.0867060
  29.5422630   3.8087490  20.7433830  35.8979650   3.8242880  27.8324780
  35.0698280   3.8935970  27.3574910  36.4930130   4.4097190  27.3640610
  33.4195100   4.4327660  21.3613840  32.8007520   4.0947210  20.7140140
  33.4019550   3.7887420  22.0693030  24.9954450   3.3972100  23.6398320
  24.5911450   2.6849350  23.1444220  25.0817570   3.0525340  24.5286360
  25.4636150   7.0839660  25.8037530  25.1664440   6.4785130  25.1245310
  26.4135970   7.1216970  25.6926890  33.5521760  10.6571530  29.4660630
  33.0752320  11.4643720  29.2733240  32.8683550  10.0049860  29.6186840
  24.5554580   6.8221350  32.4545330  23.6583110   7.0461320  32.7018730
  24.5807450   6.9456290  31.5056730  31.5959800   3.6714470  18.3686590
  32.0353080   2.8336900  18.2224410  32.3088220   4.3043870  18.4550730
  23.3825800   3.6934670  31.0302700  23.2433570   4.5657470  31.3990100
  22.5007160   3.3507480  30.8850640  29.7055180   8.6110540  22.3367830
  30.1451090   9.3534870  21.9223220  29.6442070   8.8537110  23.2606790
  25.1806150   9.6356370  33.2387850  25.1521580  10.0399320  32.3716280
  25.0171120   8.7066730  33.0759450  21.6959080   2.2917080  21.1404970
  21.5756680   3.0179170  20.5286240  21.3859970   1.5219990  20.6632880
  37.1320970  10.4183470  34.5352020  37.6080690  10.8966360  35.2141100
  37.7528130  10.3500960  33.8097520  19.3344450   5.4632220  26.9473610
  19.4124870   5.5980990  26.0029330  19.9486130   4.7548110  27.1401730
  20.5792080   7.1632410  23.3579790  20.1720160   7.3047000  22.5033390
  21.4705090   6.8792570  23.1551000  36.5354220   7.6096320  31.6952030
  36.6617280   7.3708200  30.7769210  36.5775600   6.7780860  32.1674110
  30.3970960  11.3124320  30.2646840  30.9115630  11.2232330  31.0669270
  29.5540040  11.6584020  30.5574750  32.3725360  11.5979660  19.6930840
  32.2126500  11.3082600  20.5912670  32.2072070  10.8219790  19.1576070
  24.8513740  11.3778190  21.4702460  24.6756220  10.4613730  21.2570260
  23.9969480  11.7365480  21.7100260  32.0751490   9.1067220  18.2528840
  31.3816650   9.1044510  17.5931120  32.8174350   8.6826540  17.8223010
  31.6401420  10.7329930  22.3277330  32.0958370   9.9519310  22.6415950
  31.9793940  11.4436750  22.8718510  19.3903970   6.5046390  29.4868070
  19.5535010   6.0351750  28.6687440  19.8556420   5.9969950  30.1516910
  25.8873770   1.9785800  17.7697150  25.3190670   1.5304050  17.1433060
  26.5962770   2.3378580  17.2362300  20.9642950   5.8797820  31.6463880
  20.5797740   5.2391490  32.2446840  21.2755140   6.5833940  32.2158610
  27.1140090   2.7274360  27.1272500  27.4810220   2.2532930  27.8733840
  26.9245150   3.6015930  27.4680840  24.9039460   1.7683000  29.4456710
  24.5996530   2.6474980  29.6707070  25.8585920   1.8282790  29.4814150
  23.4321250   5.9743990  20.0423560  22.6583510   5.4341610  19.8822280
  24.1615880   5.4550600  19.7041320  34.1909230   4.9709350  25.8349950
  34.9108350   5.4664640  25.4446060  33.9891050   4.2927240  25.1903820
  29.5728030   5.0418410  31.7218950  29.5065340   4.1214080  31.4676540
  28.9433170   5.1393850  32.4363590  23.4758650   5.6424370  23.6802370
  23.9937320   4.8392630  23.6259260  23.0242670   5.5803510  24.5219200
  28.3628150   6.9090650  18.9529670  28.7043850   7.6532880  18.4572990
  27.5340860   7.2221770  19.3154500  20.9603190   2.6085740  30.5928070
  20.6018130   3.2739590  31.1801410  20.6657750   1.7769290  30.9640690
  24.1616310   3.0669980  33.4767620  23.8616450   3.2127160  32.5795440
  24.9327550   2.5075270  33.3841010  29.5044760   7.8638980  31.4722750
  29.5189300   6.9319940  31.2541660  28.7969860   7.9498740  32.1112520
  34.6381830   2.0478800  17.7421360  34.5545550   2.4793020  16.8917800
  35.3576020   2.5077150  18.1748180  35.7155970   4.5046320  30.8191330
  34.9904160   5.0975100  30.6220720  36.2431430   4.4969860  30.0204700
  35.6669080   8.9021060  20.4703490  35.0245240   8.2476680  20.7447210
  35.2799740   9.3076150  19.6944160  31.2455560   6.2306490  24.3175180
  31.5979380   5.6334620  23.6576550  30.3617890   5.9050720  24.4883430
  27.3318840   6.9904180  21.7245590  28.0189970   7.5373390  22.1053180
  26.5451260   7.5344910  21.7595200  19.4711240   2.6077000  17.2162670
  20.3406090   2.8901800  17.4998590  18.9801560   3.4212870  17.1011480
  26.6346050   3.9950210  21.3370950  27.0908830   4.8055460  21.5631140
  26.2834260   3.6773350  22.1689440  28.9378660   9.5056550  28.5663250
  29.5820880   9.7115930  29.2436670  29.3008100   8.7444950  28.1134100
  30.2110740   7.5088900  27.2840700  30.8532970   6.8082060  27.3972870
  30.7360090   8.2887340  27.1037590  34.0566460   7.7937520  17.0079840
  33.8304040   7.0767960  17.6004480  33.6662660   7.5449960  16.1701590
  31.9848360   8.3083800  30.4876760  32.3204600   8.8950490  31.1654680
  31.0648700   8.1776510  30.7174550  19.8382490  11.8204380  17.7824300
  20.1980130  12.4193720  17.1281570  19.6974830  12.3664270  18.5559330
  33.6382710   5.7109460  18.6694000  33.3504410   6.1722150  19.4571880
  34.4334880   5.2507230  18.9378220  19.8224350  10.0859240  32.2566700
  19.9315470   9.1453980  32.1162090  19.1704910  10.3513990  31.6080430
  27.8136940   8.3575130  33.6564820  27.4933810   7.6384370  34.2010510
  27.1395300   9.0330200  33.7300880  25.8551110   9.2035580  18.5997970
  25.8461210   9.9365270  17.9842480  24.9349470   8.9567160  18.6924930
  21.4557750   4.4250470  19.3444730  20.8485700   5.1649370  19.3540030
  21.9307100   4.5149830  18.5182930  28.8410710   9.2663820  17.2623160
  28.9422690   9.0627810  16.3325140  27.9412450   9.0122100  17.4670940
  27.4828820  11.7850140  21.9570830  27.7370320  11.7471530  21.0350200
  26.5341300  11.6583470  21.9499080  33.4881400   2.7042020  23.5329340
  32.5471540   2.7192250  23.7077030  33.8025470   1.9177980  23.9789640
  23.4663040   4.3861620  17.0933300  24.2326310   4.2742980  17.6558730
  23.5437730   3.6899590  16.4410070  35.4906980   9.8750870  25.2083600
  35.6154400  10.6982040  25.6807410  36.3572540   9.6641600  24.8607750
  22.9624510  11.9682080  24.8800730  23.6986990  11.4197540  25.1509300
  23.3465430  12.8338090  24.7406720  19.8469990   8.0355650  20.7542240
  18.9209770   8.2776790  20.7447650  20.3126420   8.8629910  20.6326990
  21.9682790  11.1528150  34.0686310  22.7695520  11.4740200  34.4821710
  21.4534610  10.7923730  34.7906220  26.0726820  11.1412390  16.7026300
  26.8655430  11.4301220  16.2508090  25.5531170  10.7104560  16.0238780
  30.8047420   7.2608020  34.0161720  30.1985580   7.2839620  33.2757470
  30.5001530   6.5291060  34.5528970  32.2347790  10.9888310  32.6271130
  33.1869540  10.9046330  32.5771370  32.0876010  11.6530020  33.3004920
  35.1256990  10.3682520  18.1263040  34.8398500   9.9547660  17.3117220
  34.9276540  11.2970230  18.0063560  19.6880600   3.6401610  33.0122360
  20.1919620   3.0608890  33.5838590  18.9488020   3.9241840  33.5498730
  26.5904220   6.3615800  16.5668650  26.4854860   5.7468150  17.2930030
  26.4228440   5.8381690  15.7831660  26.7418540   5.0472600  32.5457880
  25.9764210   5.6157600  32.4612550  26.9234500   4.7548810  31.6526110
  29.8306950   5.4235830  17.1710640  29.2817050   5.8705130  17.8153380
  30.4526210   4.9185080  17.6948310  33.8841890   6.7777930  33.1032900
  34.6251360   7.1153690  32.6000360  33.1214570   6.9469990  32.5502670
  21.7203680   1.7831200  33.9072430  21.7609020   1.4845070  34.8157660
  22.5749180   2.1838810  33.7479950  25.4982070   4.3826750  19.0675940
  25.9198490   4.2166620  19.9107330  25.6232910   3.5726980  18.5731080
  28.0109710   3.4064360  16.3153040  28.5315370   2.6913380  15.9494190
  28.6578110   4.0450230  16.6153550  32.5587550   4.8292760  31.6388110
  32.9728570   4.9837840  32.4878530  31.6238550   4.9547980  31.8013890
  27.3202780   4.7813240  29.6084040  27.7390890   5.6245970  29.4360280
  26.4011410   4.9185280  29.3790820  29.6566680   2.5129420  30.9921880
  29.7762890   1.9170560  31.7316720  30.5160680   2.5499110  30.5723180
  31.9954580   3.0666610  29.5684390  31.4689800   3.5909230  28.9649530
  32.3385920   3.6994000  30.1994120  25.1710200  11.0866250  30.7241770
  24.6331290  11.8112310  30.4050470  25.4244160  10.6096590  29.9339110
  28.0272410  12.3217460  30.9828420  27.9531110  13.2252600  31.2900790
  27.1251250  12.0029360  30.9550490  28.5757740  11.4875970  18.6054780
  29.4708530  11.8260940  18.6273540  28.6075370  10.7655380  17.9779060
  22.2153900   6.8603020  16.8341780  22.6528770   7.4032690  17.4899360
  22.7001630   6.0349970  16.8438120  19.4299700   9.6492050  24.2862040
  19.7602710   8.7813110  24.0540680  19.8590700   9.8550570  25.1167000
  24.0261620   7.9801060  21.9464010  23.7257160   7.8566030  22.8467920
  23.9199110   7.1209650  21.5379740  19.9189910  10.5162640  27.0243670
  19.4820900  10.6963440  27.8567820  20.4867590  11.2737260  26.8825390
  35.5552090  10.0179640  31.3120980  34.9554080  10.0772200  30.5684900
  35.6845990   9.0784620  31.4417830  36.7953540   7.7597460  16.6490690
  35.9646500   7.8274110  17.1197920  36.9725370   8.6501580  16.3457550
  36.2510000   4.5044940  19.1524890  37.0128910   5.0741590  19.2584580
  36.2664370   3.9372140  19.9233200  19.7514340   3.0282870  23.3832550
  19.0963180   2.7594510  22.7392250  20.5892290   2.9187350  22.9334530
  37.2569970   5.3595040  23.9966820  37.6278800   4.5762360  23.5902790
  37.8971900   6.0484140  23.8184120  34.2403730   6.7431620  29.4097140
  33.4263570   7.1728780  29.6722930  34.6477930   7.3550030  28.7966190
  36.3029170   4.7979310  16.3097410  36.5778010   5.7058190  16.1816630
  36.1139910   4.7341840  17.2459400  36.1994510   2.7348300  21.3026840
  35.8238110   1.9676230  20.8708130  35.4697630   3.1171000  21.7901770
  20.7890270   3.4135440  27.9235890  21.1563310   3.3262840  28.8031910
  20.2201090   2.6501990  27.8242750  35.5894130   1.8819820  30.9366360
  35.3580220   1.6532570  30.0364310  35.8498680   2.8019370  30.8911250
  34.2979780  11.4950220  22.9365410  34.8938850  11.1734790  22.2599830
  34.5557930  11.0222040  23.7278680  22.2042350   7.9268130  33.0856040
  22.1611980   7.5561040  33.9670500  22.3353360   8.8645700  33.2257860
  25.9048380   9.4827720  28.6865760  25.6639740   9.7502280  27.7996280
  26.8451020   9.6533450  28.7416620  37.1652540  11.5022100  29.4876400
  36.6710820  11.8990970  28.7703530  36.5565830  10.8771310  29.8813680
  22.0430380  10.8730380  30.2053820  21.4490700  10.7415080  30.9443860
  22.0354220  10.0368520  29.7395920  34.8491990  12.1445520  26.7663140
  34.3894960  12.8961330  26.3921160  34.2204450  11.4251990  26.7077940
  21.6742610   8.2388760  29.1561860  20.9476670   7.6194050  29.0887810
  21.7351760   8.6329370  28.2859940  25.2787710  10.4533760  25.9411270
  25.7952730   9.8421120  25.4159530  25.9285090  10.9562540  26.4322280
  28.0183210  11.3442250  26.7680250  28.3061020  11.0896550  25.8913260
  28.5306430  10.7919610  27.3585820  19.9572610  11.5563150  22.3658620
  19.7894650  10.9233830  23.0640510  19.0907120  11.7622550  22.0152810
  21.5635310  10.2496380  19.8108760  21.0382930  10.6304410  19.1070720
  21.4879890  10.8747150  20.5318470  28.0855570  12.2658350  34.1348450
  29.0122880  12.0302620  34.1784410  28.0706000  13.0930350  33.6534480
  36.3200630  11.8083920  21.1322700  36.4952820  11.1221660  20.4883620
  35.6222200  12.3330970  20.7399370  24.1628280  12.1978760  18.6858010
  24.8947100  11.9138040  18.1381900  24.4221950  11.9592040  19.5757390
  23.3243070   8.3143490  18.6904340  22.6951950   8.7828590  19.2390170
  23.4390900   7.4692710  19.1250530  34.6533130  11.4928210  33.9589490
  35.4458450  10.9977440  33.7515450  34.9466280  12.1718350  34.5665100
  28.9110830   4.1428170   6.7214810  28.1352930   3.6628610   7.0113380
  29.5623760   3.4633820   6.5470970  22.9276660   4.4547980   7.5990570
  22.0961540   4.1996690   7.9987080  23.5357640   4.5258750   8.3348490
  32.9318260   8.5488360   5.5013940  32.4699790   7.7775600   5.8301110
  33.7443810   8.5754430   6.0066390  22.9077920   8.4888070   7.7948590
  23.2105960   7.5985810   7.6158810  23.6521510   9.0458290   7.5670840
  29.1581570  10.8346370   5.1217930  28.5393010  11.2903870   4.5512370
  30.0133350  10.9897830   4.7207630  28.3519820   6.8185360   6.7284970
  28.2828100   5.8775300   6.5674100  29.1139680   6.9086770   7.3007540
  30.0244920   5.7185610   2.5149840  29.4062190   6.1835060   1.9512560
  30.5368170   6.4113090   2.9319350  24.8876680   5.2461480   9.1933440
  24.5546060   5.8730400   9.8354510  25.0643360   5.7723360   8.4135110
  24.0995780   7.2142280  11.0082620  24.7169780   7.8893360  10.7267070
  23.2388900   7.6230260  10.9170120  35.0173370   8.6781690   8.9237260
  34.3336890   9.3480800   8.9153930  35.5567660   8.8762340   8.1582120
  32.5532110  10.5225820   7.6382440  32.5659270  10.1188110   6.7704700
  32.0007330  11.2973110   7.5343870  33.8477530   7.2442040   2.7272610
  33.7373860   6.3016370   2.8522030  33.8445780   7.6057680   3.6135370
  31.9517550   5.4255660   8.9665050  32.3686340   5.2115770   8.1318510
  32.6757370   5.6828450   9.5373670  29.3897810   2.8707360   2.0835100
  28.4627090   2.8044740   2.3123570  29.5422630   3.8087490   1.9690340
  35.8979650   3.8242880   9.0581290  35.0698280   3.8935970   8.5831420
  36.4930130   4.4097190   8.5897120  33.4195100   4.4327660   2.5870350
  32.8007520   4.0947210   1.9396650  33.4019550   3.7887420   3.2949540
  24.9954450   3.3972100   4.8654830  24.5911450   2.6849350   4.3700730
  25.0817570   3.0525340   5.7542870  25.4636150   7.0839660   7.0294040
  25.1664440   6.4785130   6.3501820  26.4135970   7.1216970   6.9183400
  33.5521760  10.6571530  10.6917140  33.0752320  11.4643720  10.4989750
  32.8683550  10.0049860  10.8443350  24.5554580   6.8221350  13.6801840
  23.6583110   7.0461320  13.9275240  24.5807450   6.9456290  12.7313240
  23.3825800   3.6934670  12.2559210  23.2433570   4.5657470  12.6246610
  22.5007160   3.3507480  12.1107150  29.7055180   8.6110540   3.5624340
  30.1451090   9.3534870   3.1479730  29.6442070   8.8537110   4.4863300
  25.1806150   9.6356370  14.4644360  25.1521580  10.0399320  13.5972790
  25.0171120   8.7066730  14.3015960  21.6959080   2.2917080   2.3661480
  21.5756680   3.0179170   1.7542750  21.3859970   1.5219990   1.8889390
  37.1320970  10.4183470  15.7608530  37.6080690  10.8966360  16.4397610
  37.7528130  10.3500960  15.0354030  19.3344450   5.4632220   8.1730120
  19.4124870   5.5980990   7.2285840  19.9486130   4.7548110   8.3658240
  20.5792080   7.1632410   4.5836300  20.1720160   7.3047000   3.7289900
  21.4705090   6.8792570   4.3807510  36.5354220   7.6096320  12.9208540
  36.6617280   7.3708200  12.0025720  36.5775600   6.7780860  13.3930620
  30.3970960  11.3124320  11.4903350  30.9115630  11.2232330  12.2925780
  29.5540040  11.6584020  11.7831260  24.8513740  11.3778190   2.6958970
  24.6756220  10.4613730   2.4826770  23.9969480  11.7365480   2.9356770
  31.6401420  10.7329930   3.5533840  32.0958370   9.9519310   3.8672460
  31.9793940  11.4436750   4.0975020  19.3903970   6.5046390  10.7124580
  19.5535010   6.0351750   9.8943950  19.8556420   5.9969950  11.3773420
  20.9642950   5.8797820  12.8720390  20.5797740   5.2391490  13.4703350
  21.2755140   6.5833940  13.4415120  27.1140090   2.7274360   8.3529010
  27.4810220   2.2532930   9.0990350  26.9245150   3.6015930   8.6937350
  24.9039460   1.7683000  10.6713220  24.5996530   2.6474980  10.8963580
  25.8585920   1.8282790  10.7070660  34.1909230   4.9709350   7.0606460
  34.9108350   5.4664640   6.6702570  33.9891050   4.2927240   6.4160330
  29.5728030   5.0418410  12.9475460  29.5065340   4.1214080  12.6933050
  28.9433170   5.1393850  13.6620100  23.4758650   5.6424370   4.9058880
  23.9937320   4.8392630   4.8515770  23.0242670   5.5803510   5.7475710
  20.9603190   2.6085740  11.8184580  20.6018130   3.2739590  12.4057920
  20.6657750   1.7769290  12.1897200  24.1616310   3.0669980  14.7024130
  23.8616450   3.2127160  13.8051950  24.9327550   2.5075270  14.6097520
  29.5044760   7.8638980  12.6979260  29.5189300   6.9319940  12.4798170
  28.7969860   7.9498740  13.3369030  35.7155970   4.5046320  12.0447840
  34.9904160   5.0975100  11.8477230  36.2431430   4.4969860  11.2461210
  31.2455560   6.2306490   5.5431690  31.5979380   5.6334620   4.8833060
  30.3617890   5.9050720   5.7139940  27.3318840   6.9904180   2.9502100
  28.0189970   7.5373390   3.3309690  26.5451260   7.5344910   2.9851710
  26.6346050   3.9950210   2.5627460  27.0908830   4.8055460   2.7887650
  26.2834260   3.6773350   3.3945950  28.9378660   9.5056550   9.7919760
  29.5820880   9.7115930  10.4693180  29.3008100   8.7444950   9.3390610
  30.2110740   7.5088900   8.5097210  30.8532970   6.8082060   8.6229380
  30.7360090   8.2887340   8.3294100  31.9848360   8.3083800  11.7133270
  32.3204600   8.8950490  12.3911190  31.0648700   8.1776510  11.9431060
  19.8224350  10.0859240  13.4823210  19.9315470   9.1453980  13.3418600
  19.1704910  10.3513990  12.8336940  27.8136940   8.3575130  14.8821330
  27.4933810   7.6384370  15.4267020  27.1395300   9.0330200  14.9557390
  27.4828820  11.7850140   3.1827340  27.7370320  11.7471530   2.2606710
  26.5341300  11.6583470   3.1755590  33.4881400   2.7042020   4.7585850
  32.5471540   2.7192250   4.9333540  33.8025470   1.9177980   5.2046150
  35.4906980   9.8750870   6.4340110  35.6154400  10.6982040   6.9063920
  36.3572540   9.6641600   6.0864260  22.9624510  11.9682080   6.1057240
  23.6986990  11.4197540   6.3765810  23.3465430  12.8338090   5.9663230
  19.8469990   8.0355650   1.9798750  18.9209770   8.2776790   1.9704160
  20.3126420   8.8629910   1.8583500  21.9682790  11.1528150  15.2942820
  22.7695520  11.4740200  15.7078220  21.4534610  10.7923730  16.0162730
  30.8047420   7.2608020  15.2418230  30.1985580   7.2839620  14.5013980
  30.5001530   6.5291060  15.7785480  32.2347790  10.9888310  13.8527640
  33.1869540  10.9046330  13.8027880  32.0876010  11.6530020  14.5261430
  19.6880600   3.6401610  14.2378870  20.1919620   3.0608890  14.8095100
  18.9488020   3.9241840  14.7755240  26.7418540   5.0472600  13.7714390
  25.9764210   5.6157600  13.6869060  26.9234500   4.7548810  12.8782620
  33.8841890   6.7777930  14.3289410  34.6251360   7.1153690  13.8256870
  33.1214570   6.9469990  13.7759180  21.7203680   1.7831200  15.1328940
  21.7609020   1.4845070  16.0414170  22.5749180   2.1838810  14.9736460
  32.5587550   4.8292760  12.8644620  32.9728570   4.9837840  13.7135040
  31.6238550   4.9547980  13.0270400  27.3202780   4.7813240  10.8340550
  27.7390890   5.6245970  10.6616790  26.4011410   4.9185280  10.6047330
  29.6566680   2.5129420  12.2178390  29.7762890   1.9170560  12.9573230
  30.5160680   2.5499110  11.7979690  31.9954580   3.0666610  10.7940900
  31.4689800   3.5909230  10.1906040  32.3385920   3.6994000  11.4250630
  25.1710200  11.0866250  11.9498280  24.6331290  11.8112310  11.6306980
  25.4244160  10.6096590  11.1595620  28.0272410  12.3217460  12.2084930
  27.9531110  13.2252600  12.5157300  27.1251250  12.0029360  12.1807000
  19.4299700   9.6492050   5.5118550  19.7602710   8.7813110   5.2797190
  19.8590700   9.8550570   6.3423510  24.0261620   7.9801060   3.1720520
  23.7257160   7.8566030   4.0724430  23.9199110   7.1209650   2.7636250
  19.9189910  10.5162640   8.2500180  19.4820900  10.6963440   9.0824330
  20.4867590  11.2737260   8.1081900  35.5552090  10.0179640  12.5377490
  34.9554080  10.0772200  11.7941410  35.6845990   9.0784620  12.6674340
  19.7514340   3.0282870   4.6089060  19.0963180   2.7594510   3.9648760
  20.5892290   2.9187350   4.1591040  37.2569970   5.3595040   5.2223330
  37.6278800   4.5762360   4.8159300  37.8971900   6.0484140   5.0440630
  34.2403730   6.7431620  10.6353650  33.4263570   7.1728780  10.8979440
  34.6477930   7.3550030  10.0222700  36.1994510   2.7348300   2.5283350
  35.8238110   1.9676230   2.0964640  35.4697630   3.1171000   3.0158280
  20.7890270   3.4135440   9.1492400  21.1563310   3.3262840  10.0288420
  20.2201090   2.6501990   9.0499260  35.5894130   1.8819820  12.1622870
  35.3580220   1.6532570  11.2620820  35.8498680   2.8019370  12.1167760
  34.2979780  11.4950220   4.1621920  34.8938850  11.1734790   3.4856340
  34.5557930  11.0222040   4.9535190  22.2042350   7.9268130  14.3112550
  22.1611980   7.5561040  15.1927010  22.3353360   8.8645700  14.4514370
  25.9048380   9.4827720   9.9122270  25.6639740   9.7502280   9.0252790
  26.8451020   9.6533450   9.9673130  37.1652540  11.5022100  10.7132910
  36.6710820  11.8990970   9.9960040  36.5565830  10.8771310  11.1070190
  22.0430380  10.8730380  11.4310330  21.4490700  10.7415080  12.1700370
  22.0354220  10.0368520  10.9652430  34.8491990  12.1445520   7.9919650
  34.3894960  12.8961330   7.6177670  34.2204450  11.4251990   7.9334450
  21.6742610   8.2388760  10.3818370  20.9476670   7.6194050  10.3144320
  21.7351760   8.6329370   9.5116450  25.2787710  10.4533760   7.1667780
  25.7952730   9.8421120   6.6416040  25.9285090  10.9562540   7.6578790
  28.0183210  11.3442250   7.9936760  28.3061020  11.0896550   7.1169770
  28.5306430  10.7919610   8.5842330  19.9572610  11.5563150   3.5915130
  19.7894650  10.9233830   4.2897020  19.0907120  11.7622550   3.2409320
  28.0855570  12.2658350  15.3604960  29.0122880  12.0302620  15.4040920
  28.0706000  13.0930350  14.8790990  36.3200630  11.8083920   2.3579210
  36.4952820  11.1221660   1.7140130  35.6222200  12.3330970   1.9655880
  34.6533130  11.4928210  15.1846000  35.4458450  10.9977440  14.9771960
  34.9466280  12.1718350  15.7921610  12.0049300  96.2366600  79.9379500
  11.9243350  95.3221210  79.6671210  11.5913720  96.7333670  79.2319210
  10.1367340  98.0145620  81.8188770   9.3609440  97.5346060  82.1087340
  10.7880270  97.3351270  81.6444930   4.1533170  98.3265430  82.6964530
   3.3218050  98.0714140  83.0961040   4.7614150  98.3976200  83.4322450
   2.5625120  93.2867320  76.4806920   1.6741820  93.6283290  76.3786800
   2.8466310  93.0867640  75.5887750   1.7683000  91.2957330  84.1515550
   1.5885840  90.3983080  84.4318310   1.3663080  91.8429200  84.8262500
  10.6081500  93.4973190  82.0527860  10.9846320  92.6245070  81.9401530
  10.5101010  93.8331890  81.1618300   4.7386510  91.8698820  77.5145300
   4.8453260  92.7702550  77.8214060   3.8278870  91.8216790  77.2239950
  14.3905620  90.9923630  78.9856200  15.2115240  90.5020200  79.0281680
  14.4239700  91.5821290  79.7388040   2.3869670  93.7917830  82.7597890
   3.0679780  94.0556200  83.3785290   2.0717720  92.9518700  83.0935900
   6.5794240  94.8385190  81.8470480   7.0872460  95.3366160  82.4875500
   7.1107480  94.0620390  81.6709840  18.6805170  93.0090380  85.5499830
  17.9757340  93.3972090  85.0314940  18.9463090  93.7040670  86.1520760
   4.8630340  89.4783750  86.1133900   4.8648780  89.9956140  85.3079800
   4.0334650  89.0013930  86.0903830  14.6267100  92.9324010  81.7583740
  13.9222670  93.2208900  82.3386850  14.9879260  93.7424120  81.3983300
   4.5445670  91.1893710  84.1204350   4.8862480  92.0335760  83.8258220
   3.6061480  91.3377450  84.2369690  17.6954020  92.3778800  82.1492950
  16.7478930  92.4117780  82.2808380  18.0204010  93.1917750  82.5342310
   8.2273560  88.6775980  80.4448940   8.5348540  88.1222870  79.7284440
   7.2974260  88.8120440  80.2621930  10.6154320  96.7424810  77.1809060
   9.6883600  96.6762190  77.4097530  10.7679140  97.6804940  77.0664300
  10.6023400  93.0141810  74.1776220   9.6627070  93.1755770  74.2628680
  10.9206660  93.7327490  73.6312210  17.1236160  97.6960330  84.1555250
  16.2954790  97.7653420  83.6805380  17.7186640  98.2814640  83.6871080
  14.6451610  98.3045110  77.6844310  14.0264030  97.9664660  77.0370610
  14.6276060  97.6604870  78.3923500  14.0878170  94.4829650  85.1010120
  13.6749350  95.3083360  85.3550110  13.3554120  93.8974690  84.9086480
   6.2210960  97.2689550  79.9628790   5.8167960  96.5566800  79.4674690
   6.3074080  96.9242790  80.8516830   4.9339580  94.0432760  83.7427830
   5.4854170  94.1528100  82.9681080   5.4483090  94.4170360  84.4583060
  12.8216310  97.5431920  74.6917060  13.2609590  96.7054350  74.5454880
  13.5344730  98.1761320  74.7781200  16.4033450  88.7974730  73.0058100
  16.0906110  88.8901560  73.9057170  17.1645920  89.3755760  72.9555530
   2.9215590  96.1634530  77.4635440   2.8013190  96.8896620  76.8516710
   2.6116480  95.3937440  76.9863350   5.3879250  89.5069600  80.8459110
   4.9447400  90.2879140  80.5143630   5.9464240  89.8299490  81.5530050
   8.5038070  89.1280300  75.7264940   7.8792250  89.1240170  76.4518250
   8.4168190  88.2611260  75.3300910   7.4255150  90.0516930  82.7048710
   7.7227480  90.9579760  82.6240730   7.9740710  89.5635710  82.0908280
   5.1793470  94.6303170  78.5740360   4.9534390  94.4140340  79.4786980
   4.3986000  95.0631630  78.2286330  12.4091230  94.6366540  77.1731010
  11.8100120  95.3602340  76.9894630  12.9570840  94.5743320  76.3907460
  11.0156100  93.2730080  79.2034290  11.4085670  93.5902280  78.3902980
  11.3772950  92.3941960  79.3178810  11.6011240  95.8635830  83.2985070
  10.8692360  96.3722640  83.6475170  11.2035580  95.0465810  82.9973850
   8.0388630  92.5390030  81.7037560   8.0424690  92.0979980  80.8542100
   8.9339750  92.8607360  81.8109380   3.8891010  92.4216520  80.6631770
   3.5491060  92.8991750  81.4198820   3.1268330  91.9681640  80.3032870
   8.1008780  93.5402110  74.6944320   8.2221600  93.4988590  75.6430140
   7.7157290  94.4026260  74.5391050  12.0637150  91.3169510  82.7108010
  12.0809890  91.7678160  83.5549860  11.8152730  90.4175150  82.9241450
   7.1130280  95.8503250  74.0927620   6.5447180  95.4021500  73.4663530
   7.8219280  96.2096030  73.5592770   8.3396600  96.5991810  83.4502970
   8.7066730  96.1250380  84.1964310   8.1501660  97.4733380  83.7911310
   6.1295970  95.6400450  85.7687180   5.8253040  96.5192430  85.9937540
   7.0842430  95.7000240  85.8044620  10.8775680  90.2364760  76.3009810
  10.0640290  89.7377930  76.2255120  10.6837630  91.0763010  75.8846160
  13.5924070  94.6084410  74.5971970  14.4803690  94.9201640  74.4223310
  13.5629160  93.7356660  74.2052550  15.8638340  95.9196250  74.0651830
  15.7802060  96.3510470  73.2148270  16.5832530  96.3794600  74.4978650
   7.8602560  97.8667660  77.6601420   8.3165340  98.6772910  77.8861610
   7.5090770  97.5490800  78.4919910   3.7614340  88.2105310  78.1323940
   3.6328970  88.2023210  79.0808860   2.9376360  88.5488400  77.7814950
  12.2547050  92.4618740  85.3432090  12.6227870  91.6413950  85.6711660
  11.3945250  92.5220630  85.7587740  15.6209080  91.4175680  76.1519650
  14.9922240  91.5221350  75.4377880  15.1261000  91.6372460  76.9413530
   7.5893110  93.6961630  77.5677530   6.8809260  94.1647970  78.0091140
   7.8737590  93.0383640  78.2022720   9.2149040  95.1158330  85.5670060
   9.7134290  95.5904150  86.2321910   9.3571990  94.1921850  85.7740090
  11.6208540  90.4212290  79.0073320  11.4976320  90.4398420  78.0582830
  12.5693100  90.4691230  79.1271720   5.7928130  92.0046710  74.9428240
   6.6418660  92.4416860  74.8768430   5.4259400  92.3166970  75.7700300
  16.4215900  91.3326290  86.4098450  15.9189500  92.0731690  86.7492260
  17.2372560  91.7210290  86.0935240  14.7137910  96.5759470  79.8559810
  13.7728050  96.5909700  80.0307500  15.0281980  95.7895430  80.3020110
   4.6919550  98.2579070  73.4163770   5.4582820  98.1460430  73.9789200
   4.7694240  97.5617040  72.7640540   3.3866310  95.6904140  74.0996660
   3.4669900  94.7431650  74.2114060   4.2786060  96.0211020  74.2057320
   6.7238580  98.2544200  75.3906410   7.1455000  98.0884070  76.2337800
   6.8489420  97.4444430  74.8961550   9.2366220  97.2781810  72.6383510
   9.7571880  96.5630830  72.2724660   9.8834620  97.9167680  72.9384020
   8.1399740  89.7576360  85.3102070   7.6917040  89.7800620  84.4647620
   7.5064940  89.3595380  85.9072370  13.2211090  96.9384060  85.8914860
  12.6946310  97.4626680  85.2880000  13.5642430  97.5711450  86.5224590
   5.6197480  94.3277430  72.3364570   5.4186540  93.4644790  72.6977910
   5.4489530  94.2410790  71.3986170  13.0985790  89.1385660  74.8651450
  13.3788080  88.2953560  75.2210870  12.3251520  89.3708770  75.3790200
   4.4180280  91.4278050  72.3242450   4.7206180  91.4345480  71.4161600
   5.1574870  91.0775910  72.8210110   7.6365210  90.3712670  73.3098650
   7.2887210  89.6936660  72.7301100   7.8377980  89.9102180  74.1242040
  13.9261290  91.6941610  73.9281510  14.3446170  91.5072590  73.0878170
  13.6197350  90.8420660  74.2384440  17.4251020  96.6065750  77.6257310
  17.0494620  95.8393680  77.1938600  16.6954140  96.9888450  78.1132240
   2.0146780  97.2852890  84.2466360   2.3819820  97.1980290  85.1262380
   1.4457600  96.5219440  84.1473220  16.7001980  94.8323240  80.9264550
  17.2239460  94.3385890  80.2954720  17.2861400  94.9673600  81.6712120
  16.8791700  94.9163110  84.4484100  15.9294410  94.8826650  84.5629090
  17.0604710  95.8263220  84.2133870   2.7336140  93.1664790  73.5582730
   3.4427840  92.7448010  73.0730010   2.0176080  93.2340020  72.9266080
   2.3810300  89.2204120  72.5985380   3.1038430  89.7613060  72.9166600
   2.6534820  88.9467540  71.7226920  16.1901950  94.0896590  76.8656960
  16.6861070  93.8567460  77.6505840  15.9918020  93.2508430  76.4494600
   2.0702490  88.4710310  82.5008000   2.7178680  87.9207690  82.0603160
   2.4904330  88.7253460  83.3223810  17.6189110  92.7257540  79.3994640
  17.5088390  92.5713580  80.3376910  18.3796700  92.1978480  79.1570050
  15.9654830  88.6651670  85.8577640  16.6027050  89.2785810  86.2236830
  16.1129720  88.7012330  84.9126870  18.5079380  90.5565460  72.6400780
  19.4328690  90.4246640  72.4319070  18.4855170  90.6358280  73.5937230
  18.5817870  91.3276120  75.2657490  17.7869370  91.2621240  75.7950400
  18.7861150  92.2626760  75.2542840   1.8234490  88.6265980  85.2433320
   1.4749310  89.0829800  86.0091500   1.4922190  87.7323110  85.3255750
  12.7141910  88.0380060  84.7314320  11.8401750  88.3715170  84.5287250
  12.6052660  87.5653240  85.5566190  13.6213890  90.2450930  86.1156040
  13.2927250  89.4302690  85.7357770  14.5696190  90.2020740  85.9921730
  10.4616730  88.9549900  83.6707230   9.6788520  89.4295400  83.9503990
  10.1679660  88.0504730  83.5620410  15.0137800  89.6573000  81.7156320
  15.4545890  89.6018100  80.8677920  14.7445390  90.5731010  81.7866500
  16.8776370  89.2888240  79.7265140  16.8164770  88.3449460  79.5796160
  17.6568400  89.3968330  80.2718600   1.8057140  89.2597380  76.1920950
   2.5636500  89.3726260  75.6184980   1.3434310  90.0966580  76.1464380
   8.3470950  91.3736650  79.1823260   7.5345460  90.9993540  78.8419140
   8.8512590  90.6181730  79.4844450  12.8495930  88.0379100  80.4206330
  13.4525300  88.6099310  80.8954850  12.1088920  88.6018540  80.1980230
  15.9930530  88.4400660  75.6946610  16.1881160  89.3384110  75.9614040
  15.2060400  88.2087740  76.1879560   4.1782290  89.7861430  74.7322920
   4.7075050  88.9991230  74.6030870   4.8110610  90.4652620  74.9658450
   6.3720130  89.5236570  77.7868310   5.7422870  88.8223880  77.9538440
   5.8325270  90.2840700  77.5701470  12.0049300  96.2366600  61.1636010
  11.9243350  95.3221210  60.8927720  11.5913720  96.7333670  60.4575720
  10.1367340  98.0145620  63.0445280   9.3609440  97.5346060  63.3343850
  10.7880270  97.3351270  62.8701440   4.1533170  98.3265430  63.9221040
   3.3218050  98.0714140  64.3217550   4.7614150  98.3976200  64.6578960
   2.5625120  93.2867320  57.7063430   1.6741820  93.6283290  57.6043310
   2.8466310  93.0867640  56.8144260   1.7683000  91.2957330  65.3772060
   1.5885840  90.3983080  65.6574820   1.3663080  91.8429200  66.0519010
  10.6081500  93.4973190  63.2784370  10.9846320  92.6245070  63.1658040
  10.5101010  93.8331890  62.3874810   4.7386510  91.8698820  58.7401810
   4.8453260  92.7702550  59.0470570   3.8278870  91.8216790  58.4496460
  14.3905620  90.9923630  60.2112710  15.2115240  90.5020200  60.2538190
  14.4239700  91.5821290  60.9644550   2.3869670  93.7917830  63.9854400
   3.0679780  94.0556200  64.6041800   2.0717720  92.9518700  64.3192410
   6.5794240  94.8385190  63.0726990   7.0872460  95.3366160  63.7132010
   7.1107480  94.0620390  62.8966350  18.6805170  93.0090380  66.7756340
  17.9757340  93.3972090  66.2571450  18.9463090  93.7040670  67.3777270
   4.8630340  89.4783750  67.3390410   4.8648780  89.9956140  66.5336310
   4.0334650  89.0013930  67.3160340  14.6267100  92.9324010  62.9840250
  13.9222670  93.2208900  63.5643360  14.9879260  93.7424120  62.6239810
   4.5445670  91.1893710  65.3460860   4.8862480  92.0335760  65.0514730
   3.6061480  91.3377450  65.4626200  17.6954020  92.3778800  63.3749460
  16.7478930  92.4117780  63.5064890  18.0204010  93.1917750  63.7598820
   8.2273560  88.6775980  61.6705450   8.5348540  88.1222870  60.9540950
   7.2974260  88.8120440  61.4878440  10.6154320  96.7424810  58.4065570
   9.6883600  96.6762190  58.6354040  10.7679140  97.6804940  58.2920810
  10.6023400  93.0141810  55.4032730   9.6627070  93.1755770  55.4885190
  10.9206660  93.7327490  54.8568720  17.1236160  97.6960330  65.3811760
  16.2954790  97.7653420  64.9061890  17.7186640  98.2814640  64.9127590
  14.6451610  98.3045110  58.9100820  14.0264030  97.9664660  58.2627120
  14.6276060  97.6604870  59.6180010  14.0878170  94.4829650  66.3266630
  13.6749350  95.3083360  66.5806620  13.3554120  93.8974690  66.1342990
   6.2210960  97.2689550  61.1885300   5.8167960  96.5566800  60.6931200
   6.3074080  96.9242790  62.0773340   4.9339580  94.0432760  64.9684340
   5.4854170  94.1528100  64.1937590   5.4483090  94.4170360  65.6839570
  12.8216310  97.5431920  55.9173570  13.2609590  96.7054350  55.7711390
  13.5344730  98.1761320  56.0037710   4.6082310  97.5652120  68.5789680
   4.4690080  98.4374920  68.9477080   3.7263670  97.2224930  68.4337620
  16.4033450  88.7974730  54.2314610  16.0906110  88.8901560  55.1313680
  17.1645920  89.3755760  54.1812040   2.9215590  96.1634530  58.6891950
   2.8013190  96.8896620  58.0773220   2.6116480  95.3937440  58.2119860
  17.6134740  93.5346230  70.2088750  16.9979010  94.0425900  69.6804210
  17.2931160  92.6344560  70.1514690   5.3879250  89.5069600  62.0715620
   4.9447400  90.2879140  61.7400140   5.9464240  89.8299490  62.7786560
   9.6749060  92.3738120  67.6750940   9.2128430  92.5821140  68.4870880
   9.2727170  91.5597470  67.3721610  14.6753570  93.5947070  68.8047600
  13.8247160  93.2952820  69.1256670  14.5155360  93.8389080  67.8931420
  11.7703280  95.0948820  70.9046390  12.0956690  94.2612570  70.5648620
  12.5583610  95.6177340  71.0524720   8.5038070  89.1280300  56.9521450
   7.8792250  89.1240170  57.6774760   8.4168190  88.2611260  56.5557420
   7.4255150  90.0516930  63.9305220   7.7227480  90.9579760  63.8497240
   7.9740710  89.5635710  63.3164790   5.1793470  94.6303170  59.7996870
   4.9534390  94.4140340  60.7043490   4.3986000  95.0631630  59.4542840
  12.4091230  94.6366540  58.3987520  11.8100120  95.3602340  58.2151140
  12.9570840  94.5743320  57.6163970   7.6192680  95.5288750  70.4657140
   7.5236280  94.5883480  70.3157540   8.4624660  95.7503820  70.0705210
  11.0156100  93.2730080  60.4290800  11.4085670  93.5902280  59.6159490
  11.3772950  92.3941960  60.5435320   2.7503220  91.9402420  68.6190920
   2.3566610  92.7877630  68.8263700   2.0621620  91.3028790  68.8099560
   9.3248270  92.0237390  71.6887660   8.6346590  91.8309590  72.3233750
  10.0680570  92.3072030  72.2211960  11.6011240  95.8635830  64.5241580
  10.8692360  96.3722640  64.8731680  11.2035580  95.0465810  64.2230360
   8.0388630  92.5390030  62.9294070   8.0424690  92.0979980  62.0798610
   8.9339750  92.8607360  63.0365890   3.8891010  92.4216520  61.8888280
   3.5491060  92.8991750  62.6455330   3.1268330  91.9681640  61.5289380
   8.1008780  93.5402110  55.9200830   8.2221600  93.4988590  56.8686650
   7.7157290  94.4026260  55.7647560  12.0637150  91.3169510  63.9364520
  12.0809890  91.7678160  64.7806370  11.8152730  90.4175150  64.1497960
   7.1130280  95.8503250  55.3184130   6.5447180  95.4021500  54.6920040
   7.8219280  96.2096030  54.7849280  15.4907900  88.7301690  69.7750900
  15.8153670  87.9991350  70.3008880  15.5264410  88.4115330  68.8731890
   8.3396600  96.5991810  64.6759480   8.7066730  96.1250380  65.4220820
   8.1501660  97.4733380  65.0167820   6.1295970  95.6400450  66.9943690
   5.8253040  96.5192430  67.2194050   7.0842430  95.7000240  67.0301130
  10.8775680  90.2364760  57.5266320  10.0640290  89.7377930  57.4511630
  10.6837630  91.0763010  57.1102670  13.5924070  94.6084410  55.8228480
  14.4803690  94.9201640  55.6479820  13.5629160  93.7356660  55.4309060
   2.1859700  96.4803190  68.1415050   1.8274640  97.1457040  68.7288390
   1.8914260  95.6486740  68.5127670   5.3872820  96.9387430  71.0254600
   5.0872960  97.0844610  70.1282420   6.1584060  96.3792720  70.9327990
  15.8638340  95.9196250  55.2908340  15.7802060  96.3510470  54.4404780
  16.5832530  96.3794600  55.7235160   7.8602560  97.8667660  58.8857930
   8.3165340  98.6772910  59.1118120   7.5090770  97.5490800  59.7176420
   3.7614340  88.2105310  59.3580450   3.6328970  88.2023210  60.3065370
   2.9376360  88.5488400  59.0071460  12.2547050  92.4618740  66.5688600
  12.6227870  91.6413950  66.8968170  11.3945250  92.5220630  66.9844250
  15.6209080  91.4175680  57.3776160  14.9922240  91.5221350  56.6634390
  15.1261000  91.6372460  58.1670040   7.5893110  93.6961630  58.7934040
   6.8809260  94.1647970  59.2347650   7.8737590  93.0383640  59.4279230
   9.2149040  95.1158330  66.7926570   9.7134290  95.5904150  67.4578420
   9.3571990  94.1921850  66.9996600  11.6208540  90.4212290  60.2329830
  11.4976320  90.4398420  59.2839340  12.5693100  90.4691230  60.3528230
   5.7928130  92.0046710  56.1684750   6.6418660  92.4416860  56.1024940
   5.4259400  92.3166970  56.9956810  16.4215900  91.3326290  67.6354960
  15.9189500  92.0731690  67.9748770  17.2372560  91.7210290  67.3191750
  14.7137910  96.5759470  61.0816320  13.7728050  96.5909700  61.2564010
  15.0281980  95.7895430  61.5276620   4.6919550  98.2579070  54.6420280
   5.4582820  98.1460430  55.2045710   4.7694240  97.5617040  53.9897050
   3.3866310  95.6904140  55.3253170   3.4669900  94.7431650  55.4370570
   4.2786060  96.0211020  55.4313830   2.9460190  95.6548650  71.4559410
   2.9865530  95.3562520  72.3644640   3.8005690  96.0556260  71.2966930
   6.7238580  98.2544200  56.6162920   7.1455000  98.0884070  57.4594310
   6.8489420  97.4444430  56.1218060   4.8866000  94.2340750  69.4233900
   4.3562460  93.7431700  68.7957240   5.5554070  94.6624950  68.8891830
   9.2366220  97.2781810  53.8640020   9.7571880  96.5630830  53.4981170
   9.8834620  97.9167680  54.1640530  14.2566230  96.0406370  71.1914240
  14.8387000  95.2858690  71.1034720  14.4328000  96.5713810  70.4145720
   5.3738300  91.2003120  69.5031190   5.2795170  90.5823870  68.7782060
   4.7935690  91.9269410  69.2761100   8.1399740  89.7576360  66.5358580
   7.6917040  89.7800620  65.6904130   7.5064940  89.3595380  67.1328880
  10.8823190  96.3846870  68.5408860  11.0019400  95.7888010  69.2803700
  11.7417190  96.4216560  68.1210160  13.2211090  96.9384060  67.1171370
  12.6946310  97.4626680  66.5136510  13.5642430  97.5711450  67.7481100
   5.6197480  94.3277430  53.5621080   5.4186540  93.4644790  53.9234420
   5.4489530  94.2410790  52.6242680   7.6491960  92.9268220  69.7984680
   8.2391650  92.6184070  70.4862500   6.8312200  92.4547970  69.9544580
  12.4685390  92.5434030  70.0317700  11.7800910  91.8815570  69.9667690
  13.1891410  92.0972300  70.4766160  13.0985790  89.1385660  56.0907960
  13.3788080  88.2953560  56.4467380  12.3251520  89.3708770  56.6046710
   4.4180280  91.4278050  53.5498960   4.7206180  91.4345480  52.6418110
   5.1574870  91.0775910  54.0466620   7.6365210  90.3712670  54.5355160
   7.2887210  89.6936660  53.9557610   7.8377980  89.9102180  55.3498550
  13.9261290  91.6941610  55.1538020  14.3446170  91.5072590  54.3134680
  13.6197350  90.8420660  55.4640950  17.4251020  96.6065750  58.8513820
  17.0494620  95.8393680  58.4195110  16.6954140  96.9888450  59.3388750
   2.0146780  97.2852890  65.4722870   2.3819820  97.1980290  66.3518890
   1.4457600  96.5219440  65.3729730  16.8150640  95.7537270  68.4853340
  16.5836730  95.5250020  67.5851290  17.0755190  96.6736820  68.4398230
  15.2538710  90.9793700  71.2633040  16.1308890  90.9877100  71.6467040
  15.2659550  90.2424540  70.6525390  16.7001980  94.8323240  62.1521060
  17.2239460  94.3385890  61.5211230  17.2861400  94.9673600  62.8968630
  16.8791700  94.9163110  65.6740610  15.9294410  94.8826650  65.7885600
  17.0604710  95.8263220  65.4390380   2.7336140  93.1664790  54.7839240
   3.4427840  92.7448010  54.2986520   2.0176080  93.2340020  54.1522590
   2.3810300  89.2204120  53.8241890   3.1038430  89.7613060  54.1423110
   2.6534820  88.9467540  52.9483430  16.1901950  94.0896590  58.0913470
  16.6861070  93.8567460  58.8762350  15.9918020  93.2508430  57.6751110
   2.0702490  88.4710310  63.7264510   2.7178680  87.9207690  63.2859670
   2.4904330  88.7253460  64.5480320  17.6189110  92.7257540  60.6251150
  17.5088390  92.5713580  61.5633420  18.3796700  92.1978480  60.3826560
  15.9654830  88.6651670  67.0834150  16.6027050  89.2785810  67.4493340
  16.1129720  88.7012330  66.1383380  18.5079380  90.5565460  53.8657290
  19.4328690  90.4246640  53.6575580  18.4855170  90.6358280  54.8193740
  18.5817870  91.3276120  56.4914000  17.7869370  91.2621240  57.0206910
  18.7861150  92.2626760  56.4799350   1.8234490  88.6265980  66.4689830
   1.4749310  89.0829800  67.2348010   1.4922190  87.7323110  66.5512260
   9.3359310  89.8177860  69.9909250   9.2748200  90.4099690  70.7404660
  10.2759690  89.7103820  69.8459510  11.9733870  89.4747920  69.6301540
  12.5874280  89.7927210  68.9682620  12.5183430  88.9896510  70.2497400
   2.4955130  88.1542180  69.7440600   3.0438120  87.9730230  68.9806710
   2.5610440  87.3636290  70.2796910  12.7141910  88.0380060  65.9570830
  11.8401750  88.3715170  65.7543760  12.6052660  87.5653240  66.7822700
  13.6213890  90.2450930  67.3412550  13.2927250  89.4302690  66.9614280
  14.5696190  90.2020740  67.2178240  10.4616730  88.9549900  64.8963740
   9.6788520  89.4295400  65.1760500  10.1679660  88.0504730  64.7876920
  15.0137800  89.6573000  62.9412830  15.4545890  89.6018100  62.0934430
  14.7445390  90.5731010  63.0123010  16.8776370  89.2888240  60.9521650
  16.8164770  88.3449460  60.8052670  17.6568400  89.3968330  61.4975110
   1.8057140  89.2597380  57.4177460   2.5636500  89.3726260  56.8441490
   1.3434310  90.0966580  57.3720890   8.3470950  91.3736650  60.4079770
   7.5345460  90.9993540  60.0675650   8.8512590  90.6181730  60.7100960
  12.8495930  88.0379100  61.6462840  13.4525300  88.6099310  62.1211360
  12.1088920  88.6018540  61.4236740  15.9930530  88.4400660  56.9203120
  16.1881160  89.3384110  57.1870550  15.2060400  88.2087740  57.4136070
   4.1782290  89.7861430  55.9579430   4.7075050  88.9991230  55.8287380
   4.8110610  90.4652620  56.1914960   6.3720130  89.5236570  59.0124820
   5.7422870  88.8223880  59.1794950   5.8325270  90.2840700  58.7957980
   6.4975690  88.8020550  71.4477310   6.2159960  89.3054150  70.6838130
   6.8795390  88.0042300  71.0819440  13.0991150  88.2174130  72.0257780
  12.9856600  88.5368740  72.9209300  13.9160890  88.6186640  71.7295060
  12.0049300  96.2366600  42.3892520  11.9243350  95.3221210  42.1184230
  11.5913720  96.7333670  41.6832230  10.1367340  98.0145620  44.2701790
   9.3609440  97.5346060  44.5600360  10.7880270  97.3351270  44.0957950
   4.1533170  98.3265430  45.1477550   3.3218050  98.0714140  45.5474060
   4.7614150  98.3976200  45.8835470   2.5625120  93.2867320  38.9319940
   1.6741820  93.6283290  38.8299820   2.8466310  93.0867640  38.0400770
   1.7683000  91.2957330  46.6028570   1.5885840  90.3983080  46.8831330
   1.3663080  91.8429200  47.2775520  10.6081500  93.4973190  44.5040880
  10.9846320  92.6245070  44.3914550  10.5101010  93.8331890  43.6131320
   4.7386510  91.8698820  39.9658320   4.8453260  92.7702550  40.2727080
   3.8278870  91.8216790  39.6752970  14.3905620  90.9923630  41.4369220
  15.2115240  90.5020200  41.4794700  14.4239700  91.5821290  42.1901060
   2.3869670  93.7917830  45.2110910   3.0679780  94.0556200  45.8298310
   2.0717720  92.9518700  45.5448920   6.5794240  94.8385190  44.2983500
   7.0872460  95.3366160  44.9388520   7.1107480  94.0620390  44.1222860
  18.6805170  93.0090380  48.0012850  17.9757340  93.3972090  47.4827960
  18.9463090  93.7040670  48.6033780   4.8630340  89.4783750  48.5646920
   4.8648780  89.9956140  47.7592820   4.0334650  89.0013930  48.5416850
  14.6267100  92.9324010  44.2096760  13.9222670  93.2208900  44.7899870
  14.9879260  93.7424120  43.8496320   4.5445670  91.1893710  46.5717370
   4.8862480  92.0335760  46.2771240   3.6061480  91.3377450  46.6882710
  17.6954020  92.3778800  44.6005970  16.7478930  92.4117780  44.7321400
  18.0204010  93.1917750  44.9855330   8.2273560  88.6775980  42.8961960
   8.5348540  88.1222870  42.1797460   7.2974260  88.8120440  42.7134950
  10.6154320  96.7424810  39.6322080   9.6883600  96.6762190  39.8610550
  10.7679140  97.6804940  39.5177320  10.6023400  93.0141810  36.6289240
   9.6627070  93.1755770  36.7141700  10.9206660  93.7327490  36.0825230
  17.1236160  97.6960330  46.6068270  16.2954790  97.7653420  46.1318400
  17.7186640  98.2814640  46.1384100  14.6451610  98.3045110  40.1357330
  14.0264030  97.9664660  39.4883630  14.6276060  97.6604870  40.8436520
  14.0878170  94.4829650  47.5523140  13.6749350  95.3083360  47.8063130
  13.3554120  93.8974690  47.3599500   6.2210960  97.2689550  42.4141810
   5.8167960  96.5566800  41.9187710   6.3074080  96.9242790  43.3029850
   4.9339580  94.0432760  46.1940850   5.4854170  94.1528100  45.4194100
   5.4483090  94.4170360  46.9096080  12.8216310  97.5431920  37.1430080
  13.2609590  96.7054350  36.9967900  13.5344730  98.1761320  37.2294220
   4.6082310  97.5652120  49.8046190   4.4690080  98.4374920  50.1733590
   3.7263670  97.2224930  49.6594130  16.4033450  88.7974730  35.4571120
  16.0906110  88.8901560  36.3570190  17.1645920  89.3755760  35.4068550
   2.9215590  96.1634530  39.9148460   2.8013190  96.8896620  39.3029730
   2.6116480  95.3937440  39.4376370  17.6134740  93.5346230  51.4345260
  16.9979010  94.0425900  50.9060720  17.2931160  92.6344560  51.3771200
   5.3879250  89.5069600  43.2972130   4.9447400  90.2879140  42.9656650
   5.9464240  89.8299490  44.0043070   9.6749060  92.3738120  48.9007450
   9.2128430  92.5821140  49.7127390   9.2727170  91.5597470  48.5978120
  14.6753570  93.5947070  50.0304110  13.8247160  93.2952820  50.3513180
  14.5155360  93.8389080  49.1187930  11.7703280  95.0948820  52.1302900
  12.0956690  94.2612570  51.7905130  12.5583610  95.6177340  52.2781230
   8.5038070  89.1280300  38.1777960   7.8792250  89.1240170  38.9031270
   8.4168190  88.2611260  37.7813930   7.4255150  90.0516930  45.1561730
   7.7227480  90.9579760  45.0753750   7.9740710  89.5635710  44.5421300
   5.1793470  94.6303170  41.0253380   4.9534390  94.4140340  41.9300000
   4.3986000  95.0631630  40.6799350  12.4091230  94.6366540  39.6244030
  11.8100120  95.3602340  39.4407650  12.9570840  94.5743320  38.8420480
   7.6192680  95.5288750  51.6913650   7.5236280  94.5883480  51.5414050
   8.4624660  95.7503820  51.2961720  11.0156100  93.2730080  41.6547310
  11.4085670  93.5902280  40.8416000  11.3772950  92.3941960  41.7691830
   2.7503220  91.9402420  49.8447430   2.3566610  92.7877630  50.0520210
   2.0621620  91.3028790  50.0356070   9.3248270  92.0237390  52.9144170
   8.6346590  91.8309590  53.5490260  10.0680570  92.3072030  53.4468470
  11.6011240  95.8635830  45.7498090  10.8692360  96.3722640  46.0988190
  11.2035580  95.0465810  45.4486870   8.0388630  92.5390030  44.1550580
   8.0424690  92.0979980  43.3055120   8.9339750  92.8607360  44.2622400
   3.8891010  92.4216520  43.1144790   3.5491060  92.8991750  43.8711840
   3.1268330  91.9681640  42.7545890   8.1008780  93.5402110  37.1457340
   8.2221600  93.4988590  38.0943160   7.7157290  94.4026260  36.9904070
  12.0637150  91.3169510  45.1621030  12.0809890  91.7678160  46.0062880
  11.8152730  90.4175150  45.3754470   7.1130280  95.8503250  36.5440640
   6.5447180  95.4021500  35.9176550   7.8219280  96.2096030  36.0105790
  15.4907900  88.7301690  51.0007410  15.8153670  87.9991350  51.5265390
  15.5264410  88.4115330  50.0988400   8.3396600  96.5991810  45.9015990
   8.7066730  96.1250380  46.6477330   8.1501660  97.4733380  46.2424330
   6.1295970  95.6400450  48.2200200   5.8253040  96.5192430  48.4450560
   7.0842430  95.7000240  48.2557640  10.8775680  90.2364760  38.7522830
  10.0640290  89.7377930  38.6768140  10.6837630  91.0763010  38.3359180
  13.5924070  94.6084410  37.0484990  14.4803690  94.9201640  36.8736330
  13.5629160  93.7356660  36.6565570   2.1859700  96.4803190  49.3671560
   1.8274640  97.1457040  49.9544900   1.8914260  95.6486740  49.7384180
   5.3872820  96.9387430  52.2511110   5.0872960  97.0844610  51.3538930
   6.1584060  96.3792720  52.1584500  15.8638340  95.9196250  36.5164850
  15.7802060  96.3510470  35.6661290  16.5832530  96.3794600  36.9491670
   7.8602560  97.8667660  40.1114440   8.3165340  98.6772910  40.3374630
   7.5090770  97.5490800  40.9432930   3.7614340  88.2105310  40.5836960
   3.6328970  88.2023210  41.5321880   2.9376360  88.5488400  40.2327970
  12.2547050  92.4618740  47.7945110  12.6227870  91.6413950  48.1224680
  11.3945250  92.5220630  48.2100760  15.6209080  91.4175680  38.6032670
  14.9922240  91.5221350  37.8890900  15.1261000  91.6372460  39.3926550
   7.5893110  93.6961630  40.0190550   6.8809260  94.1647970  40.4604160
   7.8737590  93.0383640  40.6535740   9.2149040  95.1158330  48.0183080
   9.7134290  95.5904150  48.6834930   9.3571990  94.1921850  48.2253110
  11.6208540  90.4212290  41.4586340  11.4976320  90.4398420  40.5095850
  12.5693100  90.4691230  41.5784740   5.7928130  92.0046710  37.3941260
   6.6418660  92.4416860  37.3281450   5.4259400  92.3166970  38.2213320
  16.4215900  91.3326290  48.8611470  15.9189500  92.0731690  49.2005280
  17.2372560  91.7210290  48.5448260  14.7137910  96.5759470  42.3072830
  13.7728050  96.5909700  42.4820520  15.0281980  95.7895430  42.7533130
   4.6919550  98.2579070  35.8676790   5.4582820  98.1460430  36.4302220
   4.7694240  97.5617040  35.2153560   3.3866310  95.6904140  36.5509680
   3.4669900  94.7431650  36.6627080   4.2786060  96.0211020  36.6570340
   2.9460190  95.6548650  52.6815920   2.9865530  95.3562520  53.5901150
   3.8005690  96.0556260  52.5223440   6.7238580  98.2544200  37.8419430
   7.1455000  98.0884070  38.6850820   6.8489420  97.4444430  37.3474570
   4.8866000  94.2340750  50.6490410   4.3562460  93.7431700  50.0213750
   5.5554070  94.6624950  50.1148340   9.2366220  97.2781810  35.0896530
   9.7571880  96.5630830  34.7237680   9.8834620  97.9167680  35.3897040
  14.2566230  96.0406370  52.4170750  14.8387000  95.2858690  52.3291230
  14.4328000  96.5713810  51.6402230   5.3738300  91.2003120  50.7287700
   5.2795170  90.5823870  50.0038570   4.7935690  91.9269410  50.5017610
   8.1399740  89.7576360  47.7615090   7.6917040  89.7800620  46.9160640
   7.5064940  89.3595380  48.3585390  10.8823190  96.3846870  49.7665370
  11.0019400  95.7888010  50.5060210  11.7417190  96.4216560  49.3466670
  13.2211090  96.9384060  48.3427880  12.6946310  97.4626680  47.7393020
  13.5642430  97.5711450  48.9737610   5.6197480  94.3277430  34.7877590
   5.4186540  93.4644790  35.1490930   5.4489530  94.2410790  33.8499190
   7.6491960  92.9268220  51.0241190   8.2391650  92.6184070  51.7119010
   6.8312200  92.4547970  51.1801090  12.4685390  92.5434030  51.2574210
  11.7800910  91.8815570  51.1924200  13.1891410  92.0972300  51.7022670
  13.0985790  89.1385660  37.3164470  13.3788080  88.2953560  37.6723890
  12.3251520  89.3708770  37.8303220   4.4180280  91.4278050  34.7755470
   4.7206180  91.4345480  33.8674620   5.1574870  91.0775910  35.2723130
   7.6365210  90.3712670  35.7611670   7.2887210  89.6936660  35.1814120
   7.8377980  89.9102180  36.5755060  13.9261290  91.6941610  36.3794530
  14.3446170  91.5072590  35.5391190  13.6197350  90.8420660  36.6897460
  17.4251020  96.6065750  40.0770330  17.0494620  95.8393680  39.6451620
  16.6954140  96.9888450  40.5645260   2.0146780  97.2852890  46.6979380
   2.3819820  97.1980290  47.5775400   1.4457600  96.5219440  46.5986240
  16.8150640  95.7537270  49.7109850  16.5836730  95.5250020  48.8107800
  17.0755190  96.6736820  49.6654740  15.2538710  90.9793700  52.4889550
  16.1308890  90.9877100  52.8723550  15.2659550  90.2424540  51.8781900
  16.7001980  94.8323240  43.3777570  17.2239460  94.3385890  42.7467740
  17.2861400  94.9673600  44.1225140  16.8791700  94.9163110  46.8997120
  15.9294410  94.8826650  47.0142110  17.0604710  95.8263220  46.6646890
   2.7336140  93.1664790  36.0095750   3.4427840  92.7448010  35.5243030
   2.0176080  93.2340020  35.3779100   2.3810300  89.2204120  35.0498400
   3.1038430  89.7613060  35.3679620   2.6534820  88.9467540  34.1739940
  16.1901950  94.0896590  39.3169980  16.6861070  93.8567460  40.1018860
  15.9918020  93.2508430  38.9007620   2.0702490  88.4710310  44.9521020
   2.7178680  87.9207690  44.5116180   2.4904330  88.7253460  45.7736830
  17.6189110  92.7257540  41.8507660  17.5088390  92.5713580  42.7889930
  18.3796700  92.1978480  41.6083070  15.9654830  88.6651670  48.3090660
  16.6027050  89.2785810  48.6749850  16.1129720  88.7012330  47.3639890
  18.5079380  90.5565460  35.0913800  19.4328690  90.4246640  34.8832090
  18.4855170  90.6358280  36.0450250  18.5817870  91.3276120  37.7170510
  17.7869370  91.2621240  38.2463420  18.7861150  92.2626760  37.7055860
   1.8234490  88.6265980  47.6946340   1.4749310  89.0829800  48.4604520
   1.4922190  87.7323110  47.7768770   9.3359310  89.8177860  51.2165760
   9.2748200  90.4099690  51.9661170  10.2759690  89.7103820  51.0716020
  11.9733870  89.4747920  50.8558050  12.5874280  89.7927210  50.1939130
  12.5183430  88.9896510  51.4753910   2.4955130  88.1542180  50.9697110
   3.0438120  87.9730230  50.2063220   2.5610440  87.3636290  51.5053420
  12.7141910  88.0380060  47.1827340  11.8401750  88.3715170  46.9800270
  12.6052660  87.5653240  48.0079210  13.6213890  90.2450930  48.5669060
  13.2927250  89.4302690  48.1870790  14.5696190  90.2020740  48.4434750
  10.4616730  88.9549900  46.1220250   9.6788520  89.4295400  46.4017010
  10.1679660  88.0504730  46.0133430  15.0137800  89.6573000  44.1669340
  15.4545890  89.6018100  43.3190940  14.7445390  90.5731010  44.2379520
  16.8776370  89.2888240  42.1778160  16.8164770  88.3449460  42.0309180
  17.6568400  89.3968330  42.7231620   1.8057140  89.2597380  38.6433970
   2.5636500  89.3726260  38.0698000   1.3434310  90.0966580  38.5977400
   8.3470950  91.3736650  41.6336280   7.5345460  90.9993540  41.2932160
   8.8512590  90.6181730  41.9357470  12.8495930  88.0379100  42.8719350
  13.4525300  88.6099310  43.3467870  12.1088920  88.6018540  42.6493250
  15.9930530  88.4400660  38.1459630  16.1881160  89.3384110  38.4127060
  15.2060400  88.2087740  38.6392580   4.1782290  89.7861430  37.1835940
   4.7075050  88.9991230  37.0543890   4.8110610  90.4652620  37.4171470
   6.3720130  89.5236570  40.2381330   5.7422870  88.8223880  40.4051460
   5.8325270  90.2840700  40.0214490   6.4975690  88.8020550  52.6733820
   6.2159960  89.3054150  51.9094640   6.8795390  88.0042300  52.3075950
  13.0991150  88.2174130  53.2514290  12.9856600  88.5368740  54.1465810
  13.9160890  88.6186640  52.9551570  12.0049300  96.2366600  23.6149030
  11.9243350  95.3221210  23.3440740  11.5913720  96.7333670  22.9088740
  10.1367340  98.0145620  25.4958300   9.3609440  97.5346060  25.7856870
  10.7880270  97.3351270  25.3214460   4.1533170  98.3265430  26.3734060
   3.3218050  98.0714140  26.7730570   4.7614150  98.3976200  27.1091980
   2.5625120  93.2867320  20.1576450   1.6741820  93.6283290  20.0556330
   2.8466310  93.0867640  19.2657280   1.7683000  91.2957330  27.8285080
   1.5885840  90.3983080  28.1087840   1.3663080  91.8429200  28.5032030
  10.6081500  93.4973190  25.7297390  10.9846320  92.6245070  25.6171060
  10.5101010  93.8331890  24.8387830   4.7386510  91.8698820  21.1914830
   4.8453260  92.7702550  21.4983590   3.8278870  91.8216790  20.9009480
  14.3905620  90.9923630  22.6625730  15.2115240  90.5020200  22.7051210
  14.4239700  91.5821290  23.4157570   2.3869670  93.7917830  26.4367420
   3.0679780  94.0556200  27.0554820   2.0717720  92.9518700  26.7705430
   6.5794240  94.8385190  25.5240010   7.0872460  95.3366160  26.1645030
   7.1107480  94.0620390  25.3479370  18.6805170  93.0090380  29.2269360
  17.9757340  93.3972090  28.7084470  18.9463090  93.7040670  29.8290290
   4.8630340  89.4783750  29.7903430   4.8648780  89.9956140  28.9849330
   4.0334650  89.0013930  29.7673360  14.6267100  92.9324010  25.4353270
  13.9222670  93.2208900  26.0156380  14.9879260  93.7424120  25.0752830
   4.5445670  91.1893710  27.7973880   4.8862480  92.0335760  27.5027750
   3.6061480  91.3377450  27.9139220  17.6954020  92.3778800  25.8262480
  16.7478930  92.4117780  25.9577910  18.0204010  93.1917750  26.2111840
   8.2273560  88.6775980  24.1218470   8.5348540  88.1222870  23.4053970
   7.2974260  88.8120440  23.9391460  10.6154320  96.7424810  20.8578590
   9.6883600  96.6762190  21.0867060  10.7679140  97.6804940  20.7433830
  10.6023400  93.0141810  17.8545750   9.6627070  93.1755770  17.9398210
  10.9206660  93.7327490  17.3081740  17.1236160  97.6960330  27.8324780
  16.2954790  97.7653420  27.3574910  17.7186640  98.2814640  27.3640610
  14.6451610  98.3045110  21.3613840  14.0264030  97.9664660  20.7140140
  14.6276060  97.6604870  22.0693030  14.0878170  94.4829650  28.7779650
  13.6749350  95.3083360  29.0319640  13.3554120  93.8974690  28.5856010
   6.2210960  97.2689550  23.6398320   5.8167960  96.5566800  23.1444220
   6.3074080  96.9242790  24.5286360   4.9339580  94.0432760  27.4197360
   5.4854170  94.1528100  26.6450610   5.4483090  94.4170360  28.1352590
  12.8216310  97.5431920  18.3686590  13.2609590  96.7054350  18.2224410
  13.5344730  98.1761320  18.4550730   4.6082310  97.5652120  31.0302700
   4.4690080  98.4374920  31.3990100   3.7263670  97.2224930  30.8850640
  16.4033450  88.7974730  16.6827630  16.0906110  88.8901560  17.5826700
  17.1645920  89.3755760  16.6325060   2.9215590  96.1634530  21.1404970
   2.8013190  96.8896620  20.5286240   2.6116480  95.3937440  20.6632880
  17.6134740  93.5346230  32.6601770  16.9979010  94.0425900  32.1317230
  17.2931160  92.6344560  32.6027710   5.3879250  89.5069600  24.5228640
   4.9447400  90.2879140  24.1913160   5.9464240  89.8299490  25.2299580
   9.6749060  92.3738120  30.1263960   9.2128430  92.5821140  30.9383900
   9.2727170  91.5597470  29.8234630  14.6753570  93.5947070  31.2560620
  13.8247160  93.2952820  31.5769690  14.5155360  93.8389080  30.3444440
  11.7703280  95.0948820  33.3559410  12.0956690  94.2612570  33.0161640
  12.5583610  95.6177340  33.5037740   8.5038070  89.1280300  19.4034470
   7.8792250  89.1240170  20.1287780   8.4168190  88.2611260  19.0070440
   7.4255150  90.0516930  26.3818240   7.7227480  90.9579760  26.3010260
   7.9740710  89.5635710  25.7677810   5.1793470  94.6303170  22.2509890
   4.9534390  94.4140340  23.1556510   4.3986000  95.0631630  21.9055860
  12.4091230  94.6366540  20.8500540  11.8100120  95.3602340  20.6664160
  12.9570840  94.5743320  20.0676990   7.6192680  95.5288750  32.9170160
   7.5236280  94.5883480  32.7670560   8.4624660  95.7503820  32.5218230
  11.0156100  93.2730080  22.8803820  11.4085670  93.5902280  22.0672510
  11.3772950  92.3941960  22.9948340   2.7503220  91.9402420  31.0703940
   2.3566610  92.7877630  31.2776720   2.0621620  91.3028790  31.2612580
   9.3248270  92.0237390  34.1400680   8.6346590  91.8309590  34.7746770
  10.0680570  92.3072030  34.6724980  11.6011240  95.8635830  26.9754600
  10.8692360  96.3722640  27.3244700  11.2035580  95.0465810  26.6743380
   8.0388630  92.5390030  25.3807090   8.0424690  92.0979980  24.5311630
   8.9339750  92.8607360  25.4878910   3.8891010  92.4216520  24.3401300
   3.5491060  92.8991750  25.0968350   3.1268330  91.9681640  23.9802400
   8.1008780  93.5402110  18.3713850   8.2221600  93.4988590  19.3199670
   7.7157290  94.4026260  18.2160580  12.0637150  91.3169510  26.3877540
  12.0809890  91.7678160  27.2319390  11.8152730  90.4175150  26.6010980
   7.1130280  95.8503250  17.7697150   6.5447180  95.4021500  17.1433060
   7.8219280  96.2096030  17.2362300  15.4907900  88.7301690  32.2263920
  15.8153670  87.9991350  32.7521900  15.5264410  88.4115330  31.3244910
   8.3396600  96.5991810  27.1272500   8.7066730  96.1250380  27.8733840
   8.1501660  97.4733380  27.4680840   6.1295970  95.6400450  29.4456710
   5.8253040  96.5192430  29.6707070   7.0842430  95.7000240  29.4814150
  10.8775680  90.2364760  19.9779340  10.0640290  89.7377930  19.9024650
  10.6837630  91.0763010  19.5615690  13.5924070  94.6084410  18.2741500
  14.4803690  94.9201640  18.0992840  13.5629160  93.7356660  17.8822080
   2.1859700  96.4803190  30.5928070   1.8274640  97.1457040  31.1801410
   1.8914260  95.6486740  30.9640690   5.3872820  96.9387430  33.4767620
   5.0872960  97.0844610  32.5795440   6.1584060  96.3792720  33.3841010
  15.8638340  95.9196250  17.7421360  15.7802060  96.3510470  16.8917800
  16.5832530  96.3794600  18.1748180   7.8602560  97.8667660  21.3370950
   8.3165340  98.6772910  21.5631140   7.5090770  97.5490800  22.1689440
   3.7614340  88.2105310  21.8093470   3.6328970  88.2023210  22.7578390
   2.9376360  88.5488400  21.4584480  12.2547050  92.4618740  29.0201620
  12.6227870  91.6413950  29.3481190  11.3945250  92.5220630  29.4357270
  15.6209080  91.4175680  19.8289180  14.9922240  91.5221350  19.1147410
  15.1261000  91.6372460  20.6183060   7.5893110  93.6961630  21.2447060
   6.8809260  94.1647970  21.6860670   7.8737590  93.0383640  21.8792250
   9.2149040  95.1158330  29.2439590   9.7134290  95.5904150  29.9091440
   9.3571990  94.1921850  29.4509620  11.6208540  90.4212290  22.6842850
  11.4976320  90.4398420  21.7352360  12.5693100  90.4691230  22.8041250
   5.7928130  92.0046710  18.6197770   6.6418660  92.4416860  18.5537960
   5.4259400  92.3166970  19.4469830  16.4215900  91.3326290  30.0867980
  15.9189500  92.0731690  30.4261790  17.2372560  91.7210290  29.7704770
  14.7137910  96.5759470  23.5329340  13.7728050  96.5909700  23.7077030
  15.0281980  95.7895430  23.9789640   4.6919550  98.2579070  17.0933300
   5.4582820  98.1460430  17.6558730   4.7694240  97.5617040  16.4410070
   3.3866310  95.6904140  17.7766190   3.4669900  94.7431650  17.8883590
   4.2786060  96.0211020  17.8826850   2.9460190  95.6548650  33.9072430
   2.9865530  95.3562520  34.8157660   3.8005690  96.0556260  33.7479950
   6.7238580  98.2544200  19.0675940   7.1455000  98.0884070  19.9107330
   6.8489420  97.4444430  18.5731080   4.8866000  94.2340750  31.8746920
   4.3562460  93.7431700  31.2470260   5.5554070  94.6624950  31.3404850
   9.2366220  97.2781810  16.3153040   9.7571880  96.5630830  15.9494190
   9.8834620  97.9167680  16.6153550  14.2566230  96.0406370  33.6427260
  14.8387000  95.2858690  33.5547740  14.4328000  96.5713810  32.8658740
   5.3738300  91.2003120  31.9544210   5.2795170  90.5823870  31.2295080
   4.7935690  91.9269410  31.7274120   8.1399740  89.7576360  28.9871600
   7.6917040  89.7800620  28.1417150   7.5064940  89.3595380  29.5841900
  10.8823190  96.3846870  30.9921880  11.0019400  95.7888010  31.7316720
  11.7417190  96.4216560  30.5723180  13.2211090  96.9384060  29.5684390
  12.6946310  97.4626680  28.9649530  13.5642430  97.5711450  30.1994120
   5.6197480  94.3277430  16.0134100   5.4186540  93.4644790  16.3747440
   5.4489530  94.2410790  15.0755700   7.6491960  92.9268220  32.2497700
   8.2391650  92.6184070  32.9375520   6.8312200  92.4547970  32.4057600
  12.4685390  92.5434030  32.4830720  11.7800910  91.8815570  32.4180710
  13.1891410  92.0972300  32.9279180  13.0985790  89.1385660  18.5420980
  13.3788080  88.2953560  18.8980400  12.3251520  89.3708770  19.0559730
   4.4180280  91.4278050  16.0011980   4.7206180  91.4345480  15.0931130
   5.1574870  91.0775910  16.4979640   7.6365210  90.3712670  16.9868180
   7.2887210  89.6936660  16.4070630   7.8377980  89.9102180  17.8011570
  13.9261290  91.6941610  17.6051040  14.3446170  91.5072590  16.7647700
  13.6197350  90.8420660  17.9153970  17.4251020  96.6065750  21.3026840
  17.0494620  95.8393680  20.8708130  16.6954140  96.9888450  21.7901770
   2.0146780  97.2852890  27.9235890   2.3819820  97.1980290  28.8031910
   1.4457600  96.5219440  27.8242750  16.8150640  95.7537270  30.9366360
  16.5836730  95.5250020  30.0364310  17.0755190  96.6736820  30.8911250
  15.2538710  90.9793700  33.7146060  16.1308890  90.9877100  34.0980060
  15.2659550  90.2424540  33.1038410  16.7001980  94.8323240  24.6034080
  17.2239460  94.3385890  23.9724250  17.2861400  94.9673600  25.3481650
  16.8791700  94.9163110  28.1253630  15.9294410  94.8826650  28.2398620
  17.0604710  95.8263220  27.8903400   2.7336140  93.1664790  17.2352260
   3.4427840  92.7448010  16.7499540   2.0176080  93.2340020  16.6035610
   2.3810300  89.2204120  16.2754910   3.1038430  89.7613060  16.5936130
   2.6534820  88.9467540  15.3996450  16.1901950  94.0896590  20.5426490
  16.6861070  93.8567460  21.3275370  15.9918020  93.2508430  20.1264130
   2.0702490  88.4710310  26.1777530   2.7178680  87.9207690  25.7372690
   2.4904330  88.7253460  26.9993340  17.6189110  92.7257540  23.0764170
  17.5088390  92.5713580  24.0146440  18.3796700  92.1978480  22.8339580
  15.9654830  88.6651670  29.5347170  16.6027050  89.2785810  29.9006360
  16.1129720  88.7012330  28.5896400  18.5079380  90.5565460  16.3170310
  19.4328690  90.4246640  16.1088600  18.4855170  90.6358280  17.2706760
  18.5817870  91.3276120  18.9427020  17.7869370  91.2621240  19.4719930
  18.7861150  92.2626760  18.9312370   1.8234490  88.6265980  28.9202850
   1.4749310  89.0829800  29.6861030   1.4922190  87.7323110  29.0025280
   9.3359310  89.8177860  32.4422270   9.2748200  90.4099690  33.1917680
  10.2759690  89.7103820  32.2972530  11.9733870  89.4747920  32.0814560
  12.5874280  89.7927210  31.4195640  12.5183430  88.9896510  32.7010420
   2.4955130  88.1542180  32.1953620   3.0438120  87.9730230  31.4319730
   2.5610440  87.3636290  32.7309930  12.7141910  88.0380060  28.4083850
  11.8401750  88.3715170  28.2056780  12.6052660  87.5653240  29.2335720
  13.6213890  90.2450930  29.7925570  13.2927250  89.4302690  29.4127300
  14.5696190  90.2020740  29.6691260  10.4616730  88.9549900  27.3476760
   9.6788520  89.4295400  27.6273520  10.1679660  88.0504730  27.2389940
  15.0137800  89.6573000  25.3925850  15.4545890  89.6018100  24.5447450
  14.7445390  90.5731010  25.4636030  16.8776370  89.2888240  23.4034670
  16.8164770  88.3449460  23.2565690  17.6568400  89.3968330  23.9488130
   1.8057140  89.2597380  19.8690480   2.5636500  89.3726260  19.2954510
   1.3434310  90.0966580  19.8233910   8.3470950  91.3736650  22.8592790
   7.5345460  90.9993540  22.5188670   8.8512590  90.6181730  23.1613980
  12.8495930  88.0379100  24.0975860  13.4525300  88.6099310  24.5724380
  12.1088920  88.6018540  23.8749760  15.9930530  88.4400660  19.3716140
  16.1881160  89.3384110  19.6383570  15.2060400  88.2087740  19.8649090
   4.1782290  89.7861430  18.4092450   4.7075050  88.9991230  18.2800400
   4.8110610  90.4652620  18.6427980   6.3720130  89.5236570  21.4637840
   5.7422870  88.8223880  21.6307970   5.8325270  90.2840700  21.2471000
   6.4975690  88.8020550  33.8990330   6.2159960  89.3054150  33.1351150
   6.8795390  88.0042300  33.5332460  13.0991150  88.2174130  34.4770800
  12.9856600  88.5368740  35.3722320  13.9160890  88.6186640  34.1808080
  12.0049300  96.2366600   4.8405540  11.9243350  95.3221210   4.5697250
  11.5913720  96.7333670   4.1345250  10.1367340  98.0145620   6.7214810
   9.3609440  97.5346060   7.0113380  10.7880270  97.3351270   6.5470970
   4.1533170  98.3265430   7.5990570   3.3218050  98.0714140   7.9987080
   4.7614150  98.3976200   8.3348490   1.7683000  91.2957330   9.0541590
   1.5885840  90.3983080   9.3344350   1.3663080  91.8429200   9.7288540
  10.6081500  93.4973190   6.9553900  10.9846320  92.6245070   6.8427570
  10.5101010  93.8331890   6.0644340   4.7386510  91.8698820   2.4171340
   4.8453260  92.7702550   2.7240100   3.8278870  91.8216790   2.1265990
  14.3905620  90.9923630   3.8882240  15.2115240  90.5020200   3.9307720
  14.4239700  91.5821290   4.6414080   2.3869670  93.7917830   7.6623930
   3.0679780  94.0556200   8.2811330   2.0717720  92.9518700   7.9961940
   6.5794240  94.8385190   6.7496520   7.0872460  95.3366160   7.3901540
   7.1107480  94.0620390   6.5735880  18.6805170  93.0090380  10.4525870
  17.9757340  93.3972090   9.9340980  18.9463090  93.7040670  11.0546800
   4.8630340  89.4783750  11.0159940   4.8648780  89.9956140  10.2105840
   4.0334650  89.0013930  10.9929870  14.6267100  92.9324010   6.6609780
  13.9222670  93.2208900   7.2412890  14.9879260  93.7424120   6.3009340
   4.5445670  91.1893710   9.0230390   4.8862480  92.0335760   8.7284260
   3.6061480  91.3377450   9.1395730  17.6954020  92.3778800   7.0518990
  16.7478930  92.4117780   7.1834420  18.0204010  93.1917750   7.4368350
   8.2273560  88.6775980   5.3474980   8.5348540  88.1222870   4.6310480
   7.2974260  88.8120440   5.1647970  10.6154320  96.7424810   2.0835100
   9.6883600  96.6762190   2.3123570  10.7679140  97.6804940   1.9690340
  17.1236160  97.6960330   9.0581290  16.2954790  97.7653420   8.5831420
  17.7186640  98.2814640   8.5897120  14.6451610  98.3045110   2.5870350
  14.0264030  97.9664660   1.9396650  14.6276060  97.6604870   3.2949540
  14.0878170  94.4829650  10.0036160  13.6749350  95.3083360  10.2576150
  13.3554120  93.8974690   9.8112520   6.2210960  97.2689550   4.8654830
   5.8167960  96.5566800   4.3700730   6.3074080  96.9242790   5.7542870
   4.9339580  94.0432760   8.6453870   5.4854170  94.1528100   7.8707120
   5.4483090  94.4170360   9.3609100   4.6082310  97.5652120  12.2559210
   4.4690080  98.4374920  12.6246610   3.7263670  97.2224930  12.1107150
   2.9215590  96.1634530   2.3661480   2.8013190  96.8896620   1.7542750
   2.6116480  95.3937440   1.8889390  17.6134740  93.5346230  13.8858280
  16.9979010  94.0425900  13.3573740  17.2931160  92.6344560  13.8284220
   5.3879250  89.5069600   5.7485150   4.9447400  90.2879140   5.4169670
   5.9464240  89.8299490   6.4556090   9.6749060  92.3738120  11.3520470
   9.2128430  92.5821140  12.1640410   9.2727170  91.5597470  11.0491140
  14.6753570  93.5947070  12.4817130  13.8247160  93.2952820  12.8026200
  14.5155360  93.8389080  11.5700950  11.7703280  95.0948820  14.5815920
  12.0956690  94.2612570  14.2418150  12.5583610  95.6177340  14.7294250
   7.4255150  90.0516930   7.6074750   7.7227480  90.9579760   7.5266770
   7.9740710  89.5635710   6.9934320   5.1793470  94.6303170   3.4766400
   4.9534390  94.4140340   4.3813020   4.3986000  95.0631630   3.1312370
  12.4091230  94.6366540   2.0757050  11.8100120  95.3602340   1.8920670
  12.9570840  94.5743320   1.2933500   7.6192680  95.5288750  14.1426670
   7.5236280  94.5883480  13.9927070   8.4624660  95.7503820  13.7474740
  11.0156100  93.2730080   4.1060330  11.4085670  93.5902280   3.2929020
  11.3772950  92.3941960   4.2204850   2.7503220  91.9402420  12.2960450
   2.3566610  92.7877630  12.5033230   2.0621620  91.3028790  12.4869090
   9.3248270  92.0237390  15.3657190   8.6346590  91.8309590  16.0003280
  10.0680570  92.3072030  15.8981490  11.6011240  95.8635830   8.2011110
  10.8692360  96.3722640   8.5501210  11.2035580  95.0465810   7.8999890
   8.0388630  92.5390030   6.6063600   8.0424690  92.0979980   5.7568140
   8.9339750  92.8607360   6.7135420   3.8891010  92.4216520   5.5657810
   3.5491060  92.8991750   6.3224860   3.1268330  91.9681640   5.2058910
  12.0637150  91.3169510   7.6134050  12.0809890  91.7678160   8.4575900
  11.8152730  90.4175150   7.8267490  15.4907900  88.7301690  13.4520430
  15.8153670  87.9991350  13.9778410  15.5264410  88.4115330  12.5501420
   8.3396600  96.5991810   8.3529010   8.7066730  96.1250380   9.0990350
   8.1501660  97.4733380   8.6937350   6.1295970  95.6400450  10.6713220
   5.8253040  96.5192430  10.8963580   7.0842430  95.7000240  10.7070660
   2.1859700  96.4803190  11.8184580   1.8274640  97.1457040  12.4057920
   1.8914260  95.6486740  12.1897200   5.3872820  96.9387430  14.7024130
   5.0872960  97.0844610  13.8051950   6.1584060  96.3792720  14.6097520
   7.8602560  97.8667660   2.5627460   8.3165340  98.6772910   2.7887650
   7.5090770  97.5490800   3.3945950   3.7614340  88.2105310   3.0349980
   3.6328970  88.2023210   3.9834900   2.9376360  88.5488400   2.6840990
  12.2547050  92.4618740  10.2458130  12.6227870  91.6413950  10.5737700
  11.3945250  92.5220630  10.6613780   7.5893110  93.6961630   2.4703570
   6.8809260  94.1647970   2.9117180   7.8737590  93.0383640   3.1048760
   9.2149040  95.1158330  10.4696100   9.7134290  95.5904150  11.1347950
   9.3571990  94.1921850  10.6766130  11.6208540  90.4212290   3.9099360
  11.4976320  90.4398420   2.9608870  12.5693100  90.4691230   4.0297760
  16.4215900  91.3326290  11.3124490  15.9189500  92.0731690  11.6518300
  17.2372560  91.7210290  10.9961280  14.7137910  96.5759470   4.7585850
  13.7728050  96.5909700   4.9333540  15.0281980  95.7895430   5.2046150
   2.9460190  95.6548650  15.1328940   2.9865530  95.3562520  16.0414170
   3.8005690  96.0556260  14.9736460   4.8866000  94.2340750  13.1003430
   4.3562460  93.7431700  12.4726770   5.5554070  94.6624950  12.5661360
  14.2566230  96.0406370  14.8683770  14.8387000  95.2858690  14.7804250
  14.4328000  96.5713810  14.0915250   5.3738300  91.2003120  13.1800720
   5.2795170  90.5823870  12.4551590   4.7935690  91.9269410  12.9530630
   8.1399740  89.7576360  10.2128110   7.6917040  89.7800620   9.3673660
   7.5064940  89.3595380  10.8098410  10.8823190  96.3846870  12.2178390
  11.0019400  95.7888010  12.9573230  11.7417190  96.4216560  11.7979690
  13.2211090  96.9384060  10.7940900  12.6946310  97.4626680  10.1906040
  13.5642430  97.5711450  11.4250630   7.6491960  92.9268220  13.4754210
   8.2391650  92.6184070  14.1632030   6.8312200  92.4547970  13.6314110
  12.4685390  92.5434030  13.7087230  11.7800910  91.8815570  13.6437220
  13.1891410  92.0972300  14.1535690  17.4251020  96.6065750   2.5283350
  17.0494620  95.8393680   2.0964640  16.6954140  96.9888450   3.0158280
   2.0146780  97.2852890   9.1492400   2.3819820  97.1980290  10.0288420
   1.4457600  96.5219440   9.0499260  16.8150640  95.7537270  12.1622870
  16.5836730  95.5250020  11.2620820  17.0755190  96.6736820  12.1167760
  15.2538710  90.9793700  14.9402570  16.1308890  90.9877100  15.3236570
  15.2659550  90.2424540  14.3294920  16.7001980  94.8323240   5.8290590
  17.2239460  94.3385890   5.1980760  17.2861400  94.9673600   6.5738160
  16.8791700  94.9163110   9.3510140  15.9294410  94.8826650   9.4655130
  17.0604710  95.8263220   9.1159910  16.1901950  94.0896590   1.7683000
  16.6861070  93.8567460   2.5531880  15.9918020  93.2508430   1.3520640
   2.0702490  88.4710310   7.4034040   2.7178680  87.9207690   6.9629200
   2.4904330  88.7253460   8.2249850  17.6189110  92.7257540   4.3020680
  17.5088390  92.5713580   5.2402950  18.3796700  92.1978480   4.0596090
  15.9654830  88.6651670  10.7603680  16.6027050  89.2785810  11.1262870
  16.1129720  88.7012330   9.8152910   1.8234490  88.6265980  10.1459360
   1.4749310  89.0829800  10.9117540   1.4922190  87.7323110  10.2281790
   9.3359310  89.8177860  13.6678780   9.2748200  90.4099690  14.4174190
  10.2759690  89.7103820  13.5229040  11.9733870  89.4747920  13.3071070
  12.5874280  89.7927210  12.6452150  12.5183430  88.9896510  13.9266930
   2.4955130  88.1542180  13.4210130   3.0438120  87.9730230  12.6576240
   2.5610440  87.3636290  13.9566440  12.7141910  88.0380060   9.6340360
  11.8401750  88.3715170   9.4313290  12.6052660  87.5653240  10.4592230
  13.6213890  90.2450930  11.0182080  13.2927250  89.4302690  10.6383810
  14.5696190  90.2020740  10.8947770  10.4616730  88.9549900   8.5733270
   9.6788520  89.4295400   8.8530030  10.1679660  88.0504730   8.4646450
  15.0137800  89.6573000   6.6182360  15.4545890  89.6018100   5.7703960
  14.7445390  90.5731010   6.6892540  16.8776370  89.2888240   4.6291180
  16.8164770  88.3449460   4.4822200  17.6568400  89.3968330   5.1744640
   8.3470950  91.3736650   4.0849300   7.5345460  90.9993540   3.7445180
   8.8512590  90.6181730   4.3870490  12.8495930  88.0379100   5.3232370
  13.4525300  88.6099310   5.7980890  12.1088920  88.6018540   5.1006270
   6.3720130  89.5236570   2.6894350   5.7422870  88.8223880   2.8564480
   5.8325270  90.2840700   2.4727510   6.4975690  88.8020550  15.1246840
   6.2159960  89.3054150  14.3607660   6.8795390  88.0042300  14.7588970
  13.0991150  88.2174130  15.7027310  12.9856600  88.5368740  16.5978830
  13.9160890  88.6186640  15.4064590  12.0049300  77.4623110  79.9379500
  11.9243350  76.5477720  79.6671210  11.5913720  77.9590180  79.2319210
  10.1367340  79.2402130  81.8188770   9.3609440  78.7602570  82.1087340
  10.7880270  78.5607780  81.6444930   4.1533170  79.5521940  82.6964530
   3.3218050  79.2970650  83.0961040   4.7614150  79.6232710  83.4322450
  14.1574770  83.6462320  80.5987900  13.6956300  82.8749560  80.9275070
  14.9700320  83.6728390  81.1040350   4.1334430  83.5862030  82.8922550
   4.4362470  82.6959770  82.7132770   4.8778020  84.1432250  82.6644800
   2.5625120  74.5123830  76.4806920   1.6741820  74.8539800  76.3786800
   2.8466310  74.3124150  75.5887750  10.3838080  85.9320330  80.2191890
   9.7649520  86.3877830  79.6486330  11.2389860  86.0871790  79.8181590
   9.5776330  81.9159320  81.8258930   9.5084610  80.9749260  81.6648060
  10.3396190  82.0060730  82.3981500   1.7683000  72.5213840  84.1515550
   1.5885840  71.6239590  84.4318310   1.3663080  73.0685710  84.8262500
  10.6081500  74.7229700  82.0527860  10.9846320  73.8501580  81.9401530
  10.5101010  75.0588400  81.1618300   4.7386510  73.0955330  77.5145300
   4.8453260  73.9959060  77.8214060   3.8278870  73.0473300  77.2239950
  14.3905620  72.2180140  78.9856200  15.2115240  71.7276710  79.0281680
  14.4239700  72.8077800  79.7388040   2.3869670  75.0174340  82.7597890
   3.0679780  75.2812710  83.3785290   2.0717720  74.1775210  83.0935900
   6.5794240  76.0641700  81.8470480   7.0872460  76.5622670  82.4875500
   7.1107480  75.2876900  81.6709840  18.6805170  74.2346890  85.5499830
  17.9757340  74.6228600  85.0314940  18.9463090  74.9297180  86.1520760
   4.8630340  70.7040260  86.1133900   4.8648780  71.2212650  85.3079800
   4.0334650  70.2270440  86.0903830  11.2501430  80.8159570  77.6123800
  10.6318700  81.2809020  77.0486520  11.7624680  81.5087050  78.0293310
   6.1133190  80.3435440  84.2907400   5.7802570  80.9704360  84.9328470
   6.2899870  80.8697320  83.5109070  14.6267100  74.1580520  81.7583740
  13.9222670  74.4465410  82.3386850  14.9879260  74.9680630  81.3983300
   4.5445670  72.4150220  84.1204350   4.8862480  73.2592270  83.8258220
   3.6061480  72.5633960  84.2369690   5.3252290  82.3116240  86.1056580
   5.9426290  82.9867320  85.8241030   4.4645410  82.7204220  86.0144080
  16.2429880  83.7755650  84.0211220  15.5593400  84.4454760  84.0127890
  16.7824170  83.9736300  83.2556080  17.6954020  73.6035310  82.1492950
  16.7478930  73.6374290  82.2808380  18.0204010  74.4174260  82.5342310
   8.2273560  69.9032490  80.4448940   8.5348540  69.3479380  79.7284440
   7.2974260  70.0376950  80.2621930  13.7788620  85.6199780  82.7356400
  13.7915780  85.2162070  81.8678660  13.2263840  86.3947070  82.6317830
  15.0734040  82.3416000  77.8246570  14.9630370  81.3990330  77.9495990
  15.0702290  82.7031640  78.7109330  13.1774060  80.5229620  84.0639010
  13.5942850  80.3089730  83.2292470  13.9013880  80.7802410  84.6347630
  10.6154320  77.9681320  77.1809060   9.6883600  77.9018700  77.4097530
  10.7679140  78.9061450  77.0664300  10.6023400  74.2398320  74.1776220
   9.6627070  74.4012280  74.2628680  10.9206660  74.9584000  73.6312210
  17.1236160  78.9216840  84.1555250  16.2954790  78.9909930  83.6805380
  17.7186640  79.5071150  83.6871080  14.6451610  79.5301620  77.6844310
  14.0264030  79.1921170  77.0370610  14.6276060  78.8861380  78.3923500
  14.0878170  75.7086160  85.1010120  13.6749350  76.5339870  85.3550110
  13.3554120  75.1231200  84.9086480   6.2210960  78.4946060  79.9628790
   5.8167960  77.7823310  79.4674690   6.3074080  78.1499300  80.8516830
   6.6892660  82.1813620  82.1268000   6.3920950  81.5759090  81.4475780
   7.6392480  82.2190930  82.0157360   4.9339580  75.2689270  83.7427830
   5.4854170  75.3784610  82.9681080   5.4483090  75.6426870  84.4583060
  14.7778270  85.7545490  85.7891100  14.3008830  86.5617680  85.5963710
  14.0940060  85.1023820  85.9417310  12.8216310  78.7688430  74.6917060
  13.2609590  77.9310860  74.5454880  13.5344730  79.4017830  74.7781200
  10.9311690  83.7084500  78.6598300  11.3707600  84.4508830  78.2453690
  10.8698580  83.9511070  79.5837260  16.4033450  70.0231240  73.0058100
  16.0906110  70.1158070  73.9057170  17.1645920  70.6012270  72.9555530
   2.9215590  77.3891040  77.4635440   2.8013190  78.1153130  76.8516710
   2.6116480  76.6193950  76.9863350   1.8048590  82.2606370  79.6810260
   1.3976670  82.4020960  78.8263860   2.6961600  81.9766530  79.4781470
  13.5981870  86.6953620  76.0161310  13.4383010  86.4056560  76.9143140
  13.4328580  85.9193750  75.4806540   6.0770250  86.4752150  77.7932930
   5.9012730  85.5587690  77.5800730   5.2225990  86.8339440  78.0330730
  13.3008000  84.2041180  74.5759310  12.6073160  84.2018470  73.9161590
  14.0430860  83.7800500  74.1453480  12.8657930  85.8303890  78.6507800
  13.3214880  85.0493270  78.9646420  13.2050450  86.5410710  79.1948980
   5.3879250  70.7326110  80.8459110   4.9447400  71.5135650  80.5143630
   5.9464240  71.0556000  81.5530050   8.5038070  70.3536810  75.7264940
   7.8792250  70.3496680  76.4518250   8.4168190  69.4867770  75.3300910
   7.4255150  71.2773440  82.7048710   7.7227480  72.1836270  82.6240730
   7.9740710  70.7892220  82.0908280   5.1793470  75.8559680  78.5740360
   4.9534390  75.6396850  79.4786980   4.3986000  76.2888140  78.2286330
  12.4091230  75.8623050  77.1731010  11.8100120  76.5858850  76.9894630
  12.9570840  75.7999830  76.3907460  11.0156100  74.4986590  79.2034290
  11.4085670  74.8158790  78.3902980  11.3772950  73.6198470  79.3178810
  11.6011240  77.0892340  83.2985070  10.8692360  77.5979150  83.6475170
  11.2035580  76.2722320  82.9973850   8.0388630  73.7646540  81.7037560
   8.0424690  73.3236490  80.8542100   8.9339750  74.0863870  81.8109380
   3.8891010  73.6473030  80.6631770   3.5491060  74.1248260  81.4198820
   3.1268330  73.1938150  80.3032870   8.1008780  74.7658620  74.6944320
   8.2221600  74.7245100  75.6430140   7.7157290  75.6282770  74.5391050
  12.0637150  72.5426020  82.7108010  12.0809890  72.9934670  83.5549860
  11.8152730  71.6431660  82.9241450   7.1130280  77.0759760  74.0927620
   6.5447180  76.6278010  73.4663530   7.8219280  77.4352540  73.5592770
   8.3396600  77.8248320  83.4502970   8.7066730  77.3506890  84.1964310
   8.1501660  78.6989890  83.7911310   6.1295970  76.8656960  85.7687180
   5.8253040  77.7448940  85.9937540   7.0842430  76.9256750  85.8044620
   4.6577760  81.0717950  76.3654030   3.8840020  80.5315570  76.2052750
   5.3872390  80.5524560  76.0271790  15.4165740  80.0683310  82.1580420
  16.1364860  80.5638600  81.7676530  15.2147560  79.3901200  81.5134290
  10.8775680  71.4621270  76.3009810  10.0640290  70.9634440  76.2255120
  10.6837630  72.3019520  75.8846160  13.5924070  75.8340920  74.5971970
  14.4803690  76.1458150  74.4223310  13.5629160  74.9613170  74.2052550
   4.7015160  80.7398330  80.0032840   5.2193830  79.9366590  79.9489730
   4.2499180  80.6777470  80.8449670   9.5884660  82.0064610  75.2760140
   9.9300360  82.7506840  74.7803460   8.7597370  82.3195730  75.6384970
  15.8638340  77.1452760  74.0651830  15.7802060  77.5766980  73.2148270
  16.5832530  77.6051110  74.4978650  16.8925590  83.9995020  76.7933960
  16.2501750  83.3450640  77.0677680  16.5056250  84.4050110  76.0174630
  12.4712070  81.3280450  80.6405650  12.8235890  80.7308580  79.9807020
  11.5874400  81.0024680  80.8113900   8.5575350  82.0878140  78.0476060
   9.2446480  82.6347350  78.4283650   7.7707770  82.6318870  78.0825670
   7.8602560  79.0924170  77.6601420   8.3165340  79.9029420  77.8861610
   7.5090770  78.7747310  78.4919910  10.1635170  84.6030510  84.8893720
  10.8077390  84.8089890  85.5667140  10.5264610  83.8418910  84.4364570
   3.7614340  69.4361820  78.1323940   3.6328970  69.4279720  79.0808860
   2.9376360  69.7744910  77.7814950  11.4367250  82.6062860  83.6071170
  12.0789480  81.9056020  83.7203340  11.9616600  83.3861300  83.4268060
  15.2822970  82.8911480  73.3310310  15.0560550  82.1741920  73.9234950
  14.8919170  82.6423920  72.4932060  14.8639220  80.8083420  74.9924470
  14.5760920  81.2696110  75.7802350  15.6591390  80.3481190  75.2608690
   7.0807620  84.3009540  74.9228440   7.0717720  85.0339230  74.3072950
   6.1605980  84.0541120  75.0155400   2.6814260  79.5224430  75.6675200
   2.0742210  80.2623330  75.6770500   3.1563610  79.6123790  74.8413400
  12.2547050  73.6875250  85.3432090  12.6227870  72.8670460  85.6711660
  11.3945250  73.7477140  85.7587740  15.6209080  72.6432190  76.1519650
  14.9922240  72.7477860  75.4377880  15.1261000  72.8628970  76.9413530
  10.0667220  84.3637780  73.5853630  10.1679200  84.1601770  72.6555610
   9.1668960  84.1096060  73.7901410   7.5893110  74.9218140  77.5677530
   6.8809260  75.3904480  78.0091140   7.8737590  74.2640150  78.2022720
   9.2149040  76.3414840  85.5670060   9.7134290  76.8160660  86.2321910
   9.3571990  75.4178360  85.7740090  11.6208540  71.6468800  79.0073320
  11.4976320  71.6654930  78.0582830  12.5693100  71.6947740  79.1271720
   8.7085330  86.8824100  78.2801300   8.9626830  86.8445490  77.3580670
   7.7597810  86.7557430  78.2729550   5.7928130  73.2303220  74.9428240
   6.6418660  73.6673370  74.8768430   5.4259400  73.5423480  75.7700300
  16.4215900  72.5582800  86.4098450  15.9189500  73.2988200  86.7492260
  17.2372560  72.9466800  86.0935240  14.7137910  77.8015980  79.8559810
  13.7728050  77.8166210  80.0307500  15.0281980  77.0151940  80.3020110
   4.6919550  79.4835580  73.4163770   5.4582820  79.3716940  73.9789200
   4.7694240  78.7873550  72.7640540   3.3866310  76.9160650  74.0996660
   3.4669900  75.9688160  74.2114060   4.2786060  77.2467530  74.2057320
  16.7163490  84.9724830  81.5314070  16.8410910  85.7956000  82.0037880
  17.5829050  84.7615560  81.1838220   4.1881020  87.0656040  81.2031200
   4.9243500  86.5171500  81.4739770   4.5721940  87.9312050  81.0637190
   7.2983330  86.2386350  73.0256770   8.0911940  86.5275180  72.5738560
   6.7787680  85.8078520  72.3469250  16.3513500  85.4656480  74.4493510
  16.0655010  85.0521620  73.6347690  16.1533050  86.3944190  74.3294030
   7.8160730  81.4589760  72.8899120   7.7111370  80.8442110  73.6160500
   7.6484950  80.9355650  72.1062130  11.0563460  80.5209790  73.4941110
  10.5073560  80.9679090  74.1383850  11.6782720  80.0159040  74.0178780
   6.7238580  79.4800710  75.3906410   7.1455000  79.3140580  76.2337800
   6.8489420  78.6700940  74.8961550   9.2366220  78.5038320  72.6383510
   9.7571880  77.7887340  72.2724660   9.8834620  79.1424190  72.9384020
   8.1399740  70.9832870  85.3102070   7.6917040  71.0057130  84.4647620
   7.5064940  70.5851890  85.9072370   8.5459290  79.8787200  85.9314510
   8.9647400  80.7219930  85.7590750   7.6267920  80.0159240  85.7021290
  13.2211090  78.1640570  85.8914860  12.6946310  78.6883190  85.2880000
  13.5642430  78.7967960  86.5224590   5.6197480  75.5533940  72.3364570
   5.4186540  74.6901300  72.6977910   5.4489530  75.4667300  71.3986170
  13.0985790  70.3642170  74.8651450  13.3788080  69.5210070  75.2210870
  12.3251520  70.5965280  75.3790200   4.4180280  72.6534560  72.3242450
   4.7206180  72.6601990  71.4161600   5.1574870  72.3032420  72.8210110
   7.6365210  71.5969180  73.3098650   7.2887210  70.9193170  72.7301100
   7.8377980  71.1358690  74.1242040   9.8014250  86.5849930  74.9285250
  10.6965040  86.9234900  74.9504010   9.8331880  85.8629340  74.3009530
   3.4410410  81.9576980  73.1572250   3.8785280  82.5006650  73.8129830
   3.9258140  81.1323930  73.1668590   5.2518130  83.0775020  78.2694480
   4.9513670  82.9539990  79.1698390   5.1455620  82.2183610  77.8610210
  18.0210050  82.8571420  72.9721160  17.1903010  82.9248070  73.4428390
  18.1981880  83.7475540  72.6688020  17.4766510  79.6018900  75.4755360
  18.2385420  80.1715550  75.5815050  17.4920880  79.0346100  76.2463670
  18.4826480  80.4569000  80.3197290  18.8535310  79.6736320  79.9133260
  19.1228410  81.1458100  80.1414590  15.4660240  81.8405580  85.7327610
  14.6520080  82.2702740  85.9953400  15.8734440  82.4523990  85.1196660
  17.5285680  79.8953270  72.6327880  17.8034520  80.8032150  72.5047100
  17.3396420  79.8315800  73.5689870  13.9261290  72.9198120  73.9281510
  14.3446170  72.7329100  73.0878170  13.6197350  72.0677170  74.2384440
  17.4251020  77.8322260  77.6257310  17.0494620  77.0650190  77.1938600
  16.6954140  78.2144960  78.1132240   2.0146780  78.5109400  84.2466360
   2.3819820  78.4236800  85.1262380   1.4457600  77.7475950  84.1473220
  16.7001980  76.0579750  80.9264550  17.2239460  75.5642400  80.2954720
  17.2861400  76.1930110  81.6712120  16.8791700  76.1419620  84.4484100
  15.9294410  76.1083160  84.5629090  17.0604710  77.0519730  84.2133870
   2.7336140  74.3921300  73.5582730   3.4427840  73.9704520  73.0730010
   2.0176080  74.4596530  72.9266080   2.3810300  70.4460630  72.5985380
   3.1038430  70.9869570  72.9166600   2.6534820  70.1724050  71.7226920
  16.1901950  75.3153100  76.8656960  16.6861070  75.0823970  77.6505840
  15.9918020  74.4764940  76.4494600   2.0702490  69.6966820  82.5008000
   2.7178680  69.1464200  82.0603160   2.4904330  69.9509970  83.3223810
  17.6189110  73.9514050  79.3994640  17.5088390  73.7970090  80.3376910
  18.3796700  73.4234990  79.1570050  15.9654830  69.8908180  85.8577640
  16.6027050  70.5042320  86.2236830  16.1129720  69.9268840  84.9126870
  18.5079380  71.7821970  72.6400780  19.4328690  71.6503150  72.4319070
  18.4855170  71.8614790  73.5937230  18.5817870  72.5532630  75.2657490
  17.7869370  72.4877750  75.7950400  18.7861150  73.4883270  75.2542840
  15.5236290  86.5924180  79.2595880  16.1195360  86.2708750  78.5830300
  15.7814440  86.1196000  80.0509150   1.8234490  69.8522490  85.2433320
   1.4749310  70.3086310  86.0091500   1.4922190  68.9579620  85.3255750
   7.1304890  84.5801680  85.0096230   6.8896250  84.8476240  84.1226750
   8.0707530  84.7507410  85.0647090  18.3909050  86.5996060  85.8106870
  17.8967330  86.9964930  85.0934000  17.7822340  85.9745270  86.2044150
  12.7141910  69.2636570  84.7314320  11.8401750  69.5971680  84.5287250
  12.6052660  68.7909750  85.5566190  13.6213890  71.4707440  86.1156040
  13.2927250  70.6559200  85.7357770  14.5696190  71.4277250  85.9921730
  16.0748500  87.2419480  83.0893610  15.6151470  87.9935290  82.7151630
  15.4460960  86.5225950  83.0308410   2.8999120  83.3362720  85.4792330
   2.1733180  82.7168010  85.4118280   2.9608270  83.7303330  84.6090410
   6.5044220  85.5507720  82.2641740   7.0209240  84.9395080  81.7390000
   7.1541600  86.0536500  82.7552750   9.2439720  86.4416210  83.0910720
   9.5317530  86.1870510  82.2143730   9.7562940  85.8893570  83.6816290
  10.4616730  70.1806410  83.6707230   9.6788520  70.6551910  83.9503990
  10.1679660  69.2761240  83.5620410  15.0137800  70.8829510  81.7156320
  15.4545890  70.8274610  80.8677920  14.7445390  71.7987520  81.7866500
  16.8776370  70.5144750  79.7265140  16.8164770  69.5705970  79.5796160
  17.6568400  70.6224840  80.2718600   1.8057140  70.4853890  76.1920950
   2.5636500  70.5982770  75.6184980   1.3434310  71.3223090  76.1464380
   8.3470950  72.5993160  79.1823260   7.5345460  72.2250050  78.8419140
   8.8512590  71.8438240  79.4844450  12.8495930  69.2635610  80.4206330
  13.4525300  69.8355820  80.8954850  12.1088920  69.8275050  80.1980230
  15.9930530  69.6657170  75.6946610  16.1881160  70.5640620  75.9614040
  15.2060400  69.4344250  76.1879560   2.7891820  85.3470340  76.1339230
   2.2639440  85.7278370  75.4301190   2.7136400  85.9721110  76.8548940
   4.1782290  71.0117940  74.7322920   4.7075050  70.2247740  74.6030870
   4.8110610  71.6909130  74.9658450   6.3720130  70.7493080  77.7868310
   5.7422870  70.0480390  77.9538440   5.8325270  71.5097210  77.5701470
  17.5457140  86.9057880  77.4553170  17.7209330  86.2195620  76.8114090
  16.8478710  87.4304930  77.0629840   5.3884790  87.2952720  75.0088480
   6.1203610  87.0112000  74.4612370   5.6478460  87.0566000  75.8987860
   4.5499580  83.4117450  75.0134810   3.9208460  83.8802550  75.5620640
   4.6647410  82.5666670  75.4481000  12.0049300  77.4623110  61.1636010
  11.9243350  76.5477720  60.8927720  11.5913720  77.9590180  60.4575720
  10.1367340  79.2402130  63.0445280   9.3609440  78.7602570  63.3343850
  10.7880270  78.5607780  62.8701440   4.1533170  79.5521940  63.9221040
   3.3218050  79.2970650  64.3217550   4.7614150  79.6232710  64.6578960
  14.1574770  83.6462320  61.8244410  13.6956300  82.8749560  62.1531580
  14.9700320  83.6728390  62.3296860   4.1334430  83.5862030  64.1179060
   4.4362470  82.6959770  63.9389280   4.8778020  84.1432250  63.8901310
   2.5625120  74.5123830  57.7063430   1.6741820  74.8539800  57.6043310
   2.8466310  74.3124150  56.8144260  10.3838080  85.9320330  61.4448400
   9.7649520  86.3877830  60.8742840  11.2389860  86.0871790  61.0438100
   9.5776330  81.9159320  63.0515440   9.5084610  80.9749260  62.8904570
  10.3396190  82.0060730  63.6238010   1.7683000  72.5213840  65.3772060
   1.5885840  71.6239590  65.6574820   1.3663080  73.0685710  66.0519010
  10.6081500  74.7229700  63.2784370  10.9846320  73.8501580  63.1658040
  10.5101010  75.0588400  62.3874810   4.7386510  73.0955330  58.7401810
   4.8453260  73.9959060  59.0470570   3.8278870  73.0473300  58.4496460
  14.3905620  72.2180140  60.2112710  15.2115240  71.7276710  60.2538190
  14.4239700  72.8077800  60.9644550   2.3869670  75.0174340  63.9854400
   3.0679780  75.2812710  64.6041800   2.0717720  74.1775210  64.3192410
   6.5794240  76.0641700  63.0726990   7.0872460  76.5622670  63.7132010
   7.1107480  75.2876900  62.8966350  18.6805170  74.2346890  66.7756340
  17.9757340  74.6228600  66.2571450  18.9463090  74.9297180  67.3777270
   4.8630340  70.7040260  67.3390410   4.8648780  71.2212650  66.5336310
   4.0334650  70.2270440  67.3160340  11.2501430  80.8159570  58.8380310
  10.6318700  81.2809020  58.2743030  11.7624680  81.5087050  59.2549820
   6.1133190  80.3435440  65.5163910   5.7802570  80.9704360  66.1584980
   6.2899870  80.8697320  64.7365580  14.6267100  74.1580520  62.9840250
  13.9222670  74.4465410  63.5643360  14.9879260  74.9680630  62.6239810
   4.5445670  72.4150220  65.3460860   4.8862480  73.2592270  65.0514730
   3.6061480  72.5633960  65.4626200   5.3252290  82.3116240  67.3313090
   5.9426290  82.9867320  67.0497540   4.4645410  82.7204220  67.2400590
  16.2429880  83.7755650  65.2467730  15.5593400  84.4454760  65.2384400
  16.7824170  83.9736300  64.4812590  17.6954020  73.6035310  63.3749460
  16.7478930  73.6374290  63.5064890  18.0204010  74.4174260  63.7598820
   8.2273560  69.9032490  61.6705450   8.5348540  69.3479380  60.9540950
   7.2974260  70.0376950  61.4878440  13.7788620  85.6199780  63.9612910
  13.7915780  85.2162070  63.0935170  13.2263840  86.3947070  63.8574340
  15.0734040  82.3416000  59.0503080  14.9630370  81.3990330  59.1752500
  15.0702290  82.7031640  59.9365840  13.1774060  80.5229620  65.2895520
  13.5942850  80.3089730  64.4548980  13.9013880  80.7802410  65.8604140
  10.6154320  77.9681320  58.4065570   9.6883600  77.9018700  58.6354040
  10.7679140  78.9061450  58.2920810  10.6023400  74.2398320  55.4032730
   9.6627070  74.4012280  55.4885190  10.9206660  74.9584000  54.8568720
  17.1236160  78.9216840  65.3811760  16.2954790  78.9909930  64.9061890
  17.7186640  79.5071150  64.9127590  14.6451610  79.5301620  58.9100820
  14.0264030  79.1921170  58.2627120  14.6276060  78.8861380  59.6180010
  14.0878170  75.7086160  66.3266630  13.6749350  76.5339870  66.5806620
  13.3554120  75.1231200  66.1342990   6.2210960  78.4946060  61.1885300
   5.8167960  77.7823310  60.6931200   6.3074080  78.1499300  62.0773340
   6.6892660  82.1813620  63.3524510   6.3920950  81.5759090  62.6732290
   7.6392480  82.2190930  63.2413870   4.9339580  75.2689270  64.9684340
   5.4854170  75.3784610  64.1937590   5.4483090  75.6426870  65.6839570
  14.7778270  85.7545490  67.0147610  14.3008830  86.5617680  66.8220220
  14.0940060  85.1023820  67.1673820   5.7811090  81.9195310  70.0032310
   4.8839620  82.1435280  70.2505710   5.8063960  82.0430250  69.0543710
  12.8216310  78.7688430  55.9173570  13.2609590  77.9310860  55.7711390
  13.5344730  79.4017830  56.0037710   4.6082310  78.7908630  68.5789680
   4.4690080  79.6631430  68.9477080   3.7263670  78.4481440  68.4337620
  10.9311690  83.7084500  59.8854810  11.3707600  84.4508830  59.4710200
  10.8698580  83.9511070  60.8093770   6.4062660  84.7330330  70.7874830
   6.3778090  85.1373280  69.9203260   6.2427630  83.8040690  70.6246430
  16.4033450  70.0231240  54.2314610  16.0906110  70.1158070  55.1313680
  17.1645920  70.6012270  54.1812040   2.9215590  77.3891040  58.6891950
   2.8013190  78.1153130  58.0773220   2.6116480  76.6193950  58.2119860
  18.3577480  85.5157430  72.0839000  18.8337200  85.9940320  72.7628080
  18.9784640  85.4474920  71.3584500   1.8048590  82.2606370  60.9066770
   1.3976670  82.4020960  60.0520370   2.6961600  81.9766530  60.7037980
  17.7610730  82.7070280  69.2439010  17.8873790  82.4682160  68.3256190
  17.8032110  81.8754820  69.7161090  11.6227470  86.4098280  67.8133820
  12.1372140  86.3206290  68.6156250  10.7796550  86.7557980  68.1061730
  13.5981870  86.6953620  57.2417820  13.4383010  86.4056560  58.1399650
  13.4328580  85.9193750  56.7063050   6.0770250  86.4752150  59.0189440
   5.9012730  85.5587690  58.8057240   5.2225990  86.8339440  59.2587240
  13.3008000  84.2041180  55.8015820  12.6073160  84.2018470  55.1418100
  14.0430860  83.7800500  55.3709990  12.8657930  85.8303890  59.8764310
  13.3214880  85.0493270  60.1902930  13.2050450  86.5410710  60.4205490
  17.6134740  74.7602740  70.2088750  16.9979010  75.2682410  69.6804210
  17.2931160  73.8601070  70.1514690   5.3879250  70.7326110  62.0715620
   4.9447400  71.5135650  61.7400140   5.9464240  71.0556000  62.7786560
   9.6749060  73.5994630  67.6750940   9.2128430  73.8077650  68.4870880
   9.2727170  72.7853980  67.3721610  14.6753570  74.8203580  68.8047600
  13.8247160  74.5209330  69.1256670  14.5155360  75.0645590  67.8931420
  11.7703280  76.3205330  70.9046390  12.0956690  75.4869080  70.5648620
  12.5583610  76.8433850  71.0524720   8.5038070  70.3536810  56.9521450
   7.8792250  70.3496680  57.6774760   8.4168190  69.4867770  56.5557420
   7.4255150  71.2773440  63.9305220   7.7227480  72.1836270  63.8497240
   7.9740710  70.7892220  63.3164790   5.1793470  75.8559680  59.7996870
   4.9534390  75.6396850  60.7043490   4.3986000  76.2888140  59.4542840
  12.4091230  75.8623050  58.3987520  11.8100120  76.5858850  58.2151140
  12.9570840  75.7999830  57.6163970   7.6192680  76.7545260  70.4657140
   7.5236280  75.8139990  70.3157540   8.4624660  76.9760330  70.0705210
  11.0156100  74.4986590  60.4290800  11.4085670  74.8158790  59.6159490
  11.3772950  73.6198470  60.5435320   2.7503220  73.1658930  68.6190920
   2.3566610  74.0134140  68.8263700   2.0621620  72.5285300  68.8099560
   9.3248270  73.2493900  71.6887660   8.6346590  73.0566100  72.3233750
  10.0680570  73.5328540  72.2211960  11.6011240  77.0892340  64.5241580
  10.8692360  77.5979150  64.8731680  11.2035580  76.2722320  64.2230360
   8.0388630  73.7646540  62.9294070   8.0424690  73.3236490  62.0798610
   8.9339750  74.0863870  63.0365890   3.8891010  73.6473030  61.8888280
   3.5491060  74.1248260  62.6455330   3.1268330  73.1938150  61.5289380
   8.1008780  74.7658620  55.9200830   8.2221600  74.7245100  56.8686650
   7.7157290  75.6282770  55.7647560  12.0637150  72.5426020  63.9364520
  12.0809890  72.9934670  64.7806370  11.8152730  71.6431660  64.1497960
   7.1130280  77.0759760  55.3184130   6.5447180  76.6278010  54.6920040
   7.8219280  77.4352540  54.7849280  15.4907900  69.9558200  69.7750900
  15.8153670  69.2247860  70.3008880  15.5264410  69.6371840  68.8731890
   2.1899460  80.9771780  69.1950860   1.8054250  80.3365450  69.7933820
   2.5011650  81.6807900  69.7645590   8.3396600  77.8248320  64.6759480
   8.7066730  77.3506890  65.4220820   8.1501660  78.6989890  65.0167820
   6.1295970  76.8656960  66.9943690   5.8253040  77.7448940  67.2194050
   7.0842430  76.9256750  67.0301130   4.6577760  81.0717950  57.5910540
   3.8840020  80.5315570  57.4309260   5.3872390  80.5524560  57.2528300
  15.4165740  80.0683310  63.3836930  16.1364860  80.5638600  62.9933040
  15.2147560  79.3901200  62.7390800  10.8775680  71.4621270  57.5266320
  10.0640290  70.9634440  57.4511630  10.6837630  72.3019520  57.1102670
  10.7984540  80.1392370  69.2705930  10.7321850  79.2188040  69.0163520
  10.1689680  80.2367810  69.9850570  13.5924070  75.8340920  55.8228480
  14.4803690  76.1458150  55.6479820  13.5629160  74.9613170  55.4309060
   4.7015160  80.7398330  61.2289350   5.2193830  79.9366590  61.1746240
   4.2499180  80.6777470  62.0706180   9.5884660  82.0064610  56.5016650
   9.9300360  82.7506840  56.0059970   8.7597370  82.3195730  56.8641480
   2.1859700  77.7059700  68.1415050   1.8274640  78.3713550  68.7288390
   1.8914260  76.8743250  68.5127670   5.3872820  78.1643940  71.0254600
   5.0872960  78.3101120  70.1282420   6.1584060  77.6049230  70.9327990
  10.7301270  82.9612940  69.0209730  10.7445810  82.0293900  68.8028640
  10.0226370  83.0472700  69.6599500  15.8638340  77.1452760  55.2908340
  15.7802060  77.5766980  54.4404780  16.5832530  77.6051110  55.7235160
  16.9412480  79.6020280  68.3678310  16.2160670  80.1949060  68.1707700
  17.4687940  79.5943820  67.5691680  16.8925590  83.9995020  58.0190470
  16.2501750  83.3450640  58.2934190  16.5056250  84.4050110  57.2431140
  12.4712070  81.3280450  61.8662160  12.8235890  80.7308580  61.2063530
  11.5874400  81.0024680  62.0370410   8.5575350  82.0878140  59.2732570
   9.2446480  82.6347350  59.6540160   7.7707770  82.6318870  59.3082180
   7.8602560  79.0924170  58.8857930   8.3165340  79.9029420  59.1118120
   7.5090770  78.7747310  59.7176420  10.1635170  84.6030510  66.1150230
  10.8077390  84.8089890  66.7923650  10.5264610  83.8418910  65.6621080
   3.7614340  69.4361820  59.3580450   3.6328970  69.4279720  60.3065370
   2.9376360  69.7744910  59.0071460  11.4367250  82.6062860  64.8327680
  12.0789480  81.9056020  64.9459850  11.9616600  83.3861300  64.6524570
  15.2822970  82.8911480  54.5566820  15.0560550  82.1741920  55.1491460
  14.8919170  82.6423920  53.7188570  13.2104870  83.4057760  68.0363740
  13.5461110  83.9924450  68.7141660  12.2905210  83.2750470  68.2661530
  14.8639220  80.8083420  56.2180980  14.5760920  81.2696110  57.0058860
  15.6591390  80.3481190  56.4865200   9.0393450  83.4549090  71.2051800
   8.7190320  82.7358330  71.7497490   8.3651810  84.1304160  71.2787860
   7.0807620  84.3009540  56.1484950   7.0717720  85.0339230  55.5329460
   6.1605980  84.0541120  56.2411910   2.6814260  79.5224430  56.8931710
   2.0742210  80.2623330  56.9027010   3.1563610  79.6123790  56.0669910
  12.2547050  73.6875250  66.5688600  12.6227870  72.8670460  66.8968170
  11.3945250  73.7477140  66.9844250  15.6209080  72.6432190  57.3776160
  14.9922240  72.7477860  56.6634390  15.1261000  72.8628970  58.1670040
  10.0667220  84.3637780  54.8110140  10.1679200  84.1601770  53.8812120
   9.1668960  84.1096060  55.0157920   7.5893110  74.9218140  58.7934040
   6.8809260  75.3904480  59.2347650   7.8737590  74.2640150  59.4279230
   9.2149040  76.3414840  66.7926570   9.7134290  76.8160660  67.4578420
   9.3571990  75.4178360  66.9996600  11.6208540  71.6468800  60.2329830
  11.4976320  71.6654930  59.2839340  12.5693100  71.6947740  60.3528230
   8.7085330  86.8824100  59.5057810   8.9626830  86.8445490  58.5837180
   7.7597810  86.7557430  59.4986060   5.7928130  73.2303220  56.1684750
   6.6418660  73.6673370  56.1024940   5.4259400  73.5423480  56.9956810
  16.4215900  72.5582800  67.6354960  15.9189500  73.2988200  67.9748770
  17.2372560  72.9466800  67.3191750  14.7137910  77.8015980  61.0816320
  13.7728050  77.8166210  61.2564010  15.0281980  77.0151940  61.5276620
   4.6919550  79.4835580  54.6420280   5.4582820  79.3716940  55.2045710
   4.7694240  78.7873550  53.9897050   3.3866310  76.9160650  55.3253170
   3.4669900  75.9688160  55.4370570   4.2786060  77.2467530  55.4313830
  16.7163490  84.9724830  62.7570580  16.8410910  85.7956000  63.2294390
  17.5829050  84.7615560  62.4094730   4.1881020  87.0656040  62.4287710
   4.9243500  86.5171500  62.6996280   4.5721940  87.9312050  62.2893700
   3.1939300  86.2502110  71.6173290   3.9952030  86.5714160  72.0308690
   2.6791120  85.8897690  72.3393200   7.2983330  86.2386350  54.2513280
   8.0911940  86.5275180  53.7995070   6.7787680  85.8078520  53.5725760
  12.0303930  82.3581980  71.5648700  11.4242090  82.3813580  70.8244450
  11.7258040  81.6265020  72.1015950  13.4604300  86.0862270  70.1758110
  14.4126050  86.0020290  70.1258350  13.3132520  86.7503980  70.8491900
  16.3513500  85.4656480  55.6750020  16.0655010  85.0521620  54.8604200
  16.1533050  86.3944190  55.5550540   7.8160730  81.4589760  54.1155630
   7.7111370  80.8442110  54.8417010   7.6484950  80.9355650  53.3318640
   7.9675050  80.1446560  70.0944860   7.2020720  80.7131560  70.0099530
   8.1491010  79.8522770  69.2013090  11.0563460  80.5209790  54.7197620
  10.5073560  80.9679090  55.3640360  11.6782720  80.0159040  55.2435290
  15.1098400  81.8751890  70.6519880  15.8507870  82.2127650  70.1487340
  14.3471080  82.0443950  70.0989650   2.9460190  76.8805160  71.4559410
   2.9865530  76.5819030  72.3644640   3.8005690  77.2812770  71.2966930
   6.7238580  79.4800710  56.6162920   7.1455000  79.3140580  57.4594310
   6.8489420  78.6700940  56.1218060   4.8866000  75.4597260  69.4233900
   4.3562460  74.9688210  68.7957240   5.5554070  75.8881460  68.8891830
   9.2366220  78.5038320  53.8640020   9.7571880  77.7887340  53.4981170
   9.8834620  79.1424190  54.1640530  13.7844060  79.9266720  69.1875090
  14.1985080  80.0811800  70.0365510  12.8495060  80.0521940  69.3500870
  14.2566230  77.2662880  71.1914240  14.8387000  76.5115200  71.1034720
  14.4328000  77.7970320  70.4145720   5.3738300  72.4259630  69.5031190
   5.2795170  71.8080380  68.7782060   4.7935690  73.1525920  69.2761100
   8.1399740  70.9832870  66.5358580   7.6917040  71.0057130  65.6904130
   7.5064940  70.5851890  67.1328880   8.5459290  79.8787200  67.1571020
   8.9647400  80.7219930  66.9847260   7.6267920  80.0159240  66.9277800
  10.8823190  77.6103380  68.5408860  11.0019400  77.0144520  69.2803700
  11.7417190  77.6473070  68.1210160  13.2211090  78.1640570  67.1171370
  12.6946310  78.6883190  66.5136510  13.5642430  78.7967960  67.7481100
   5.6197480  75.5533940  53.5621080   5.4186540  74.6901300  53.9234420
   5.4489530  75.4667300  52.6242680   6.3966710  86.1840210  68.2728750
   5.8587800  86.9086270  67.9537450   6.6500670  85.7070550  67.4826090
   7.6491960  74.1524730  69.7984680   8.2391650  73.8440580  70.4862500
   6.8312200  73.6804480  69.9544580  12.4685390  73.7690540  70.0317700
  11.7800910  73.1072080  69.9667690  13.1891410  73.3228810  70.4766160
  13.0985790  70.3642170  56.0907960  13.3788080  69.5210070  56.4467380
  12.3251520  70.5965280  56.6046710   4.4180280  72.6534560  53.5498960
   4.7206180  72.6601990  52.6418110   5.1574870  72.3032420  54.0466620
   9.2528920  87.4191420  68.5315400   9.1787620  88.3226560  68.8387770
   8.3507760  87.1003320  68.5037470   7.6365210  71.5969180  54.5355160
   7.2887210  70.9193170  53.9557610   7.8377980  71.1358690  55.3498550
   9.8014250  86.5849930  56.1541760  10.6965040  86.9234900  56.1760520
   9.8331880  85.8629340  55.5266040   3.4410410  81.9576980  54.3828760
   3.8785280  82.5006650  55.0386340   3.9258140  81.1323930  54.3925100
   5.2518130  83.0775020  59.4950990   4.9513670  82.9539990  60.3954900
   5.1455620  82.2183610  59.0866720  16.7808600  85.1153600  68.8607960
  16.1810590  85.1746160  68.1171880  16.9102500  84.1758580  68.9904810
  18.0210050  82.8571420  54.1977670  17.1903010  82.9248070  54.6684900
  18.1981880  83.7475540  53.8944530  17.4766510  79.6018900  56.7011870
  18.2385420  80.1715550  56.8071560  17.4920880  79.0346100  57.4720180
  18.4826480  80.4569000  61.5453800  18.8535310  79.6736320  61.1389770
  19.1228410  81.1458100  61.3671100  15.4660240  81.8405580  66.9584120
  14.6520080  82.2702740  67.2209910  15.8734440  82.4523990  66.3453170
  17.5285680  79.8953270  53.8584390  17.8034520  80.8032150  53.7303610
  17.3396420  79.8315800  54.7946380  13.9261290  72.9198120  55.1538020
  14.3446170  72.7329100  54.3134680  13.6197350  72.0677170  55.4640950
  17.4251020  77.8322260  58.8513820  17.0494620  77.0650190  58.4195110
  16.6954140  78.2144960  59.3388750   2.0146780  78.5109400  65.4722870
   2.3819820  78.4236800  66.3518890   1.4457600  77.7475950  65.3729730
  16.8150640  76.9793780  68.4853340  16.5836730  76.7506530  67.5851290
  17.0755190  77.8993330  68.4398230  15.2538710  72.2050210  71.2633040
  16.1308890  72.2133610  71.6467040  15.2659550  71.4681050  70.6525390
  16.7001980  76.0579750  62.1521060  17.2239460  75.5642400  61.5211230
  17.2861400  76.1930110  62.8968630  16.8791700  76.1419620  65.6740610
  15.9294410  76.1083160  65.7885600  17.0604710  77.0519730  65.4390380
   2.7336140  74.3921300  54.7839240   3.4427840  73.9704520  54.2986520
   2.0176080  74.4596530  54.1522590   2.3810300  70.4460630  53.8241890
   3.1038430  70.9869570  54.1423110   2.6534820  70.1724050  52.9483430
  16.1901950  75.3153100  58.0913470  16.6861070  75.0823970  58.8762350
  15.9918020  74.4764940  57.6751110   2.0702490  69.6966820  63.7264510
   2.7178680  69.1464200  63.2859670   2.4904330  69.9509970  64.5480320
  17.6189110  73.9514050  60.6251150  17.5088390  73.7970090  61.5633420
  18.3796700  73.4234990  60.3826560  15.9654830  69.8908180  67.0834150
  16.6027050  70.5042320  67.4493340  16.1129720  69.9268840  66.1383380
  18.5079380  71.7821970  53.8657290  19.4328690  71.6503150  53.6575580
  18.4855170  71.8614790  54.8193740  18.5817870  72.5532630  56.4914000
  17.7869370  72.4877750  57.0206910  18.7861150  73.4883270  56.4799350
  15.5236290  86.5924180  60.4852390  16.1195360  86.2708750  59.8086810
  15.7814440  86.1196000  61.2765660   1.8234490  69.8522490  66.4689830
   1.4749310  70.3086310  67.2348010   1.4922190  68.9579620  66.5512260
   3.4298860  83.0242090  70.6343020   3.3868490  82.6535000  71.5157480
   3.5609870  83.9619660  70.7744840   7.1304890  84.5801680  66.2352740
   6.8896250  84.8476240  65.3483260   8.0707530  84.7507410  66.2903600
   9.3359310  71.0434370  69.9909250   9.2748200  71.6356200  70.7404660
  10.2759690  70.9360330  69.8459510  11.9733870  70.7004430  69.6301540
  12.5874280  71.0183720  68.9682620  12.5183430  70.2153020  70.2497400
  18.3909050  86.5996060  67.0363380  17.8967330  86.9964930  66.3190510
  17.7822340  85.9745270  67.4300660   2.4955130  69.3798690  69.7440600
   3.0438120  69.1986740  68.9806710   2.5610440  68.5892800  70.2796910
   3.2686890  85.9704340  67.7540800   2.6747210  85.8389040  68.4930840
   3.2610730  85.1342480  67.2882900  12.7141910  69.2636570  65.9570830
  11.8401750  69.5971680  65.7543760  12.6052660  68.7909750  66.7822700
  13.6213890  71.4707440  67.3412550  13.2927250  70.6559200  66.9614280
  14.5696190  71.4277250  67.2178240  16.0748500  87.2419480  64.3150120
  15.6151470  87.9935290  63.9408140  15.4460960  86.5225950  64.2564920
   2.8999120  83.3362720  66.7048840   2.1733180  82.7168010  66.6374790
   2.9608270  83.7303330  65.8346920   6.5044220  85.5507720  63.4898250
   7.0209240  84.9395080  62.9646510   7.1541600  86.0536500  63.9809260
   9.2439720  86.4416210  64.3167230   9.5317530  86.1870510  63.4400240
   9.7562940  85.8893570  64.9072800  10.4616730  70.1806410  64.8963740
   9.6788520  70.6551910  65.1760500  10.1679660  69.2761240  64.7876920
  15.0137800  70.8829510  62.9412830  15.4545890  70.8274610  62.0934430
  14.7445390  71.7987520  63.0123010  16.8776370  70.5144750  60.9521650
  16.8164770  69.5705970  60.8052670  17.6568400  70.6224840  61.4975110
   1.8057140  70.4853890  57.4177460   2.5636500  70.5982770  56.8441490
   1.3434310  71.3223090  57.3720890   8.3470950  72.5993160  60.4079770
   7.5345460  72.2250050  60.0675650   8.8512590  71.8438240  60.7100960
  12.8495930  69.2635610  61.6462840  13.4525300  69.8355820  62.1211360
  12.1088920  69.8275050  61.4236740  15.9930530  69.6657170  56.9203120
  16.1881160  70.5640620  57.1870550  15.2060400  69.4344250  57.4136070
   2.7891820  85.3470340  57.3595740   2.2639440  85.7278370  56.6557700
   2.7136400  85.9721110  58.0805450   4.1782290  71.0117940  55.9579430
   4.7075050  70.2247740  55.8287380   4.8110610  71.6909130  56.1914960
   6.3720130  70.7493080  59.0124820   5.7422870  70.0480390  59.1794950
   5.8325270  71.5097210  58.7957980   9.3112080  87.3632310  71.6835430
  10.2379390  87.1276580  71.7271390   9.2962510  88.1904310  71.2021460
  17.5457140  86.9057880  58.6809680  17.7209330  86.2195620  58.0370600
  16.8478710  87.4304930  58.2886350   6.4975690  70.0277060  71.4477310
   6.2159960  70.5310660  70.6838130   6.8795390  69.2298810  71.0819440
   5.3884790  87.2952720  56.2344990   6.1203610  87.0112000  55.6868880
   5.6478460  87.0566000  57.1244370   4.5499580  83.4117450  56.2391320
   3.9208460  83.8802550  56.7877150   4.6647410  82.5666670  56.6737510
  13.0991150  69.4430640  72.0257780  12.9856600  69.7625250  72.9209300
  13.9160890  69.8443150  71.7295060  15.8789640  86.5902170  71.5076470
  16.6714960  86.0951400  71.3002430  16.1722790  87.2692310  72.1152080
  12.0049300  77.4623110  42.3892520  11.9243350  76.5477720  42.1184230
  11.5913720  77.9590180  41.6832230  10.1367340  79.2402130  44.2701790
   9.3609440  78.7602570  44.5600360  10.7880270  78.5607780  44.0957950
   4.1533170  79.5521940  45.1477550   3.3218050  79.2970650  45.5474060
   4.7614150  79.6232710  45.8835470  14.1574770  83.6462320  43.0500920
  13.6956300  82.8749560  43.3788090  14.9700320  83.6728390  43.5553370
   4.1334430  83.5862030  45.3435570   4.4362470  82.6959770  45.1645790
   4.8778020  84.1432250  45.1157820   2.5625120  74.5123830  38.9319940
   1.6741820  74.8539800  38.8299820   2.8466310  74.3124150  38.0400770
  10.3838080  85.9320330  42.6704910   9.7649520  86.3877830  42.0999350
  11.2389860  86.0871790  42.2694610   9.5776330  81.9159320  44.2771950
   9.5084610  80.9749260  44.1161080  10.3396190  82.0060730  44.8494520
   1.7683000  72.5213840  46.6028570   1.5885840  71.6239590  46.8831330
   1.3663080  73.0685710  47.2775520  10.6081500  74.7229700  44.5040880
  10.9846320  73.8501580  44.3914550  10.5101010  75.0588400  43.6131320
   4.7386510  73.0955330  39.9658320   4.8453260  73.9959060  40.2727080
   3.8278870  73.0473300  39.6752970  14.3905620  72.2180140  41.4369220
  15.2115240  71.7276710  41.4794700  14.4239700  72.8077800  42.1901060
   2.3869670  75.0174340  45.2110910   3.0679780  75.2812710  45.8298310
   2.0717720  74.1775210  45.5448920   6.5794240  76.0641700  44.2983500
   7.0872460  76.5622670  44.9388520   7.1107480  75.2876900  44.1222860
  18.6805170  74.2346890  48.0012850  17.9757340  74.6228600  47.4827960
  18.9463090  74.9297180  48.6033780   4.8630340  70.7040260  48.5646920
   4.8648780  71.2212650  47.7592820   4.0334650  70.2270440  48.5416850
  11.2501430  80.8159570  40.0636820  10.6318700  81.2809020  39.4999540
  11.7624680  81.5087050  40.4806330   6.1133190  80.3435440  46.7420420
   5.7802570  80.9704360  47.3841490   6.2899870  80.8697320  45.9622090
  14.6267100  74.1580520  44.2096760  13.9222670  74.4465410  44.7899870
  14.9879260  74.9680630  43.8496320   4.5445670  72.4150220  46.5717370
   4.8862480  73.2592270  46.2771240   3.6061480  72.5633960  46.6882710
   5.3252290  82.3116240  48.5569600   5.9426290  82.9867320  48.2754050
   4.4645410  82.7204220  48.4657100  16.2429880  83.7755650  46.4724240
  15.5593400  84.4454760  46.4640910  16.7824170  83.9736300  45.7069100
  17.6954020  73.6035310  44.6005970  16.7478930  73.6374290  44.7321400
  18.0204010  74.4174260  44.9855330   8.2273560  69.9032490  42.8961960
   8.5348540  69.3479380  42.1797460   7.2974260  70.0376950  42.7134950
  13.7788620  85.6199780  45.1869420  13.7915780  85.2162070  44.3191680
  13.2263840  86.3947070  45.0830850  15.0734040  82.3416000  40.2759590
  14.9630370  81.3990330  40.4009010  15.0702290  82.7031640  41.1622350
  13.1774060  80.5229620  46.5152030  13.5942850  80.3089730  45.6805490
  13.9013880  80.7802410  47.0860650  10.6154320  77.9681320  39.6322080
   9.6883600  77.9018700  39.8610550  10.7679140  78.9061450  39.5177320
  10.6023400  74.2398320  36.6289240   9.6627070  74.4012280  36.7141700
  10.9206660  74.9584000  36.0825230  17.1236160  78.9216840  46.6068270
  16.2954790  78.9909930  46.1318400  17.7186640  79.5071150  46.1384100
  14.6451610  79.5301620  40.1357330  14.0264030  79.1921170  39.4883630
  14.6276060  78.8861380  40.8436520  14.0878170  75.7086160  47.5523140
  13.6749350  76.5339870  47.8063130  13.3554120  75.1231200  47.3599500
   6.2210960  78.4946060  42.4141810   5.8167960  77.7823310  41.9187710
   6.3074080  78.1499300  43.3029850   6.6892660  82.1813620  44.5781020
   6.3920950  81.5759090  43.8988800   7.6392480  82.2190930  44.4670380
   4.9339580  75.2689270  46.1940850   5.4854170  75.3784610  45.4194100
   5.4483090  75.6426870  46.9096080  14.7778270  85.7545490  48.2404120
  14.3008830  86.5617680  48.0476730  14.0940060  85.1023820  48.3930330
   5.7811090  81.9195310  51.2288820   4.8839620  82.1435280  51.4762220
   5.8063960  82.0430250  50.2800220  12.8216310  78.7688430  37.1430080
  13.2609590  77.9310860  36.9967900  13.5344730  79.4017830  37.2294220
   4.6082310  78.7908630  49.8046190   4.4690080  79.6631430  50.1733590
   3.7263670  78.4481440  49.6594130  10.9311690  83.7084500  41.1111320
  11.3707600  84.4508830  40.6966710  10.8698580  83.9511070  42.0350280
   6.4062660  84.7330330  52.0131340   6.3778090  85.1373280  51.1459770
   6.2427630  83.8040690  51.8502940  16.4033450  70.0231240  35.4571120
  16.0906110  70.1158070  36.3570190  17.1645920  70.6012270  35.4068550
   2.9215590  77.3891040  39.9148460   2.8013190  78.1153130  39.3029730
   2.6116480  76.6193950  39.4376370  18.3577480  85.5157430  53.3095510
  18.8337200  85.9940320  53.9884590  18.9784640  85.4474920  52.5841010
   1.8048590  82.2606370  42.1323280   1.3976670  82.4020960  41.2776880
   2.6961600  81.9766530  41.9294490  17.7610730  82.7070280  50.4695520
  17.8873790  82.4682160  49.5512700  17.8032110  81.8754820  50.9417600
  11.6227470  86.4098280  49.0390330  12.1372140  86.3206290  49.8412760
  10.7796550  86.7557980  49.3318240  13.5981870  86.6953620  38.4674330
  13.4383010  86.4056560  39.3656160  13.4328580  85.9193750  37.9319560
   6.0770250  86.4752150  40.2445950   5.9012730  85.5587690  40.0313750
   5.2225990  86.8339440  40.4843750  13.3008000  84.2041180  37.0272330
  12.6073160  84.2018470  36.3674610  14.0430860  83.7800500  36.5966500
  12.8657930  85.8303890  41.1020820  13.3214880  85.0493270  41.4159440
  13.2050450  86.5410710  41.6462000  17.6134740  74.7602740  51.4345260
  16.9979010  75.2682410  50.9060720  17.2931160  73.8601070  51.3771200
   5.3879250  70.7326110  43.2972130   4.9447400  71.5135650  42.9656650
   5.9464240  71.0556000  44.0043070   9.6749060  73.5994630  48.9007450
   9.2128430  73.8077650  49.7127390   9.2727170  72.7853980  48.5978120
  14.6753570  74.8203580  50.0304110  13.8247160  74.5209330  50.3513180
  14.5155360  75.0645590  49.1187930  11.7703280  76.3205330  52.1302900
  12.0956690  75.4869080  51.7905130  12.5583610  76.8433850  52.2781230
   8.5038070  70.3536810  38.1777960   7.8792250  70.3496680  38.9031270
   8.4168190  69.4867770  37.7813930   7.4255150  71.2773440  45.1561730
   7.7227480  72.1836270  45.0753750   7.9740710  70.7892220  44.5421300
   5.1793470  75.8559680  41.0253380   4.9534390  75.6396850  41.9300000
   4.3986000  76.2888140  40.6799350  12.4091230  75.8623050  39.6244030
  11.8100120  76.5858850  39.4407650  12.9570840  75.7999830  38.8420480
   7.6192680  76.7545260  51.6913650   7.5236280  75.8139990  51.5414050
   8.4624660  76.9760330  51.2961720  11.0156100  74.4986590  41.6547310
  11.4085670  74.8158790  40.8416000  11.3772950  73.6198470  41.7691830
   2.7503220  73.1658930  49.8447430   2.3566610  74.0134140  50.0520210
   2.0621620  72.5285300  50.0356070   9.3248270  73.2493900  52.9144170
   8.6346590  73.0566100  53.5490260  10.0680570  73.5328540  53.4468470
  11.6011240  77.0892340  45.7498090  10.8692360  77.5979150  46.0988190
  11.2035580  76.2722320  45.4486870   8.0388630  73.7646540  44.1550580
   8.0424690  73.3236490  43.3055120   8.9339750  74.0863870  44.2622400
   3.8891010  73.6473030  43.1144790   3.5491060  74.1248260  43.8711840
   3.1268330  73.1938150  42.7545890   8.1008780  74.7658620  37.1457340
   8.2221600  74.7245100  38.0943160   7.7157290  75.6282770  36.9904070
  12.0637150  72.5426020  45.1621030  12.0809890  72.9934670  46.0062880
  11.8152730  71.6431660  45.3754470   7.1130280  77.0759760  36.5440640
   6.5447180  76.6278010  35.9176550   7.8219280  77.4352540  36.0105790
  15.4907900  69.9558200  51.0007410  15.8153670  69.2247860  51.5265390
  15.5264410  69.6371840  50.0988400   2.1899460  80.9771780  50.4207370
   1.8054250  80.3365450  51.0190330   2.5011650  81.6807900  50.9902100
   8.3396600  77.8248320  45.9015990   8.7066730  77.3506890  46.6477330
   8.1501660  78.6989890  46.2424330   6.1295970  76.8656960  48.2200200
   5.8253040  77.7448940  48.4450560   7.0842430  76.9256750  48.2557640
   4.6577760  81.0717950  38.8167050   3.8840020  80.5315570  38.6565770
   5.3872390  80.5524560  38.4784810  15.4165740  80.0683310  44.6093440
  16.1364860  80.5638600  44.2189550  15.2147560  79.3901200  43.9647310
  10.8775680  71.4621270  38.7522830  10.0640290  70.9634440  38.6768140
  10.6837630  72.3019520  38.3359180  10.7984540  80.1392370  50.4962440
  10.7321850  79.2188040  50.2420030  10.1689680  80.2367810  51.2107080
  13.5924070  75.8340920  37.0484990  14.4803690  76.1458150  36.8736330
  13.5629160  74.9613170  36.6565570   4.7015160  80.7398330  42.4545860
   5.2193830  79.9366590  42.4002750   4.2499180  80.6777470  43.2962690
   9.5884660  82.0064610  37.7273160   9.9300360  82.7506840  37.2316480
   8.7597370  82.3195730  38.0897990   2.1859700  77.7059700  49.3671560
   1.8274640  78.3713550  49.9544900   1.8914260  76.8743250  49.7384180
   5.3872820  78.1643940  52.2511110   5.0872960  78.3101120  51.3538930
   6.1584060  77.6049230  52.1584500  10.7301270  82.9612940  50.2466240
  10.7445810  82.0293900  50.0285150  10.0226370  83.0472700  50.8856010
  15.8638340  77.1452760  36.5164850  15.7802060  77.5766980  35.6661290
  16.5832530  77.6051110  36.9491670  16.9412480  79.6020280  49.5934820
  16.2160670  80.1949060  49.3964210  17.4687940  79.5943820  48.7948190
  16.8925590  83.9995020  39.2446980  16.2501750  83.3450640  39.5190700
  16.5056250  84.4050110  38.4687650  12.4712070  81.3280450  43.0918670
  12.8235890  80.7308580  42.4320040  11.5874400  81.0024680  43.2626920
   8.5575350  82.0878140  40.4989080   9.2446480  82.6347350  40.8796670
   7.7707770  82.6318870  40.5338690   7.8602560  79.0924170  40.1114440
   8.3165340  79.9029420  40.3374630   7.5090770  78.7747310  40.9432930
  10.1635170  84.6030510  47.3406740  10.8077390  84.8089890  48.0180160
  10.5264610  83.8418910  46.8877590   3.7614340  69.4361820  40.5836960
   3.6328970  69.4279720  41.5321880   2.9376360  69.7744910  40.2327970
  11.4367250  82.6062860  46.0584190  12.0789480  81.9056020  46.1716360
  11.9616600  83.3861300  45.8781080  15.2822970  82.8911480  35.7823330
  15.0560550  82.1741920  36.3747970  14.8919170  82.6423920  34.9445080
  13.2104870  83.4057760  49.2620250  13.5461110  83.9924450  49.9398170
  12.2905210  83.2750470  49.4918040  14.8639220  80.8083420  37.4437490
  14.5760920  81.2696110  38.2315370  15.6591390  80.3481190  37.7121710
   9.0393450  83.4549090  52.4308310   8.7190320  82.7358330  52.9754000
   8.3651810  84.1304160  52.5044370   7.0807620  84.3009540  37.3741460
   7.0717720  85.0339230  36.7585970   6.1605980  84.0541120  37.4668420
   2.6814260  79.5224430  38.1188220   2.0742210  80.2623330  38.1283520
   3.1563610  79.6123790  37.2926420  12.2547050  73.6875250  47.7945110
  12.6227870  72.8670460  48.1224680  11.3945250  73.7477140  48.2100760
  15.6209080  72.6432190  38.6032670  14.9922240  72.7477860  37.8890900
  15.1261000  72.8628970  39.3926550  10.0667220  84.3637780  36.0366650
  10.1679200  84.1601770  35.1068630   9.1668960  84.1096060  36.2414430
   7.5893110  74.9218140  40.0190550   6.8809260  75.3904480  40.4604160
   7.8737590  74.2640150  40.6535740   9.2149040  76.3414840  48.0183080
   9.7134290  76.8160660  48.6834930   9.3571990  75.4178360  48.2253110
  11.6208540  71.6468800  41.4586340  11.4976320  71.6654930  40.5095850
  12.5693100  71.6947740  41.5784740   8.7085330  86.8824100  40.7314320
   8.9626830  86.8445490  39.8093690   7.7597810  86.7557430  40.7242570
   5.7928130  73.2303220  37.3941260   6.6418660  73.6673370  37.3281450
   5.4259400  73.5423480  38.2213320  16.4215900  72.5582800  48.8611470
  15.9189500  73.2988200  49.2005280  17.2372560  72.9466800  48.5448260
  14.7137910  77.8015980  42.3072830  13.7728050  77.8166210  42.4820520
  15.0281980  77.0151940  42.7533130   4.6919550  79.4835580  35.8676790
   5.4582820  79.3716940  36.4302220   4.7694240  78.7873550  35.2153560
   3.3866310  76.9160650  36.5509680   3.4669900  75.9688160  36.6627080
   4.2786060  77.2467530  36.6570340  16.7163490  84.9724830  43.9827090
  16.8410910  85.7956000  44.4550900  17.5829050  84.7615560  43.6351240
   4.1881020  87.0656040  43.6544220   4.9243500  86.5171500  43.9252790
   4.5721940  87.9312050  43.5150210   3.1939300  86.2502110  52.8429800
   3.9952030  86.5714160  53.2565200   2.6791120  85.8897690  53.5649710
   7.2983330  86.2386350  35.4769790   8.0911940  86.5275180  35.0251580
   6.7787680  85.8078520  34.7982270  12.0303930  82.3581980  52.7905210
  11.4242090  82.3813580  52.0500960  11.7258040  81.6265020  53.3272460
  13.4604300  86.0862270  51.4014620  14.4126050  86.0020290  51.3514860
  13.3132520  86.7503980  52.0748410  16.3513500  85.4656480  36.9006530
  16.0655010  85.0521620  36.0860710  16.1533050  86.3944190  36.7807050
   7.8160730  81.4589760  35.3412140   7.7111370  80.8442110  36.0673520
   7.6484950  80.9355650  34.5575150   7.9675050  80.1446560  51.3201370
   7.2020720  80.7131560  51.2356040   8.1491010  79.8522770  50.4269600
  11.0563460  80.5209790  35.9454130  10.5073560  80.9679090  36.5896870
  11.6782720  80.0159040  36.4691800  15.1098400  81.8751890  51.8776390
  15.8507870  82.2127650  51.3743850  14.3471080  82.0443950  51.3246160
   2.9460190  76.8805160  52.6815920   2.9865530  76.5819030  53.5901150
   3.8005690  77.2812770  52.5223440   6.7238580  79.4800710  37.8419430
   7.1455000  79.3140580  38.6850820   6.8489420  78.6700940  37.3474570
   4.8866000  75.4597260  50.6490410   4.3562460  74.9688210  50.0213750
   5.5554070  75.8881460  50.1148340   9.2366220  78.5038320  35.0896530
   9.7571880  77.7887340  34.7237680   9.8834620  79.1424190  35.3897040
  13.7844060  79.9266720  50.4131600  14.1985080  80.0811800  51.2622020
  12.8495060  80.0521940  50.5757380  14.2566230  77.2662880  52.4170750
  14.8387000  76.5115200  52.3291230  14.4328000  77.7970320  51.6402230
   5.3738300  72.4259630  50.7287700   5.2795170  71.8080380  50.0038570
   4.7935690  73.1525920  50.5017610   8.1399740  70.9832870  47.7615090
   7.6917040  71.0057130  46.9160640   7.5064940  70.5851890  48.3585390
   8.5459290  79.8787200  48.3827530   8.9647400  80.7219930  48.2103770
   7.6267920  80.0159240  48.1534310  10.8823190  77.6103380  49.7665370
  11.0019400  77.0144520  50.5060210  11.7417190  77.6473070  49.3466670
  13.2211090  78.1640570  48.3427880  12.6946310  78.6883190  47.7393020
  13.5642430  78.7967960  48.9737610   5.6197480  75.5533940  34.7877590
   5.4186540  74.6901300  35.1490930   5.4489530  75.4667300  33.8499190
   6.3966710  86.1840210  49.4985260   5.8587800  86.9086270  49.1793960
   6.6500670  85.7070550  48.7082600   7.6491960  74.1524730  51.0241190
   8.2391650  73.8440580  51.7119010   6.8312200  73.6804480  51.1801090
  12.4685390  73.7690540  51.2574210  11.7800910  73.1072080  51.1924200
  13.1891410  73.3228810  51.7022670  13.0985790  70.3642170  37.3164470
  13.3788080  69.5210070  37.6723890  12.3251520  70.5965280  37.8303220
   4.4180280  72.6534560  34.7755470   4.7206180  72.6601990  33.8674620
   5.1574870  72.3032420  35.2723130   9.2528920  87.4191420  49.7571910
   9.1787620  88.3226560  50.0644280   8.3507760  87.1003320  49.7293980
   7.6365210  71.5969180  35.7611670   7.2887210  70.9193170  35.1814120
   7.8377980  71.1358690  36.5755060   9.8014250  86.5849930  37.3798270
  10.6965040  86.9234900  37.4017030   9.8331880  85.8629340  36.7522550
   3.4410410  81.9576980  35.6085270   3.8785280  82.5006650  36.2642850
   3.9258140  81.1323930  35.6181610   5.2518130  83.0775020  40.7207500
   4.9513670  82.9539990  41.6211410   5.1455620  82.2183610  40.3123230
  16.7808600  85.1153600  50.0864470  16.1810590  85.1746160  49.3428390
  16.9102500  84.1758580  50.2161320  18.0210050  82.8571420  35.4234180
  17.1903010  82.9248070  35.8941410  18.1981880  83.7475540  35.1201040
  17.4766510  79.6018900  37.9268380  18.2385420  80.1715550  38.0328070
  17.4920880  79.0346100  38.6976690  18.4826480  80.4569000  42.7710310
  18.8535310  79.6736320  42.3646280  19.1228410  81.1458100  42.5927610
  15.4660240  81.8405580  48.1840630  14.6520080  82.2702740  48.4466420
  15.8734440  82.4523990  47.5709680  17.5285680  79.8953270  35.0840900
  17.8034520  80.8032150  34.9560120  17.3396420  79.8315800  36.0202890
  13.9261290  72.9198120  36.3794530  14.3446170  72.7329100  35.5391190
  13.6197350  72.0677170  36.6897460  17.4251020  77.8322260  40.0770330
  17.0494620  77.0650190  39.6451620  16.6954140  78.2144960  40.5645260
   2.0146780  78.5109400  46.6979380   2.3819820  78.4236800  47.5775400
   1.4457600  77.7475950  46.5986240  16.8150640  76.9793780  49.7109850
  16.5836730  76.7506530  48.8107800  17.0755190  77.8993330  49.6654740
  15.2538710  72.2050210  52.4889550  16.1308890  72.2133610  52.8723550
  15.2659550  71.4681050  51.8781900  16.7001980  76.0579750  43.3777570
  17.2239460  75.5642400  42.7467740  17.2861400  76.1930110  44.1225140
  16.8791700  76.1419620  46.8997120  15.9294410  76.1083160  47.0142110
  17.0604710  77.0519730  46.6646890   2.7336140  74.3921300  36.0095750
   3.4427840  73.9704520  35.5243030   2.0176080  74.4596530  35.3779100
   2.3810300  70.4460630  35.0498400   3.1038430  70.9869570  35.3679620
   2.6534820  70.1724050  34.1739940  16.1901950  75.3153100  39.3169980
  16.6861070  75.0823970  40.1018860  15.9918020  74.4764940  38.9007620
   2.0702490  69.6966820  44.9521020   2.7178680  69.1464200  44.5116180
   2.4904330  69.9509970  45.7736830  17.6189110  73.9514050  41.8507660
  17.5088390  73.7970090  42.7889930  18.3796700  73.4234990  41.6083070
  15.9654830  69.8908180  48.3090660  16.6027050  70.5042320  48.6749850
  16.1129720  69.9268840  47.3639890  18.5079380  71.7821970  35.0913800
  19.4328690  71.6503150  34.8832090  18.4855170  71.8614790  36.0450250
  18.5817870  72.5532630  37.7170510  17.7869370  72.4877750  38.2463420
  18.7861150  73.4883270  37.7055860  15.5236290  86.5924180  41.7108900
  16.1195360  86.2708750  41.0343320  15.7814440  86.1196000  42.5022170
   1.8234490  69.8522490  47.6946340   1.4749310  70.3086310  48.4604520
   1.4922190  68.9579620  47.7768770   3.4298860  83.0242090  51.8599530
   3.3868490  82.6535000  52.7413990   3.5609870  83.9619660  52.0001350
   7.1304890  84.5801680  47.4609250   6.8896250  84.8476240  46.5739770
   8.0707530  84.7507410  47.5160110   9.3359310  71.0434370  51.2165760
   9.2748200  71.6356200  51.9661170  10.2759690  70.9360330  51.0716020
  11.9733870  70.7004430  50.8558050  12.5874280  71.0183720  50.1939130
  12.5183430  70.2153020  51.4753910  18.3909050  86.5996060  48.2619890
  17.8967330  86.9964930  47.5447020  17.7822340  85.9745270  48.6557170
   2.4955130  69.3798690  50.9697110   3.0438120  69.1986740  50.2063220
   2.5610440  68.5892800  51.5053420   3.2686890  85.9704340  48.9797310
   2.6747210  85.8389040  49.7187350   3.2610730  85.1342480  48.5139410
  12.7141910  69.2636570  47.1827340  11.8401750  69.5971680  46.9800270
  12.6052660  68.7909750  48.0079210  13.6213890  71.4707440  48.5669060
  13.2927250  70.6559200  48.1870790  14.5696190  71.4277250  48.4434750
  16.0748500  87.2419480  45.5406630  15.6151470  87.9935290  45.1664650
  15.4460960  86.5225950  45.4821430   2.8999120  83.3362720  47.9305350
   2.1733180  82.7168010  47.8631300   2.9608270  83.7303330  47.0603430
   6.5044220  85.5507720  44.7154760   7.0209240  84.9395080  44.1903020
   7.1541600  86.0536500  45.2065770   9.2439720  86.4416210  45.5423740
   9.5317530  86.1870510  44.6656750   9.7562940  85.8893570  46.1329310
  10.4616730  70.1806410  46.1220250   9.6788520  70.6551910  46.4017010
  10.1679660  69.2761240  46.0133430  15.0137800  70.8829510  44.1669340
  15.4545890  70.8274610  43.3190940  14.7445390  71.7987520  44.2379520
  16.8776370  70.5144750  42.1778160  16.8164770  69.5705970  42.0309180
  17.6568400  70.6224840  42.7231620   1.8057140  70.4853890  38.6433970
   2.5636500  70.5982770  38.0698000   1.3434310  71.3223090  38.5977400
   8.3470950  72.5993160  41.6336280   7.5345460  72.2250050  41.2932160
   8.8512590  71.8438240  41.9357470  12.8495930  69.2635610  42.8719350
  13.4525300  69.8355820  43.3467870  12.1088920  69.8275050  42.6493250
  15.9930530  69.6657170  38.1459630  16.1881160  70.5640620  38.4127060
  15.2060400  69.4344250  38.6392580   2.7891820  85.3470340  38.5852250
   2.2639440  85.7278370  37.8814210   2.7136400  85.9721110  39.3061960
   4.1782290  71.0117940  37.1835940   4.7075050  70.2247740  37.0543890
   4.8110610  71.6909130  37.4171470   6.3720130  70.7493080  40.2381330
   5.7422870  70.0480390  40.4051460   5.8325270  71.5097210  40.0214490
   9.3112080  87.3632310  52.9091940  10.2379390  87.1276580  52.9527900
   9.2962510  88.1904310  52.4277970  17.5457140  86.9057880  39.9066190
  17.7209330  86.2195620  39.2627110  16.8478710  87.4304930  39.5142860
   6.4975690  70.0277060  52.6733820   6.2159960  70.5310660  51.9094640
   6.8795390  69.2298810  52.3075950   5.3884790  87.2952720  37.4601500
   6.1203610  87.0112000  36.9125390   5.6478460  87.0566000  38.3500880
   4.5499580  83.4117450  37.4647830   3.9208460  83.8802550  38.0133660
   4.6647410  82.5666670  37.8994020  13.0991150  69.4430640  53.2514290
  12.9856600  69.7625250  54.1465810  13.9160890  69.8443150  52.9551570
  15.8789640  86.5902170  52.7332980  16.6714960  86.0951400  52.5258940
  16.1722790  87.2692310  53.3408590  12.0049300  77.4623110  23.6149030
  11.9243350  76.5477720  23.3440740  11.5913720  77.9590180  22.9088740
  10.1367340  79.2402130  25.4958300   9.3609440  78.7602570  25.7856870
  10.7880270  78.5607780  25.3214460   4.1533170  79.5521940  26.3734060
   3.3218050  79.2970650  26.7730570   4.7614150  79.6232710  27.1091980
  14.1574770  83.6462320  24.2757430  13.6956300  82.8749560  24.6044600
  14.9700320  83.6728390  24.7809880   4.1334430  83.5862030  26.5692080
   4.4362470  82.6959770  26.3902300   4.8778020  84.1432250  26.3414330
   2.5625120  74.5123830  20.1576450   1.6741820  74.8539800  20.0556330
   2.8466310  74.3124150  19.2657280  10.3838080  85.9320330  23.8961420
   9.7649520  86.3877830  23.3255860  11.2389860  86.0871790  23.4951120
   9.5776330  81.9159320  25.5028460   9.5084610  80.9749260  25.3417590
  10.3396190  82.0060730  26.0751030   1.7683000  72.5213840  27.8285080
   1.5885840  71.6239590  28.1087840   1.3663080  73.0685710  28.5032030
  10.6081500  74.7229700  25.7297390  10.9846320  73.8501580  25.6171060
  10.5101010  75.0588400  24.8387830   4.7386510  73.0955330  21.1914830
   4.8453260  73.9959060  21.4983590   3.8278870  73.0473300  20.9009480
  14.3905620  72.2180140  22.6625730  15.2115240  71.7276710  22.7051210
  14.4239700  72.8077800  23.4157570   2.3869670  75.0174340  26.4367420
   3.0679780  75.2812710  27.0554820   2.0717720  74.1775210  26.7705430
   6.5794240  76.0641700  25.5240010   7.0872460  76.5622670  26.1645030
   7.1107480  75.2876900  25.3479370  18.6805170  74.2346890  29.2269360
  17.9757340  74.6228600  28.7084470  18.9463090  74.9297180  29.8290290
   4.8630340  70.7040260  29.7903430   4.8648780  71.2212650  28.9849330
   4.0334650  70.2270440  29.7673360  11.2501430  80.8159570  21.2893330
  10.6318700  81.2809020  20.7256050  11.7624680  81.5087050  21.7062840
   6.1133190  80.3435440  27.9676930   5.7802570  80.9704360  28.6098000
   6.2899870  80.8697320  27.1878600  14.6267100  74.1580520  25.4353270
  13.9222670  74.4465410  26.0156380  14.9879260  74.9680630  25.0752830
   4.5445670  72.4150220  27.7973880   4.8862480  73.2592270  27.5027750
   3.6061480  72.5633960  27.9139220   5.3252290  82.3116240  29.7826110
   5.9426290  82.9867320  29.5010560   4.4645410  82.7204220  29.6913610
  16.2429880  83.7755650  27.6980750  15.5593400  84.4454760  27.6897420
  16.7824170  83.9736300  26.9325610  17.6954020  73.6035310  25.8262480
  16.7478930  73.6374290  25.9577910  18.0204010  74.4174260  26.2111840
   8.2273560  69.9032490  24.1218470   8.5348540  69.3479380  23.4053970
   7.2974260  70.0376950  23.9391460  13.7788620  85.6199780  26.4125930
  13.7915780  85.2162070  25.5448190  13.2263840  86.3947070  26.3087360
  15.0734040  82.3416000  21.5016100  14.9630370  81.3990330  21.6265520
  15.0702290  82.7031640  22.3878860  13.1774060  80.5229620  27.7408540
  13.5942850  80.3089730  26.9062000  13.9013880  80.7802410  28.3117160
  10.6154320  77.9681320  20.8578590   9.6883600  77.9018700  21.0867060
  10.7679140  78.9061450  20.7433830  10.6023400  74.2398320  17.8545750
   9.6627070  74.4012280  17.9398210  10.9206660  74.9584000  17.3081740
  17.1236160  78.9216840  27.8324780  16.2954790  78.9909930  27.3574910
  17.7186640  79.5071150  27.3640610  14.6451610  79.5301620  21.3613840
  14.0264030  79.1921170  20.7140140  14.6276060  78.8861380  22.0693030
  14.0878170  75.7086160  28.7779650  13.6749350  76.5339870  29.0319640
  13.3554120  75.1231200  28.5856010   6.2210960  78.4946060  23.6398320
   5.8167960  77.7823310  23.1444220   6.3074080  78.1499300  24.5286360
   6.6892660  82.1813620  25.8037530   6.3920950  81.5759090  25.1245310
   7.6392480  82.2190930  25.6926890   4.9339580  75.2689270  27.4197360
   5.4854170  75.3784610  26.6450610   5.4483090  75.6426870  28.1352590
  14.7778270  85.7545490  29.4660630  14.3008830  86.5617680  29.2733240
  14.0940060  85.1023820  29.6186840   5.7811090  81.9195310  32.4545330
   4.8839620  82.1435280  32.7018730   5.8063960  82.0430250  31.5056730
  12.8216310  78.7688430  18.3686590  13.2609590  77.9310860  18.2224410
  13.5344730  79.4017830  18.4550730   4.6082310  78.7908630  31.0302700
   4.4690080  79.6631430  31.3990100   3.7263670  78.4481440  30.8850640
  10.9311690  83.7084500  22.3367830  11.3707600  84.4508830  21.9223220
  10.8698580  83.9511070  23.2606790   6.4062660  84.7330330  33.2387850
   6.3778090  85.1373280  32.3716280   6.2427630  83.8040690  33.0759450
  16.4033450  70.0231240  16.6827630  16.0906110  70.1158070  17.5826700
  17.1645920  70.6012270  16.6325060   2.9215590  77.3891040  21.1404970
   2.8013190  78.1153130  20.5286240   2.6116480  76.6193950  20.6632880
  18.3577480  85.5157430  34.5352020  18.8337200  85.9940320  35.2141100
  18.9784640  85.4474920  33.8097520   1.8048590  82.2606370  23.3579790
   1.3976670  82.4020960  22.5033390   2.6961600  81.9766530  23.1551000
  17.7610730  82.7070280  31.6952030  17.8873790  82.4682160  30.7769210
  17.8032110  81.8754820  32.1674110  11.6227470  86.4098280  30.2646840
  12.1372140  86.3206290  31.0669270  10.7796550  86.7557980  30.5574750
  13.5981870  86.6953620  19.6930840  13.4383010  86.4056560  20.5912670
  13.4328580  85.9193750  19.1576070   6.0770250  86.4752150  21.4702460
   5.9012730  85.5587690  21.2570260   5.2225990  86.8339440  21.7100260
  13.3008000  84.2041180  18.2528840  12.6073160  84.2018470  17.5931120
  14.0430860  83.7800500  17.8223010  12.8657930  85.8303890  22.3277330
  13.3214880  85.0493270  22.6415950  13.2050450  86.5410710  22.8718510
  17.6134740  74.7602740  32.6601770  16.9979010  75.2682410  32.1317230
  17.2931160  73.8601070  32.6027710   5.3879250  70.7326110  24.5228640
   4.9447400  71.5135650  24.1913160   5.9464240  71.0556000  25.2299580
   9.6749060  73.5994630  30.1263960   9.2128430  73.8077650  30.9383900
   9.2727170  72.7853980  29.8234630  14.6753570  74.8203580  31.2560620
  13.8247160  74.5209330  31.5769690  14.5155360  75.0645590  30.3444440
  11.7703280  76.3205330  33.3559410  12.0956690  75.4869080  33.0161640
  12.5583610  76.8433850  33.5037740   8.5038070  70.3536810  19.4034470
   7.8792250  70.3496680  20.1287780   8.4168190  69.4867770  19.0070440
   7.4255150  71.2773440  26.3818240   7.7227480  72.1836270  26.3010260
   7.9740710  70.7892220  25.7677810   5.1793470  75.8559680  22.2509890
   4.9534390  75.6396850  23.1556510   4.3986000  76.2888140  21.9055860
  12.4091230  75.8623050  20.8500540  11.8100120  76.5858850  20.6664160
  12.9570840  75.7999830  20.0676990   7.6192680  76.7545260  32.9170160
   7.5236280  75.8139990  32.7670560   8.4624660  76.9760330  32.5218230
  11.0156100  74.4986590  22.8803820  11.4085670  74.8158790  22.0672510
  11.3772950  73.6198470  22.9948340   2.7503220  73.1658930  31.0703940
   2.3566610  74.0134140  31.2776720   2.0621620  72.5285300  31.2612580
   9.3248270  73.2493900  34.1400680   8.6346590  73.0566100  34.7746770
  10.0680570  73.5328540  34.6724980  11.6011240  77.0892340  26.9754600
  10.8692360  77.5979150  27.3244700  11.2035580  76.2722320  26.6743380
   8.0388630  73.7646540  25.3807090   8.0424690  73.3236490  24.5311630
   8.9339750  74.0863870  25.4878910   3.8891010  73.6473030  24.3401300
   3.5491060  74.1248260  25.0968350   3.1268330  73.1938150  23.9802400
   8.1008780  74.7658620  18.3713850   8.2221600  74.7245100  19.3199670
   7.7157290  75.6282770  18.2160580  12.0637150  72.5426020  26.3877540
  12.0809890  72.9934670  27.2319390  11.8152730  71.6431660  26.6010980
   7.1130280  77.0759760  17.7697150   6.5447180  76.6278010  17.1433060
   7.8219280  77.4352540  17.2362300  15.4907900  69.9558200  32.2263920
  15.8153670  69.2247860  32.7521900  15.5264410  69.6371840  31.3244910
   2.1899460  80.9771780  31.6463880   1.8054250  80.3365450  32.2446840
   2.5011650  81.6807900  32.2158610   8.3396600  77.8248320  27.1272500
   8.7066730  77.3506890  27.8733840   8.1501660  78.6989890  27.4680840
   6.1295970  76.8656960  29.4456710   5.8253040  77.7448940  29.6707070
   7.0842430  76.9256750  29.4814150   4.6577760  81.0717950  20.0423560
   3.8840020  80.5315570  19.8822280   5.3872390  80.5524560  19.7041320
  15.4165740  80.0683310  25.8349950  16.1364860  80.5638600  25.4446060
  15.2147560  79.3901200  25.1903820  10.8775680  71.4621270  19.9779340
  10.0640290  70.9634440  19.9024650  10.6837630  72.3019520  19.5615690
  10.7984540  80.1392370  31.7218950  10.7321850  79.2188040  31.4676540
  10.1689680  80.2367810  32.4363590  13.5924070  75.8340920  18.2741500
  14.4803690  76.1458150  18.0992840  13.5629160  74.9613170  17.8822080
   4.7015160  80.7398330  23.6802370   5.2193830  79.9366590  23.6259260
   4.2499180  80.6777470  24.5219200   9.5884660  82.0064610  18.9529670
   9.9300360  82.7506840  18.4572990   8.7597370  82.3195730  19.3154500
   2.1859700  77.7059700  30.5928070   1.8274640  78.3713550  31.1801410
   1.8914260  76.8743250  30.9640690   5.3872820  78.1643940  33.4767620
   5.0872960  78.3101120  32.5795440   6.1584060  77.6049230  33.3841010
  10.7301270  82.9612940  31.4722750  10.7445810  82.0293900  31.2541660
  10.0226370  83.0472700  32.1112520  15.8638340  77.1452760  17.7421360
  15.7802060  77.5766980  16.8917800  16.5832530  77.6051110  18.1748180
  16.9412480  79.6020280  30.8191330  16.2160670  80.1949060  30.6220720
  17.4687940  79.5943820  30.0204700  16.8925590  83.9995020  20.4703490
  16.2501750  83.3450640  20.7447210  16.5056250  84.4050110  19.6944160
  12.4712070  81.3280450  24.3175180  12.8235890  80.7308580  23.6576550
  11.5874400  81.0024680  24.4883430   8.5575350  82.0878140  21.7245590
   9.2446480  82.6347350  22.1053180   7.7707770  82.6318870  21.7595200
   7.8602560  79.0924170  21.3370950   8.3165340  79.9029420  21.5631140
   7.5090770  78.7747310  22.1689440  10.1635170  84.6030510  28.5663250
  10.8077390  84.8089890  29.2436670  10.5264610  83.8418910  28.1134100
   3.7614340  69.4361820  21.8093470   3.6328970  69.4279720  22.7578390
   2.9376360  69.7744910  21.4584480  11.4367250  82.6062860  27.2840700
  12.0789480  81.9056020  27.3972870  11.9616600  83.3861300  27.1037590
  15.2822970  82.8911480  17.0079840  15.0560550  82.1741920  17.6004480
  14.8919170  82.6423920  16.1701590  13.2104870  83.4057760  30.4876760
  13.5461110  83.9924450  31.1654680  12.2905210  83.2750470  30.7174550
  14.8639220  80.8083420  18.6694000  14.5760920  81.2696110  19.4571880
  15.6591390  80.3481190  18.9378220   9.0393450  83.4549090  33.6564820
   8.7190320  82.7358330  34.2010510   8.3651810  84.1304160  33.7300880
   7.0807620  84.3009540  18.5997970   7.0717720  85.0339230  17.9842480
   6.1605980  84.0541120  18.6924930   2.6814260  79.5224430  19.3444730
   2.0742210  80.2623330  19.3540030   3.1563610  79.6123790  18.5182930
  12.2547050  73.6875250  29.0201620  12.6227870  72.8670460  29.3481190
  11.3945250  73.7477140  29.4357270  15.6209080  72.6432190  19.8289180
  14.9922240  72.7477860  19.1147410  15.1261000  72.8628970  20.6183060
  10.0667220  84.3637780  17.2623160  10.1679200  84.1601770  16.3325140
   9.1668960  84.1096060  17.4670940   7.5893110  74.9218140  21.2447060
   6.8809260  75.3904480  21.6860670   7.8737590  74.2640150  21.8792250
   9.2149040  76.3414840  29.2439590   9.7134290  76.8160660  29.9091440
   9.3571990  75.4178360  29.4509620  11.6208540  71.6468800  22.6842850
  11.4976320  71.6654930  21.7352360  12.5693100  71.6947740  22.8041250
   8.7085330  86.8824100  21.9570830   8.9626830  86.8445490  21.0350200
   7.7597810  86.7557430  21.9499080   5.7928130  73.2303220  18.6197770
   6.6418660  73.6673370  18.5537960   5.4259400  73.5423480  19.4469830
  16.4215900  72.5582800  30.0867980  15.9189500  73.2988200  30.4261790
  17.2372560  72.9466800  29.7704770  14.7137910  77.8015980  23.5329340
  13.7728050  77.8166210  23.7077030  15.0281980  77.0151940  23.9789640
   4.6919550  79.4835580  17.0933300   5.4582820  79.3716940  17.6558730
   4.7694240  78.7873550  16.4410070   3.3866310  76.9160650  17.7766190
   3.4669900  75.9688160  17.8883590   4.2786060  77.2467530  17.8826850
  16.7163490  84.9724830  25.2083600  16.8410910  85.7956000  25.6807410
  17.5829050  84.7615560  24.8607750   4.1881020  87.0656040  24.8800730
   4.9243500  86.5171500  25.1509300   4.5721940  87.9312050  24.7406720
   3.1939300  86.2502110  34.0686310   3.9952030  86.5714160  34.4821710
   2.6791120  85.8897690  34.7906220   7.2983330  86.2386350  16.7026300
   8.0911940  86.5275180  16.2508090   6.7787680  85.8078520  16.0238780
  12.0303930  82.3581980  34.0161720  11.4242090  82.3813580  33.2757470
  11.7258040  81.6265020  34.5528970  13.4604300  86.0862270  32.6271130
  14.4126050  86.0020290  32.5771370  13.3132520  86.7503980  33.3004920
  16.3513500  85.4656480  18.1263040  16.0655010  85.0521620  17.3117220
  16.1533050  86.3944190  18.0063560   7.8160730  81.4589760  16.5668650
   7.7111370  80.8442110  17.2930030   7.6484950  80.9355650  15.7831660
   7.9675050  80.1446560  32.5457880   7.2020720  80.7131560  32.4612550
   8.1491010  79.8522770  31.6526110  11.0563460  80.5209790  17.1710640
  10.5073560  80.9679090  17.8153380  11.6782720  80.0159040  17.6948310
  15.1098400  81.8751890  33.1032900  15.8507870  82.2127650  32.6000360
  14.3471080  82.0443950  32.5502670   2.9460190  76.8805160  33.9072430
   2.9865530  76.5819030  34.8157660   3.8005690  77.2812770  33.7479950
   6.7238580  79.4800710  19.0675940   7.1455000  79.3140580  19.9107330
   6.8489420  78.6700940  18.5731080   4.8866000  75.4597260  31.8746920
   4.3562460  74.9688210  31.2470260   5.5554070  75.8881460  31.3404850
   9.2366220  78.5038320  16.3153040   9.7571880  77.7887340  15.9494190
   9.8834620  79.1424190  16.6153550  13.7844060  79.9266720  31.6388110
  14.1985080  80.0811800  32.4878530  12.8495060  80.0521940  31.8013890
  14.2566230  77.2662880  33.6427260  14.8387000  76.5115200  33.5547740
  14.4328000  77.7970320  32.8658740   5.3738300  72.4259630  31.9544210
   5.2795170  71.8080380  31.2295080   4.7935690  73.1525920  31.7274120
   8.1399740  70.9832870  28.9871600   7.6917040  71.0057130  28.1417150
   7.5064940  70.5851890  29.5841900   8.5459290  79.8787200  29.6084040
   8.9647400  80.7219930  29.4360280   7.6267920  80.0159240  29.3790820
  10.8823190  77.6103380  30.9921880  11.0019400  77.0144520  31.7316720
  11.7417190  77.6473070  30.5723180  13.2211090  78.1640570  29.5684390
  12.6946310  78.6883190  28.9649530  13.5642430  78.7967960  30.1994120
   5.6197480  75.5533940  16.0134100   5.4186540  74.6901300  16.3747440
   5.4489530  75.4667300  15.0755700   6.3966710  86.1840210  30.7241770
   5.8587800  86.9086270  30.4050470   6.6500670  85.7070550  29.9339110
   7.6491960  74.1524730  32.2497700   8.2391650  73.8440580  32.9375520
   6.8312200  73.6804480  32.4057600  12.4685390  73.7690540  32.4830720
  11.7800910  73.1072080  32.4180710  13.1891410  73.3228810  32.9279180
  13.0985790  70.3642170  18.5420980  13.3788080  69.5210070  18.8980400
  12.3251520  70.5965280  19.0559730   4.4180280  72.6534560  16.0011980
   4.7206180  72.6601990  15.0931130   5.1574870  72.3032420  16.4979640
   9.2528920  87.4191420  30.9828420   9.1787620  88.3226560  31.2900790
   8.3507760  87.1003320  30.9550490   7.6365210  71.5969180  16.9868180
   7.2887210  70.9193170  16.4070630   7.8377980  71.1358690  17.8011570
   9.8014250  86.5849930  18.6054780  10.6965040  86.9234900  18.6273540
   9.8331880  85.8629340  17.9779060   3.4410410  81.9576980  16.8341780
   3.8785280  82.5006650  17.4899360   3.9258140  81.1323930  16.8438120
   5.2518130  83.0775020  21.9464010   4.9513670  82.9539990  22.8467920
   5.1455620  82.2183610  21.5379740  16.7808600  85.1153600  31.3120980
  16.1810590  85.1746160  30.5684900  16.9102500  84.1758580  31.4417830
  18.0210050  82.8571420  16.6490690  17.1903010  82.9248070  17.1197920
  18.1981880  83.7475540  16.3457550  17.4766510  79.6018900  19.1524890
  18.2385420  80.1715550  19.2584580  17.4920880  79.0346100  19.9233200
  18.4826480  80.4569000  23.9966820  18.8535310  79.6736320  23.5902790
  19.1228410  81.1458100  23.8184120  15.4660240  81.8405580  29.4097140
  14.6520080  82.2702740  29.6722930  15.8734440  82.4523990  28.7966190
  17.5285680  79.8953270  16.3097410  17.8034520  80.8032150  16.1816630
  17.3396420  79.8315800  17.2459400  13.9261290  72.9198120  17.6051040
  14.3446170  72.7329100  16.7647700  13.6197350  72.0677170  17.9153970
  17.4251020  77.8322260  21.3026840  17.0494620  77.0650190  20.8708130
  16.6954140  78.2144960  21.7901770   2.0146780  78.5109400  27.9235890
   2.3819820  78.4236800  28.8031910   1.4457600  77.7475950  27.8242750
  16.8150640  76.9793780  30.9366360  16.5836730  76.7506530  30.0364310
  17.0755190  77.8993330  30.8911250  15.2538710  72.2050210  33.7146060
  16.1308890  72.2133610  34.0980060  15.2659550  71.4681050  33.1038410
  16.7001980  76.0579750  24.6034080  17.2239460  75.5642400  23.9724250
  17.2861400  76.1930110  25.3481650  16.8791700  76.1419620  28.1253630
  15.9294410  76.1083160  28.2398620  17.0604710  77.0519730  27.8903400
   2.7336140  74.3921300  17.2352260   3.4427840  73.9704520  16.7499540
   2.0176080  74.4596530  16.6035610   2.3810300  70.4460630  16.2754910
   3.1038430  70.9869570  16.5936130   2.6534820  70.1724050  15.3996450
  16.1901950  75.3153100  20.5426490  16.6861070  75.0823970  21.3275370
  15.9918020  74.4764940  20.1264130   2.0702490  69.6966820  26.1777530
   2.7178680  69.1464200  25.7372690   2.4904330  69.9509970  26.9993340
  17.6189110  73.9514050  23.0764170  17.5088390  73.7970090  24.0146440
  18.3796700  73.4234990  22.8339580  15.9654830  69.8908180  29.5347170
  16.6027050  70.5042320  29.9006360  16.1129720  69.9268840  28.5896400
  18.5079380  71.7821970  16.3170310  19.4328690  71.6503150  16.1088600
  18.4855170  71.8614790  17.2706760  18.5817870  72.5532630  18.9427020
  17.7869370  72.4877750  19.4719930  18.7861150  73.4883270  18.9312370
  15.5236290  86.5924180  22.9365410  16.1195360  86.2708750  22.2599830
  15.7814440  86.1196000  23.7278680   1.8234490  69.8522490  28.9202850
   1.4749310  70.3086310  29.6861030   1.4922190  68.9579620  29.0025280
   3.4298860  83.0242090  33.0856040   3.3868490  82.6535000  33.9670500
   3.5609870  83.9619660  33.2257860   7.1304890  84.5801680  28.6865760
   6.8896250  84.8476240  27.7996280   8.0707530  84.7507410  28.7416620
   9.3359310  71.0434370  32.4422270   9.2748200  71.6356200  33.1917680
  10.2759690  70.9360330  32.2972530  11.9733870  70.7004430  32.0814560
  12.5874280  71.0183720  31.4195640  12.5183430  70.2153020  32.7010420
  18.3909050  86.5996060  29.4876400  17.8967330  86.9964930  28.7703530
  17.7822340  85.9745270  29.8813680   2.4955130  69.3798690  32.1953620
   3.0438120  69.1986740  31.4319730   2.5610440  68.5892800  32.7309930
   3.2686890  85.9704340  30.2053820   2.6747210  85.8389040  30.9443860
   3.2610730  85.1342480  29.7395920  12.7141910  69.2636570  28.4083850
  11.8401750  69.5971680  28.2056780  12.6052660  68.7909750  29.2335720
  13.6213890  71.4707440  29.7925570  13.2927250  70.6559200  29.4127300
  14.5696190  71.4277250  29.6691260  16.0748500  87.2419480  26.7663140
  15.6151470  87.9935290  26.3921160  15.4460960  86.5225950  26.7077940
   2.8999120  83.3362720  29.1561860   2.1733180  82.7168010  29.0887810
   2.9608270  83.7303330  28.2859940   6.5044220  85.5507720  25.9411270
   7.0209240  84.9395080  25.4159530   7.1541600  86.0536500  26.4322280
   9.2439720  86.4416210  26.7680250   9.5317530  86.1870510  25.8913260
   9.7562940  85.8893570  27.3585820  10.4616730  70.1806410  27.3476760
   9.6788520  70.6551910  27.6273520  10.1679660  69.2761240  27.2389940
  15.0137800  70.8829510  25.3925850  15.4545890  70.8274610  24.5447450
  14.7445390  71.7987520  25.4636030  16.8776370  70.5144750  23.4034670
  16.8164770  69.5705970  23.2565690  17.6568400  70.6224840  23.9488130
   1.8057140  70.4853890  19.8690480   2.5636500  70.5982770  19.2954510
   1.3434310  71.3223090  19.8233910   8.3470950  72.5993160  22.8592790
   7.5345460  72.2250050  22.5188670   8.8512590  71.8438240  23.1613980
  12.8495930  69.2635610  24.0975860  13.4525300  69.8355820  24.5724380
  12.1088920  69.8275050  23.8749760  15.9930530  69.6657170  19.3716140
  16.1881160  70.5640620  19.6383570  15.2060400  69.4344250  19.8649090
   2.7891820  85.3470340  19.8108760   2.2639440  85.7278370  19.1070720
   2.7136400  85.9721110  20.5318470   4.1782290  71.0117940  18.4092450
   4.7075050  70.2247740  18.2800400   4.8110610  71.6909130  18.6427980
   6.3720130  70.7493080  21.4637840   5.7422870  70.0480390  21.6307970
   5.8325270  71.5097210  21.2471000   9.3112080  87.3632310  34.1348450
  10.2379390  87.1276580  34.1784410   9.2962510  88.1904310  33.6534480
  17.5457140  86.9057880  21.1322700  17.7209330  86.2195620  20.4883620
  16.8478710  87.4304930  20.7399370   6.4975690  70.0277060  33.8990330
   6.2159960  70.5310660  33.1351150   6.8795390  69.2298810  33.5332460
   5.3884790  87.2952720  18.6858010   6.1203610  87.0112000  18.1381900
   5.6478460  87.0566000  19.5757390   4.5499580  83.4117450  18.6904340
   3.9208460  83.8802550  19.2390170   4.6647410  82.5666670  19.1250530
  13.0991150  69.4430640  34.4770800  12.9856600  69.7625250  35.3722320
  13.9160890  69.8443150  34.1808080  15.8789640  86.5902170  33.9589490
  16.6714960  86.0951400  33.7515450  16.1722790  87.2692310  34.5665100
  12.0049300  77.4623110   4.8405540  11.9243350  76.5477720   4.5697250
  11.5913720  77.9590180   4.1345250  10.1367340  79.2402130   6.7214810
   9.3609440  78.7602570   7.0113380  10.7880270  78.5607780   6.5470970
   4.1533170  79.5521940   7.5990570   3.3218050  79.2970650   7.9987080
   4.7614150  79.6232710   8.3348490  14.1574770  83.6462320   5.5013940
  13.6956300  82.8749560   5.8301110  14.9700320  83.6728390   6.0066390
   4.1334430  83.5862030   7.7948590   4.4362470  82.6959770   7.6158810
   4.8778020  84.1432250   7.5670840  10.3838080  85.9320330   5.1217930
   9.7649520  86.3877830   4.5512370  11.2389860  86.0871790   4.7207630
   9.5776330  81.9159320   6.7284970   9.5084610  80.9749260   6.5674100
  10.3396190  82.0060730   7.3007540   1.7683000  72.5213840   9.0541590
   1.5885840  71.6239590   9.3344350   1.3663080  73.0685710   9.7288540
  10.6081500  74.7229700   6.9553900  10.9846320  73.8501580   6.8427570
  10.5101010  75.0588400   6.0644340   4.7386510  73.0955330   2.4171340
   4.8453260  73.9959060   2.7240100   3.8278870  73.0473300   2.1265990
  14.3905620  72.2180140   3.8882240  15.2115240  71.7276710   3.9307720
  14.4239700  72.8077800   4.6414080   2.3869670  75.0174340   7.6623930
   3.0679780  75.2812710   8.2811330   2.0717720  74.1775210   7.9961940
   6.5794240  76.0641700   6.7496520   7.0872460  76.5622670   7.3901540
   7.1107480  75.2876900   6.5735880  18.6805170  74.2346890  10.4525870
  17.9757340  74.6228600   9.9340980  18.9463090  74.9297180  11.0546800
   4.8630340  70.7040260  11.0159940   4.8648780  71.2212650  10.2105840
   4.0334650  70.2270440  10.9929870  11.2501430  80.8159570   2.5149840
  10.6318700  81.2809020   1.9512560  11.7624680  81.5087050   2.9319350
   6.1133190  80.3435440   9.1933440   5.7802570  80.9704360   9.8354510
   6.2899870  80.8697320   8.4135110  14.6267100  74.1580520   6.6609780
  13.9222670  74.4465410   7.2412890  14.9879260  74.9680630   6.3009340
   4.5445670  72.4150220   9.0230390   4.8862480  73.2592270   8.7284260
   3.6061480  72.5633960   9.1395730   5.3252290  82.3116240  11.0082620
   5.9426290  82.9867320  10.7267070   4.4645410  82.7204220  10.9170120
  16.2429880  83.7755650   8.9237260  15.5593400  84.4454760   8.9153930
  16.7824170  83.9736300   8.1582120  17.6954020  73.6035310   7.0518990
  16.7478930  73.6374290   7.1834420  18.0204010  74.4174260   7.4368350
   8.2273560  69.9032490   5.3474980   8.5348540  69.3479380   4.6310480
   7.2974260  70.0376950   5.1647970  13.7788620  85.6199780   7.6382440
  13.7915780  85.2162070   6.7704700  13.2263840  86.3947070   7.5343870
  15.0734040  82.3416000   2.7272610  14.9630370  81.3990330   2.8522030
  15.0702290  82.7031640   3.6135370  13.1774060  80.5229620   8.9665050
  13.5942850  80.3089730   8.1318510  13.9013880  80.7802410   9.5373670
  10.6154320  77.9681320   2.0835100   9.6883600  77.9018700   2.3123570
  10.7679140  78.9061450   1.9690340  17.1236160  78.9216840   9.0581290
  16.2954790  78.9909930   8.5831420  17.7186640  79.5071150   8.5897120
  14.6451610  79.5301620   2.5870350  14.0264030  79.1921170   1.9396650
  14.6276060  78.8861380   3.2949540  14.0878170  75.7086160  10.0036160
  13.6749350  76.5339870  10.2576150  13.3554120  75.1231200   9.8112520
   6.2210960  78.4946060   4.8654830   5.8167960  77.7823310   4.3700730
   6.3074080  78.1499300   5.7542870   6.6892660  82.1813620   7.0294040
   6.3920950  81.5759090   6.3501820   7.6392480  82.2190930   6.9183400
   4.9339580  75.2689270   8.6453870   5.4854170  75.3784610   7.8707120
   5.4483090  75.6426870   9.3609100  14.7778270  85.7545490  10.6917140
  14.3008830  86.5617680  10.4989750  14.0940060  85.1023820  10.8443350
   5.7811090  81.9195310  13.6801840   4.8839620  82.1435280  13.9275240
   5.8063960  82.0430250  12.7313240   4.6082310  78.7908630  12.2559210
   4.4690080  79.6631430  12.6246610   3.7263670  78.4481440  12.1107150
  10.9311690  83.7084500   3.5624340  11.3707600  84.4508830   3.1479730
  10.8698580  83.9511070   4.4863300   6.4062660  84.7330330  14.4644360
   6.3778090  85.1373280  13.5972790   6.2427630  83.8040690  14.3015960
   2.9215590  77.3891040   2.3661480   2.8013190  78.1153130   1.7542750
   2.6116480  76.6193950   1.8889390  18.3577480  85.5157430  15.7608530
  18.8337200  85.9940320  16.4397610  18.9784640  85.4474920  15.0354030
   1.8048590  82.2606370   4.5836300   1.3976670  82.4020960   3.7289900
   2.6961600  81.9766530   4.3807510  17.7610730  82.7070280  12.9208540
  17.8873790  82.4682160  12.0025720  17.8032110  81.8754820  13.3930620
  11.6227470  86.4098280  11.4903350  12.1372140  86.3206290  12.2925780
  10.7796550  86.7557980  11.7831260   6.0770250  86.4752150   2.6958970
   5.9012730  85.5587690   2.4826770   5.2225990  86.8339440   2.9356770
  12.8657930  85.8303890   3.5533840  13.3214880  85.0493270   3.8672460
  13.2050450  86.5410710   4.0975020  17.6134740  74.7602740  13.8858280
  16.9979010  75.2682410  13.3573740  17.2931160  73.8601070  13.8284220
   5.3879250  70.7326110   5.7485150   4.9447400  71.5135650   5.4169670
   5.9464240  71.0556000   6.4556090   9.6749060  73.5994630  11.3520470
   9.2128430  73.8077650  12.1640410   9.2727170  72.7853980  11.0491140
  14.6753570  74.8203580  12.4817130  13.8247160  74.5209330  12.8026200
  14.5155360  75.0645590  11.5700950  11.7703280  76.3205330  14.5815920
  12.0956690  75.4869080  14.2418150  12.5583610  76.8433850  14.7294250
   7.4255150  71.2773440   7.6074750   7.7227480  72.1836270   7.5266770
   7.9740710  70.7892220   6.9934320   5.1793470  75.8559680   3.4766400
   4.9534390  75.6396850   4.3813020   4.3986000  76.2888140   3.1312370
  12.4091230  75.8623050   2.0757050  11.8100120  76.5858850   1.8920670
  12.9570840  75.7999830   1.2933500   7.6192680  76.7545260  14.1426670
   7.5236280  75.8139990  13.9927070   8.4624660  76.9760330  13.7474740
  11.0156100  74.4986590   4.1060330  11.4085670  74.8158790   3.2929020
  11.3772950  73.6198470   4.2204850   2.7503220  73.1658930  12.2960450
   2.3566610  74.0134140  12.5033230   2.0621620  72.5285300  12.4869090
   9.3248270  73.2493900  15.3657190   8.6346590  73.0566100  16.0003280
  10.0680570  73.5328540  15.8981490  11.6011240  77.0892340   8.2011110
  10.8692360  77.5979150   8.5501210  11.2035580  76.2722320   7.8999890
   8.0388630  73.7646540   6.6063600   8.0424690  73.3236490   5.7568140
   8.9339750  74.0863870   6.7135420   3.8891010  73.6473030   5.5657810
   3.5491060  74.1248260   6.3224860   3.1268330  73.1938150   5.2058910
  12.0637150  72.5426020   7.6134050  12.0809890  72.9934670   8.4575900
  11.8152730  71.6431660   7.8267490  15.4907900  69.9558200  13.4520430
  15.8153670  69.2247860  13.9778410  15.5264410  69.6371840  12.5501420
   2.1899460  80.9771780  12.8720390   1.8054250  80.3365450  13.4703350
   2.5011650  81.6807900  13.4415120   8.3396600  77.8248320   8.3529010
   8.7066730  77.3506890   9.0990350   8.1501660  78.6989890   8.6937350
   6.1295970  76.8656960  10.6713220   5.8253040  77.7448940  10.8963580
   7.0842430  76.9256750  10.7070660  15.4165740  80.0683310   7.0606460
  16.1364860  80.5638600   6.6702570  15.2147560  79.3901200   6.4160330
  10.7984540  80.1392370  12.9475460  10.7321850  79.2188040  12.6933050
  10.1689680  80.2367810  13.6620100   4.7015160  80.7398330   4.9058880
   5.2193830  79.9366590   4.8515770   4.2499180  80.6777470   5.7475710
   2.1859700  77.7059700  11.8184580   1.8274640  78.3713550  12.4057920
   1.8914260  76.8743250  12.1897200   5.3872820  78.1643940  14.7024130
   5.0872960  78.3101120  13.8051950   6.1584060  77.6049230  14.6097520
  10.7301270  82.9612940  12.6979260  10.7445810  82.0293900  12.4798170
  10.0226370  83.0472700  13.3369030  16.9412480  79.6020280  12.0447840
  16.2160670  80.1949060  11.8477230  17.4687940  79.5943820  11.2461210
  12.4712070  81.3280450   5.5431690  12.8235890  80.7308580   4.8833060
  11.5874400  81.0024680   5.7139940   8.5575350  82.0878140   2.9502100
   9.2446480  82.6347350   3.3309690   7.7707770  82.6318870   2.9851710
   7.8602560  79.0924170   2.5627460   8.3165340  79.9029420   2.7887650
   7.5090770  78.7747310   3.3945950  10.1635170  84.6030510   9.7919760
  10.8077390  84.8089890  10.4693180  10.5264610  83.8418910   9.3390610
   3.7614340  69.4361820   3.0349980   3.6328970  69.4279720   3.9834900
   2.9376360  69.7744910   2.6840990  11.4367250  82.6062860   8.5097210
  12.0789480  81.9056020   8.6229380  11.9616600  83.3861300   8.3294100
  13.2104870  83.4057760  11.7133270  13.5461110  83.9924450  12.3911190
  12.2905210  83.2750470  11.9431060   9.0393450  83.4549090  14.8821330
   8.7190320  82.7358330  15.4267020   8.3651810  84.1304160  14.9557390
  12.2547050  73.6875250  10.2458130  12.6227870  72.8670460  10.5737700
  11.3945250  73.7477140  10.6613780   7.5893110  74.9218140   2.4703570
   6.8809260  75.3904480   2.9117180   7.8737590  74.2640150   3.1048760
   9.2149040  76.3414840  10.4696100   9.7134290  76.8160660  11.1347950
   9.3571990  75.4178360  10.6766130  11.6208540  71.6468800   3.9099360
  11.4976320  71.6654930   2.9608870  12.5693100  71.6947740   4.0297760
   8.7085330  86.8824100   3.1827340   8.9626830  86.8445490   2.2606710
   7.7597810  86.7557430   3.1755590  16.4215900  72.5582800  11.3124490
  15.9189500  73.2988200  11.6518300  17.2372560  72.9466800  10.9961280
  14.7137910  77.8015980   4.7585850  13.7728050  77.8166210   4.9333540
  15.0281980  77.0151940   5.2046150  16.7163490  84.9724830   6.4340110
  16.8410910  85.7956000   6.9063920  17.5829050  84.7615560   6.0864260
   4.1881020  87.0656040   6.1057240   4.9243500  86.5171500   6.3765810
   4.5721940  87.9312050   5.9663230   3.1939300  86.2502110  15.2942820
   3.9952030  86.5714160  15.7078220   2.6791120  85.8897690  16.0162730
  12.0303930  82.3581980  15.2418230  11.4242090  82.3813580  14.5013980
  11.7258040  81.6265020  15.7785480  13.4604300  86.0862270  13.8527640
  14.4126050  86.0020290  13.8027880  13.3132520  86.7503980  14.5261430
   7.9675050  80.1446560  13.7714390   7.2020720  80.7131560  13.6869060
   8.1491010  79.8522770  12.8782620  15.1098400  81.8751890  14.3289410
  15.8507870  82.2127650  13.8256870  14.3471080  82.0443950  13.7759180
   2.9460190  76.8805160  15.1328940   2.9865530  76.5819030  16.0414170
   3.8005690  77.2812770  14.9736460   4.8866000  75.4597260  13.1003430
   4.3562460  74.9688210  12.4726770   5.5554070  75.8881460  12.5661360
  13.7844060  79.9266720  12.8644620  14.1985080  80.0811800  13.7135040
  12.8495060  80.0521940  13.0270400  14.2566230  77.2662880  14.8683770
  14.8387000  76.5115200  14.7804250  14.4328000  77.7970320  14.0915250
   5.3738300  72.4259630  13.1800720   5.2795170  71.8080380  12.4551590
   4.7935690  73.1525920  12.9530630   8.1399740  70.9832870  10.2128110
   7.6917040  71.0057130   9.3673660   7.5064940  70.5851890  10.8098410
   8.5459290  79.8787200  10.8340550   8.9647400  80.7219930  10.6616790
   7.6267920  80.0159240  10.6047330  10.8823190  77.6103380  12.2178390
  11.0019400  77.0144520  12.9573230  11.7417190  77.6473070  11.7979690
  13.2211090  78.1640570  10.7940900  12.6946310  78.6883190  10.1906040
  13.5642430  78.7967960  11.4250630   6.3966710  86.1840210  11.9498280
   5.8587800  86.9086270  11.6306980   6.6500670  85.7070550  11.1595620
   7.6491960  74.1524730  13.4754210   8.2391650  73.8440580  14.1632030
   6.8312200  73.6804480  13.6314110  12.4685390  73.7690540  13.7087230
  11.7800910  73.1072080  13.6437220  13.1891410  73.3228810  14.1535690
   9.2528920  87.4191420  12.2084930   9.1787620  88.3226560  12.5157300
   8.3507760  87.1003320  12.1807000   5.2518130  83.0775020   3.1720520
   4.9513670  82.9539990   4.0724430   5.1455620  82.2183610   2.7636250
  16.7808600  85.1153600  12.5377490  16.1810590  85.1746160  11.7941410
  16.9102500  84.1758580  12.6674340  18.4826480  80.4569000   5.2223330
  18.8535310  79.6736320   4.8159300  19.1228410  81.1458100   5.0440630
  15.4660240  81.8405580  10.6353650  14.6520080  82.2702740  10.8979440
  15.8734440  82.4523990  10.0222700  17.4251020  77.8322260   2.5283350
  17.0494620  77.0650190   2.0964640  16.6954140  78.2144960   3.0158280
   2.0146780  78.5109400   9.1492400   2.3819820  78.4236800  10.0288420
   1.4457600  77.7475950   9.0499260  16.8150640  76.9793780  12.1622870
  16.5836730  76.7506530  11.2620820  17.0755190  77.8993330  12.1167760
  15.2538710  72.2050210  14.9402570  16.1308890  72.2133610  15.3236570
  15.2659550  71.4681050  14.3294920  16.7001980  76.0579750   5.8290590
  17.2239460  75.5642400   5.1980760  17.2861400  76.1930110   6.5738160
  16.8791700  76.1419620   9.3510140  15.9294410  76.1083160   9.4655130
  17.0604710  77.0519730   9.1159910  16.1901950  75.3153100   1.7683000
  16.6861070  75.0823970   2.5531880  15.9918020  74.4764940   1.3520640
   2.0702490  69.6966820   7.4034040   2.7178680  69.1464200   6.9629200
   2.4904330  69.9509970   8.2249850  17.6189110  73.9514050   4.3020680
  17.5088390  73.7970090   5.2402950  18.3796700  73.4234990   4.0596090
  15.9654830  69.8908180  10.7603680  16.6027050  70.5042320  11.1262870
  16.1129720  69.9268840   9.8152910  15.5236290  86.5924180   4.1621920
  16.1195360  86.2708750   3.4856340  15.7814440  86.1196000   4.9535190
   1.8234490  69.8522490  10.1459360   1.4749310  70.3086310  10.9117540
   1.4922190  68.9579620  10.2281790   3.4298860  83.0242090  14.3112550
   3.3868490  82.6535000  15.1927010   3.5609870  83.9619660  14.4514370
   7.1304890  84.5801680   9.9122270   6.8896250  84.8476240   9.0252790
   8.0707530  84.7507410   9.9673130   9.3359310  71.0434370  13.6678780
   9.2748200  71.6356200  14.4174190  10.2759690  70.9360330  13.5229040
  11.9733870  70.7004430  13.3071070  12.5874280  71.0183720  12.6452150
  12.5183430  70.2153020  13.9266930  18.3909050  86.5996060  10.7132910
  17.8967330  86.9964930   9.9960040  17.7822340  85.9745270  11.1070190
   2.4955130  69.3798690  13.4210130   3.0438120  69.1986740  12.6576240
   2.5610440  68.5892800  13.9566440   3.2686890  85.9704340  11.4310330
   2.6747210  85.8389040  12.1700370   3.2610730  85.1342480  10.9652430
  12.7141910  69.2636570   9.6340360  11.8401750  69.5971680   9.4313290
  12.6052660  68.7909750  10.4592230  13.6213890  71.4707440  11.0182080
  13.2927250  70.6559200  10.6383810  14.5696190  71.4277250  10.8947770
  16.0748500  87.2419480   7.9919650  15.6151470  87.9935290   7.6177670
  15.4460960  86.5225950   7.9334450   2.8999120  83.3362720  10.3818370
   2.1733180  82.7168010  10.3144320   2.9608270  83.7303330   9.5116450
   6.5044220  85.5507720   7.1667780   7.0209240  84.9395080   6.6416040
   7.1541600  86.0536500   7.6578790   9.2439720  86.4416210   7.9936760
   9.5317530  86.1870510   7.1169770   9.7562940  85.8893570   8.5842330
  10.4616730  70.1806410   8.5733270   9.6788520  70.6551910   8.8530030
  10.1679660  69.2761240   8.4646450  15.0137800  70.8829510   6.6182360
  15.4545890  70.8274610   5.7703960  14.7445390  71.7987520   6.6892540
  16.8776370  70.5144750   4.6291180  16.8164770  69.5705970   4.4822200
  17.6568400  70.6224840   5.1744640   8.3470950  72.5993160   4.0849300
   7.5345460  72.2250050   3.7445180   8.8512590  71.8438240   4.3870490
  12.8495930  69.2635610   5.3232370  13.4525300  69.8355820   5.7980890
  12.1088920  69.8275050   5.1006270   6.3720130  70.7493080   2.6894350
   5.7422870  70.0480390   2.8564480   5.8325270  71.5097210   2.4727510
   9.3112080  87.3632310  15.3604960  10.2379390  87.1276580  15.4040920
   9.2962510  88.1904310  14.8790990  17.5457140  86.9057880   2.3579210
  17.7209330  86.2195620   1.7140130  16.8478710  87.4304930   1.9655880
   6.4975690  70.0277060  15.1246840   6.2159960  70.5310660  14.3607660
   6.8795390  69.2298810  14.7588970  13.0991150  69.4430640  15.7027310
  12.9856600  69.7625250  16.5978830  13.9160890  69.8443150  15.4064590
  15.8789640  86.5902170  15.1846000  16.6714960  86.0951400  14.9771960
  16.1722790  87.2692310  15.7921610  12.0049300  58.6879620  79.9379500
  11.9243350  57.7734230  79.6671210  11.5913720  59.1846690  79.2319210
  10.1367340  60.4658640  81.8188770   9.3609440  59.9859080  82.1087340
  10.7880270  59.7864290  81.6444930   4.1533170  60.7778450  82.6964530
   3.3218050  60.5227160  83.0961040   4.7614150  60.8489220  83.4322450
  14.1574770  64.8718830  80.5987900  13.6956300  64.1006070  80.9275070
  14.9700320  64.8984900  81.1040350   4.1334430  64.8118540  82.8922550
   4.4362470  63.9216280  82.7132770   4.8778020  65.3688760  82.6644800
   2.5625120  55.7380340  76.4806920   1.6741820  56.0796310  76.3786800
   2.8466310  55.5380660  75.5887750  10.3838080  67.1576840  80.2191890
   9.7649520  67.6134340  79.6486330  11.2389860  67.3128300  79.8181590
   9.5776330  63.1415830  81.8258930   9.5084610  62.2005770  81.6648060
  10.3396190  63.2317240  82.3981500   1.7683000  53.7470350  84.1515550
   1.5885840  52.8496100  84.4318310   1.3663080  54.2942220  84.8262500
  10.6081500  55.9486210  82.0527860  10.9846320  55.0758090  81.9401530
  10.5101010  56.2844910  81.1618300   4.7386510  54.3211840  77.5145300
   4.8453260  55.2215570  77.8214060   3.8278870  54.2729810  77.2239950
  14.3905620  53.4436650  78.9856200  15.2115240  52.9533220  79.0281680
  14.4239700  54.0334310  79.7388040   2.3869670  56.2430850  82.7597890
   3.0679780  56.5069220  83.3785290   2.0717720  55.4031720  83.0935900
   6.5794240  57.2898210  81.8470480   7.0872460  57.7879180  82.4875500
   7.1107480  56.5133410  81.6709840  18.6805170  55.4603400  85.5499830
  17.9757340  55.8485110  85.0314940  18.9463090  56.1553690  86.1520760
   4.8630340  51.9296770  86.1133900   4.8648780  52.4469160  85.3079800
   4.0334650  51.4526950  86.0903830  11.2501430  62.0416080  77.6123800
  10.6318700  62.5065530  77.0486520  11.7624680  62.7343560  78.0293310
   6.1133190  61.5691950  84.2907400   5.7802570  62.1960870  84.9328470
   6.2899870  62.0953830  83.5109070  14.6267100  55.3837030  81.7583740
  13.9222670  55.6721920  82.3386850  14.9879260  56.1937140  81.3983300
   4.5445670  53.6406730  84.1204350   4.8862480  54.4848780  83.8258220
   3.6061480  53.7890470  84.2369690   5.3252290  63.5372750  86.1056580
   5.9426290  64.2123830  85.8241030   4.4645410  63.9460730  86.0144080
  16.2429880  65.0012160  84.0211220  15.5593400  65.6711270  84.0127890
  16.7824170  65.1992810  83.2556080  17.6954020  54.8291820  82.1492950
  16.7478930  54.8630800  82.2808380  18.0204010  55.6430770  82.5342310
   8.2273560  51.1289000  80.4448940   8.5348540  50.5735890  79.7284440
   7.2974260  51.2633460  80.2621930  13.7788620  66.8456290  82.7356400
  13.7915780  66.4418580  81.8678660  13.2263840  67.6203580  82.6317830
  15.0734040  63.5672510  77.8246570  14.9630370  62.6246840  77.9495990
  15.0702290  63.9288150  78.7109330  13.1774060  61.7486130  84.0639010
  13.5942850  61.5346240  83.2292470  13.9013880  62.0058920  84.6347630
  10.6154320  59.1937830  77.1809060   9.6883600  59.1275210  77.4097530
  10.7679140  60.1317960  77.0664300  10.6023400  55.4654830  74.1776220
   9.6627070  55.6268790  74.2628680  10.9206660  56.1840510  73.6312210
  17.1236160  60.1473350  84.1555250  16.2954790  60.2166440  83.6805380
  17.7186640  60.7327660  83.6871080  14.6451610  60.7558130  77.6844310
  14.0264030  60.4177680  77.0370610  14.6276060  60.1117890  78.3923500
  14.0878170  56.9342670  85.1010120  13.6749350  57.7596380  85.3550110
  13.3554120  56.3487710  84.9086480   6.2210960  59.7202570  79.9628790
   5.8167960  59.0079820  79.4674690   6.3074080  59.3755810  80.8516830
   6.6892660  63.4070130  82.1268000   6.3920950  62.8015600  81.4475780
   7.6392480  63.4447440  82.0157360   4.9339580  56.4945780  83.7427830
   5.4854170  56.6041120  82.9681080   5.4483090  56.8683380  84.4583060
  14.7778270  66.9802000  85.7891100  14.3008830  67.7874190  85.5963710
  14.0940060  66.3280330  85.9417310  12.8216310  59.9944940  74.6917060
  13.2609590  59.1567370  74.5454880  13.5344730  60.6274340  74.7781200
  10.9311690  64.9341010  78.6598300  11.3707600  65.6765340  78.2453690
  10.8698580  65.1767580  79.5837260  16.4033450  51.2487750  73.0058100
  16.0906110  51.3414580  73.9057170  17.1645920  51.8268780  72.9555530
   2.9215590  58.6147550  77.4635440   2.8013190  59.3409640  76.8516710
   2.6116480  57.8450460  76.9863350   1.8048590  63.4862880  79.6810260
   1.3976670  63.6277470  78.8263860   2.6961600  63.2023040  79.4781470
  13.5981870  67.9210130  76.0161310  13.4383010  67.6313070  76.9143140
  13.4328580  67.1450260  75.4806540   6.0770250  67.7008660  77.7932930
   5.9012730  66.7844200  77.5800730   5.2225990  68.0595950  78.0330730
  13.3008000  65.4297690  74.5759310  12.6073160  65.4274980  73.9161590
  14.0430860  65.0057010  74.1453480  12.8657930  67.0560400  78.6507800
  13.3214880  66.2749780  78.9646420  13.2050450  67.7667220  79.1948980
   5.3879250  51.9582620  80.8459110   4.9447400  52.7392160  80.5143630
   5.9464240  52.2812510  81.5530050   8.5038070  51.5793320  75.7264940
   7.8792250  51.5753190  76.4518250   8.4168190  50.7124280  75.3300910
   7.4255150  52.5029950  82.7048710   7.7227480  53.4092780  82.6240730
   7.9740710  52.0148730  82.0908280   5.1793470  57.0816190  78.5740360
   4.9534390  56.8653360  79.4786980   4.3986000  57.5144650  78.2286330
  12.4091230  57.0879560  77.1731010  11.8100120  57.8115360  76.9894630
  12.9570840  57.0256340  76.3907460  11.0156100  55.7243100  79.2034290
  11.4085670  56.0415300  78.3902980  11.3772950  54.8454980  79.3178810
  11.6011240  58.3148850  83.2985070  10.8692360  58.8235660  83.6475170
  11.2035580  57.4978830  82.9973850   8.0388630  54.9903050  81.7037560
   8.0424690  54.5493000  80.8542100   8.9339750  55.3120380  81.8109380
   3.8891010  54.8729540  80.6631770   3.5491060  55.3504770  81.4198820
   3.1268330  54.4194660  80.3032870   8.1008780  55.9915130  74.6944320
   8.2221600  55.9501610  75.6430140   7.7157290  56.8539280  74.5391050
  12.0637150  53.7682530  82.7108010  12.0809890  54.2191180  83.5549860
  11.8152730  52.8688170  82.9241450   7.1130280  58.3016270  74.0927620
   6.5447180  57.8534520  73.4663530   7.8219280  58.6609050  73.5592770
   8.3396600  59.0504830  83.4502970   8.7066730  58.5763400  84.1964310
   8.1501660  59.9246400  83.7911310   6.1295970  58.0913470  85.7687180
   5.8253040  58.9705450  85.9937540   7.0842430  58.1513260  85.8044620
   4.6577760  62.2974460  76.3654030   3.8840020  61.7572080  76.2052750
   5.3872390  61.7781070  76.0271790  15.4165740  61.2939820  82.1580420
  16.1364860  61.7895110  81.7676530  15.2147560  60.6157710  81.5134290
  10.8775680  52.6877780  76.3009810  10.0640290  52.1890950  76.2255120
  10.6837630  53.5276030  75.8846160  13.5924070  57.0597430  74.5971970
  14.4803690  57.3714660  74.4223310  13.5629160  56.1869680  74.2052550
   4.7015160  61.9654840  80.0032840   5.2193830  61.1623100  79.9489730
   4.2499180  61.9033980  80.8449670   9.5884660  63.2321120  75.2760140
   9.9300360  63.9763350  74.7803460   8.7597370  63.5452240  75.6384970
  15.8638340  58.3709270  74.0651830  15.7802060  58.8023490  73.2148270
  16.5832530  58.8307620  74.4978650  16.8925590  65.2251530  76.7933960
  16.2501750  64.5707150  77.0677680  16.5056250  65.6306620  76.0174630
  12.4712070  62.5536960  80.6405650  12.8235890  61.9565090  79.9807020
  11.5874400  62.2281190  80.8113900   8.5575350  63.3134650  78.0476060
   9.2446480  63.8603860  78.4283650   7.7707770  63.8575380  78.0825670
   7.8602560  60.3180680  77.6601420   8.3165340  61.1285930  77.8861610
   7.5090770  60.0003820  78.4919910  10.1635170  65.8287020  84.8893720
  10.8077390  66.0346400  85.5667140  10.5264610  65.0675420  84.4364570
   3.7614340  50.6618330  78.1323940   3.6328970  50.6536230  79.0808860
   2.9376360  51.0001420  77.7814950  11.4367250  63.8319370  83.6071170
  12.0789480  63.1312530  83.7203340  11.9616600  64.6117810  83.4268060
  15.2822970  64.1167990  73.3310310  15.0560550  63.3998430  73.9234950
  14.8919170  63.8680430  72.4932060  14.8639220  62.0339930  74.9924470
  14.5760920  62.4952620  75.7802350  15.6591390  61.5737700  75.2608690
   7.0807620  65.5266050  74.9228440   7.0717720  66.2595740  74.3072950
   6.1605980  65.2797630  75.0155400   2.6814260  60.7480940  75.6675200
   2.0742210  61.4879840  75.6770500   3.1563610  60.8380300  74.8413400
  12.2547050  54.9131760  85.3432090  12.6227870  54.0926970  85.6711660
  11.3945250  54.9733650  85.7587740  15.6209080  53.8688700  76.1519650
  14.9922240  53.9734370  75.4377880  15.1261000  54.0885480  76.9413530
  10.0667220  65.5894290  73.5853630  10.1679200  65.3858280  72.6555610
   9.1668960  65.3352570  73.7901410   7.5893110  56.1474650  77.5677530
   6.8809260  56.6160990  78.0091140   7.8737590  55.4896660  78.2022720
   9.2149040  57.5671350  85.5670060   9.7134290  58.0417170  86.2321910
   9.3571990  56.6434870  85.7740090  11.6208540  52.8725310  79.0073320
  11.4976320  52.8911440  78.0582830  12.5693100  52.9204250  79.1271720
   8.7085330  68.1080610  78.2801300   8.9626830  68.0702000  77.3580670
   7.7597810  67.9813940  78.2729550   5.7928130  54.4559730  74.9428240
   6.6418660  54.8929880  74.8768430   5.4259400  54.7679990  75.7700300
  16.4215900  53.7839310  86.4098450  15.9189500  54.5244710  86.7492260
  17.2372560  54.1723310  86.0935240  14.7137910  59.0272490  79.8559810
  13.7728050  59.0422720  80.0307500  15.0281980  58.2408450  80.3020110
   4.6919550  60.7092090  73.4163770   5.4582820  60.5973450  73.9789200
   4.7694240  60.0130060  72.7640540   3.3866310  58.1417160  74.0996660
   3.4669900  57.1944670  74.2114060   4.2786060  58.4724040  74.2057320
  16.7163490  66.1981340  81.5314070  16.8410910  67.0212510  82.0037880
  17.5829050  65.9872070  81.1838220   4.1881020  68.2912550  81.2031200
   4.9243500  67.7428010  81.4739770   4.5721940  69.1568560  81.0637190
   7.2983330  67.4642860  73.0256770   8.0911940  67.7531690  72.5738560
   6.7787680  67.0335030  72.3469250  16.3513500  66.6912990  74.4493510
  16.0655010  66.2778130  73.6347690  16.1533050  67.6200700  74.3294030
   7.8160730  62.6846270  72.8899120   7.7111370  62.0698620  73.6160500
   7.6484950  62.1612160  72.1062130  11.0563460  61.7466300  73.4941110
  10.5073560  62.1935600  74.1383850  11.6782720  61.2415550  74.0178780
   6.7238580  60.7057220  75.3906410   7.1455000  60.5397090  76.2337800
   6.8489420  59.8957450  74.8961550   9.2366220  59.7294830  72.6383510
   9.7571880  59.0143850  72.2724660   9.8834620  60.3680700  72.9384020
   8.1399740  52.2089380  85.3102070   7.6917040  52.2313640  84.4647620
   7.5064940  51.8108400  85.9072370   8.5459290  61.1043710  85.9314510
   8.9647400  61.9476440  85.7590750   7.6267920  61.2415750  85.7021290
  13.2211090  59.3897080  85.8914860  12.6946310  59.9139700  85.2880000
  13.5642430  60.0224470  86.5224590   5.6197480  56.7790450  72.3364570
   5.4186540  55.9157810  72.6977910   5.4489530  56.6923810  71.3986170
  13.0985790  51.5898680  74.8651450  13.3788080  50.7466580  75.2210870
  12.3251520  51.8221790  75.3790200   4.4180280  53.8791070  72.3242450
   4.7206180  53.8858500  71.4161600   5.1574870  53.5288930  72.8210110
   7.6365210  52.8225690  73.3098650   7.2887210  52.1449680  72.7301100
   7.8377980  52.3615200  74.1242040   9.8014250  67.8106440  74.9285250
  10.6965040  68.1491410  74.9504010   9.8331880  67.0885850  74.3009530
   3.4410410  63.1833490  73.1572250   3.8785280  63.7263160  73.8129830
   3.9258140  62.3580440  73.1668590   5.2518130  64.3031530  78.2694480
   4.9513670  64.1796500  79.1698390   5.1455620  63.4440120  77.8610210
  18.0210050  64.0827930  72.9721160  17.1903010  64.1504580  73.4428390
  18.1981880  64.9732050  72.6688020  17.4766510  60.8275410  75.4755360
  18.2385420  61.3972060  75.5815050  17.4920880  60.2602610  76.2463670
  18.4826480  61.6825510  80.3197290  18.8535310  60.8992830  79.9133260
  19.1228410  62.3714610  80.1414590  15.4660240  63.0662090  85.7327610
  14.6520080  63.4959250  85.9953400  15.8734440  63.6780500  85.1196660
  17.5285680  61.1209780  72.6327880  17.8034520  62.0288660  72.5047100
  17.3396420  61.0572310  73.5689870  13.9261290  54.1454630  73.9281510
  14.3446170  53.9585610  73.0878170  13.6197350  53.2933680  74.2384440
  17.4251020  59.0578770  77.6257310  17.0494620  58.2906700  77.1938600
  16.6954140  59.4401470  78.1132240   2.0146780  59.7365910  84.2466360
   2.3819820  59.6493310  85.1262380   1.4457600  58.9732460  84.1473220
  16.7001980  57.2836260  80.9264550  17.2239460  56.7898910  80.2954720
  17.2861400  57.4186620  81.6712120  16.8791700  57.3676130  84.4484100
  15.9294410  57.3339670  84.5629090  17.0604710  58.2776240  84.2133870
   2.7336140  55.6177810  73.5582730   3.4427840  55.1961030  73.0730010
   2.0176080  55.6853040  72.9266080   2.3810300  51.6717140  72.5985380
   3.1038430  52.2126080  72.9166600   2.6534820  51.3980560  71.7226920
  16.1901950  56.5409610  76.8656960  16.6861070  56.3080480  77.6505840
  15.9918020  55.7021450  76.4494600   2.0702490  50.9223330  82.5008000
   2.7178680  50.3720710  82.0603160   2.4904330  51.1766480  83.3223810
  17.6189110  55.1770560  79.3994640  17.5088390  55.0226600  80.3376910
  18.3796700  54.6491500  79.1570050  15.9654830  51.1164690  85.8577640
  16.6027050  51.7298830  86.2236830  16.1129720  51.1525350  84.9126870
  18.5079380  53.0078480  72.6400780  19.4328690  52.8759660  72.4319070
  18.4855170  53.0871300  73.5937230  18.5817870  53.7789140  75.2657490
  17.7869370  53.7134260  75.7950400  18.7861150  54.7139780  75.2542840
  15.5236290  67.8180690  79.2595880  16.1195360  67.4965260  78.5830300
  15.7814440  67.3452510  80.0509150   1.8234490  51.0779000  85.2433320
   1.4749310  51.5342820  86.0091500   1.4922190  50.1836130  85.3255750
   7.1304890  65.8058190  85.0096230   6.8896250  66.0732750  84.1226750
   8.0707530  65.9763920  85.0647090  18.3909050  67.8252570  85.8106870
  17.8967330  68.2221440  85.0934000  17.7822340  67.2001780  86.2044150
  12.7141910  50.4893080  84.7314320  11.8401750  50.8228190  84.5287250
  12.6052660  50.0166260  85.5566190  13.6213890  52.6963950  86.1156040
  13.2927250  51.8815710  85.7357770  14.5696190  52.6533760  85.9921730
  16.0748500  68.4675990  83.0893610  15.6151470  69.2191800  82.7151630
  15.4460960  67.7482460  83.0308410   2.8999120  64.5619230  85.4792330
   2.1733180  63.9424520  85.4118280   2.9608270  64.9559840  84.6090410
   6.5044220  66.7764230  82.2641740   7.0209240  66.1651590  81.7390000
   7.1541600  67.2793010  82.7552750   9.2439720  67.6672720  83.0910720
   9.5317530  67.4127020  82.2143730   9.7562940  67.1150080  83.6816290
  10.4616730  51.4062920  83.6707230   9.6788520  51.8808420  83.9503990
  10.1679660  50.5017750  83.5620410  15.0137800  52.1086020  81.7156320
  15.4545890  52.0531120  80.8677920  14.7445390  53.0244030  81.7866500
  16.8776370  51.7401260  79.7265140  16.8164770  50.7962480  79.5796160
  17.6568400  51.8481350  80.2718600   1.8057140  51.7110400  76.1920950
   2.5636500  51.8239280  75.6184980   1.3434310  52.5479600  76.1464380
   8.3470950  53.8249670  79.1823260   7.5345460  53.4506560  78.8419140
   8.8512590  53.0694750  79.4844450  12.8495930  50.4892120  80.4206330
  13.4525300  51.0612330  80.8954850  12.1088920  51.0531560  80.1980230
  15.9930530  50.8913680  75.6946610  16.1881160  51.7897130  75.9614040
  15.2060400  50.6600760  76.1879560   2.7891820  66.5726850  76.1339230
   2.2639440  66.9534880  75.4301190   2.7136400  67.1977620  76.8548940
   4.1782290  52.2374450  74.7322920   4.7075050  51.4504250  74.6030870
   4.8110610  52.9165640  74.9658450   6.3720130  51.9749590  77.7868310
   5.7422870  51.2736900  77.9538440   5.8325270  52.7353720  77.5701470
  17.5457140  68.1314390  77.4553170  17.7209330  67.4452130  76.8114090
  16.8478710  68.6561440  77.0629840   5.3884790  68.5209230  75.0088480
   6.1203610  68.2368510  74.4612370   5.6478460  68.2822510  75.8987860
   4.5499580  64.6373960  75.0134810   3.9208460  65.1059060  75.5620640
   4.6647410  63.7923180  75.4481000  12.0049300  58.6879620  61.1636010
  11.9243350  57.7734230  60.8927720  11.5913720  59.1846690  60.4575720
  10.1367340  60.4658640  63.0445280   9.3609440  59.9859080  63.3343850
  10.7880270  59.7864290  62.8701440   4.1533170  60.7778450  63.9221040
   3.3218050  60.5227160  64.3217550   4.7614150  60.8489220  64.6578960
  14.1574770  64.8718830  61.8244410  13.6956300  64.1006070  62.1531580
  14.9700320  64.8984900  62.3296860   4.1334430  64.8118540  64.1179060
   4.4362470  63.9216280  63.9389280   4.8778020  65.3688760  63.8901310
   2.5625120  55.7380340  57.7063430   1.6741820  56.0796310  57.6043310
   2.8466310  55.5380660  56.8144260  10.3838080  67.1576840  61.4448400
   9.7649520  67.6134340  60.8742840  11.2389860  67.3128300  61.0438100
   9.5776330  63.1415830  63.0515440   9.5084610  62.2005770  62.8904570
  10.3396190  63.2317240  63.6238010   1.7683000  53.7470350  65.3772060
   1.5885840  52.8496100  65.6574820   1.3663080  54.2942220  66.0519010
  10.6081500  55.9486210  63.2784370  10.9846320  55.0758090  63.1658040
  10.5101010  56.2844910  62.3874810   4.7386510  54.3211840  58.7401810
   4.8453260  55.2215570  59.0470570   3.8278870  54.2729810  58.4496460
  14.3905620  53.4436650  60.2112710  15.2115240  52.9533220  60.2538190
  14.4239700  54.0334310  60.9644550   2.3869670  56.2430850  63.9854400
   3.0679780  56.5069220  64.6041800   2.0717720  55.4031720  64.3192410
   6.5794240  57.2898210  63.0726990   7.0872460  57.7879180  63.7132010
   7.1107480  56.5133410  62.8966350  18.6805170  55.4603400  66.7756340
  17.9757340  55.8485110  66.2571450  18.9463090  56.1553690  67.3777270
   4.8630340  51.9296770  67.3390410   4.8648780  52.4469160  66.5336310
   4.0334650  51.4526950  67.3160340  11.2501430  62.0416080  58.8380310
  10.6318700  62.5065530  58.2743030  11.7624680  62.7343560  59.2549820
   6.1133190  61.5691950  65.5163910   5.7802570  62.1960870  66.1584980
   6.2899870  62.0953830  64.7365580  14.6267100  55.3837030  62.9840250
  13.9222670  55.6721920  63.5643360  14.9879260  56.1937140  62.6239810
   4.5445670  53.6406730  65.3460860   4.8862480  54.4848780  65.0514730
   3.6061480  53.7890470  65.4626200   5.3252290  63.5372750  67.3313090
   5.9426290  64.2123830  67.0497540   4.4645410  63.9460730  67.2400590
  16.2429880  65.0012160  65.2467730  15.5593400  65.6711270  65.2384400
  16.7824170  65.1992810  64.4812590  17.6954020  54.8291820  63.3749460
  16.7478930  54.8630800  63.5064890  18.0204010  55.6430770  63.7598820
   8.2273560  51.1289000  61.6705450   8.5348540  50.5735890  60.9540950
   7.2974260  51.2633460  61.4878440  13.7788620  66.8456290  63.9612910
  13.7915780  66.4418580  63.0935170  13.2263840  67.6203580  63.8574340
  15.0734040  63.5672510  59.0503080  14.9630370  62.6246840  59.1752500
  15.0702290  63.9288150  59.9365840  13.1774060  61.7486130  65.2895520
  13.5942850  61.5346240  64.4548980  13.9013880  62.0058920  65.8604140
  10.6154320  59.1937830  58.4065570   9.6883600  59.1275210  58.6354040
  10.7679140  60.1317960  58.2920810  10.6023400  55.4654830  55.4032730
   9.6627070  55.6268790  55.4885190  10.9206660  56.1840510  54.8568720
  17.1236160  60.1473350  65.3811760  16.2954790  60.2166440  64.9061890
  17.7186640  60.7327660  64.9127590  14.6451610  60.7558130  58.9100820
  14.0264030  60.4177680  58.2627120  14.6276060  60.1117890  59.6180010
  14.0878170  56.9342670  66.3266630  13.6749350  57.7596380  66.5806620
  13.3554120  56.3487710  66.1342990   6.2210960  59.7202570  61.1885300
   5.8167960  59.0079820  60.6931200   6.3074080  59.3755810  62.0773340
   6.6892660  63.4070130  63.3524510   6.3920950  62.8015600  62.6732290
   7.6392480  63.4447440  63.2413870   4.9339580  56.4945780  64.9684340
   5.4854170  56.6041120  64.1937590   5.4483090  56.8683380  65.6839570
  14.7778270  66.9802000  67.0147610  14.3008830  67.7874190  66.8220220
  14.0940060  66.3280330  67.1673820   5.7811090  63.1451820  70.0032310
   4.8839620  63.3691790  70.2505710   5.8063960  63.2686760  69.0543710
  12.8216310  59.9944940  55.9173570  13.2609590  59.1567370  55.7711390
  13.5344730  60.6274340  56.0037710   4.6082310  60.0165140  68.5789680
   4.4690080  60.8887940  68.9477080   3.7263670  59.6737950  68.4337620
  10.9311690  64.9341010  59.8854810  11.3707600  65.6765340  59.4710200
  10.8698580  65.1767580  60.8093770   6.4062660  65.9586840  70.7874830
   6.3778090  66.3629790  69.9203260   6.2427630  65.0297200  70.6246430
  16.4033450  51.2487750  54.2314610  16.0906110  51.3414580  55.1313680
  17.1645920  51.8268780  54.1812040   2.9215590  58.6147550  58.6891950
   2.8013190  59.3409640  58.0773220   2.6116480  57.8450460  58.2119860
  18.3577480  66.7413940  72.0839000  18.8337200  67.2196830  72.7628080
  18.9784640  66.6731430  71.3584500   1.8048590  63.4862880  60.9066770
   1.3976670  63.6277470  60.0520370   2.6961600  63.2023040  60.7037980
  17.7610730  63.9326790  69.2439010  17.8873790  63.6938670  68.3256190
  17.8032110  63.1011330  69.7161090  11.6227470  67.6354790  67.8133820
  12.1372140  67.5462800  68.6156250  10.7796550  67.9814490  68.1061730
  13.5981870  67.9210130  57.2417820  13.4383010  67.6313070  58.1399650
  13.4328580  67.1450260  56.7063050   6.0770250  67.7008660  59.0189440
   5.9012730  66.7844200  58.8057240   5.2225990  68.0595950  59.2587240
  13.3008000  65.4297690  55.8015820  12.6073160  65.4274980  55.1418100
  14.0430860  65.0057010  55.3709990  12.8657930  67.0560400  59.8764310
  13.3214880  66.2749780  60.1902930  13.2050450  67.7667220  60.4205490
  17.6134740  55.9859250  70.2088750  16.9979010  56.4938920  69.6804210
  17.2931160  55.0857580  70.1514690   5.3879250  51.9582620  62.0715620
   4.9447400  52.7392160  61.7400140   5.9464240  52.2812510  62.7786560
   9.6749060  54.8251140  67.6750940   9.2128430  55.0334160  68.4870880
   9.2727170  54.0110490  67.3721610  14.6753570  56.0460090  68.8047600
  13.8247160  55.7465840  69.1256670  14.5155360  56.2902100  67.8931420
  11.7703280  57.5461840  70.9046390  12.0956690  56.7125590  70.5648620
  12.5583610  58.0690360  71.0524720   8.5038070  51.5793320  56.9521450
   7.8792250  51.5753190  57.6774760   8.4168190  50.7124280  56.5557420
   7.4255150  52.5029950  63.9305220   7.7227480  53.4092780  63.8497240
   7.9740710  52.0148730  63.3164790   5.1793470  57.0816190  59.7996870
   4.9534390  56.8653360  60.7043490   4.3986000  57.5144650  59.4542840
  12.4091230  57.0879560  58.3987520  11.8100120  57.8115360  58.2151140
  12.9570840  57.0256340  57.6163970   7.6192680  57.9801770  70.4657140
   7.5236280  57.0396500  70.3157540   8.4624660  58.2016840  70.0705210
  11.0156100  55.7243100  60.4290800  11.4085670  56.0415300  59.6159490
  11.3772950  54.8454980  60.5435320   2.7503220  54.3915440  68.6190920
   2.3566610  55.2390650  68.8263700   2.0621620  53.7541810  68.8099560
   9.3248270  54.4750410  71.6887660   8.6346590  54.2822610  72.3233750
  10.0680570  54.7585050  72.2211960  11.6011240  58.3148850  64.5241580
  10.8692360  58.8235660  64.8731680  11.2035580  57.4978830  64.2230360
   8.0388630  54.9903050  62.9294070   8.0424690  54.5493000  62.0798610
   8.9339750  55.3120380  63.0365890   3.8891010  54.8729540  61.8888280
   3.5491060  55.3504770  62.6455330   3.1268330  54.4194660  61.5289380
   8.1008780  55.9915130  55.9200830   8.2221600  55.9501610  56.8686650
   7.7157290  56.8539280  55.7647560  12.0637150  53.7682530  63.9364520
  12.0809890  54.2191180  64.7806370  11.8152730  52.8688170  64.1497960
   7.1130280  58.3016270  55.3184130   6.5447180  57.8534520  54.6920040
   7.8219280  58.6609050  54.7849280  15.4907900  51.1814710  69.7750900
  15.8153670  50.4504370  70.3008880  15.5264410  50.8628350  68.8731890
   2.1899460  62.2028290  69.1950860   1.8054250  61.5621960  69.7933820
   2.5011650  62.9064410  69.7645590   8.3396600  59.0504830  64.6759480
   8.7066730  58.5763400  65.4220820   8.1501660  59.9246400  65.0167820
   6.1295970  58.0913470  66.9943690   5.8253040  58.9705450  67.2194050
   7.0842430  58.1513260  67.0301130   4.6577760  62.2974460  57.5910540
   3.8840020  61.7572080  57.4309260   5.3872390  61.7781070  57.2528300
  15.4165740  61.2939820  63.3836930  16.1364860  61.7895110  62.9933040
  15.2147560  60.6157710  62.7390800  10.8775680  52.6877780  57.5266320
  10.0640290  52.1890950  57.4511630  10.6837630  53.5276030  57.1102670
  10.7984540  61.3648880  69.2705930  10.7321850  60.4444550  69.0163520
  10.1689680  61.4624320  69.9850570  13.5924070  57.0597430  55.8228480
  14.4803690  57.3714660  55.6479820  13.5629160  56.1869680  55.4309060
   4.7015160  61.9654840  61.2289350   5.2193830  61.1623100  61.1746240
   4.2499180  61.9033980  62.0706180   9.5884660  63.2321120  56.5016650
   9.9300360  63.9763350  56.0059970   8.7597370  63.5452240  56.8641480
   2.1859700  58.9316210  68.1415050   1.8274640  59.5970060  68.7288390
   1.8914260  58.0999760  68.5127670   5.3872820  59.3900450  71.0254600
   5.0872960  59.5357630  70.1282420   6.1584060  58.8305740  70.9327990
  10.7301270  64.1869450  69.0209730  10.7445810  63.2550410  68.8028640
  10.0226370  64.2729210  69.6599500  15.8638340  58.3709270  55.2908340
  15.7802060  58.8023490  54.4404780  16.5832530  58.8307620  55.7235160
  16.9412480  60.8276790  68.3678310  16.2160670  61.4205570  68.1707700
  17.4687940  60.8200330  67.5691680  16.8925590  65.2251530  58.0190470
  16.2501750  64.5707150  58.2934190  16.5056250  65.6306620  57.2431140
  12.4712070  62.5536960  61.8662160  12.8235890  61.9565090  61.2063530
  11.5874400  62.2281190  62.0370410   8.5575350  63.3134650  59.2732570
   9.2446480  63.8603860  59.6540160   7.7707770  63.8575380  59.3082180
   7.8602560  60.3180680  58.8857930   8.3165340  61.1285930  59.1118120
   7.5090770  60.0003820  59.7176420  10.1635170  65.8287020  66.1150230
  10.8077390  66.0346400  66.7923650  10.5264610  65.0675420  65.6621080
   3.7614340  50.6618330  59.3580450   3.6328970  50.6536230  60.3065370
   2.9376360  51.0001420  59.0071460  11.4367250  63.8319370  64.8327680
  12.0789480  63.1312530  64.9459850  11.9616600  64.6117810  64.6524570
  15.2822970  64.1167990  54.5566820  15.0560550  63.3998430  55.1491460
  14.8919170  63.8680430  53.7188570  13.2104870  64.6314270  68.0363740
  13.5461110  65.2180960  68.7141660  12.2905210  64.5006980  68.2661530
  14.8639220  62.0339930  56.2180980  14.5760920  62.4952620  57.0058860
  15.6591390  61.5737700  56.4865200   9.0393450  64.6805600  71.2051800
   8.7190320  63.9614840  71.7497490   8.3651810  65.3560670  71.2787860
   7.0807620  65.5266050  56.1484950   7.0717720  66.2595740  55.5329460
   6.1605980  65.2797630  56.2411910   2.6814260  60.7480940  56.8931710
   2.0742210  61.4879840  56.9027010   3.1563610  60.8380300  56.0669910
  12.2547050  54.9131760  66.5688600  12.6227870  54.0926970  66.8968170
  11.3945250  54.9733650  66.9844250  15.6209080  53.8688700  57.3776160
  14.9922240  53.9734370  56.6634390  15.1261000  54.0885480  58.1670040
  10.0667220  65.5894290  54.8110140  10.1679200  65.3858280  53.8812120
   9.1668960  65.3352570  55.0157920   7.5893110  56.1474650  58.7934040
   6.8809260  56.6160990  59.2347650   7.8737590  55.4896660  59.4279230
   9.2149040  57.5671350  66.7926570   9.7134290  58.0417170  67.4578420
   9.3571990  56.6434870  66.9996600  11.6208540  52.8725310  60.2329830
  11.4976320  52.8911440  59.2839340  12.5693100  52.9204250  60.3528230
   8.7085330  68.1080610  59.5057810   8.9626830  68.0702000  58.5837180
   7.7597810  67.9813940  59.4986060   5.7928130  54.4559730  56.1684750
   6.6418660  54.8929880  56.1024940   5.4259400  54.7679990  56.9956810
  16.4215900  53.7839310  67.6354960  15.9189500  54.5244710  67.9748770
  17.2372560  54.1723310  67.3191750  14.7137910  59.0272490  61.0816320
  13.7728050  59.0422720  61.2564010  15.0281980  58.2408450  61.5276620
   4.6919550  60.7092090  54.6420280   5.4582820  60.5973450  55.2045710
   4.7694240  60.0130060  53.9897050   3.3866310  58.1417160  55.3253170
   3.4669900  57.1944670  55.4370570   4.2786060  58.4724040  55.4313830
  16.7163490  66.1981340  62.7570580  16.8410910  67.0212510  63.2294390
  17.5829050  65.9872070  62.4094730   4.1881020  68.2912550  62.4287710
   4.9243500  67.7428010  62.6996280   4.5721940  69.1568560  62.2893700
   3.1939300  67.4758620  71.6173290   3.9952030  67.7970670  72.0308690
   2.6791120  67.1154200  72.3393200   7.2983330  67.4642860  54.2513280
   8.0911940  67.7531690  53.7995070   6.7787680  67.0335030  53.5725760
  12.0303930  63.5838490  71.5648700  11.4242090  63.6070090  70.8244450
  11.7258040  62.8521530  72.1015950  13.4604300  67.3118780  70.1758110
  14.4126050  67.2276800  70.1258350  13.3132520  67.9760490  70.8491900
  16.3513500  66.6912990  55.6750020  16.0655010  66.2778130  54.8604200
  16.1533050  67.6200700  55.5550540   7.8160730  62.6846270  54.1155630
   7.7111370  62.0698620  54.8417010   7.6484950  62.1612160  53.3318640
   7.9675050  61.3703070  70.0944860   7.2020720  61.9388070  70.0099530
   8.1491010  61.0779280  69.2013090  11.0563460  61.7466300  54.7197620
  10.5073560  62.1935600  55.3640360  11.6782720  61.2415550  55.2435290
  15.1098400  63.1008400  70.6519880  15.8507870  63.4384160  70.1487340
  14.3471080  63.2700460  70.0989650   2.9460190  58.1061670  71.4559410
   2.9865530  57.8075540  72.3644640   3.8005690  58.5069280  71.2966930
   6.7238580  60.7057220  56.6162920   7.1455000  60.5397090  57.4594310
   6.8489420  59.8957450  56.1218060   4.8866000  56.6853770  69.4233900
   4.3562460  56.1944720  68.7957240   5.5554070  57.1137970  68.8891830
   9.2366220  59.7294830  53.8640020   9.7571880  59.0143850  53.4981170
   9.8834620  60.3680700  54.1640530  13.7844060  61.1523230  69.1875090
  14.1985080  61.3068310  70.0365510  12.8495060  61.2778450  69.3500870
  14.2566230  58.4919390  71.1914240  14.8387000  57.7371710  71.1034720
  14.4328000  59.0226830  70.4145720   5.3738300  53.6516140  69.5031190
   5.2795170  53.0336890  68.7782060   4.7935690  54.3782430  69.2761100
   8.1399740  52.2089380  66.5358580   7.6917040  52.2313640  65.6904130
   7.5064940  51.8108400  67.1328880   8.5459290  61.1043710  67.1571020
   8.9647400  61.9476440  66.9847260   7.6267920  61.2415750  66.9277800
  10.8823190  58.8359890  68.5408860  11.0019400  58.2401030  69.2803700
  11.7417190  58.8729580  68.1210160  13.2211090  59.3897080  67.1171370
  12.6946310  59.9139700  66.5136510  13.5642430  60.0224470  67.7481100
   5.6197480  56.7790450  53.5621080   5.4186540  55.9157810  53.9234420
   5.4489530  56.6923810  52.6242680   6.3966710  67.4096720  68.2728750
   5.8587800  68.1342780  67.9537450   6.6500670  66.9327060  67.4826090
   7.6491960  55.3781240  69.7984680   8.2391650  55.0697090  70.4862500
   6.8312200  54.9060990  69.9544580  12.4685390  54.9947050  70.0317700
  11.7800910  54.3328590  69.9667690  13.1891410  54.5485320  70.4766160
  13.0985790  51.5898680  56.0907960  13.3788080  50.7466580  56.4467380
  12.3251520  51.8221790  56.6046710   4.4180280  53.8791070  53.5498960
   4.7206180  53.8858500  52.6418110   5.1574870  53.5288930  54.0466620
   9.2528920  68.6447930  68.5315400   9.1787620  69.5483070  68.8387770
   8.3507760  68.3259830  68.5037470   7.6365210  52.8225690  54.5355160
   7.2887210  52.1449680  53.9557610   7.8377980  52.3615200  55.3498550
   9.8014250  67.8106440  56.1541760  10.6965040  68.1491410  56.1760520
   9.8331880  67.0885850  55.5266040   3.4410410  63.1833490  54.3828760
   3.8785280  63.7263160  55.0386340   3.9258140  62.3580440  54.3925100
   5.2518130  64.3031530  59.4950990   4.9513670  64.1796500  60.3954900
   5.1455620  63.4440120  59.0866720  16.7808600  66.3410110  68.8607960
  16.1810590  66.4002670  68.1171880  16.9102500  65.4015090  68.9904810
  18.0210050  64.0827930  54.1977670  17.1903010  64.1504580  54.6684900
  18.1981880  64.9732050  53.8944530  17.4766510  60.8275410  56.7011870
  18.2385420  61.3972060  56.8071560  17.4920880  60.2602610  57.4720180
  18.4826480  61.6825510  61.5453800  18.8535310  60.8992830  61.1389770
  19.1228410  62.3714610  61.3671100  15.4660240  63.0662090  66.9584120
  14.6520080  63.4959250  67.2209910  15.8734440  63.6780500  66.3453170
  17.5285680  61.1209780  53.8584390  17.8034520  62.0288660  53.7303610
  17.3396420  61.0572310  54.7946380  13.9261290  54.1454630  55.1538020
  14.3446170  53.9585610  54.3134680  13.6197350  53.2933680  55.4640950
  17.4251020  59.0578770  58.8513820  17.0494620  58.2906700  58.4195110
  16.6954140  59.4401470  59.3388750   2.0146780  59.7365910  65.4722870
   2.3819820  59.6493310  66.3518890   1.4457600  58.9732460  65.3729730
  16.8150640  58.2050290  68.4853340  16.5836730  57.9763040  67.5851290
  17.0755190  59.1249840  68.4398230  15.2538710  53.4306720  71.2633040
  16.1308890  53.4390120  71.6467040  15.2659550  52.6937560  70.6525390
  16.7001980  57.2836260  62.1521060  17.2239460  56.7898910  61.5211230
  17.2861400  57.4186620  62.8968630  16.8791700  57.3676130  65.6740610
  15.9294410  57.3339670  65.7885600  17.0604710  58.2776240  65.4390380
   2.7336140  55.6177810  54.7839240   3.4427840  55.1961030  54.2986520
   2.0176080  55.6853040  54.1522590   2.3810300  51.6717140  53.8241890
   3.1038430  52.2126080  54.1423110   2.6534820  51.3980560  52.9483430
  16.1901950  56.5409610  58.0913470  16.6861070  56.3080480  58.8762350
  15.9918020  55.7021450  57.6751110   2.0702490  50.9223330  63.7264510
   2.7178680  50.3720710  63.2859670   2.4904330  51.1766480  64.5480320
  17.6189110  55.1770560  60.6251150  17.5088390  55.0226600  61.5633420
  18.3796700  54.6491500  60.3826560  15.9654830  51.1164690  67.0834150
  16.6027050  51.7298830  67.4493340  16.1129720  51.1525350  66.1383380
  18.5079380  53.0078480  53.8657290  19.4328690  52.8759660  53.6575580
  18.4855170  53.0871300  54.8193740  18.5817870  53.7789140  56.4914000
  17.7869370  53.7134260  57.0206910  18.7861150  54.7139780  56.4799350
  15.5236290  67.8180690  60.4852390  16.1195360  67.4965260  59.8086810
  15.7814440  67.3452510  61.2765660   1.8234490  51.0779000  66.4689830
   1.4749310  51.5342820  67.2348010   1.4922190  50.1836130  66.5512260
   3.4298860  64.2498600  70.6343020   3.3868490  63.8791510  71.5157480
   3.5609870  65.1876170  70.7744840   7.1304890  65.8058190  66.2352740
   6.8896250  66.0732750  65.3483260   8.0707530  65.9763920  66.2903600
   9.3359310  52.2690880  69.9909250   9.2748200  52.8612710  70.7404660
  10.2759690  52.1616840  69.8459510  11.9733870  51.9260940  69.6301540
  12.5874280  52.2440230  68.9682620  12.5183430  51.4409530  70.2497400
  18.3909050  67.8252570  67.0363380  17.8967330  68.2221440  66.3190510
  17.7822340  67.2001780  67.4300660   2.4955130  50.6055200  69.7440600
   3.0438120  50.4243250  68.9806710   2.5610440  49.8149310  70.2796910
   3.2686890  67.1960850  67.7540800   2.6747210  67.0645550  68.4930840
   3.2610730  66.3598990  67.2882900  12.7141910  50.4893080  65.9570830
  11.8401750  50.8228190  65.7543760  12.6052660  50.0166260  66.7822700
  13.6213890  52.6963950  67.3412550  13.2927250  51.8815710  66.9614280
  14.5696190  52.6533760  67.2178240  16.0748500  68.4675990  64.3150120
  15.6151470  69.2191800  63.9408140  15.4460960  67.7482460  64.2564920
   2.8999120  64.5619230  66.7048840   2.1733180  63.9424520  66.6374790
   2.9608270  64.9559840  65.8346920   6.5044220  66.7764230  63.4898250
   7.0209240  66.1651590  62.9646510   7.1541600  67.2793010  63.9809260
   9.2439720  67.6672720  64.3167230   9.5317530  67.4127020  63.4400240
   9.7562940  67.1150080  64.9072800  10.4616730  51.4062920  64.8963740
   9.6788520  51.8808420  65.1760500  10.1679660  50.5017750  64.7876920
  15.0137800  52.1086020  62.9412830  15.4545890  52.0531120  62.0934430
  14.7445390  53.0244030  63.0123010  16.8776370  51.7401260  60.9521650
  16.8164770  50.7962480  60.8052670  17.6568400  51.8481350  61.4975110
   1.8057140  51.7110400  57.4177460   2.5636500  51.8239280  56.8441490
   1.3434310  52.5479600  57.3720890   8.3470950  53.8249670  60.4079770
   7.5345460  53.4506560  60.0675650   8.8512590  53.0694750  60.7100960
  12.8495930  50.4892120  61.6462840  13.4525300  51.0612330  62.1211360
  12.1088920  51.0531560  61.4236740  15.9930530  50.8913680  56.9203120
  16.1881160  51.7897130  57.1870550  15.2060400  50.6600760  57.4136070
   2.7891820  66.5726850  57.3595740   2.2639440  66.9534880  56.6557700
   2.7136400  67.1977620  58.0805450   4.1782290  52.2374450  55.9579430
   4.7075050  51.4504250  55.8287380   4.8110610  52.9165640  56.1914960
   6.3720130  51.9749590  59.0124820   5.7422870  51.2736900  59.1794950
   5.8325270  52.7353720  58.7957980   9.3112080  68.5888820  71.6835430
  10.2379390  68.3533090  71.7271390   9.2962510  69.4160820  71.2021460
  17.5457140  68.1314390  58.6809680  17.7209330  67.4452130  58.0370600
  16.8478710  68.6561440  58.2886350   6.4975690  51.2533570  71.4477310
   6.2159960  51.7567170  70.6838130   6.8795390  50.4555320  71.0819440
   5.3884790  68.5209230  56.2344990   6.1203610  68.2368510  55.6868880
   5.6478460  68.2822510  57.1244370   4.5499580  64.6373960  56.2391320
   3.9208460  65.1059060  56.7877150   4.6647410  63.7923180  56.6737510
  13.0991150  50.6687150  72.0257780  12.9856600  50.9881760  72.9209300
  13.9160890  51.0699660  71.7295060  15.8789640  67.8158680  71.5076470
  16.6714960  67.3207910  71.3002430  16.1722790  68.4948820  72.1152080
  12.0049300  58.6879620  42.3892520  11.9243350  57.7734230  42.1184230
  11.5913720  59.1846690  41.6832230  10.1367340  60.4658640  44.2701790
   9.3609440  59.9859080  44.5600360  10.7880270  59.7864290  44.0957950
   4.1533170  60.7778450  45.1477550   3.3218050  60.5227160  45.5474060
   4.7614150  60.8489220  45.8835470  14.1574770  64.8718830  43.0500920
  13.6956300  64.1006070  43.3788090  14.9700320  64.8984900  43.5553370
   4.1334430  64.8118540  45.3435570   4.4362470  63.9216280  45.1645790
   4.8778020  65.3688760  45.1157820   2.5625120  55.7380340  38.9319940
   1.6741820  56.0796310  38.8299820   2.8466310  55.5380660  38.0400770
  10.3838080  67.1576840  42.6704910   9.7649520  67.6134340  42.0999350
  11.2389860  67.3128300  42.2694610   9.5776330  63.1415830  44.2771950
   9.5084610  62.2005770  44.1161080  10.3396190  63.2317240  44.8494520
   1.7683000  53.7470350  46.6028570   1.5885840  52.8496100  46.8831330
   1.3663080  54.2942220  47.2775520  10.6081500  55.9486210  44.5040880
  10.9846320  55.0758090  44.3914550  10.5101010  56.2844910  43.6131320
   4.7386510  54.3211840  39.9658320   4.8453260  55.2215570  40.2727080
   3.8278870  54.2729810  39.6752970  14.3905620  53.4436650  41.4369220
  15.2115240  52.9533220  41.4794700  14.4239700  54.0334310  42.1901060
   2.3869670  56.2430850  45.2110910   3.0679780  56.5069220  45.8298310
   2.0717720  55.4031720  45.5448920   6.5794240  57.2898210  44.2983500
   7.0872460  57.7879180  44.9388520   7.1107480  56.5133410  44.1222860
  18.6805170  55.4603400  48.0012850  17.9757340  55.8485110  47.4827960
  18.9463090  56.1553690  48.6033780   4.8630340  51.9296770  48.5646920
   4.8648780  52.4469160  47.7592820   4.0334650  51.4526950  48.5416850
  11.2501430  62.0416080  40.0636820  10.6318700  62.5065530  39.4999540
  11.7624680  62.7343560  40.4806330   6.1133190  61.5691950  46.7420420
   5.7802570  62.1960870  47.3841490   6.2899870  62.0953830  45.9622090
  14.6267100  55.3837030  44.2096760  13.9222670  55.6721920  44.7899870
  14.9879260  56.1937140  43.8496320   4.5445670  53.6406730  46.5717370
   4.8862480  54.4848780  46.2771240   3.6061480  53.7890470  46.6882710
   5.3252290  63.5372750  48.5569600   5.9426290  64.2123830  48.2754050
   4.4645410  63.9460730  48.4657100  16.2429880  65.0012160  46.4724240
  15.5593400  65.6711270  46.4640910  16.7824170  65.1992810  45.7069100
  17.6954020  54.8291820  44.6005970  16.7478930  54.8630800  44.7321400
  18.0204010  55.6430770  44.9855330   8.2273560  51.1289000  42.8961960
   8.5348540  50.5735890  42.1797460   7.2974260  51.2633460  42.7134950
  13.7788620  66.8456290  45.1869420  13.7915780  66.4418580  44.3191680
  13.2263840  67.6203580  45.0830850  15.0734040  63.5672510  40.2759590
  14.9630370  62.6246840  40.4009010  15.0702290  63.9288150  41.1622350
  13.1774060  61.7486130  46.5152030  13.5942850  61.5346240  45.6805490
  13.9013880  62.0058920  47.0860650  10.6154320  59.1937830  39.6322080
   9.6883600  59.1275210  39.8610550  10.7679140  60.1317960  39.5177320
  10.6023400  55.4654830  36.6289240   9.6627070  55.6268790  36.7141700
  10.9206660  56.1840510  36.0825230  17.1236160  60.1473350  46.6068270
  16.2954790  60.2166440  46.1318400  17.7186640  60.7327660  46.1384100
  14.6451610  60.7558130  40.1357330  14.0264030  60.4177680  39.4883630
  14.6276060  60.1117890  40.8436520  14.0878170  56.9342670  47.5523140
  13.6749350  57.7596380  47.8063130  13.3554120  56.3487710  47.3599500
   6.2210960  59.7202570  42.4141810   5.8167960  59.0079820  41.9187710
   6.3074080  59.3755810  43.3029850   6.6892660  63.4070130  44.5781020
   6.3920950  62.8015600  43.8988800   7.6392480  63.4447440  44.4670380
   4.9339580  56.4945780  46.1940850   5.4854170  56.6041120  45.4194100
   5.4483090  56.8683380  46.9096080  14.7778270  66.9802000  48.2404120
  14.3008830  67.7874190  48.0476730  14.0940060  66.3280330  48.3930330
   5.7811090  63.1451820  51.2288820   4.8839620  63.3691790  51.4762220
   5.8063960  63.2686760  50.2800220  12.8216310  59.9944940  37.1430080
  13.2609590  59.1567370  36.9967900  13.5344730  60.6274340  37.2294220
   4.6082310  60.0165140  49.8046190   4.4690080  60.8887940  50.1733590
   3.7263670  59.6737950  49.6594130  10.9311690  64.9341010  41.1111320
  11.3707600  65.6765340  40.6966710  10.8698580  65.1767580  42.0350280
   6.4062660  65.9586840  52.0131340   6.3778090  66.3629790  51.1459770
   6.2427630  65.0297200  51.8502940  16.4033450  51.2487750  35.4571120
  16.0906110  51.3414580  36.3570190  17.1645920  51.8268780  35.4068550
   2.9215590  58.6147550  39.9148460   2.8013190  59.3409640  39.3029730
   2.6116480  57.8450460  39.4376370  18.3577480  66.7413940  53.3095510
  18.8337200  67.2196830  53.9884590  18.9784640  66.6731430  52.5841010
   1.8048590  63.4862880  42.1323280   1.3976670  63.6277470  41.2776880
   2.6961600  63.2023040  41.9294490  17.7610730  63.9326790  50.4695520
  17.8873790  63.6938670  49.5512700  17.8032110  63.1011330  50.9417600
  11.6227470  67.6354790  49.0390330  12.1372140  67.5462800  49.8412760
  10.7796550  67.9814490  49.3318240  13.5981870  67.9210130  38.4674330
  13.4383010  67.6313070  39.3656160  13.4328580  67.1450260  37.9319560
   6.0770250  67.7008660  40.2445950   5.9012730  66.7844200  40.0313750
   5.2225990  68.0595950  40.4843750  13.3008000  65.4297690  37.0272330
  12.6073160  65.4274980  36.3674610  14.0430860  65.0057010  36.5966500
  12.8657930  67.0560400  41.1020820  13.3214880  66.2749780  41.4159440
  13.2050450  67.7667220  41.6462000  17.6134740  55.9859250  51.4345260
  16.9979010  56.4938920  50.9060720  17.2931160  55.0857580  51.3771200
   5.3879250  51.9582620  43.2972130   4.9447400  52.7392160  42.9656650
   5.9464240  52.2812510  44.0043070   9.6749060  54.8251140  48.9007450
   9.2128430  55.0334160  49.7127390   9.2727170  54.0110490  48.5978120
  14.6753570  56.0460090  50.0304110  13.8247160  55.7465840  50.3513180
  14.5155360  56.2902100  49.1187930  11.7703280  57.5461840  52.1302900
  12.0956690  56.7125590  51.7905130  12.5583610  58.0690360  52.2781230
   8.5038070  51.5793320  38.1777960   7.8792250  51.5753190  38.9031270
   8.4168190  50.7124280  37.7813930   7.4255150  52.5029950  45.1561730
   7.7227480  53.4092780  45.0753750   7.9740710  52.0148730  44.5421300
   5.1793470  57.0816190  41.0253380   4.9534390  56.8653360  41.9300000
   4.3986000  57.5144650  40.6799350  12.4091230  57.0879560  39.6244030
  11.8100120  57.8115360  39.4407650  12.9570840  57.0256340  38.8420480
   7.6192680  57.9801770  51.6913650   7.5236280  57.0396500  51.5414050
   8.4624660  58.2016840  51.2961720  11.0156100  55.7243100  41.6547310
  11.4085670  56.0415300  40.8416000  11.3772950  54.8454980  41.7691830
   2.7503220  54.3915440  49.8447430   2.3566610  55.2390650  50.0520210
   2.0621620  53.7541810  50.0356070   9.3248270  54.4750410  52.9144170
   8.6346590  54.2822610  53.5490260  10.0680570  54.7585050  53.4468470
  11.6011240  58.3148850  45.7498090  10.8692360  58.8235660  46.0988190
  11.2035580  57.4978830  45.4486870   8.0388630  54.9903050  44.1550580
   8.0424690  54.5493000  43.3055120   8.9339750  55.3120380  44.2622400
   3.8891010  54.8729540  43.1144790   3.5491060  55.3504770  43.8711840
   3.1268330  54.4194660  42.7545890   8.1008780  55.9915130  37.1457340
   8.2221600  55.9501610  38.0943160   7.7157290  56.8539280  36.9904070
  12.0637150  53.7682530  45.1621030  12.0809890  54.2191180  46.0062880
  11.8152730  52.8688170  45.3754470   7.1130280  58.3016270  36.5440640
   6.5447180  57.8534520  35.9176550   7.8219280  58.6609050  36.0105790
  15.4907900  51.1814710  51.0007410  15.8153670  50.4504370  51.5265390
  15.5264410  50.8628350  50.0988400   2.1899460  62.2028290  50.4207370
   1.8054250  61.5621960  51.0190330   2.5011650  62.9064410  50.9902100
   8.3396600  59.0504830  45.9015990   8.7066730  58.5763400  46.6477330
   8.1501660  59.9246400  46.2424330   6.1295970  58.0913470  48.2200200
   5.8253040  58.9705450  48.4450560   7.0842430  58.1513260  48.2557640
   4.6577760  62.2974460  38.8167050   3.8840020  61.7572080  38.6565770
   5.3872390  61.7781070  38.4784810  15.4165740  61.2939820  44.6093440
  16.1364860  61.7895110  44.2189550  15.2147560  60.6157710  43.9647310
  10.8775680  52.6877780  38.7522830  10.0640290  52.1890950  38.6768140
  10.6837630  53.5276030  38.3359180  10.7984540  61.3648880  50.4962440
  10.7321850  60.4444550  50.2420030  10.1689680  61.4624320  51.2107080
  13.5924070  57.0597430  37.0484990  14.4803690  57.3714660  36.8736330
  13.5629160  56.1869680  36.6565570   4.7015160  61.9654840  42.4545860
   5.2193830  61.1623100  42.4002750   4.2499180  61.9033980  43.2962690
   9.5884660  63.2321120  37.7273160   9.9300360  63.9763350  37.2316480
   8.7597370  63.5452240  38.0897990   2.1859700  58.9316210  49.3671560
   1.8274640  59.5970060  49.9544900   1.8914260  58.0999760  49.7384180
   5.3872820  59.3900450  52.2511110   5.0872960  59.5357630  51.3538930
   6.1584060  58.8305740  52.1584500  10.7301270  64.1869450  50.2466240
  10.7445810  63.2550410  50.0285150  10.0226370  64.2729210  50.8856010
  15.8638340  58.3709270  36.5164850  15.7802060  58.8023490  35.6661290
  16.5832530  58.8307620  36.9491670  16.9412480  60.8276790  49.5934820
  16.2160670  61.4205570  49.3964210  17.4687940  60.8200330  48.7948190
  16.8925590  65.2251530  39.2446980  16.2501750  64.5707150  39.5190700
  16.5056250  65.6306620  38.4687650  12.4712070  62.5536960  43.0918670
  12.8235890  61.9565090  42.4320040  11.5874400  62.2281190  43.2626920
   8.5575350  63.3134650  40.4989080   9.2446480  63.8603860  40.8796670
   7.7707770  63.8575380  40.5338690   7.8602560  60.3180680  40.1114440
   8.3165340  61.1285930  40.3374630   7.5090770  60.0003820  40.9432930
  10.1635170  65.8287020  47.3406740  10.8077390  66.0346400  48.0180160
  10.5264610  65.0675420  46.8877590   3.7614340  50.6618330  40.5836960
   3.6328970  50.6536230  41.5321880   2.9376360  51.0001420  40.2327970
  11.4367250  63.8319370  46.0584190  12.0789480  63.1312530  46.1716360
  11.9616600  64.6117810  45.8781080  15.2822970  64.1167990  35.7823330
  15.0560550  63.3998430  36.3747970  14.8919170  63.8680430  34.9445080
  13.2104870  64.6314270  49.2620250  13.5461110  65.2180960  49.9398170
  12.2905210  64.5006980  49.4918040  14.8639220  62.0339930  37.4437490
  14.5760920  62.4952620  38.2315370  15.6591390  61.5737700  37.7121710
   9.0393450  64.6805600  52.4308310   8.7190320  63.9614840  52.9754000
   8.3651810  65.3560670  52.5044370   7.0807620  65.5266050  37.3741460
   7.0717720  66.2595740  36.7585970   6.1605980  65.2797630  37.4668420
   2.6814260  60.7480940  38.1188220   2.0742210  61.4879840  38.1283520
   3.1563610  60.8380300  37.2926420  12.2547050  54.9131760  47.7945110
  12.6227870  54.0926970  48.1224680  11.3945250  54.9733650  48.2100760
  15.6209080  53.8688700  38.6032670  14.9922240  53.9734370  37.8890900
  15.1261000  54.0885480  39.3926550  10.0667220  65.5894290  36.0366650
  10.1679200  65.3858280  35.1068630   9.1668960  65.3352570  36.2414430
   7.5893110  56.1474650  40.0190550   6.8809260  56.6160990  40.4604160
   7.8737590  55.4896660  40.6535740   9.2149040  57.5671350  48.0183080
   9.7134290  58.0417170  48.6834930   9.3571990  56.6434870  48.2253110
  11.6208540  52.8725310  41.4586340  11.4976320  52.8911440  40.5095850
  12.5693100  52.9204250  41.5784740   8.7085330  68.1080610  40.7314320
   8.9626830  68.0702000  39.8093690   7.7597810  67.9813940  40.7242570
   5.7928130  54.4559730  37.3941260   6.6418660  54.8929880  37.3281450
   5.4259400  54.7679990  38.2213320  16.4215900  53.7839310  48.8611470
  15.9189500  54.5244710  49.2005280  17.2372560  54.1723310  48.5448260
  14.7137910  59.0272490  42.3072830  13.7728050  59.0422720  42.4820520
  15.0281980  58.2408450  42.7533130   4.6919550  60.7092090  35.8676790
   5.4582820  60.5973450  36.4302220   4.7694240  60.0130060  35.2153560
   3.3866310  58.1417160  36.5509680   3.4669900  57.1944670  36.6627080
   4.2786060  58.4724040  36.6570340  16.7163490  66.1981340  43.9827090
  16.8410910  67.0212510  44.4550900  17.5829050  65.9872070  43.6351240
   4.1881020  68.2912550  43.6544220   4.9243500  67.7428010  43.9252790
   4.5721940  69.1568560  43.5150210   3.1939300  67.4758620  52.8429800
   3.9952030  67.7970670  53.2565200   2.6791120  67.1154200  53.5649710
   7.2983330  67.4642860  35.4769790   8.0911940  67.7531690  35.0251580
   6.7787680  67.0335030  34.7982270  12.0303930  63.5838490  52.7905210
  11.4242090  63.6070090  52.0500960  11.7258040  62.8521530  53.3272460
  13.4604300  67.3118780  51.4014620  14.4126050  67.2276800  51.3514860
  13.3132520  67.9760490  52.0748410  16.3513500  66.6912990  36.9006530
  16.0655010  66.2778130  36.0860710  16.1533050  67.6200700  36.7807050
   7.8160730  62.6846270  35.3412140   7.7111370  62.0698620  36.0673520
   7.6484950  62.1612160  34.5575150   7.9675050  61.3703070  51.3201370
   7.2020720  61.9388070  51.2356040   8.1491010  61.0779280  50.4269600
  11.0563460  61.7466300  35.9454130  10.5073560  62.1935600  36.5896870
  11.6782720  61.2415550  36.4691800  15.1098400  63.1008400  51.8776390
  15.8507870  63.4384160  51.3743850  14.3471080  63.2700460  51.3246160
   2.9460190  58.1061670  52.6815920   2.9865530  57.8075540  53.5901150
   3.8005690  58.5069280  52.5223440   6.7238580  60.7057220  37.8419430
   7.1455000  60.5397090  38.6850820   6.8489420  59.8957450  37.3474570
   4.8866000  56.6853770  50.6490410   4.3562460  56.1944720  50.0213750
   5.5554070  57.1137970  50.1148340   9.2366220  59.7294830  35.0896530
   9.7571880  59.0143850  34.7237680   9.8834620  60.3680700  35.3897040
  13.7844060  61.1523230  50.4131600  14.1985080  61.3068310  51.2622020
  12.8495060  61.2778450  50.5757380  14.2566230  58.4919390  52.4170750
  14.8387000  57.7371710  52.3291230  14.4328000  59.0226830  51.6402230
   5.3738300  53.6516140  50.7287700   5.2795170  53.0336890  50.0038570
   4.7935690  54.3782430  50.5017610   8.1399740  52.2089380  47.7615090
   7.6917040  52.2313640  46.9160640   7.5064940  51.8108400  48.3585390
   8.5459290  61.1043710  48.3827530   8.9647400  61.9476440  48.2103770
   7.6267920  61.2415750  48.1534310  10.8823190  58.8359890  49.7665370
  11.0019400  58.2401030  50.5060210  11.7417190  58.8729580  49.3466670
  13.2211090  59.3897080  48.3427880  12.6946310  59.9139700  47.7393020
  13.5642430  60.0224470  48.9737610   5.6197480  56.7790450  34.7877590
   5.4186540  55.9157810  35.1490930   5.4489530  56.6923810  33.8499190
   6.3966710  67.4096720  49.4985260   5.8587800  68.1342780  49.1793960
   6.6500670  66.9327060  48.7082600   7.6491960  55.3781240  51.0241190
   8.2391650  55.0697090  51.7119010   6.8312200  54.9060990  51.1801090
  12.4685390  54.9947050  51.2574210  11.7800910  54.3328590  51.1924200
  13.1891410  54.5485320  51.7022670  13.0985790  51.5898680  37.3164470
  13.3788080  50.7466580  37.6723890  12.3251520  51.8221790  37.8303220
   4.4180280  53.8791070  34.7755470   4.7206180  53.8858500  33.8674620
   5.1574870  53.5288930  35.2723130   9.2528920  68.6447930  49.7571910
   9.1787620  69.5483070  50.0644280   8.3507760  68.3259830  49.7293980
   7.6365210  52.8225690  35.7611670   7.2887210  52.1449680  35.1814120
   7.8377980  52.3615200  36.5755060   9.8014250  67.8106440  37.3798270
  10.6965040  68.1491410  37.4017030   9.8331880  67.0885850  36.7522550
   3.4410410  63.1833490  35.6085270   3.8785280  63.7263160  36.2642850
   3.9258140  62.3580440  35.6181610   5.2518130  64.3031530  40.7207500
   4.9513670  64.1796500  41.6211410   5.1455620  63.4440120  40.3123230
  16.7808600  66.3410110  50.0864470  16.1810590  66.4002670  49.3428390
  16.9102500  65.4015090  50.2161320  18.0210050  64.0827930  35.4234180
  17.1903010  64.1504580  35.8941410  18.1981880  64.9732050  35.1201040
  17.4766510  60.8275410  37.9268380  18.2385420  61.3972060  38.0328070
  17.4920880  60.2602610  38.6976690  18.4826480  61.6825510  42.7710310
  18.8535310  60.8992830  42.3646280  19.1228410  62.3714610  42.5927610
  15.4660240  63.0662090  48.1840630  14.6520080  63.4959250  48.4466420
  15.8734440  63.6780500  47.5709680  17.5285680  61.1209780  35.0840900
  17.8034520  62.0288660  34.9560120  17.3396420  61.0572310  36.0202890
  13.9261290  54.1454630  36.3794530  14.3446170  53.9585610  35.5391190
  13.6197350  53.2933680  36.6897460  17.4251020  59.0578770  40.0770330
  17.0494620  58.2906700  39.6451620  16.6954140  59.4401470  40.5645260
   2.0146780  59.7365910  46.6979380   2.3819820  59.6493310  47.5775400
   1.4457600  58.9732460  46.5986240  16.8150640  58.2050290  49.7109850
  16.5836730  57.9763040  48.8107800  17.0755190  59.1249840  49.6654740
  15.2538710  53.4306720  52.4889550  16.1308890  53.4390120  52.8723550
  15.2659550  52.6937560  51.8781900  16.7001980  57.2836260  43.3777570
  17.2239460  56.7898910  42.7467740  17.2861400  57.4186620  44.1225140
  16.8791700  57.3676130  46.8997120  15.9294410  57.3339670  47.0142110
  17.0604710  58.2776240  46.6646890   2.7336140  55.6177810  36.0095750
   3.4427840  55.1961030  35.5243030   2.0176080  55.6853040  35.3779100
   2.3810300  51.6717140  35.0498400   3.1038430  52.2126080  35.3679620
   2.6534820  51.3980560  34.1739940  16.1901950  56.5409610  39.3169980
  16.6861070  56.3080480  40.1018860  15.9918020  55.7021450  38.9007620
   2.0702490  50.9223330  44.9521020   2.7178680  50.3720710  44.5116180
   2.4904330  51.1766480  45.7736830  17.6189110  55.1770560  41.8507660
  17.5088390  55.0226600  42.7889930  18.3796700  54.6491500  41.6083070
  15.9654830  51.1164690  48.3090660  16.6027050  51.7298830  48.6749850
  16.1129720  51.1525350  47.3639890  18.5079380  53.0078480  35.0913800
  19.4328690  52.8759660  34.8832090  18.4855170  53.0871300  36.0450250
  18.5817870  53.7789140  37.7170510  17.7869370  53.7134260  38.2463420
  18.7861150  54.7139780  37.7055860  15.5236290  67.8180690  41.7108900
  16.1195360  67.4965260  41.0343320  15.7814440  67.3452510  42.5022170
   1.8234490  51.0779000  47.6946340   1.4749310  51.5342820  48.4604520
   1.4922190  50.1836130  47.7768770   3.4298860  64.2498600  51.8599530
   3.3868490  63.8791510  52.7413990   3.5609870  65.1876170  52.0001350
   7.1304890  65.8058190  47.4609250   6.8896250  66.0732750  46.5739770
   8.0707530  65.9763920  47.5160110   9.3359310  52.2690880  51.2165760
   9.2748200  52.8612710  51.9661170  10.2759690  52.1616840  51.0716020
  11.9733870  51.9260940  50.8558050  12.5874280  52.2440230  50.1939130
  12.5183430  51.4409530  51.4753910  18.3909050  67.8252570  48.2619890
  17.8967330  68.2221440  47.5447020  17.7822340  67.2001780  48.6557170
   2.4955130  50.6055200  50.9697110   3.0438120  50.4243250  50.2063220
   2.5610440  49.8149310  51.5053420   3.2686890  67.1960850  48.9797310
   2.6747210  67.0645550  49.7187350   3.2610730  66.3598990  48.5139410
  12.7141910  50.4893080  47.1827340  11.8401750  50.8228190  46.9800270
  12.6052660  50.0166260  48.0079210  13.6213890  52.6963950  48.5669060
  13.2927250  51.8815710  48.1870790  14.5696190  52.6533760  48.4434750
  16.0748500  68.4675990  45.5406630  15.6151470  69.2191800  45.1664650
  15.4460960  67.7482460  45.4821430   2.8999120  64.5619230  47.9305350
   2.1733180  63.9424520  47.8631300   2.9608270  64.9559840  47.0603430
   6.5044220  66.7764230  44.7154760   7.0209240  66.1651590  44.1903020
   7.1541600  67.2793010  45.2065770   9.2439720  67.6672720  45.5423740
   9.5317530  67.4127020  44.6656750   9.7562940  67.1150080  46.1329310
  10.4616730  51.4062920  46.1220250   9.6788520  51.8808420  46.4017010
  10.1679660  50.5017750  46.0133430  15.0137800  52.1086020  44.1669340
  15.4545890  52.0531120  43.3190940  14.7445390  53.0244030  44.2379520
  16.8776370  51.7401260  42.1778160  16.8164770  50.7962480  42.0309180
  17.6568400  51.8481350  42.7231620   1.8057140  51.7110400  38.6433970
   2.5636500  51.8239280  38.0698000   1.3434310  52.5479600  38.5977400
   8.3470950  53.8249670  41.6336280   7.5345460  53.4506560  41.2932160
   8.8512590  53.0694750  41.9357470  12.8495930  50.4892120  42.8719350
  13.4525300  51.0612330  43.3467870  12.1088920  51.0531560  42.6493250
  15.9930530  50.8913680  38.1459630  16.1881160  51.7897130  38.4127060
  15.2060400  50.6600760  38.6392580   2.7891820  66.5726850  38.5852250
   2.2639440  66.9534880  37.8814210   2.7136400  67.1977620  39.3061960
   4.1782290  52.2374450  37.1835940   4.7075050  51.4504250  37.0543890
   4.8110610  52.9165640  37.4171470   6.3720130  51.9749590  40.2381330
   5.7422870  51.2736900  40.4051460   5.8325270  52.7353720  40.0214490
   9.3112080  68.5888820  52.9091940  10.2379390  68.3533090  52.9527900
   9.2962510  69.4160820  52.4277970  17.5457140  68.1314390  39.9066190
  17.7209330  67.4452130  39.2627110  16.8478710  68.6561440  39.5142860
   6.4975690  51.2533570  52.6733820   6.2159960  51.7567170  51.9094640
   6.8795390  50.4555320  52.3075950   5.3884790  68.5209230  37.4601500
   6.1203610  68.2368510  36.9125390   5.6478460  68.2822510  38.3500880
   4.5499580  64.6373960  37.4647830   3.9208460  65.1059060  38.0133660
   4.6647410  63.7923180  37.8994020  13.0991150  50.6687150  53.2514290
  12.9856600  50.9881760  54.1465810  13.9160890  51.0699660  52.9551570
  15.8789640  67.8158680  52.7332980  16.6714960  67.3207910  52.5258940
  16.1722790  68.4948820  53.3408590  12.0049300  58.6879620  23.6149030
  11.9243350  57.7734230  23.3440740  11.5913720  59.1846690  22.9088740
  10.1367340  60.4658640  25.4958300   9.3609440  59.9859080  25.7856870
  10.7880270  59.7864290  25.3214460   4.1533170  60.7778450  26.3734060
   3.3218050  60.5227160  26.7730570   4.7614150  60.8489220  27.1091980
  14.1574770  64.8718830  24.2757430  13.6956300  64.1006070  24.6044600
  14.9700320  64.8984900  24.7809880   4.1334430  64.8118540  26.5692080
   4.4362470  63.9216280  26.3902300   4.8778020  65.3688760  26.3414330
   2.5625120  55.7380340  20.1576450   1.6741820  56.0796310  20.0556330
   2.8466310  55.5380660  19.2657280  10.3838080  67.1576840  23.8961420
   9.7649520  67.6134340  23.3255860  11.2389860  67.3128300  23.4951120
   9.5776330  63.1415830  25.5028460   9.5084610  62.2005770  25.3417590
  10.3396190  63.2317240  26.0751030   1.7683000  53.7470350  27.8285080
   1.5885840  52.8496100  28.1087840   1.3663080  54.2942220  28.5032030
  10.6081500  55.9486210  25.7297390  10.9846320  55.0758090  25.6171060
  10.5101010  56.2844910  24.8387830   4.7386510  54.3211840  21.1914830
   4.8453260  55.2215570  21.4983590   3.8278870  54.2729810  20.9009480
  14.3905620  53.4436650  22.6625730  15.2115240  52.9533220  22.7051210
  14.4239700  54.0334310  23.4157570   2.3869670  56.2430850  26.4367420
   3.0679780  56.5069220  27.0554820   2.0717720  55.4031720  26.7705430
   6.5794240  57.2898210  25.5240010   7.0872460  57.7879180  26.1645030
   7.1107480  56.5133410  25.3479370  18.6805170  55.4603400  29.2269360
  17.9757340  55.8485110  28.7084470  18.9463090  56.1553690  29.8290290
   4.8630340  51.9296770  29.7903430   4.8648780  52.4469160  28.9849330
   4.0334650  51.4526950  29.7673360  11.2501430  62.0416080  21.2893330
  10.6318700  62.5065530  20.7256050  11.7624680  62.7343560  21.7062840
   6.1133190  61.5691950  27.9676930   5.7802570  62.1960870  28.6098000
   6.2899870  62.0953830  27.1878600  14.6267100  55.3837030  25.4353270
  13.9222670  55.6721920  26.0156380  14.9879260  56.1937140  25.0752830
   4.5445670  53.6406730  27.7973880   4.8862480  54.4848780  27.5027750
   3.6061480  53.7890470  27.9139220   5.3252290  63.5372750  29.7826110
   5.9426290  64.2123830  29.5010560   4.4645410  63.9460730  29.6913610
  16.2429880  65.0012160  27.6980750  15.5593400  65.6711270  27.6897420
  16.7824170  65.1992810  26.9325610  17.6954020  54.8291820  25.8262480
  16.7478930  54.8630800  25.9577910  18.0204010  55.6430770  26.2111840
   8.2273560  51.1289000  24.1218470   8.5348540  50.5735890  23.4053970
   7.2974260  51.2633460  23.9391460  13.7788620  66.8456290  26.4125930
  13.7915780  66.4418580  25.5448190  13.2263840  67.6203580  26.3087360
  15.0734040  63.5672510  21.5016100  14.9630370  62.6246840  21.6265520
  15.0702290  63.9288150  22.3878860  13.1774060  61.7486130  27.7408540
  13.5942850  61.5346240  26.9062000  13.9013880  62.0058920  28.3117160
  10.6154320  59.1937830  20.8578590   9.6883600  59.1275210  21.0867060
  10.7679140  60.1317960  20.7433830  10.6023400  55.4654830  17.8545750
   9.6627070  55.6268790  17.9398210  10.9206660  56.1840510  17.3081740
  17.1236160  60.1473350  27.8324780  16.2954790  60.2166440  27.3574910
  17.7186640  60.7327660  27.3640610  14.6451610  60.7558130  21.3613840
  14.0264030  60.4177680  20.7140140  14.6276060  60.1117890  22.0693030
  14.0878170  56.9342670  28.7779650  13.6749350  57.7596380  29.0319640
  13.3554120  56.3487710  28.5856010   6.2210960  59.7202570  23.6398320
   5.8167960  59.0079820  23.1444220   6.3074080  59.3755810  24.5286360
   6.6892660  63.4070130  25.8037530   6.3920950  62.8015600  25.1245310
   7.6392480  63.4447440  25.6926890   4.9339580  56.4945780  27.4197360
   5.4854170  56.6041120  26.6450610   5.4483090  56.8683380  28.1352590
  14.7778270  66.9802000  29.4660630  14.3008830  67.7874190  29.2733240
  14.0940060  66.3280330  29.6186840   5.7811090  63.1451820  32.4545330
   4.8839620  63.3691790  32.7018730   5.8063960  63.2686760  31.5056730
  12.8216310  59.9944940  18.3686590  13.2609590  59.1567370  18.2224410
  13.5344730  60.6274340  18.4550730   4.6082310  60.0165140  31.0302700
   4.4690080  60.8887940  31.3990100   3.7263670  59.6737950  30.8850640
  10.9311690  64.9341010  22.3367830  11.3707600  65.6765340  21.9223220
  10.8698580  65.1767580  23.2606790   6.4062660  65.9586840  33.2387850
   6.3778090  66.3629790  32.3716280   6.2427630  65.0297200  33.0759450
  16.4033450  51.2487750  16.6827630  16.0906110  51.3414580  17.5826700
  17.1645920  51.8268780  16.6325060   2.9215590  58.6147550  21.1404970
   2.8013190  59.3409640  20.5286240   2.6116480  57.8450460  20.6632880
  18.3577480  66.7413940  34.5352020  18.8337200  67.2196830  35.2141100
  18.9784640  66.6731430  33.8097520   1.8048590  63.4862880  23.3579790
   1.3976670  63.6277470  22.5033390   2.6961600  63.2023040  23.1551000
  17.7610730  63.9326790  31.6952030  17.8873790  63.6938670  30.7769210
  17.8032110  63.1011330  32.1674110  11.6227470  67.6354790  30.2646840
  12.1372140  67.5462800  31.0669270  10.7796550  67.9814490  30.5574750
  13.5981870  67.9210130  19.6930840  13.4383010  67.6313070  20.5912670
  13.4328580  67.1450260  19.1576070   6.0770250  67.7008660  21.4702460
   5.9012730  66.7844200  21.2570260   5.2225990  68.0595950  21.7100260
  13.3008000  65.4297690  18.2528840  12.6073160  65.4274980  17.5931120
  14.0430860  65.0057010  17.8223010  12.8657930  67.0560400  22.3277330
  13.3214880  66.2749780  22.6415950  13.2050450  67.7667220  22.8718510
  17.6134740  55.9859250  32.6601770  16.9979010  56.4938920  32.1317230
  17.2931160  55.0857580  32.6027710   5.3879250  51.9582620  24.5228640
   4.9447400  52.7392160  24.1913160   5.9464240  52.2812510  25.2299580
   9.6749060  54.8251140  30.1263960   9.2128430  55.0334160  30.9383900
   9.2727170  54.0110490  29.8234630  14.6753570  56.0460090  31.2560620
  13.8247160  55.7465840  31.5769690  14.5155360  56.2902100  30.3444440
  11.7703280  57.5461840  33.3559410  12.0956690  56.7125590  33.0161640
  12.5583610  58.0690360  33.5037740   8.5038070  51.5793320  19.4034470
   7.8792250  51.5753190  20.1287780   8.4168190  50.7124280  19.0070440
   7.4255150  52.5029950  26.3818240   7.7227480  53.4092780  26.3010260
   7.9740710  52.0148730  25.7677810   5.1793470  57.0816190  22.2509890
   4.9534390  56.8653360  23.1556510   4.3986000  57.5144650  21.9055860
  12.4091230  57.0879560  20.8500540  11.8100120  57.8115360  20.6664160
  12.9570840  57.0256340  20.0676990   7.6192680  57.9801770  32.9170160
   7.5236280  57.0396500  32.7670560   8.4624660  58.2016840  32.5218230
  11.0156100  55.7243100  22.8803820  11.4085670  56.0415300  22.0672510
  11.3772950  54.8454980  22.9948340   2.7503220  54.3915440  31.0703940
   2.3566610  55.2390650  31.2776720   2.0621620  53.7541810  31.2612580
   9.3248270  54.4750410  34.1400680   8.6346590  54.2822610  34.7746770
  10.0680570  54.7585050  34.6724980  11.6011240  58.3148850  26.9754600
  10.8692360  58.8235660  27.3244700  11.2035580  57.4978830  26.6743380
   8.0388630  54.9903050  25.3807090   8.0424690  54.5493000  24.5311630
   8.9339750  55.3120380  25.4878910   3.8891010  54.8729540  24.3401300
   3.5491060  55.3504770  25.0968350   3.1268330  54.4194660  23.9802400
   8.1008780  55.9915130  18.3713850   8.2221600  55.9501610  19.3199670
   7.7157290  56.8539280  18.2160580  12.0637150  53.7682530  26.3877540
  12.0809890  54.2191180  27.2319390  11.8152730  52.8688170  26.6010980
   7.1130280  58.3016270  17.7697150   6.5447180  57.8534520  17.1433060
   7.8219280  58.6609050  17.2362300  15.4907900  51.1814710  32.2263920
  15.8153670  50.4504370  32.7521900  15.5264410  50.8628350  31.3244910
   2.1899460  62.2028290  31.6463880   1.8054250  61.5621960  32.2446840
   2.5011650  62.9064410  32.2158610   8.3396600  59.0504830  27.1272500
   8.7066730  58.5763400  27.8733840   8.1501660  59.9246400  27.4680840
   6.1295970  58.0913470  29.4456710   5.8253040  58.9705450  29.6707070
   7.0842430  58.1513260  29.4814150   4.6577760  62.2974460  20.0423560
   3.8840020  61.7572080  19.8822280   5.3872390  61.7781070  19.7041320
  15.4165740  61.2939820  25.8349950  16.1364860  61.7895110  25.4446060
  15.2147560  60.6157710  25.1903820  10.8775680  52.6877780  19.9779340
  10.0640290  52.1890950  19.9024650  10.6837630  53.5276030  19.5615690
  10.7984540  61.3648880  31.7218950  10.7321850  60.4444550  31.4676540
  10.1689680  61.4624320  32.4363590  13.5924070  57.0597430  18.2741500
  14.4803690  57.3714660  18.0992840  13.5629160  56.1869680  17.8822080
   4.7015160  61.9654840  23.6802370   5.2193830  61.1623100  23.6259260
   4.2499180  61.9033980  24.5219200   9.5884660  63.2321120  18.9529670
   9.9300360  63.9763350  18.4572990   8.7597370  63.5452240  19.3154500
   2.1859700  58.9316210  30.5928070   1.8274640  59.5970060  31.1801410
   1.8914260  58.0999760  30.9640690   5.3872820  59.3900450  33.4767620
   5.0872960  59.5357630  32.5795440   6.1584060  58.8305740  33.3841010
  10.7301270  64.1869450  31.4722750  10.7445810  63.2550410  31.2541660
  10.0226370  64.2729210  32.1112520  15.8638340  58.3709270  17.7421360
  15.7802060  58.8023490  16.8917800  16.5832530  58.8307620  18.1748180
  16.9412480  60.8276790  30.8191330  16.2160670  61.4205570  30.6220720
  17.4687940  60.8200330  30.0204700  16.8925590  65.2251530  20.4703490
  16.2501750  64.5707150  20.7447210  16.5056250  65.6306620  19.6944160
  12.4712070  62.5536960  24.3175180  12.8235890  61.9565090  23.6576550
  11.5874400  62.2281190  24.4883430   8.5575350  63.3134650  21.7245590
   9.2446480  63.8603860  22.1053180   7.7707770  63.8575380  21.7595200
   7.8602560  60.3180680  21.3370950   8.3165340  61.1285930  21.5631140
   7.5090770  60.0003820  22.1689440  10.1635170  65.8287020  28.5663250
  10.8077390  66.0346400  29.2436670  10.5264610  65.0675420  28.1134100
   3.7614340  50.6618330  21.8093470   3.6328970  50.6536230  22.7578390
   2.9376360  51.0001420  21.4584480  11.4367250  63.8319370  27.2840700
  12.0789480  63.1312530  27.3972870  11.9616600  64.6117810  27.1037590
  15.2822970  64.1167990  17.0079840  15.0560550  63.3998430  17.6004480
  14.8919170  63.8680430  16.1701590  13.2104870  64.6314270  30.4876760
  13.5461110  65.2180960  31.1654680  12.2905210  64.5006980  30.7174550
  14.8639220  62.0339930  18.6694000  14.5760920  62.4952620  19.4571880
  15.6591390  61.5737700  18.9378220   9.0393450  64.6805600  33.6564820
   8.7190320  63.9614840  34.2010510   8.3651810  65.3560670  33.7300880
   7.0807620  65.5266050  18.5997970   7.0717720  66.2595740  17.9842480
   6.1605980  65.2797630  18.6924930   2.6814260  60.7480940  19.3444730
   2.0742210  61.4879840  19.3540030   3.1563610  60.8380300  18.5182930
  12.2547050  54.9131760  29.0201620  12.6227870  54.0926970  29.3481190
  11.3945250  54.9733650  29.4357270  15.6209080  53.8688700  19.8289180
  14.9922240  53.9734370  19.1147410  15.1261000  54.0885480  20.6183060
  10.0667220  65.5894290  17.2623160  10.1679200  65.3858280  16.3325140
   9.1668960  65.3352570  17.4670940   7.5893110  56.1474650  21.2447060
   6.8809260  56.6160990  21.6860670   7.8737590  55.4896660  21.8792250
   9.2149040  57.5671350  29.2439590   9.7134290  58.0417170  29.9091440
   9.3571990  56.6434870  29.4509620  11.6208540  52.8725310  22.6842850
  11.4976320  52.8911440  21.7352360  12.5693100  52.9204250  22.8041250
   8.7085330  68.1080610  21.9570830   8.9626830  68.0702000  21.0350200
   7.7597810  67.9813940  21.9499080   5.7928130  54.4559730  18.6197770
   6.6418660  54.8929880  18.5537960   5.4259400  54.7679990  19.4469830
  16.4215900  53.7839310  30.0867980  15.9189500  54.5244710  30.4261790
  17.2372560  54.1723310  29.7704770  14.7137910  59.0272490  23.5329340
  13.7728050  59.0422720  23.7077030  15.0281980  58.2408450  23.9789640
   4.6919550  60.7092090  17.0933300   5.4582820  60.5973450  17.6558730
   4.7694240  60.0130060  16.4410070   3.3866310  58.1417160  17.7766190
   3.4669900  57.1944670  17.8883590   4.2786060  58.4724040  17.8826850
  16.7163490  66.1981340  25.2083600  16.8410910  67.0212510  25.6807410
  17.5829050  65.9872070  24.8607750   4.1881020  68.2912550  24.8800730
   4.9243500  67.7428010  25.1509300   4.5721940  69.1568560  24.7406720
   3.1939300  67.4758620  34.0686310   3.9952030  67.7970670  34.4821710
   2.6791120  67.1154200  34.7906220   7.2983330  67.4642860  16.7026300
   8.0911940  67.7531690  16.2508090   6.7787680  67.0335030  16.0238780
  12.0303930  63.5838490  34.0161720  11.4242090  63.6070090  33.2757470
  11.7258040  62.8521530  34.5528970  13.4604300  67.3118780  32.6271130
  14.4126050  67.2276800  32.5771370  13.3132520  67.9760490  33.3004920
  16.3513500  66.6912990  18.1263040  16.0655010  66.2778130  17.3117220
  16.1533050  67.6200700  18.0063560   7.8160730  62.6846270  16.5668650
   7.7111370  62.0698620  17.2930030   7.6484950  62.1612160  15.7831660
   7.9675050  61.3703070  32.5457880   7.2020720  61.9388070  32.4612550
   8.1491010  61.0779280  31.6526110  11.0563460  61.7466300  17.1710640
  10.5073560  62.1935600  17.8153380  11.6782720  61.2415550  17.6948310
  15.1098400  63.1008400  33.1032900  15.8507870  63.4384160  32.6000360
  14.3471080  63.2700460  32.5502670   2.9460190  58.1061670  33.9072430
   2.9865530  57.8075540  34.8157660   3.8005690  58.5069280  33.7479950
   6.7238580  60.7057220  19.0675940   7.1455000  60.5397090  19.9107330
   6.8489420  59.8957450  18.5731080   4.8866000  56.6853770  31.8746920
   4.3562460  56.1944720  31.2470260   5.5554070  57.1137970  31.3404850
   9.2366220  59.7294830  16.3153040   9.7571880  59.0143850  15.9494190
   9.8834620  60.3680700  16.6153550  13.7844060  61.1523230  31.6388110
  14.1985080  61.3068310  32.4878530  12.8495060  61.2778450  31.8013890
  14.2566230  58.4919390  33.6427260  14.8387000  57.7371710  33.5547740
  14.4328000  59.0226830  32.8658740   5.3738300  53.6516140  31.9544210
   5.2795170  53.0336890  31.2295080   4.7935690  54.3782430  31.7274120
   8.1399740  52.2089380  28.9871600   7.6917040  52.2313640  28.1417150
   7.5064940  51.8108400  29.5841900   8.5459290  61.1043710  29.6084040
   8.9647400  61.9476440  29.4360280   7.6267920  61.2415750  29.3790820
  10.8823190  58.8359890  30.9921880  11.0019400  58.2401030  31.7316720
  11.7417190  58.8729580  30.5723180  13.2211090  59.3897080  29.5684390
  12.6946310  59.9139700  28.9649530  13.5642430  60.0224470  30.1994120
   5.6197480  56.7790450  16.0134100   5.4186540  55.9157810  16.3747440
   5.4489530  56.6923810  15.0755700   6.3966710  67.4096720  30.7241770
   5.8587800  68.1342780  30.4050470   6.6500670  66.9327060  29.9339110
   7.6491960  55.3781240  32.2497700   8.2391650  55.0697090  32.9375520
   6.8312200  54.9060990  32.4057600  12.4685390  54.9947050  32.4830720
  11.7800910  54.3328590  32.4180710  13.1891410  54.5485320  32.9279180
  13.0985790  51.5898680  18.5420980  13.3788080  50.7466580  18.8980400
  12.3251520  51.8221790  19.0559730   4.4180280  53.8791070  16.0011980
   4.7206180  53.8858500  15.0931130   5.1574870  53.5288930  16.4979640
   9.2528920  68.6447930  30.9828420   9.1787620  69.5483070  31.2900790
   8.3507760  68.3259830  30.9550490   7.6365210  52.8225690  16.9868180
   7.2887210  52.1449680  16.4070630   7.8377980  52.3615200  17.8011570
   9.8014250  67.8106440  18.6054780  10.6965040  68.1491410  18.6273540
   9.8331880  67.0885850  17.9779060   3.4410410  63.1833490  16.8341780
   3.8785280  63.7263160  17.4899360   3.9258140  62.3580440  16.8438120
   5.2518130  64.3031530  21.9464010   4.9513670  64.1796500  22.8467920
   5.1455620  63.4440120  21.5379740  16.7808600  66.3410110  31.3120980
  16.1810590  66.4002670  30.5684900  16.9102500  65.4015090  31.4417830
  18.0210050  64.0827930  16.6490690  17.1903010  64.1504580  17.1197920
  18.1981880  64.9732050  16.3457550  17.4766510  60.8275410  19.1524890
  18.2385420  61.3972060  19.2584580  17.4920880  60.2602610  19.9233200
  18.4826480  61.6825510  23.9966820  18.8535310  60.8992830  23.5902790
  19.1228410  62.3714610  23.8184120  15.4660240  63.0662090  29.4097140
  14.6520080  63.4959250  29.6722930  15.8734440  63.6780500  28.7966190
  17.5285680  61.1209780  16.3097410  17.8034520  62.0288660  16.1816630
  17.3396420  61.0572310  17.2459400  13.9261290  54.1454630  17.6051040
  14.3446170  53.9585610  16.7647700  13.6197350  53.2933680  17.9153970
  17.4251020  59.0578770  21.3026840  17.0494620  58.2906700  20.8708130
  16.6954140  59.4401470  21.7901770   2.0146780  59.7365910  27.9235890
   2.3819820  59.6493310  28.8031910   1.4457600  58.9732460  27.8242750
  16.8150640  58.2050290  30.9366360  16.5836730  57.9763040  30.0364310
  17.0755190  59.1249840  30.8911250  15.2538710  53.4306720  33.7146060
  16.1308890  53.4390120  34.0980060  15.2659550  52.6937560  33.1038410
  16.7001980  57.2836260  24.6034080  17.2239460  56.7898910  23.9724250
  17.2861400  57.4186620  25.3481650  16.8791700  57.3676130  28.1253630
  15.9294410  57.3339670  28.2398620  17.0604710  58.2776240  27.8903400
   2.7336140  55.6177810  17.2352260   3.4427840  55.1961030  16.7499540
   2.0176080  55.6853040  16.6035610   2.3810300  51.6717140  16.2754910
   3.1038430  52.2126080  16.5936130   2.6534820  51.3980560  15.3996450
  16.1901950  56.5409610  20.5426490  16.6861070  56.3080480  21.3275370
  15.9918020  55.7021450  20.1264130   2.0702490  50.9223330  26.1777530
   2.7178680  50.3720710  25.7372690   2.4904330  51.1766480  26.9993340
  17.6189110  55.1770560  23.0764170  17.5088390  55.0226600  24.0146440
  18.3796700  54.6491500  22.8339580  15.9654830  51.1164690  29.5347170
  16.6027050  51.7298830  29.9006360  16.1129720  51.1525350  28.5896400
  18.5079380  53.0078480  16.3170310  19.4328690  52.8759660  16.1088600
  18.4855170  53.0871300  17.2706760  18.5817870  53.7789140  18.9427020
  17.7869370  53.7134260  19.4719930  18.7861150  54.7139780  18.9312370
  15.5236290  67.8180690  22.9365410  16.1195360  67.4965260  22.2599830
  15.7814440  67.3452510  23.7278680   1.8234490  51.0779000  28.9202850
   1.4749310  51.5342820  29.6861030   1.4922190  50.1836130  29.0025280
   3.4298860  64.2498600  33.0856040   3.3868490  63.8791510  33.9670500
   3.5609870  65.1876170  33.2257860   7.1304890  65.8058190  28.6865760
   6.8896250  66.0732750  27.7996280   8.0707530  65.9763920  28.7416620
   9.3359310  52.2690880  32.4422270   9.2748200  52.8612710  33.1917680
  10.2759690  52.1616840  32.2972530  11.9733870  51.9260940  32.0814560
  12.5874280  52.2440230  31.4195640  12.5183430  51.4409530  32.7010420
  18.3909050  67.8252570  29.4876400  17.8967330  68.2221440  28.7703530
  17.7822340  67.2001780  29.8813680   2.4955130  50.6055200  32.1953620
   3.0438120  50.4243250  31.4319730   2.5610440  49.8149310  32.7309930
   3.2686890  67.1960850  30.2053820   2.6747210  67.0645550  30.9443860
   3.2610730  66.3598990  29.7395920  12.7141910  50.4893080  28.4083850
  11.8401750  50.8228190  28.2056780  12.6052660  50.0166260  29.2335720
  13.6213890  52.6963950  29.7925570  13.2927250  51.8815710  29.4127300
  14.5696190  52.6533760  29.6691260  16.0748500  68.4675990  26.7663140
  15.6151470  69.2191800  26.3921160  15.4460960  67.7482460  26.7077940
   2.8999120  64.5619230  29.1561860   2.1733180  63.9424520  29.0887810
   2.9608270  64.9559840  28.2859940   6.5044220  66.7764230  25.9411270
   7.0209240  66.1651590  25.4159530   7.1541600  67.2793010  26.4322280
   9.2439720  67.6672720  26.7680250   9.5317530  67.4127020  25.8913260
   9.7562940  67.1150080  27.3585820  10.4616730  51.4062920  27.3476760
   9.6788520  51.8808420  27.6273520  10.1679660  50.5017750  27.2389940
  15.0137800  52.1086020  25.3925850  15.4545890  52.0531120  24.5447450
  14.7445390  53.0244030  25.4636030  16.8776370  51.7401260  23.4034670
  16.8164770  50.7962480  23.2565690  17.6568400  51.8481350  23.9488130
   1.8057140  51.7110400  19.8690480   2.5636500  51.8239280  19.2954510
   1.3434310  52.5479600  19.8233910   8.3470950  53.8249670  22.8592790
   7.5345460  53.4506560  22.5188670   8.8512590  53.0694750  23.1613980
  12.8495930  50.4892120  24.0975860  13.4525300  51.0612330  24.5724380
  12.1088920  51.0531560  23.8749760  15.9930530  50.8913680  19.3716140
  16.1881160  51.7897130  19.6383570  15.2060400  50.6600760  19.8649090
   2.7891820  66.5726850  19.8108760   2.2639440  66.9534880  19.1070720
   2.7136400  67.1977620  20.5318470   4.1782290  52.2374450  18.4092450
   4.7075050  51.4504250  18.2800400   4.8110610  52.9165640  18.6427980
   6.3720130  51.9749590  21.4637840   5.7422870  51.2736900  21.6307970
   5.8325270  52.7353720  21.2471000   9.3112080  68.5888820  34.1348450
  10.2379390  68.3533090  34.1784410   9.2962510  69.4160820  33.6534480
  17.5457140  68.1314390  21.1322700  17.7209330  67.4452130  20.4883620
  16.8478710  68.6561440  20.7399370   6.4975690  51.2533570  33.8990330
   6.2159960  51.7567170  33.1351150   6.8795390  50.4555320  33.5332460
   5.3884790  68.5209230  18.6858010   6.1203610  68.2368510  18.1381900
   5.6478460  68.2822510  19.5757390   4.5499580  64.6373960  18.6904340
   3.9208460  65.1059060  19.2390170   4.6647410  63.7923180  19.1250530
  13.0991150  50.6687150  34.4770800  12.9856600  50.9881760  35.3722320
  13.9160890  51.0699660  34.1808080  15.8789640  67.8158680  33.9589490
  16.6714960  67.3207910  33.7515450  16.1722790  68.4948820  34.5665100
  12.0049300  58.6879620   4.8405540  11.9243350  57.7734230   4.5697250
  11.5913720  59.1846690   4.1345250  10.1367340  60.4658640   6.7214810
   9.3609440  59.9859080   7.0113380  10.7880270  59.7864290   6.5470970
   4.1533170  60.7778450   7.5990570   3.3218050  60.5227160   7.9987080
   4.7614150  60.8489220   8.3348490  14.1574770  64.8718830   5.5013940
  13.6956300  64.1006070   5.8301110  14.9700320  64.8984900   6.0066390
   4.1334430  64.8118540   7.7948590   4.4362470  63.9216280   7.6158810
   4.8778020  65.3688760   7.5670840  10.3838080  67.1576840   5.1217930
   9.7649520  67.6134340   4.5512370  11.2389860  67.3128300   4.7207630
   9.5776330  63.1415830   6.7284970   9.5084610  62.2005770   6.5674100
  10.3396190  63.2317240   7.3007540   1.7683000  53.7470350   9.0541590
   1.5885840  52.8496100   9.3344350   1.3663080  54.2942220   9.7288540
  10.6081500  55.9486210   6.9553900  10.9846320  55.0758090   6.8427570
  10.5101010  56.2844910   6.0644340   4.7386510  54.3211840   2.4171340
   4.8453260  55.2215570   2.7240100   3.8278870  54.2729810   2.1265990
  14.3905620  53.4436650   3.8882240  15.2115240  52.9533220   3.9307720
  14.4239700  54.0334310   4.6414080   2.3869670  56.2430850   7.6623930
   3.0679780  56.5069220   8.2811330   2.0717720  55.4031720   7.9961940
   6.5794240  57.2898210   6.7496520   7.0872460  57.7879180   7.3901540
   7.1107480  56.5133410   6.5735880  18.6805170  55.4603400  10.4525870
  17.9757340  55.8485110   9.9340980  18.9463090  56.1553690  11.0546800
   4.8630340  51.9296770  11.0159940   4.8648780  52.4469160  10.2105840
   4.0334650  51.4526950  10.9929870  11.2501430  62.0416080   2.5149840
  10.6318700  62.5065530   1.9512560  11.7624680  62.7343560   2.9319350
   6.1133190  61.5691950   9.1933440   5.7802570  62.1960870   9.8354510
   6.2899870  62.0953830   8.4135110  14.6267100  55.3837030   6.6609780
  13.9222670  55.6721920   7.2412890  14.9879260  56.1937140   6.3009340
   4.5445670  53.6406730   9.0230390   4.8862480  54.4848780   8.7284260
   3.6061480  53.7890470   9.1395730   5.3252290  63.5372750  11.0082620
   5.9426290  64.2123830  10.7267070   4.4645410  63.9460730  10.9170120
  16.2429880  65.0012160   8.9237260  15.5593400  65.6711270   8.9153930
  16.7824170  65.1992810   8.1582120  17.6954020  54.8291820   7.0518990
  16.7478930  54.8630800   7.1834420  18.0204010  55.6430770   7.4368350
   8.2273560  51.1289000   5.3474980   8.5348540  50.5735890   4.6310480
   7.2974260  51.2633460   5.1647970  13.7788620  66.8456290   7.6382440
  13.7915780  66.4418580   6.7704700  13.2263840  67.6203580   7.5343870
  15.0734040  63.5672510   2.7272610  14.9630370  62.6246840   2.8522030
  15.0702290  63.9288150   3.6135370  13.1774060  61.7486130   8.9665050
  13.5942850  61.5346240   8.1318510  13.9013880  62.0058920   9.5373670
  10.6154320  59.1937830   2.0835100   9.6883600  59.1275210   2.3123570
  10.7679140  60.1317960   1.9690340  17.1236160  60.1473350   9.0581290
  16.2954790  60.2166440   8.5831420  17.7186640  60.7327660   8.5897120
  14.6451610  60.7558130   2.5870350  14.0264030  60.4177680   1.9396650
  14.6276060  60.1117890   3.2949540  14.0878170  56.9342670  10.0036160
  13.6749350  57.7596380  10.2576150  13.3554120  56.3487710   9.8112520
   6.2210960  59.7202570   4.8654830   5.8167960  59.0079820   4.3700730
   6.3074080  59.3755810   5.7542870   6.6892660  63.4070130   7.0294040
   6.3920950  62.8015600   6.3501820   7.6392480  63.4447440   6.9183400
   4.9339580  56.4945780   8.6453870   5.4854170  56.6041120   7.8707120
   5.4483090  56.8683380   9.3609100  14.7778270  66.9802000  10.6917140
  14.3008830  67.7874190  10.4989750  14.0940060  66.3280330  10.8443350
   5.7811090  63.1451820  13.6801840   4.8839620  63.3691790  13.9275240
   5.8063960  63.2686760  12.7313240   4.6082310  60.0165140  12.2559210
   4.4690080  60.8887940  12.6246610   3.7263670  59.6737950  12.1107150
  10.9311690  64.9341010   3.5624340  11.3707600  65.6765340   3.1479730
  10.8698580  65.1767580   4.4863300   6.4062660  65.9586840  14.4644360
   6.3778090  66.3629790  13.5972790   6.2427630  65.0297200  14.3015960
   2.9215590  58.6147550   2.3661480   2.8013190  59.3409640   1.7542750
   2.6116480  57.8450460   1.8889390  18.3577480  66.7413940  15.7608530
  18.8337200  67.2196830  16.4397610  18.9784640  66.6731430  15.0354030
   1.8048590  63.4862880   4.5836300   1.3976670  63.6277470   3.7289900
   2.6961600  63.2023040   4.3807510  17.7610730  63.9326790  12.9208540
  17.8873790  63.6938670  12.0025720  17.8032110  63.1011330  13.3930620
  11.6227470  67.6354790  11.4903350  12.1372140  67.5462800  12.2925780
  10.7796550  67.9814490  11.7831260   6.0770250  67.7008660   2.6958970
   5.9012730  66.7844200   2.4826770   5.2225990  68.0595950   2.9356770
  12.8657930  67.0560400   3.5533840  13.3214880  66.2749780   3.8672460
  13.2050450  67.7667220   4.0975020  17.6134740  55.9859250  13.8858280
  16.9979010  56.4938920  13.3573740  17.2931160  55.0857580  13.8284220
   5.3879250  51.9582620   5.7485150   4.9447400  52.7392160   5.4169670
   5.9464240  52.2812510   6.4556090   9.6749060  54.8251140  11.3520470
   9.2128430  55.0334160  12.1640410   9.2727170  54.0110490  11.0491140
  14.6753570  56.0460090  12.4817130  13.8247160  55.7465840  12.8026200
  14.5155360  56.2902100  11.5700950  11.7703280  57.5461840  14.5815920
  12.0956690  56.7125590  14.2418150  12.5583610  58.0690360  14.7294250
   7.4255150  52.5029950   7.6074750   7.7227480  53.4092780   7.5266770
   7.9740710  52.0148730   6.9934320   5.1793470  57.0816190   3.4766400
   4.9534390  56.8653360   4.3813020   4.3986000  57.5144650   3.1312370
  12.4091230  57.0879560   2.0757050  11.8100120  57.8115360   1.8920670
  12.9570840  57.0256340   1.2933500   7.6192680  57.9801770  14.1426670
   7.5236280  57.0396500  13.9927070   8.4624660  58.2016840  13.7474740
  11.0156100  55.7243100   4.1060330  11.4085670  56.0415300   3.2929020
  11.3772950  54.8454980   4.2204850   2.7503220  54.3915440  12.2960450
   2.3566610  55.2390650  12.5033230   2.0621620  53.7541810  12.4869090
   9.3248270  54.4750410  15.3657190   8.6346590  54.2822610  16.0003280
  10.0680570  54.7585050  15.8981490  11.6011240  58.3148850   8.2011110
  10.8692360  58.8235660   8.5501210  11.2035580  57.4978830   7.8999890
   8.0388630  54.9903050   6.6063600   8.0424690  54.5493000   5.7568140
   8.9339750  55.3120380   6.7135420   3.8891010  54.8729540   5.5657810
   3.5491060  55.3504770   6.3224860   3.1268330  54.4194660   5.2058910
  12.0637150  53.7682530   7.6134050  12.0809890  54.2191180   8.4575900
  11.8152730  52.8688170   7.8267490  15.4907900  51.1814710  13.4520430
  15.8153670  50.4504370  13.9778410  15.5264410  50.8628350  12.5501420
   2.1899460  62.2028290  12.8720390   1.8054250  61.5621960  13.4703350
   2.5011650  62.9064410  13.4415120   8.3396600  59.0504830   8.3529010
   8.7066730  58.5763400   9.0990350   8.1501660  59.9246400   8.6937350
   6.1295970  58.0913470  10.6713220   5.8253040  58.9705450  10.8963580
   7.0842430  58.1513260  10.7070660  15.4165740  61.2939820   7.0606460
  16.1364860  61.7895110   6.6702570  15.2147560  60.6157710   6.4160330
  10.7984540  61.3648880  12.9475460  10.7321850  60.4444550  12.6933050
  10.1689680  61.4624320  13.6620100   4.7015160  61.9654840   4.9058880
   5.2193830  61.1623100   4.8515770   4.2499180  61.9033980   5.7475710
   2.1859700  58.9316210  11.8184580   1.8274640  59.5970060  12.4057920
   1.8914260  58.0999760  12.1897200   5.3872820  59.3900450  14.7024130
   5.0872960  59.5357630  13.8051950   6.1584060  58.8305740  14.6097520
  10.7301270  64.1869450  12.6979260  10.7445810  63.2550410  12.4798170
  10.0226370  64.2729210  13.3369030  16.9412480  60.8276790  12.0447840
  16.2160670  61.4205570  11.8477230  17.4687940  60.8200330  11.2461210
  12.4712070  62.5536960   5.5431690  12.8235890  61.9565090   4.8833060
  11.5874400  62.2281190   5.7139940   8.5575350  63.3134650   2.9502100
   9.2446480  63.8603860   3.3309690   7.7707770  63.8575380   2.9851710
   7.8602560  60.3180680   2.5627460   8.3165340  61.1285930   2.7887650
   7.5090770  60.0003820   3.3945950  10.1635170  65.8287020   9.7919760
  10.8077390  66.0346400  10.4693180  10.5264610  65.0675420   9.3390610
   3.7614340  50.6618330   3.0349980   3.6328970  50.6536230   3.9834900
   2.9376360  51.0001420   2.6840990  11.4367250  63.8319370   8.5097210
  12.0789480  63.1312530   8.6229380  11.9616600  64.6117810   8.3294100
  13.2104870  64.6314270  11.7133270  13.5461110  65.2180960  12.3911190
  12.2905210  64.5006980  11.9431060   9.0393450  64.6805600  14.8821330
   8.7190320  63.9614840  15.4267020   8.3651810  65.3560670  14.9557390
  12.2547050  54.9131760  10.2458130  12.6227870  54.0926970  10.5737700
  11.3945250  54.9733650  10.6613780   7.5893110  56.1474650   2.4703570
   6.8809260  56.6160990   2.9117180   7.8737590  55.4896660   3.1048760
   9.2149040  57.5671350  10.4696100   9.7134290  58.0417170  11.1347950
   9.3571990  56.6434870  10.6766130  11.6208540  52.8725310   3.9099360
  11.4976320  52.8911440   2.9608870  12.5693100  52.9204250   4.0297760
   8.7085330  68.1080610   3.1827340   8.9626830  68.0702000   2.2606710
   7.7597810  67.9813940   3.1755590  16.4215900  53.7839310  11.3124490
  15.9189500  54.5244710  11.6518300  17.2372560  54.1723310  10.9961280
  14.7137910  59.0272490   4.7585850  13.7728050  59.0422720   4.9333540
  15.0281980  58.2408450   5.2046150  16.7163490  66.1981340   6.4340110
  16.8410910  67.0212510   6.9063920  17.5829050  65.9872070   6.0864260
   4.1881020  68.2912550   6.1057240   4.9243500  67.7428010   6.3765810
   4.5721940  69.1568560   5.9663230   3.1939300  67.4758620  15.2942820
   3.9952030  67.7970670  15.7078220   2.6791120  67.1154200  16.0162730
  12.0303930  63.5838490  15.2418230  11.4242090  63.6070090  14.5013980
  11.7258040  62.8521530  15.7785480  13.4604300  67.3118780  13.8527640
  14.4126050  67.2276800  13.8027880  13.3132520  67.9760490  14.5261430
   7.9675050  61.3703070  13.7714390   7.2020720  61.9388070  13.6869060
   8.1491010  61.0779280  12.8782620  15.1098400  63.1008400  14.3289410
  15.8507870  63.4384160  13.8256870  14.3471080  63.2700460  13.7759180
   2.9460190  58.1061670  15.1328940   2.9865530  57.8075540  16.0414170
   3.8005690  58.5069280  14.9736460   4.8866000  56.6853770  13.1003430
   4.3562460  56.1944720  12.4726770   5.5554070  57.1137970  12.5661360
  13.7844060  61.1523230  12.8644620  14.1985080  61.3068310  13.7135040
  12.8495060  61.2778450  13.0270400  14.2566230  58.4919390  14.8683770
  14.8387000  57.7371710  14.7804250  14.4328000  59.0226830  14.0915250
   5.3738300  53.6516140  13.1800720   5.2795170  53.0336890  12.4551590
   4.7935690  54.3782430  12.9530630   8.1399740  52.2089380  10.2128110
   7.6917040  52.2313640   9.3673660   7.5064940  51.8108400  10.8098410
   8.5459290  61.1043710  10.8340550   8.9647400  61.9476440  10.6616790
   7.6267920  61.2415750  10.6047330  10.8823190  58.8359890  12.2178390
  11.0019400  58.2401030  12.9573230  11.7417190  58.8729580  11.7979690
  13.2211090  59.3897080  10.7940900  12.6946310  59.9139700  10.1906040
  13.5642430  60.0224470  11.4250630   6.3966710  67.4096720  11.9498280
   5.8587800  68.1342780  11.6306980   6.6500670  66.9327060  11.1595620
   7.6491960  55.3781240  13.4754210   8.2391650  55.0697090  14.1632030
   6.8312200  54.9060990  13.6314110  12.4685390  54.9947050  13.7087230
  11.7800910  54.3328590  13.6437220  13.1891410  54.5485320  14.1535690
   9.2528920  68.6447930  12.2084930   9.1787620  69.5483070  12.5157300
   8.3507760  68.3259830  12.1807000   5.2518130  64.3031530   3.1720520
   4.9513670  64.1796500   4.0724430   5.1455620  63.4440120   2.7636250
  16.7808600  66.3410110  12.5377490  16.1810590  66.4002670  11.7941410
  16.9102500  65.4015090  12.6674340  18.4826480  61.6825510   5.2223330
  18.8535310  60.8992830   4.8159300  19.1228410  62.3714610   5.0440630
  15.4660240  63.0662090  10.6353650  14.6520080  63.4959250  10.8979440
  15.8734440  63.6780500  10.0222700  17.4251020  59.0578770   2.5283350
  17.0494620  58.2906700   2.0964640  16.6954140  59.4401470   3.0158280
   2.0146780  59.7365910   9.1492400   2.3819820  59.6493310  10.0288420
   1.4457600  58.9732460   9.0499260  16.8150640  58.2050290  12.1622870
  16.5836730  57.9763040  11.2620820  17.0755190  59.1249840  12.1167760
  15.2538710  53.4306720  14.9402570  16.1308890  53.4390120  15.3236570
  15.2659550  52.6937560  14.3294920  16.7001980  57.2836260   5.8290590
  17.2239460  56.7898910   5.1980760  17.2861400  57.4186620   6.5738160
  16.8791700  57.3676130   9.3510140  15.9294410  57.3339670   9.4655130
  17.0604710  58.2776240   9.1159910  16.1901950  56.5409610   1.7683000
  16.6861070  56.3080480   2.5531880  15.9918020  55.7021450   1.3520640
   2.0702490  50.9223330   7.4034040   2.7178680  50.3720710   6.9629200
   2.4904330  51.1766480   8.2249850  17.6189110  55.1770560   4.3020680
  17.5088390  55.0226600   5.2402950  18.3796700  54.6491500   4.0596090
  15.9654830  51.1164690  10.7603680  16.6027050  51.7298830  11.1262870
  16.1129720  51.1525350   9.8152910  15.5236290  67.8180690   4.1621920
  16.1195360  67.4965260   3.4856340  15.7814440  67.3452510   4.9535190
   1.8234490  51.0779000  10.1459360   1.4749310  51.5342820  10.9117540
   1.4922190  50.1836130  10.2281790   3.4298860  64.2498600  14.3112550
   3.3868490  63.8791510  15.1927010   3.5609870  65.1876170  14.4514370
   7.1304890  65.8058190   9.9122270   6.8896250  66.0732750   9.0252790
   8.0707530  65.9763920   9.9673130   9.3359310  52.2690880  13.6678780
   9.2748200  52.8612710  14.4174190  10.2759690  52.1616840  13.5229040
  11.9733870  51.9260940  13.3071070  12.5874280  52.2440230  12.6452150
  12.5183430  51.4409530  13.9266930  18.3909050  67.8252570  10.7132910
  17.8967330  68.2221440   9.9960040  17.7822340  67.2001780  11.1070190
   2.4955130  50.6055200  13.4210130   3.0438120  50.4243250  12.6576240
   2.5610440  49.8149310  13.9566440   3.2686890  67.1960850  11.4310330
   2.6747210  67.0645550  12.1700370   3.2610730  66.3598990  10.9652430
  12.7141910  50.4893080   9.6340360  11.8401750  50.8228190   9.4313290
  12.6052660  50.0166260  10.4592230  13.6213890  52.6963950  11.0182080
  13.2927250  51.8815710  10.6383810  14.5696190  52.6533760  10.8947770
  16.0748500  68.4675990   7.9919650  15.6151470  69.2191800   7.6177670
  15.4460960  67.7482460   7.9334450   2.8999120  64.5619230  10.3818370
   2.1733180  63.9424520  10.3144320   2.9608270  64.9559840   9.5116450
   6.5044220  66.7764230   7.1667780   7.0209240  66.1651590   6.6416040
   7.1541600  67.2793010   7.6578790   9.2439720  67.6672720   7.9936760
   9.5317530  67.4127020   7.1169770   9.7562940  67.1150080   8.5842330
  10.4616730  51.4062920   8.5733270   9.6788520  51.8808420   8.8530030
  10.1679660  50.5017750   8.4646450  15.0137800  52.1086020   6.6182360
  15.4545890  52.0531120   5.7703960  14.7445390  53.0244030   6.6892540
  16.8776370  51.7401260   4.6291180  16.8164770  50.7962480   4.4822200
  17.6568400  51.8481350   5.1744640   8.3470950  53.8249670   4.0849300
   7.5345460  53.4506560   3.7445180   8.8512590  53.0694750   4.3870490
  12.8495930  50.4892120   5.3232370  13.4525300  51.0612330   5.7980890
  12.1088920  51.0531560   5.1006270   6.3720130  51.9749590   2.6894350
   5.7422870  51.2736900   2.8564480   5.8325270  52.7353720   2.4727510
   9.3112080  68.5888820  15.3604960  10.2379390  68.3533090  15.4040920
   9.2962510  69.4160820  14.8790990  17.5457140  68.1314390   2.3579210
  17.7209330  67.4452130   1.7140130  16.8478710  68.6561440   1.9655880
   6.4975690  51.2533570  15.1246840   6.2159960  51.7567170  14.3607660
   6.8795390  50.4555320  14.7588970  13.0991150  50.6687150  15.7027310
  12.9856600  50.9881760  16.5978830  13.9160890  51.0699660  15.4064590
  15.8789640  67.8158680  15.1846000  16.6714960  67.3207910  14.9771960
  16.1722790  68.4948820  15.7921610  12.0049300  39.9136130  79.9379500
  11.9243350  38.9990740  79.6671210  11.5913720  40.4103200  79.2319210
  10.1367340  41.6915150  81.8188770   9.3609440  41.2115590  82.1087340
  10.7880270  41.0120800  81.6444930   4.1533170  42.0034960  82.6964530
   3.3218050  41.7483670  83.0961040   4.7614150  42.0745730  83.4322450
  14.1574770  46.0975340  80.5987900  13.6956300  45.3262580  80.9275070
  14.9700320  46.1241410  81.1040350   4.1334430  46.0375050  82.8922550
   4.4362470  45.1472790  82.7132770   4.8778020  46.5945270  82.6644800
   2.5625120  36.9636850  76.4806920   1.6741820  37.3052820  76.3786800
   2.8466310  36.7637170  75.5887750  10.3838080  48.3833350  80.2191890
   9.7649520  48.8390850  79.6486330  11.2389860  48.5384810  79.8181590
   9.5776330  44.3672340  81.8258930   9.5084610  43.4262280  81.6648060
  10.3396190  44.4573750  82.3981500   1.7683000  34.9726860  84.1515550
   1.5885840  34.0752610  84.4318310   1.3663080  35.5198730  84.8262500
  10.6081500  37.1742720  82.0527860  10.9846320  36.3014600  81.9401530
  10.5101010  37.5101420  81.1618300   4.7386510  35.5468350  77.5145300
   4.8453260  36.4472080  77.8214060   3.8278870  35.4986320  77.2239950
  14.3905620  34.6693160  78.9856200  15.2115240  34.1789730  79.0281680
  14.4239700  35.2590820  79.7388040   2.3869670  37.4687360  82.7597890
   3.0679780  37.7325730  83.3785290   2.0717720  36.6288230  83.0935900
   6.5794240  38.5154720  81.8470480   7.0872460  39.0135690  82.4875500
   7.1107480  37.7389920  81.6709840  18.6805170  36.6859910  85.5499830
  17.9757340  37.0741620  85.0314940  18.9463090  37.3810200  86.1520760
   4.8630340  33.1553280  86.1133900   4.8648780  33.6725670  85.3079800
   4.0334650  32.6783460  86.0903830  11.2501430  43.2672590  77.6123800
  10.6318700  43.7322040  77.0486520  11.7624680  43.9600070  78.0293310
   6.1133190  42.7948460  84.2907400   5.7802570  43.4217380  84.9328470
   6.2899870  43.3210340  83.5109070  14.6267100  36.6093540  81.7583740
  13.9222670  36.8978430  82.3386850  14.9879260  37.4193650  81.3983300
   4.5445670  34.8663240  84.1204350   4.8862480  35.7105290  83.8258220
   3.6061480  35.0146980  84.2369690   5.3252290  44.7629260  86.1056580
   5.9426290  45.4380340  85.8241030   4.4645410  45.1717240  86.0144080
  16.2429880  46.2268670  84.0211220  15.5593400  46.8967780  84.0127890
  16.7824170  46.4249320  83.2556080  17.6954020  36.0548330  82.1492950
  16.7478930  36.0887310  82.2808380  18.0204010  36.8687280  82.5342310
   8.2273560  32.3545510  80.4448940   8.5348540  31.7992400  79.7284440
   7.2974260  32.4889970  80.2621930  13.7788620  48.0712800  82.7356400
  13.7915780  47.6675090  81.8678660  13.2263840  48.8460090  82.6317830
  15.0734040  44.7929020  77.8246570  14.9630370  43.8503350  77.9495990
  15.0702290  45.1544660  78.7109330  13.1774060  42.9742640  84.0639010
  13.5942850  42.7602750  83.2292470  13.9013880  43.2315430  84.6347630
  10.6154320  40.4194340  77.1809060   9.6883600  40.3531720  77.4097530
  10.7679140  41.3574470  77.0664300  10.6023400  36.6911340  74.1776220
   9.6627070  36.8525300  74.2628680  10.9206660  37.4097020  73.6312210
  17.1236160  41.3729860  84.1555250  16.2954790  41.4422950  83.6805380
  17.7186640  41.9584170  83.6871080  14.6451610  41.9814640  77.6844310
  14.0264030  41.6434190  77.0370610  14.6276060  41.3374400  78.3923500
  14.0878170  38.1599180  85.1010120  13.6749350  38.9852890  85.3550110
  13.3554120  37.5744220  84.9086480   6.2210960  40.9459080  79.9628790
   5.8167960  40.2336330  79.4674690   6.3074080  40.6012320  80.8516830
   6.6892660  44.6326640  82.1268000   6.3920950  44.0272110  81.4475780
   7.6392480  44.6703950  82.0157360   4.9339580  37.7202290  83.7427830
   5.4854170  37.8297630  82.9681080   5.4483090  38.0939890  84.4583060
  14.7778270  48.2058510  85.7891100  14.3008830  49.0130700  85.5963710
  14.0940060  47.5536840  85.9417310  12.8216310  41.2201450  74.6917060
  13.2609590  40.3823880  74.5454880  13.5344730  41.8530850  74.7781200
  10.9311690  46.1597520  78.6598300  11.3707600  46.9021850  78.2453690
  10.8698580  46.4024090  79.5837260  16.4033450  32.4744260  73.0058100
  16.0906110  32.5671090  73.9057170  17.1645920  33.0525290  72.9555530
   2.9215590  39.8404060  77.4635440   2.8013190  40.5666150  76.8516710
   2.6116480  39.0706970  76.9863350   1.8048590  44.7119390  79.6810260
   1.3976670  44.8533980  78.8263860   2.6961600  44.4279550  79.4781470
  13.5981870  49.1466640  76.0161310  13.4383010  48.8569580  76.9143140
  13.4328580  48.3706770  75.4806540   6.0770250  48.9265170  77.7932930
   5.9012730  48.0100710  77.5800730   5.2225990  49.2852460  78.0330730
  13.3008000  46.6554200  74.5759310  12.6073160  46.6531490  73.9161590
  14.0430860  46.2313520  74.1453480  12.8657930  48.2816910  78.6507800
  13.3214880  47.5006290  78.9646420  13.2050450  48.9923730  79.1948980
   5.3879250  33.1839130  80.8459110   4.9447400  33.9648670  80.5143630
   5.9464240  33.5069020  81.5530050   8.5038070  32.8049830  75.7264940
   7.8792250  32.8009700  76.4518250   8.4168190  31.9380790  75.3300910
   7.4255150  33.7286460  82.7048710   7.7227480  34.6349290  82.6240730
   7.9740710  33.2405240  82.0908280   5.1793470  38.3072700  78.5740360
   4.9534390  38.0909870  79.4786980   4.3986000  38.7401160  78.2286330
  12.4091230  38.3136070  77.1731010  11.8100120  39.0371870  76.9894630
  12.9570840  38.2512850  76.3907460  11.0156100  36.9499610  79.2034290
  11.4085670  37.2671810  78.3902980  11.3772950  36.0711490  79.3178810
  11.6011240  39.5405360  83.2985070  10.8692360  40.0492170  83.6475170
  11.2035580  38.7235340  82.9973850   8.0388630  36.2159560  81.7037560
   8.0424690  35.7749510  80.8542100   8.9339750  36.5376890  81.8109380
   3.8891010  36.0986050  80.6631770   3.5491060  36.5761280  81.4198820
   3.1268330  35.6451170  80.3032870   8.1008780  37.2171640  74.6944320
   8.2221600  37.1758120  75.6430140   7.7157290  38.0795790  74.5391050
  12.0637150  34.9939040  82.7108010  12.0809890  35.4447690  83.5549860
  11.8152730  34.0944680  82.9241450   7.1130280  39.5272780  74.0927620
   6.5447180  39.0791030  73.4663530   7.8219280  39.8865560  73.5592770
   8.3396600  40.2761340  83.4502970   8.7066730  39.8019910  84.1964310
   8.1501660  41.1502910  83.7911310   6.1295970  39.3169980  85.7687180
   5.8253040  40.1961960  85.9937540   7.0842430  39.3769770  85.8044620
   4.6577760  43.5230970  76.3654030   3.8840020  42.9828590  76.2052750
   5.3872390  43.0037580  76.0271790  15.4165740  42.5196330  82.1580420
  16.1364860  43.0151620  81.7676530  15.2147560  41.8414220  81.5134290
  10.8775680  33.9134290  76.3009810  10.0640290  33.4147460  76.2255120
  10.6837630  34.7532540  75.8846160  13.5924070  38.2853940  74.5971970
  14.4803690  38.5971170  74.4223310  13.5629160  37.4126190  74.2052550
   4.7015160  43.1911350  80.0032840   5.2193830  42.3879610  79.9489730
   4.2499180  43.1290490  80.8449670   9.5884660  44.4577630  75.2760140
   9.9300360  45.2019860  74.7803460   8.7597370  44.7708750  75.6384970
  15.8638340  39.5965780  74.0651830  15.7802060  40.0280000  73.2148270
  16.5832530  40.0564130  74.4978650  16.8925590  46.4508040  76.7933960
  16.2501750  45.7963660  77.0677680  16.5056250  46.8563130  76.0174630
  12.4712070  43.7793470  80.6405650  12.8235890  43.1821600  79.9807020
  11.5874400  43.4537700  80.8113900   8.5575350  44.5391160  78.0476060
   9.2446480  45.0860370  78.4283650   7.7707770  45.0831890  78.0825670
   7.8602560  41.5437190  77.6601420   8.3165340  42.3542440  77.8861610
   7.5090770  41.2260330  78.4919910  10.1635170  47.0543530  84.8893720
  10.8077390  47.2602910  85.5667140  10.5264610  46.2931930  84.4364570
   3.7614340  31.8874840  78.1323940   3.6328970  31.8792740  79.0808860
   2.9376360  32.2257930  77.7814950  11.4367250  45.0575880  83.6071170
  12.0789480  44.3569040  83.7203340  11.9616600  45.8374320  83.4268060
  15.2822970  45.3424500  73.3310310  15.0560550  44.6254940  73.9234950
  14.8919170  45.0936940  72.4932060  14.8639220  43.2596440  74.9924470
  14.5760920  43.7209130  75.7802350  15.6591390  42.7994210  75.2608690
   7.0807620  46.7522560  74.9228440   7.0717720  47.4852250  74.3072950
   6.1605980  46.5054140  75.0155400   2.6814260  41.9737450  75.6675200
   2.0742210  42.7136350  75.6770500   3.1563610  42.0636810  74.8413400
  12.2547050  36.1388270  85.3432090  12.6227870  35.3183480  85.6711660
  11.3945250  36.1990160  85.7587740  15.6209080  35.0945210  76.1519650
  14.9922240  35.1990880  75.4377880  15.1261000  35.3141990  76.9413530
  10.0667220  46.8150800  73.5853630  10.1679200  46.6114790  72.6555610
   9.1668960  46.5609080  73.7901410   7.5893110  37.3731160  77.5677530
   6.8809260  37.8417500  78.0091140   7.8737590  36.7153170  78.2022720
   9.2149040  38.7927860  85.5670060   9.7134290  39.2673680  86.2321910
   9.3571990  37.8691380  85.7740090  11.6208540  34.0981820  79.0073320
  11.4976320  34.1167950  78.0582830  12.5693100  34.1460760  79.1271720
   8.7085330  49.3337120  78.2801300   8.9626830  49.2958510  77.3580670
   7.7597810  49.2070450  78.2729550   5.7928130  35.6816240  74.9428240
   6.6418660  36.1186390  74.8768430   5.4259400  35.9936500  75.7700300
  16.4215900  35.0095820  86.4098450  15.9189500  35.7501220  86.7492260
  17.2372560  35.3979820  86.0935240  14.7137910  40.2529000  79.8559810
  13.7728050  40.2679230  80.0307500  15.0281980  39.4664960  80.3020110
   4.6919550  41.9348600  73.4163770   5.4582820  41.8229960  73.9789200
   4.7694240  41.2386570  72.7640540   3.3866310  39.3673670  74.0996660
   3.4669900  38.4201180  74.2114060   4.2786060  39.6980550  74.2057320
  16.7163490  47.4237850  81.5314070  16.8410910  48.2469020  82.0037880
  17.5829050  47.2128580  81.1838220   4.1881020  49.5169060  81.2031200
   4.9243500  48.9684520  81.4739770   4.5721940  50.3825070  81.0637190
   7.2983330  48.6899370  73.0256770   8.0911940  48.9788200  72.5738560
   6.7787680  48.2591540  72.3469250  16.3513500  47.9169500  74.4493510
  16.0655010  47.5034640  73.6347690  16.1533050  48.8457210  74.3294030
   7.8160730  43.9102780  72.8899120   7.7111370  43.2955130  73.6160500
   7.6484950  43.3868670  72.1062130  11.0563460  42.9722810  73.4941110
  10.5073560  43.4192110  74.1383850  11.6782720  42.4672060  74.0178780
   6.7238580  41.9313730  75.3906410   7.1455000  41.7653600  76.2337800
   6.8489420  41.1213960  74.8961550   9.2366220  40.9551340  72.6383510
   9.7571880  40.2400360  72.2724660   9.8834620  41.5937210  72.9384020
   8.1399740  33.4345890  85.3102070   7.6917040  33.4570150  84.4647620
   7.5064940  33.0364910  85.9072370   8.5459290  42.3300220  85.9314510
   8.9647400  43.1732950  85.7590750   7.6267920  42.4672260  85.7021290
  13.2211090  40.6153590  85.8914860  12.6946310  41.1396210  85.2880000
  13.5642430  41.2480980  86.5224590   5.6197480  38.0046960  72.3364570
   5.4186540  37.1414320  72.6977910   5.4489530  37.9180320  71.3986170
  13.0985790  32.8155190  74.8651450  13.3788080  31.9723090  75.2210870
  12.3251520  33.0478300  75.3790200   4.4180280  35.1047580  72.3242450
   4.7206180  35.1115010  71.4161600   5.1574870  34.7545440  72.8210110
   7.6365210  34.0482200  73.3098650   7.2887210  33.3706190  72.7301100
   7.8377980  33.5871710  74.1242040   9.8014250  49.0362950  74.9285250
  10.6965040  49.3747920  74.9504010   9.8331880  48.3142360  74.3009530
   3.4410410  44.4090000  73.1572250   3.8785280  44.9519670  73.8129830
   3.9258140  43.5836950  73.1668590   5.2518130  45.5288040  78.2694480
   4.9513670  45.4053010  79.1698390   5.1455620  44.6696630  77.8610210
  18.0210050  45.3084440  72.9721160  17.1903010  45.3761090  73.4428390
  18.1981880  46.1988560  72.6688020  17.4766510  42.0531920  75.4755360
  18.2385420  42.6228570  75.5815050  17.4920880  41.4859120  76.2463670
  18.4826480  42.9082020  80.3197290  18.8535310  42.1249340  79.9133260
  19.1228410  43.5971120  80.1414590  15.4660240  44.2918600  85.7327610
  14.6520080  44.7215760  85.9953400  15.8734440  44.9037010  85.1196660
  17.5285680  42.3466290  72.6327880  17.8034520  43.2545170  72.5047100
  17.3396420  42.2828820  73.5689870  13.9261290  35.3711140  73.9281510
  14.3446170  35.1842120  73.0878170  13.6197350  34.5190190  74.2384440
  17.4251020  40.2835280  77.6257310  17.0494620  39.5163210  77.1938600
  16.6954140  40.6657980  78.1132240   2.0146780  40.9622420  84.2466360
   2.3819820  40.8749820  85.1262380   1.4457600  40.1988970  84.1473220
  16.7001980  38.5092770  80.9264550  17.2239460  38.0155420  80.2954720
  17.2861400  38.6443130  81.6712120  16.8791700  38.5932640  84.4484100
  15.9294410  38.5596180  84.5629090  17.0604710  39.5032750  84.2133870
   2.7336140  36.8434320  73.5582730   3.4427840  36.4217540  73.0730010
   2.0176080  36.9109550  72.9266080   2.3810300  32.8973650  72.5985380
   3.1038430  33.4382590  72.9166600   2.6534820  32.6237070  71.7226920
  16.1901950  37.7666120  76.8656960  16.6861070  37.5336990  77.6505840
  15.9918020  36.9277960  76.4494600   2.0702490  32.1479840  82.5008000
   2.7178680  31.5977220  82.0603160   2.4904330  32.4022990  83.3223810
  17.6189110  36.4027070  79.3994640  17.5088390  36.2483110  80.3376910
  18.3796700  35.8748010  79.1570050  15.9654830  32.3421200  85.8577640
  16.6027050  32.9555340  86.2236830  16.1129720  32.3781860  84.9126870
  18.5079380  34.2334990  72.6400780  19.4328690  34.1016170  72.4319070
  18.4855170  34.3127810  73.5937230  18.5817870  35.0045650  75.2657490
  17.7869370  34.9390770  75.7950400  18.7861150  35.9396290  75.2542840
  15.5236290  49.0437200  79.2595880  16.1195360  48.7221770  78.5830300
  15.7814440  48.5709020  80.0509150   1.8234490  32.3035510  85.2433320
   1.4749310  32.7599330  86.0091500   1.4922190  31.4092640  85.3255750
   7.1304890  47.0314700  85.0096230   6.8896250  47.2989260  84.1226750
   8.0707530  47.2020430  85.0647090  18.3909050  49.0509080  85.8106870
  17.8967330  49.4477950  85.0934000  17.7822340  48.4258290  86.2044150
  12.7141910  31.7149590  84.7314320  11.8401750  32.0484700  84.5287250
  12.6052660  31.2422770  85.5566190  13.6213890  33.9220460  86.1156040
  13.2927250  33.1072220  85.7357770  14.5696190  33.8790270  85.9921730
  16.0748500  49.6932500  83.0893610  15.6151470  50.4448310  82.7151630
  15.4460960  48.9738970  83.0308410   2.8999120  45.7875740  85.4792330
   2.1733180  45.1681030  85.4118280   2.9608270  46.1816350  84.6090410
   6.5044220  48.0020740  82.2641740   7.0209240  47.3908100  81.7390000
   7.1541600  48.5049520  82.7552750   9.2439720  48.8929230  83.0910720
   9.5317530  48.6383530  82.2143730   9.7562940  48.3406590  83.6816290
  10.4616730  32.6319430  83.6707230   9.6788520  33.1064930  83.9503990
  10.1679660  31.7274260  83.5620410  15.0137800  33.3342530  81.7156320
  15.4545890  33.2787630  80.8677920  14.7445390  34.2500540  81.7866500
  16.8776370  32.9657770  79.7265140  16.8164770  32.0218990  79.5796160
  17.6568400  33.0737860  80.2718600   1.8057140  32.9366910  76.1920950
   2.5636500  33.0495790  75.6184980   1.3434310  33.7736110  76.1464380
   8.3470950  35.0506180  79.1823260   7.5345460  34.6763070  78.8419140
   8.8512590  34.2951260  79.4844450  12.8495930  31.7148630  80.4206330
  13.4525300  32.2868840  80.8954850  12.1088920  32.2788070  80.1980230
  15.9930530  32.1170190  75.6946610  16.1881160  33.0153640  75.9614040
  15.2060400  31.8857270  76.1879560   2.7891820  47.7983360  76.1339230
   2.2639440  48.1791390  75.4301190   2.7136400  48.4234130  76.8548940
   4.1782290  33.4630960  74.7322920   4.7075050  32.6760760  74.6030870
   4.8110610  34.1422150  74.9658450   6.3720130  33.2006100  77.7868310
   5.7422870  32.4993410  77.9538440   5.8325270  33.9610230  77.5701470
  17.5457140  49.3570900  77.4553170  17.7209330  48.6708640  76.8114090
  16.8478710  49.8817950  77.0629840   5.3884790  49.7465740  75.0088480
   6.1203610  49.4625020  74.4612370   5.6478460  49.5079020  75.8987860
   4.5499580  45.8630470  75.0134810   3.9208460  46.3315570  75.5620640
   4.6647410  45.0179690  75.4481000  12.0049300  39.9136130  61.1636010
  11.9243350  38.9990740  60.8927720  11.5913720  40.4103200  60.4575720
  10.1367340  41.6915150  63.0445280   9.3609440  41.2115590  63.3343850
  10.7880270  41.0120800  62.8701440   4.1533170  42.0034960  63.9221040
   3.3218050  41.7483670  64.3217550   4.7614150  42.0745730  64.6578960
  14.1574770  46.0975340  61.8244410  13.6956300  45.3262580  62.1531580
  14.9700320  46.1241410  62.3296860   4.1334430  46.0375050  64.1179060
   4.4362470  45.1472790  63.9389280   4.8778020  46.5945270  63.8901310
   2.5625120  36.9636850  57.7063430   1.6741820  37.3052820  57.6043310
   2.8466310  36.7637170  56.8144260  10.3838080  48.3833350  61.4448400
   9.7649520  48.8390850  60.8742840  11.2389860  48.5384810  61.0438100
   9.5776330  44.3672340  63.0515440   9.5084610  43.4262280  62.8904570
  10.3396190  44.4573750  63.6238010   1.7683000  34.9726860  65.3772060
   1.5885840  34.0752610  65.6574820   1.3663080  35.5198730  66.0519010
  10.6081500  37.1742720  63.2784370  10.9846320  36.3014600  63.1658040
  10.5101010  37.5101420  62.3874810   4.7386510  35.5468350  58.7401810
   4.8453260  36.4472080  59.0470570   3.8278870  35.4986320  58.4496460
  14.3905620  34.6693160  60.2112710  15.2115240  34.1789730  60.2538190
  14.4239700  35.2590820  60.9644550   2.3869670  37.4687360  63.9854400
   3.0679780  37.7325730  64.6041800   2.0717720  36.6288230  64.3192410
   6.5794240  38.5154720  63.0726990   7.0872460  39.0135690  63.7132010
   7.1107480  37.7389920  62.8966350  18.6805170  36.6859910  66.7756340
  17.9757340  37.0741620  66.2571450  18.9463090  37.3810200  67.3777270
   4.8630340  33.1553280  67.3390410   4.8648780  33.6725670  66.5336310
   4.0334650  32.6783460  67.3160340  11.2501430  43.2672590  58.8380310
  10.6318700  43.7322040  58.2743030  11.7624680  43.9600070  59.2549820
   6.1133190  42.7948460  65.5163910   5.7802570  43.4217380  66.1584980
   6.2899870  43.3210340  64.7365580  14.6267100  36.6093540  62.9840250
  13.9222670  36.8978430  63.5643360  14.9879260  37.4193650  62.6239810
   4.5445670  34.8663240  65.3460860   4.8862480  35.7105290  65.0514730
   3.6061480  35.0146980  65.4626200   5.3252290  44.7629260  67.3313090
   5.9426290  45.4380340  67.0497540   4.4645410  45.1717240  67.2400590
  16.2429880  46.2268670  65.2467730  15.5593400  46.8967780  65.2384400
  16.7824170  46.4249320  64.4812590  17.6954020  36.0548330  63.3749460
  16.7478930  36.0887310  63.5064890  18.0204010  36.8687280  63.7598820
   8.2273560  32.3545510  61.6705450   8.5348540  31.7992400  60.9540950
   7.2974260  32.4889970  61.4878440  13.7788620  48.0712800  63.9612910
  13.7915780  47.6675090  63.0935170  13.2263840  48.8460090  63.8574340
  15.0734040  44.7929020  59.0503080  14.9630370  43.8503350  59.1752500
  15.0702290  45.1544660  59.9365840  13.1774060  42.9742640  65.2895520
  13.5942850  42.7602750  64.4548980  13.9013880  43.2315430  65.8604140
  10.6154320  40.4194340  58.4065570   9.6883600  40.3531720  58.6354040
  10.7679140  41.3574470  58.2920810  10.6023400  36.6911340  55.4032730
   9.6627070  36.8525300  55.4885190  10.9206660  37.4097020  54.8568720
  17.1236160  41.3729860  65.3811760  16.2954790  41.4422950  64.9061890
  17.7186640  41.9584170  64.9127590  14.6451610  41.9814640  58.9100820
  14.0264030  41.6434190  58.2627120  14.6276060  41.3374400  59.6180010
  14.0878170  38.1599180  66.3266630  13.6749350  38.9852890  66.5806620
  13.3554120  37.5744220  66.1342990   6.2210960  40.9459080  61.1885300
   5.8167960  40.2336330  60.6931200   6.3074080  40.6012320  62.0773340
   6.6892660  44.6326640  63.3524510   6.3920950  44.0272110  62.6732290
   7.6392480  44.6703950  63.2413870   4.9339580  37.7202290  64.9684340
   5.4854170  37.8297630  64.1937590   5.4483090  38.0939890  65.6839570
  14.7778270  48.2058510  67.0147610  14.3008830  49.0130700  66.8220220
  14.0940060  47.5536840  67.1673820   5.7811090  44.3708330  70.0032310
   4.8839620  44.5948300  70.2505710   5.8063960  44.4943270  69.0543710
  12.8216310  41.2201450  55.9173570  13.2609590  40.3823880  55.7711390
  13.5344730  41.8530850  56.0037710   4.6082310  41.2421650  68.5789680
   4.4690080  42.1144450  68.9477080   3.7263670  40.8994460  68.4337620
  10.9311690  46.1597520  59.8854810  11.3707600  46.9021850  59.4710200
  10.8698580  46.4024090  60.8093770   6.4062660  47.1843350  70.7874830
   6.3778090  47.5886300  69.9203260   6.2427630  46.2553710  70.6246430
  16.4033450  32.4744260  54.2314610  16.0906110  32.5671090  55.1313680
  17.1645920  33.0525290  54.1812040   2.9215590  39.8404060  58.6891950
   2.8013190  40.5666150  58.0773220   2.6116480  39.0706970  58.2119860
  18.3577480  47.9670450  72.0839000  18.8337200  48.4453340  72.7628080
  18.9784640  47.8987940  71.3584500   1.8048590  44.7119390  60.9066770
   1.3976670  44.8533980  60.0520370   2.6961600  44.4279550  60.7037980
  17.7610730  45.1583300  69.2439010  17.8873790  44.9195180  68.3256190
  17.8032110  44.3267840  69.7161090  11.6227470  48.8611300  67.8133820
  12.1372140  48.7719310  68.6156250  10.7796550  49.2071000  68.1061730
  13.5981870  49.1466640  57.2417820  13.4383010  48.8569580  58.1399650
  13.4328580  48.3706770  56.7063050   6.0770250  48.9265170  59.0189440
   5.9012730  48.0100710  58.8057240   5.2225990  49.2852460  59.2587240
  13.3008000  46.6554200  55.8015820  12.6073160  46.6531490  55.1418100
  14.0430860  46.2313520  55.3709990  12.8657930  48.2816910  59.8764310
  13.3214880  47.5006290  60.1902930  13.2050450  48.9923730  60.4205490
  17.6134740  37.2115760  70.2088750  16.9979010  37.7195430  69.6804210
  17.2931160  36.3114090  70.1514690   5.3879250  33.1839130  62.0715620
   4.9447400  33.9648670  61.7400140   5.9464240  33.5069020  62.7786560
   9.6749060  36.0507650  67.6750940   9.2128430  36.2590670  68.4870880
   9.2727170  35.2367000  67.3721610  14.6753570  37.2716600  68.8047600
  13.8247160  36.9722350  69.1256670  14.5155360  37.5158610  67.8931420
  11.7703280  38.7718350  70.9046390  12.0956690  37.9382100  70.5648620
  12.5583610  39.2946870  71.0524720   8.5038070  32.8049830  56.9521450
   7.8792250  32.8009700  57.6774760   8.4168190  31.9380790  56.5557420
   7.4255150  33.7286460  63.9305220   7.7227480  34.6349290  63.8497240
   7.9740710  33.2405240  63.3164790   5.1793470  38.3072700  59.7996870
   4.9534390  38.0909870  60.7043490   4.3986000  38.7401160  59.4542840
  12.4091230  38.3136070  58.3987520  11.8100120  39.0371870  58.2151140
  12.9570840  38.2512850  57.6163970   7.6192680  39.2058280  70.4657140
   7.5236280  38.2653010  70.3157540   8.4624660  39.4273350  70.0705210
  11.0156100  36.9499610  60.4290800  11.4085670  37.2671810  59.6159490
  11.3772950  36.0711490  60.5435320   2.7503220  35.6171950  68.6190920
   2.3566610  36.4647160  68.8263700   2.0621620  34.9798320  68.8099560
   9.3248270  35.7006920  71.6887660   8.6346590  35.5079120  72.3233750
  10.0680570  35.9841560  72.2211960  11.6011240  39.5405360  64.5241580
  10.8692360  40.0492170  64.8731680  11.2035580  38.7235340  64.2230360
   8.0388630  36.2159560  62.9294070   8.0424690  35.7749510  62.0798610
   8.9339750  36.5376890  63.0365890   3.8891010  36.0986050  61.8888280
   3.5491060  36.5761280  62.6455330   3.1268330  35.6451170  61.5289380
   8.1008780  37.2171640  55.9200830   8.2221600  37.1758120  56.8686650
   7.7157290  38.0795790  55.7647560  12.0637150  34.9939040  63.9364520
  12.0809890  35.4447690  64.7806370  11.8152730  34.0944680  64.1497960
   7.1130280  39.5272780  55.3184130   6.5447180  39.0791030  54.6920040
   7.8219280  39.8865560  54.7849280  15.4907900  32.4071220  69.7750900
  15.8153670  31.6760880  70.3008880  15.5264410  32.0884860  68.8731890
   2.1899460  43.4284800  69.1950860   1.8054250  42.7878470  69.7933820
   2.5011650  44.1320920  69.7645590   8.3396600  40.2761340  64.6759480
   8.7066730  39.8019910  65.4220820   8.1501660  41.1502910  65.0167820
   6.1295970  39.3169980  66.9943690   5.8253040  40.1961960  67.2194050
   7.0842430  39.3769770  67.0301130   4.6577760  43.5230970  57.5910540
   3.8840020  42.9828590  57.4309260   5.3872390  43.0037580  57.2528300
  15.4165740  42.5196330  63.3836930  16.1364860  43.0151620  62.9933040
  15.2147560  41.8414220  62.7390800  10.8775680  33.9134290  57.5266320
  10.0640290  33.4147460  57.4511630  10.6837630  34.7532540  57.1102670
  10.7984540  42.5905390  69.2705930  10.7321850  41.6701060  69.0163520
  10.1689680  42.6880830  69.9850570  13.5924070  38.2853940  55.8228480
  14.4803690  38.5971170  55.6479820  13.5629160  37.4126190  55.4309060
   4.7015160  43.1911350  61.2289350   5.2193830  42.3879610  61.1746240
   4.2499180  43.1290490  62.0706180   9.5884660  44.4577630  56.5016650
   9.9300360  45.2019860  56.0059970   8.7597370  44.7708750  56.8641480
   2.1859700  40.1572720  68.1415050   1.8274640  40.8226570  68.7288390
   1.8914260  39.3256270  68.5127670   5.3872820  40.6156960  71.0254600
   5.0872960  40.7614140  70.1282420   6.1584060  40.0562250  70.9327990
  10.7301270  45.4125960  69.0209730  10.7445810  44.4806920  68.8028640
  10.0226370  45.4985720  69.6599500  15.8638340  39.5965780  55.2908340
  15.7802060  40.0280000  54.4404780  16.5832530  40.0564130  55.7235160
  16.9412480  42.0533300  68.3678310  16.2160670  42.6462080  68.1707700
  17.4687940  42.0456840  67.5691680  16.8925590  46.4508040  58.0190470
  16.2501750  45.7963660  58.2934190  16.5056250  46.8563130  57.2431140
  12.4712070  43.7793470  61.8662160  12.8235890  43.1821600  61.2063530
  11.5874400  43.4537700  62.0370410   8.5575350  44.5391160  59.2732570
   9.2446480  45.0860370  59.6540160   7.7707770  45.0831890  59.3082180
   7.8602560  41.5437190  58.8857930   8.3165340  42.3542440  59.1118120
   7.5090770  41.2260330  59.7176420  10.1635170  47.0543530  66.1150230
  10.8077390  47.2602910  66.7923650  10.5264610  46.2931930  65.6621080
   3.7614340  31.8874840  59.3580450   3.6328970  31.8792740  60.3065370
   2.9376360  32.2257930  59.0071460  11.4367250  45.0575880  64.8327680
  12.0789480  44.3569040  64.9459850  11.9616600  45.8374320  64.6524570
  15.2822970  45.3424500  54.5566820  15.0560550  44.6254940  55.1491460
  14.8919170  45.0936940  53.7188570  13.2104870  45.8570780  68.0363740
  13.5461110  46.4437470  68.7141660  12.2905210  45.7263490  68.2661530
  14.8639220  43.2596440  56.2180980  14.5760920  43.7209130  57.0058860
  15.6591390  42.7994210  56.4865200   9.0393450  45.9062110  71.2051800
   8.7190320  45.1871350  71.7497490   8.3651810  46.5817180  71.2787860
   7.0807620  46.7522560  56.1484950   7.0717720  47.4852250  55.5329460
   6.1605980  46.5054140  56.2411910   2.6814260  41.9737450  56.8931710
   2.0742210  42.7136350  56.9027010   3.1563610  42.0636810  56.0669910
  12.2547050  36.1388270  66.5688600  12.6227870  35.3183480  66.8968170
  11.3945250  36.1990160  66.9844250  15.6209080  35.0945210  57.3776160
  14.9922240  35.1990880  56.6634390  15.1261000  35.3141990  58.1670040
  10.0667220  46.8150800  54.8110140  10.1679200  46.6114790  53.8812120
   9.1668960  46.5609080  55.0157920   7.5893110  37.3731160  58.7934040
   6.8809260  37.8417500  59.2347650   7.8737590  36.7153170  59.4279230
   9.2149040  38.7927860  66.7926570   9.7134290  39.2673680  67.4578420
   9.3571990  37.8691380  66.9996600  11.6208540  34.0981820  60.2329830
  11.4976320  34.1167950  59.2839340  12.5693100  34.1460760  60.3528230
   8.7085330  49.3337120  59.5057810   8.9626830  49.2958510  58.5837180
   7.7597810  49.2070450  59.4986060   5.7928130  35.6816240  56.1684750
   6.6418660  36.1186390  56.1024940   5.4259400  35.9936500  56.9956810
  16.4215900  35.0095820  67.6354960  15.9189500  35.7501220  67.9748770
  17.2372560  35.3979820  67.3191750  14.7137910  40.2529000  61.0816320
  13.7728050  40.2679230  61.2564010  15.0281980  39.4664960  61.5276620
   4.6919550  41.9348600  54.6420280   5.4582820  41.8229960  55.2045710
   4.7694240  41.2386570  53.9897050   3.3866310  39.3673670  55.3253170
   3.4669900  38.4201180  55.4370570   4.2786060  39.6980550  55.4313830
  16.7163490  47.4237850  62.7570580  16.8410910  48.2469020  63.2294390
  17.5829050  47.2128580  62.4094730   4.1881020  49.5169060  62.4287710
   4.9243500  48.9684520  62.6996280   4.5721940  50.3825070  62.2893700
   3.1939300  48.7015130  71.6173290   3.9952030  49.0227180  72.0308690
   2.6791120  48.3410710  72.3393200   7.2983330  48.6899370  54.2513280
   8.0911940  48.9788200  53.7995070   6.7787680  48.2591540  53.5725760
  12.0303930  44.8095000  71.5648700  11.4242090  44.8326600  70.8244450
  11.7258040  44.0778040  72.1015950  13.4604300  48.5375290  70.1758110
  14.4126050  48.4533310  70.1258350  13.3132520  49.2017000  70.8491900
  16.3513500  47.9169500  55.6750020  16.0655010  47.5034640  54.8604200
  16.1533050  48.8457210  55.5550540   7.8160730  43.9102780  54.1155630
   7.7111370  43.2955130  54.8417010   7.6484950  43.3868670  53.3318640
   7.9675050  42.5959580  70.0944860   7.2020720  43.1644580  70.0099530
   8.1491010  42.3035790  69.2013090  11.0563460  42.9722810  54.7197620
  10.5073560  43.4192110  55.3640360  11.6782720  42.4672060  55.2435290
  15.1098400  44.3264910  70.6519880  15.8507870  44.6640670  70.1487340
  14.3471080  44.4956970  70.0989650   2.9460190  39.3318180  71.4559410
   2.9865530  39.0332050  72.3644640   3.8005690  39.7325790  71.2966930
   6.7238580  41.9313730  56.6162920   7.1455000  41.7653600  57.4594310
   6.8489420  41.1213960  56.1218060   4.8866000  37.9110280  69.4233900
   4.3562460  37.4201230  68.7957240   5.5554070  38.3394480  68.8891830
   9.2366220  40.9551340  53.8640020   9.7571880  40.2400360  53.4981170
   9.8834620  41.5937210  54.1640530  13.7844060  42.3779740  69.1875090
  14.1985080  42.5324820  70.0365510  12.8495060  42.5034960  69.3500870
  14.2566230  39.7175900  71.1914240  14.8387000  38.9628220  71.1034720
  14.4328000  40.2483340  70.4145720   5.3738300  34.8772650  69.5031190
   5.2795170  34.2593400  68.7782060   4.7935690  35.6038940  69.2761100
   8.1399740  33.4345890  66.5358580   7.6917040  33.4570150  65.6904130
   7.5064940  33.0364910  67.1328880   8.5459290  42.3300220  67.1571020
   8.9647400  43.1732950  66.9847260   7.6267920  42.4672260  66.9277800
  10.8823190  40.0616400  68.5408860  11.0019400  39.4657540  69.2803700
  11.7417190  40.0986090  68.1210160  13.2211090  40.6153590  67.1171370
  12.6946310  41.1396210  66.5136510  13.5642430  41.2480980  67.7481100
   5.6197480  38.0046960  53.5621080   5.4186540  37.1414320  53.9234420
   5.4489530  37.9180320  52.6242680   6.3966710  48.6353230  68.2728750
   5.8587800  49.3599290  67.9537450   6.6500670  48.1583570  67.4826090
   7.6491960  36.6037750  69.7984680   8.2391650  36.2953600  70.4862500
   6.8312200  36.1317500  69.9544580  12.4685390  36.2203560  70.0317700
  11.7800910  35.5585100  69.9667690  13.1891410  35.7741830  70.4766160
  13.0985790  32.8155190  56.0907960  13.3788080  31.9723090  56.4467380
  12.3251520  33.0478300  56.6046710   4.4180280  35.1047580  53.5498960
   4.7206180  35.1115010  52.6418110   5.1574870  34.7545440  54.0466620
   9.2528920  49.8704440  68.5315400   9.1787620  50.7739580  68.8387770
   8.3507760  49.5516340  68.5037470   7.6365210  34.0482200  54.5355160
   7.2887210  33.3706190  53.9557610   7.8377980  33.5871710  55.3498550
   9.8014250  49.0362950  56.1541760  10.6965040  49.3747920  56.1760520
   9.8331880  48.3142360  55.5266040   3.4410410  44.4090000  54.3828760
   3.8785280  44.9519670  55.0386340   3.9258140  43.5836950  54.3925100
   5.2518130  45.5288040  59.4950990   4.9513670  45.4053010  60.3954900
   5.1455620  44.6696630  59.0866720  16.7808600  47.5666620  68.8607960
  16.1810590  47.6259180  68.1171880  16.9102500  46.6271600  68.9904810
  18.0210050  45.3084440  54.1977670  17.1903010  45.3761090  54.6684900
  18.1981880  46.1988560  53.8944530  17.4766510  42.0531920  56.7011870
  18.2385420  42.6228570  56.8071560  17.4920880  41.4859120  57.4720180
  18.4826480  42.9082020  61.5453800  18.8535310  42.1249340  61.1389770
  19.1228410  43.5971120  61.3671100  15.4660240  44.2918600  66.9584120
  14.6520080  44.7215760  67.2209910  15.8734440  44.9037010  66.3453170
  17.5285680  42.3466290  53.8584390  17.8034520  43.2545170  53.7303610
  17.3396420  42.2828820  54.7946380  13.9261290  35.3711140  55.1538020
  14.3446170  35.1842120  54.3134680  13.6197350  34.5190190  55.4640950
  17.4251020  40.2835280  58.8513820  17.0494620  39.5163210  58.4195110
  16.6954140  40.6657980  59.3388750   2.0146780  40.9622420  65.4722870
   2.3819820  40.8749820  66.3518890   1.4457600  40.1988970  65.3729730
  16.8150640  39.4306800  68.4853340  16.5836730  39.2019550  67.5851290
  17.0755190  40.3506350  68.4398230  15.2538710  34.6563230  71.2633040
  16.1308890  34.6646630  71.6467040  15.2659550  33.9194070  70.6525390
  16.7001980  38.5092770  62.1521060  17.2239460  38.0155420  61.5211230
  17.2861400  38.6443130  62.8968630  16.8791700  38.5932640  65.6740610
  15.9294410  38.5596180  65.7885600  17.0604710  39.5032750  65.4390380
   2.7336140  36.8434320  54.7839240   3.4427840  36.4217540  54.2986520
   2.0176080  36.9109550  54.1522590   2.3810300  32.8973650  53.8241890
   3.1038430  33.4382590  54.1423110   2.6534820  32.6237070  52.9483430
  16.1901950  37.7666120  58.0913470  16.6861070  37.5336990  58.8762350
  15.9918020  36.9277960  57.6751110   2.0702490  32.1479840  63.7264510
   2.7178680  31.5977220  63.2859670   2.4904330  32.4022990  64.5480320
  17.6189110  36.4027070  60.6251150  17.5088390  36.2483110  61.5633420
  18.3796700  35.8748010  60.3826560  15.9654830  32.3421200  67.0834150
  16.6027050  32.9555340  67.4493340  16.1129720  32.3781860  66.1383380
  18.5079380  34.2334990  53.8657290  19.4328690  34.1016170  53.6575580
  18.4855170  34.3127810  54.8193740  18.5817870  35.0045650  56.4914000
  17.7869370  34.9390770  57.0206910  18.7861150  35.9396290  56.4799350
  15.5236290  49.0437200  60.4852390  16.1195360  48.7221770  59.8086810
  15.7814440  48.5709020  61.2765660   1.8234490  32.3035510  66.4689830
   1.4749310  32.7599330  67.2348010   1.4922190  31.4092640  66.5512260
   3.4298860  45.4755110  70.6343020   3.3868490  45.1048020  71.5157480
   3.5609870  46.4132680  70.7744840   7.1304890  47.0314700  66.2352740
   6.8896250  47.2989260  65.3483260   8.0707530  47.2020430  66.2903600
   9.3359310  33.4947390  69.9909250   9.2748200  34.0869220  70.7404660
  10.2759690  33.3873350  69.8459510  11.9733870  33.1517450  69.6301540
  12.5874280  33.4696740  68.9682620  12.5183430  32.6666040  70.2497400
  18.3909050  49.0509080  67.0363380  17.8967330  49.4477950  66.3190510
  17.7822340  48.4258290  67.4300660   2.4955130  31.8311710  69.7440600
   3.0438120  31.6499760  68.9806710   2.5610440  31.0405820  70.2796910
   3.2686890  48.4217360  67.7540800   2.6747210  48.2902060  68.4930840
   3.2610730  47.5855500  67.2882900  12.7141910  31.7149590  65.9570830
  11.8401750  32.0484700  65.7543760  12.6052660  31.2422770  66.7822700
  13.6213890  33.9220460  67.3412550  13.2927250  33.1072220  66.9614280
  14.5696190  33.8790270  67.2178240  16.0748500  49.6932500  64.3150120
  15.6151470  50.4448310  63.9408140  15.4460960  48.9738970  64.2564920
   2.8999120  45.7875740  66.7048840   2.1733180  45.1681030  66.6374790
   2.9608270  46.1816350  65.8346920   6.5044220  48.0020740  63.4898250
   7.0209240  47.3908100  62.9646510   7.1541600  48.5049520  63.9809260
   9.2439720  48.8929230  64.3167230   9.5317530  48.6383530  63.4400240
   9.7562940  48.3406590  64.9072800  10.4616730  32.6319430  64.8963740
   9.6788520  33.1064930  65.1760500  10.1679660  31.7274260  64.7876920
  15.0137800  33.3342530  62.9412830  15.4545890  33.2787630  62.0934430
  14.7445390  34.2500540  63.0123010  16.8776370  32.9657770  60.9521650
  16.8164770  32.0218990  60.8052670  17.6568400  33.0737860  61.4975110
   1.8057140  32.9366910  57.4177460   2.5636500  33.0495790  56.8441490
   1.3434310  33.7736110  57.3720890   8.3470950  35.0506180  60.4079770
   7.5345460  34.6763070  60.0675650   8.8512590  34.2951260  60.7100960
  12.8495930  31.7148630  61.6462840  13.4525300  32.2868840  62.1211360
  12.1088920  32.2788070  61.4236740  15.9930530  32.1170190  56.9203120
  16.1881160  33.0153640  57.1870550  15.2060400  31.8857270  57.4136070
   2.7891820  47.7983360  57.3595740   2.2639440  48.1791390  56.6557700
   2.7136400  48.4234130  58.0805450   4.1782290  33.4630960  55.9579430
   4.7075050  32.6760760  55.8287380   4.8110610  34.1422150  56.1914960
   6.3720130  33.2006100  59.0124820   5.7422870  32.4993410  59.1794950
   5.8325270  33.9610230  58.7957980   9.3112080  49.8145330  71.6835430
  10.2379390  49.5789600  71.7271390   9.2962510  50.6417330  71.2021460
  17.5457140  49.3570900  58.6809680  17.7209330  48.6708640  58.0370600
  16.8478710  49.8817950  58.2886350   6.4975690  32.4790080  71.4477310
   6.2159960  32.9823680  70.6838130   6.8795390  31.6811830  71.0819440
   5.3884790  49.7465740  56.2344990   6.1203610  49.4625020  55.6868880
   5.6478460  49.5079020  57.1244370   4.5499580  45.8630470  56.2391320
   3.9208460  46.3315570  56.7877150   4.6647410  45.0179690  56.6737510
  13.0991150  31.8943660  72.0257780  12.9856600  32.2138270  72.9209300
  13.9160890  32.2956170  71.7295060  15.8789640  49.0415190  71.5076470
  16.6714960  48.5464420  71.3002430  16.1722790  49.7205330  72.1152080
  12.0049300  39.9136130  42.3892520  11.9243350  38.9990740  42.1184230
  11.5913720  40.4103200  41.6832230  10.1367340  41.6915150  44.2701790
   9.3609440  41.2115590  44.5600360  10.7880270  41.0120800  44.0957950
   4.1533170  42.0034960  45.1477550   3.3218050  41.7483670  45.5474060
   4.7614150  42.0745730  45.8835470  14.1574770  46.0975340  43.0500920
  13.6956300  45.3262580  43.3788090  14.9700320  46.1241410  43.5553370
   4.1334430  46.0375050  45.3435570   4.4362470  45.1472790  45.1645790
   4.8778020  46.5945270  45.1157820   2.5625120  36.9636850  38.9319940
   1.6741820  37.3052820  38.8299820   2.8466310  36.7637170  38.0400770
  10.3838080  48.3833350  42.6704910   9.7649520  48.8390850  42.0999350
  11.2389860  48.5384810  42.2694610   9.5776330  44.3672340  44.2771950
   9.5084610  43.4262280  44.1161080  10.3396190  44.4573750  44.8494520
   1.7683000  34.9726860  46.6028570   1.5885840  34.0752610  46.8831330
   1.3663080  35.5198730  47.2775520  10.6081500  37.1742720  44.5040880
  10.9846320  36.3014600  44.3914550  10.5101010  37.5101420  43.6131320
   4.7386510  35.5468350  39.9658320   4.8453260  36.4472080  40.2727080
   3.8278870  35.4986320  39.6752970  14.3905620  34.6693160  41.4369220
  15.2115240  34.1789730  41.4794700  14.4239700  35.2590820  42.1901060
   2.3869670  37.4687360  45.2110910   3.0679780  37.7325730  45.8298310
   2.0717720  36.6288230  45.5448920   6.5794240  38.5154720  44.2983500
   7.0872460  39.0135690  44.9388520   7.1107480  37.7389920  44.1222860
  18.6805170  36.6859910  48.0012850  17.9757340  37.0741620  47.4827960
  18.9463090  37.3810200  48.6033780   4.8630340  33.1553280  48.5646920
   4.8648780  33.6725670  47.7592820   4.0334650  32.6783460  48.5416850
  11.2501430  43.2672590  40.0636820  10.6318700  43.7322040  39.4999540
  11.7624680  43.9600070  40.4806330   6.1133190  42.7948460  46.7420420
   5.7802570  43.4217380  47.3841490   6.2899870  43.3210340  45.9622090
  14.6267100  36.6093540  44.2096760  13.9222670  36.8978430  44.7899870
  14.9879260  37.4193650  43.8496320   4.5445670  34.8663240  46.5717370
   4.8862480  35.7105290  46.2771240   3.6061480  35.0146980  46.6882710
   5.3252290  44.7629260  48.5569600   5.9426290  45.4380340  48.2754050
   4.4645410  45.1717240  48.4657100  16.2429880  46.2268670  46.4724240
  15.5593400  46.8967780  46.4640910  16.7824170  46.4249320  45.7069100
  17.6954020  36.0548330  44.6005970  16.7478930  36.0887310  44.7321400
  18.0204010  36.8687280  44.9855330   8.2273560  32.3545510  42.8961960
   8.5348540  31.7992400  42.1797460   7.2974260  32.4889970  42.7134950
  13.7788620  48.0712800  45.1869420  13.7915780  47.6675090  44.3191680
  13.2263840  48.8460090  45.0830850  15.0734040  44.7929020  40.2759590
  14.9630370  43.8503350  40.4009010  15.0702290  45.1544660  41.1622350
  13.1774060  42.9742640  46.5152030  13.5942850  42.7602750  45.6805490
  13.9013880  43.2315430  47.0860650  10.6154320  40.4194340  39.6322080
   9.6883600  40.3531720  39.8610550  10.7679140  41.3574470  39.5177320
  10.6023400  36.6911340  36.6289240   9.6627070  36.8525300  36.7141700
  10.9206660  37.4097020  36.0825230  17.1236160  41.3729860  46.6068270
  16.2954790  41.4422950  46.1318400  17.7186640  41.9584170  46.1384100
  14.6451610  41.9814640  40.1357330  14.0264030  41.6434190  39.4883630
  14.6276060  41.3374400  40.8436520  14.0878170  38.1599180  47.5523140
  13.6749350  38.9852890  47.8063130  13.3554120  37.5744220  47.3599500
   6.2210960  40.9459080  42.4141810   5.8167960  40.2336330  41.9187710
   6.3074080  40.6012320  43.3029850   6.6892660  44.6326640  44.5781020
   6.3920950  44.0272110  43.8988800   7.6392480  44.6703950  44.4670380
   4.9339580  37.7202290  46.1940850   5.4854170  37.8297630  45.4194100
   5.4483090  38.0939890  46.9096080  14.7778270  48.2058510  48.2404120
  14.3008830  49.0130700  48.0476730  14.0940060  47.5536840  48.3930330
   5.7811090  44.3708330  51.2288820   4.8839620  44.5948300  51.4762220
   5.8063960  44.4943270  50.2800220  12.8216310  41.2201450  37.1430080
  13.2609590  40.3823880  36.9967900  13.5344730  41.8530850  37.2294220
   4.6082310  41.2421650  49.8046190   4.4690080  42.1144450  50.1733590
   3.7263670  40.8994460  49.6594130  10.9311690  46.1597520  41.1111320
  11.3707600  46.9021850  40.6966710  10.8698580  46.4024090  42.0350280
   6.4062660  47.1843350  52.0131340   6.3778090  47.5886300  51.1459770
   6.2427630  46.2553710  51.8502940  16.4033450  32.4744260  35.4571120
  16.0906110  32.5671090  36.3570190  17.1645920  33.0525290  35.4068550
   2.9215590  39.8404060  39.9148460   2.8013190  40.5666150  39.3029730
   2.6116480  39.0706970  39.4376370  18.3577480  47.9670450  53.3095510
  18.8337200  48.4453340  53.9884590  18.9784640  47.8987940  52.5841010
   1.8048590  44.7119390  42.1323280   1.3976670  44.8533980  41.2776880
   2.6961600  44.4279550  41.9294490  17.7610730  45.1583300  50.4695520
  17.8873790  44.9195180  49.5512700  17.8032110  44.3267840  50.9417600
  11.6227470  48.8611300  49.0390330  12.1372140  48.7719310  49.8412760
  10.7796550  49.2071000  49.3318240  13.5981870  49.1466640  38.4674330
  13.4383010  48.8569580  39.3656160  13.4328580  48.3706770  37.9319560
   6.0770250  48.9265170  40.2445950   5.9012730  48.0100710  40.0313750
   5.2225990  49.2852460  40.4843750  13.3008000  46.6554200  37.0272330
  12.6073160  46.6531490  36.3674610  14.0430860  46.2313520  36.5966500
  12.8657930  48.2816910  41.1020820  13.3214880  47.5006290  41.4159440
  13.2050450  48.9923730  41.6462000  17.6134740  37.2115760  51.4345260
  16.9979010  37.7195430  50.9060720  17.2931160  36.3114090  51.3771200
   5.3879250  33.1839130  43.2972130   4.9447400  33.9648670  42.9656650
   5.9464240  33.5069020  44.0043070   9.6749060  36.0507650  48.9007450
   9.2128430  36.2590670  49.7127390   9.2727170  35.2367000  48.5978120
  14.6753570  37.2716600  50.0304110  13.8247160  36.9722350  50.3513180
  14.5155360  37.5158610  49.1187930  11.7703280  38.7718350  52.1302900
  12.0956690  37.9382100  51.7905130  12.5583610  39.2946870  52.2781230
   8.5038070  32.8049830  38.1777960   7.8792250  32.8009700  38.9031270
   8.4168190  31.9380790  37.7813930   7.4255150  33.7286460  45.1561730
   7.7227480  34.6349290  45.0753750   7.9740710  33.2405240  44.5421300
   5.1793470  38.3072700  41.0253380   4.9534390  38.0909870  41.9300000
   4.3986000  38.7401160  40.6799350  12.4091230  38.3136070  39.6244030
  11.8100120  39.0371870  39.4407650  12.9570840  38.2512850  38.8420480
   7.6192680  39.2058280  51.6913650   7.5236280  38.2653010  51.5414050
   8.4624660  39.4273350  51.2961720  11.0156100  36.9499610  41.6547310
  11.4085670  37.2671810  40.8416000  11.3772950  36.0711490  41.7691830
   2.7503220  35.6171950  49.8447430   2.3566610  36.4647160  50.0520210
   2.0621620  34.9798320  50.0356070   9.3248270  35.7006920  52.9144170
   8.6346590  35.5079120  53.5490260  10.0680570  35.9841560  53.4468470
  11.6011240  39.5405360  45.7498090  10.8692360  40.0492170  46.0988190
  11.2035580  38.7235340  45.4486870   8.0388630  36.2159560  44.1550580
   8.0424690  35.7749510  43.3055120   8.9339750  36.5376890  44.2622400
   3.8891010  36.0986050  43.1144790   3.5491060  36.5761280  43.8711840
   3.1268330  35.6451170  42.7545890   8.1008780  37.2171640  37.1457340
   8.2221600  37.1758120  38.0943160   7.7157290  38.0795790  36.9904070
  12.0637150  34.9939040  45.1621030  12.0809890  35.4447690  46.0062880
  11.8152730  34.0944680  45.3754470   7.1130280  39.5272780  36.5440640
   6.5447180  39.0791030  35.9176550   7.8219280  39.8865560  36.0105790
  15.4907900  32.4071220  51.0007410  15.8153670  31.6760880  51.5265390
  15.5264410  32.0884860  50.0988400   2.1899460  43.4284800  50.4207370
   1.8054250  42.7878470  51.0190330   2.5011650  44.1320920  50.9902100
   8.3396600  40.2761340  45.9015990   8.7066730  39.8019910  46.6477330
   8.1501660  41.1502910  46.2424330   6.1295970  39.3169980  48.2200200
   5.8253040  40.1961960  48.4450560   7.0842430  39.3769770  48.2557640
   4.6577760  43.5230970  38.8167050   3.8840020  42.9828590  38.6565770
   5.3872390  43.0037580  38.4784810  15.4165740  42.5196330  44.6093440
  16.1364860  43.0151620  44.2189550  15.2147560  41.8414220  43.9647310
  10.8775680  33.9134290  38.7522830  10.0640290  33.4147460  38.6768140
  10.6837630  34.7532540  38.3359180  10.7984540  42.5905390  50.4962440
  10.7321850  41.6701060  50.2420030  10.1689680  42.6880830  51.2107080
  13.5924070  38.2853940  37.0484990  14.4803690  38.5971170  36.8736330
  13.5629160  37.4126190  36.6565570   4.7015160  43.1911350  42.4545860
   5.2193830  42.3879610  42.4002750   4.2499180  43.1290490  43.2962690
   9.5884660  44.4577630  37.7273160   9.9300360  45.2019860  37.2316480
   8.7597370  44.7708750  38.0897990   2.1859700  40.1572720  49.3671560
   1.8274640  40.8226570  49.9544900   1.8914260  39.3256270  49.7384180
   5.3872820  40.6156960  52.2511110   5.0872960  40.7614140  51.3538930
   6.1584060  40.0562250  52.1584500  10.7301270  45.4125960  50.2466240
  10.7445810  44.4806920  50.0285150  10.0226370  45.4985720  50.8856010
  15.8638340  39.5965780  36.5164850  15.7802060  40.0280000  35.6661290
  16.5832530  40.0564130  36.9491670  16.9412480  42.0533300  49.5934820
  16.2160670  42.6462080  49.3964210  17.4687940  42.0456840  48.7948190
  16.8925590  46.4508040  39.2446980  16.2501750  45.7963660  39.5190700
  16.5056250  46.8563130  38.4687650  12.4712070  43.7793470  43.0918670
  12.8235890  43.1821600  42.4320040  11.5874400  43.4537700  43.2626920
   8.5575350  44.5391160  40.4989080   9.2446480  45.0860370  40.8796670
   7.7707770  45.0831890  40.5338690   7.8602560  41.5437190  40.1114440
   8.3165340  42.3542440  40.3374630   7.5090770  41.2260330  40.9432930
  10.1635170  47.0543530  47.3406740  10.8077390  47.2602910  48.0180160
  10.5264610  46.2931930  46.8877590   3.7614340  31.8874840  40.5836960
   3.6328970  31.8792740  41.5321880   2.9376360  32.2257930  40.2327970
  11.4367250  45.0575880  46.0584190  12.0789480  44.3569040  46.1716360
  11.9616600  45.8374320  45.8781080  15.2822970  45.3424500  35.7823330
  15.0560550  44.6254940  36.3747970  14.8919170  45.0936940  34.9445080
  13.2104870  45.8570780  49.2620250  13.5461110  46.4437470  49.9398170
  12.2905210  45.7263490  49.4918040  14.8639220  43.2596440  37.4437490
  14.5760920  43.7209130  38.2315370  15.6591390  42.7994210  37.7121710
   9.0393450  45.9062110  52.4308310   8.7190320  45.1871350  52.9754000
   8.3651810  46.5817180  52.5044370   7.0807620  46.7522560  37.3741460
   7.0717720  47.4852250  36.7585970   6.1605980  46.5054140  37.4668420
   2.6814260  41.9737450  38.1188220   2.0742210  42.7136350  38.1283520
   3.1563610  42.0636810  37.2926420  12.2547050  36.1388270  47.7945110
  12.6227870  35.3183480  48.1224680  11.3945250  36.1990160  48.2100760
  15.6209080  35.0945210  38.6032670  14.9922240  35.1990880  37.8890900
  15.1261000  35.3141990  39.3926550  10.0667220  46.8150800  36.0366650
  10.1679200  46.6114790  35.1068630   9.1668960  46.5609080  36.2414430
   7.5893110  37.3731160  40.0190550   6.8809260  37.8417500  40.4604160
   7.8737590  36.7153170  40.6535740   9.2149040  38.7927860  48.0183080
   9.7134290  39.2673680  48.6834930   9.3571990  37.8691380  48.2253110
  11.6208540  34.0981820  41.4586340  11.4976320  34.1167950  40.5095850
  12.5693100  34.1460760  41.5784740   8.7085330  49.3337120  40.7314320
   8.9626830  49.2958510  39.8093690   7.7597810  49.2070450  40.7242570
   5.7928130  35.6816240  37.3941260   6.6418660  36.1186390  37.3281450
   5.4259400  35.9936500  38.2213320  16.4215900  35.0095820  48.8611470
  15.9189500  35.7501220  49.2005280  17.2372560  35.3979820  48.5448260
  14.7137910  40.2529000  42.3072830  13.7728050  40.2679230  42.4820520
  15.0281980  39.4664960  42.7533130   4.6919550  41.9348600  35.8676790
   5.4582820  41.8229960  36.4302220   4.7694240  41.2386570  35.2153560
   3.3866310  39.3673670  36.5509680   3.4669900  38.4201180  36.6627080
   4.2786060  39.6980550  36.6570340  16.7163490  47.4237850  43.9827090
  16.8410910  48.2469020  44.4550900  17.5829050  47.2128580  43.6351240
   4.1881020  49.5169060  43.6544220   4.9243500  48.9684520  43.9252790
   4.5721940  50.3825070  43.5150210   3.1939300  48.7015130  52.8429800
   3.9952030  49.0227180  53.2565200   2.6791120  48.3410710  53.5649710
   7.2983330  48.6899370  35.4769790   8.0911940  48.9788200  35.0251580
   6.7787680  48.2591540  34.7982270  12.0303930  44.8095000  52.7905210
  11.4242090  44.8326600  52.0500960  11.7258040  44.0778040  53.3272460
  13.4604300  48.5375290  51.4014620  14.4126050  48.4533310  51.3514860
  13.3132520  49.2017000  52.0748410  16.3513500  47.9169500  36.9006530
  16.0655010  47.5034640  36.0860710  16.1533050  48.8457210  36.7807050
   7.8160730  43.9102780  35.3412140   7.7111370  43.2955130  36.0673520
   7.6484950  43.3868670  34.5575150   7.9675050  42.5959580  51.3201370
   7.2020720  43.1644580  51.2356040   8.1491010  42.3035790  50.4269600
  11.0563460  42.9722810  35.9454130  10.5073560  43.4192110  36.5896870
  11.6782720  42.4672060  36.4691800  15.1098400  44.3264910  51.8776390
  15.8507870  44.6640670  51.3743850  14.3471080  44.4956970  51.3246160
   2.9460190  39.3318180  52.6815920   2.9865530  39.0332050  53.5901150
   3.8005690  39.7325790  52.5223440   6.7238580  41.9313730  37.8419430
   7.1455000  41.7653600  38.6850820   6.8489420  41.1213960  37.3474570
   4.8866000  37.9110280  50.6490410   4.3562460  37.4201230  50.0213750
   5.5554070  38.3394480  50.1148340   9.2366220  40.9551340  35.0896530
   9.7571880  40.2400360  34.7237680   9.8834620  41.5937210  35.3897040
  13.7844060  42.3779740  50.4131600  14.1985080  42.5324820  51.2622020
  12.8495060  42.5034960  50.5757380  14.2566230  39.7175900  52.4170750
  14.8387000  38.9628220  52.3291230  14.4328000  40.2483340  51.6402230
   5.3738300  34.8772650  50.7287700   5.2795170  34.2593400  50.0038570
   4.7935690  35.6038940  50.5017610   8.1399740  33.4345890  47.7615090
   7.6917040  33.4570150  46.9160640   7.5064940  33.0364910  48.3585390
   8.5459290  42.3300220  48.3827530   8.9647400  43.1732950  48.2103770
   7.6267920  42.4672260  48.1534310  10.8823190  40.0616400  49.7665370
  11.0019400  39.4657540  50.5060210  11.7417190  40.0986090  49.3466670
  13.2211090  40.6153590  48.3427880  12.6946310  41.1396210  47.7393020
  13.5642430  41.2480980  48.9737610   5.6197480  38.0046960  34.7877590
   5.4186540  37.1414320  35.1490930   5.4489530  37.9180320  33.8499190
   6.3966710  48.6353230  49.4985260   5.8587800  49.3599290  49.1793960
   6.6500670  48.1583570  48.7082600   7.6491960  36.6037750  51.0241190
   8.2391650  36.2953600  51.7119010   6.8312200  36.1317500  51.1801090
  12.4685390  36.2203560  51.2574210  11.7800910  35.5585100  51.1924200
  13.1891410  35.7741830  51.7022670  13.0985790  32.8155190  37.3164470
  13.3788080  31.9723090  37.6723890  12.3251520  33.0478300  37.8303220
   4.4180280  35.1047580  34.7755470   4.7206180  35.1115010  33.8674620
   5.1574870  34.7545440  35.2723130   9.2528920  49.8704440  49.7571910
   9.1787620  50.7739580  50.0644280   8.3507760  49.5516340  49.7293980
   7.6365210  34.0482200  35.7611670   7.2887210  33.3706190  35.1814120
   7.8377980  33.5871710  36.5755060   9.8014250  49.0362950  37.3798270
  10.6965040  49.3747920  37.4017030   9.8331880  48.3142360  36.7522550
   3.4410410  44.4090000  35.6085270   3.8785280  44.9519670  36.2642850
   3.9258140  43.5836950  35.6181610   5.2518130  45.5288040  40.7207500
   4.9513670  45.4053010  41.6211410   5.1455620  44.6696630  40.3123230
  16.7808600  47.5666620  50.0864470  16.1810590  47.6259180  49.3428390
  16.9102500  46.6271600  50.2161320  18.0210050  45.3084440  35.4234180
  17.1903010  45.3761090  35.8941410  18.1981880  46.1988560  35.1201040
  17.4766510  42.0531920  37.9268380  18.2385420  42.6228570  38.0328070
  17.4920880  41.4859120  38.6976690  18.4826480  42.9082020  42.7710310
  18.8535310  42.1249340  42.3646280  19.1228410  43.5971120  42.5927610
  15.4660240  44.2918600  48.1840630  14.6520080  44.7215760  48.4466420
  15.8734440  44.9037010  47.5709680  17.5285680  42.3466290  35.0840900
  17.8034520  43.2545170  34.9560120  17.3396420  42.2828820  36.0202890
  13.9261290  35.3711140  36.3794530  14.3446170  35.1842120  35.5391190
  13.6197350  34.5190190  36.6897460  17.4251020  40.2835280  40.0770330
  17.0494620  39.5163210  39.6451620  16.6954140  40.6657980  40.5645260
   2.0146780  40.9622420  46.6979380   2.3819820  40.8749820  47.5775400
   1.4457600  40.1988970  46.5986240  16.8150640  39.4306800  49.7109850
  16.5836730  39.2019550  48.8107800  17.0755190  40.3506350  49.6654740
  15.2538710  34.6563230  52.4889550  16.1308890  34.6646630  52.8723550
  15.2659550  33.9194070  51.8781900  16.7001980  38.5092770  43.3777570
  17.2239460  38.0155420  42.7467740  17.2861400  38.6443130  44.1225140
  16.8791700  38.5932640  46.8997120  15.9294410  38.5596180  47.0142110
  17.0604710  39.5032750  46.6646890   2.7336140  36.8434320  36.0095750
   3.4427840  36.4217540  35.5243030   2.0176080  36.9109550  35.3779100
   2.3810300  32.8973650  35.0498400   3.1038430  33.4382590  35.3679620
   2.6534820  32.6237070  34.1739940  16.1901950  37.7666120  39.3169980
  16.6861070  37.5336990  40.1018860  15.9918020  36.9277960  38.9007620
   2.0702490  32.1479840  44.9521020   2.7178680  31.5977220  44.5116180
   2.4904330  32.4022990  45.7736830  17.6189110  36.4027070  41.8507660
  17.5088390  36.2483110  42.7889930  18.3796700  35.8748010  41.6083070
  15.9654830  32.3421200  48.3090660  16.6027050  32.9555340  48.6749850
  16.1129720  32.3781860  47.3639890  18.5079380  34.2334990  35.0913800
  19.4328690  34.1016170  34.8832090  18.4855170  34.3127810  36.0450250
  18.5817870  35.0045650  37.7170510  17.7869370  34.9390770  38.2463420
  18.7861150  35.9396290  37.7055860  15.5236290  49.0437200  41.7108900
  16.1195360  48.7221770  41.0343320  15.7814440  48.5709020  42.5022170
   1.8234490  32.3035510  47.6946340   1.4749310  32.7599330  48.4604520
   1.4922190  31.4092640  47.7768770   3.4298860  45.4755110  51.8599530
   3.3868490  45.1048020  52.7413990   3.5609870  46.4132680  52.0001350
   7.1304890  47.0314700  47.4609250   6.8896250  47.2989260  46.5739770
   8.0707530  47.2020430  47.5160110   9.3359310  33.4947390  51.2165760
   9.2748200  34.0869220  51.9661170  10.2759690  33.3873350  51.0716020
  11.9733870  33.1517450  50.8558050  12.5874280  33.4696740  50.1939130
  12.5183430  32.6666040  51.4753910  18.3909050  49.0509080  48.2619890
  17.8967330  49.4477950  47.5447020  17.7822340  48.4258290  48.6557170
   2.4955130  31.8311710  50.9697110   3.0438120  31.6499760  50.2063220
   2.5610440  31.0405820  51.5053420   3.2686890  48.4217360  48.9797310
   2.6747210  48.2902060  49.7187350   3.2610730  47.5855500  48.5139410
  12.7141910  31.7149590  47.1827340  11.8401750  32.0484700  46.9800270
  12.6052660  31.2422770  48.0079210  13.6213890  33.9220460  48.5669060
  13.2927250  33.1072220  48.1870790  14.5696190  33.8790270  48.4434750
  16.0748500  49.6932500  45.5406630  15.6151470  50.4448310  45.1664650
  15.4460960  48.9738970  45.4821430   2.8999120  45.7875740  47.9305350
   2.1733180  45.1681030  47.8631300   2.9608270  46.1816350  47.0603430
   6.5044220  48.0020740  44.7154760   7.0209240  47.3908100  44.1903020
   7.1541600  48.5049520  45.2065770   9.2439720  48.8929230  45.5423740
   9.5317530  48.6383530  44.6656750   9.7562940  48.3406590  46.1329310
  10.4616730  32.6319430  46.1220250   9.6788520  33.1064930  46.4017010
  10.1679660  31.7274260  46.0133430  15.0137800  33.3342530  44.1669340
  15.4545890  33.2787630  43.3190940  14.7445390  34.2500540  44.2379520
  16.8776370  32.9657770  42.1778160  16.8164770  32.0218990  42.0309180
  17.6568400  33.0737860  42.7231620   1.8057140  32.9366910  38.6433970
   2.5636500  33.0495790  38.0698000   1.3434310  33.7736110  38.5977400
   8.3470950  35.0506180  41.6336280   7.5345460  34.6763070  41.2932160
   8.8512590  34.2951260  41.9357470  12.8495930  31.7148630  42.8719350
  13.4525300  32.2868840  43.3467870  12.1088920  32.2788070  42.6493250
  15.9930530  32.1170190  38.1459630  16.1881160  33.0153640  38.4127060
  15.2060400  31.8857270  38.6392580   2.7891820  47.7983360  38.5852250
   2.2639440  48.1791390  37.8814210   2.7136400  48.4234130  39.3061960
   4.1782290  33.4630960  37.1835940   4.7075050  32.6760760  37.0543890
   4.8110610  34.1422150  37.4171470   6.3720130  33.2006100  40.2381330
   5.7422870  32.4993410  40.4051460   5.8325270  33.9610230  40.0214490
   9.3112080  49.8145330  52.9091940  10.2379390  49.5789600  52.9527900
   9.2962510  50.6417330  52.4277970  17.5457140  49.3570900  39.9066190
  17.7209330  48.6708640  39.2627110  16.8478710  49.8817950  39.5142860
   6.4975690  32.4790080  52.6733820   6.2159960  32.9823680  51.9094640
   6.8795390  31.6811830  52.3075950   5.3884790  49.7465740  37.4601500
   6.1203610  49.4625020  36.9125390   5.6478460  49.5079020  38.3500880
   4.5499580  45.8630470  37.4647830   3.9208460  46.3315570  38.0133660
   4.6647410  45.0179690  37.8994020  13.0991150  31.8943660  53.2514290
  12.9856600  32.2138270  54.1465810  13.9160890  32.2956170  52.9551570
  15.8789640  49.0415190  52.7332980  16.6714960  48.5464420  52.5258940
  16.1722790  49.7205330  53.3408590  12.0049300  39.9136130  23.6149030
  11.9243350  38.9990740  23.3440740  11.5913720  40.4103200  22.9088740
  10.1367340  41.6915150  25.4958300   9.3609440  41.2115590  25.7856870
  10.7880270  41.0120800  25.3214460   4.1533170  42.0034960  26.3734060
   3.3218050  41.7483670  26.7730570   4.7614150  42.0745730  27.1091980
  14.1574770  46.0975340  24.2757430  13.6956300  45.3262580  24.6044600
  14.9700320  46.1241410  24.7809880   4.1334430  46.0375050  26.5692080
   4.4362470  45.1472790  26.3902300   4.8778020  46.5945270  26.3414330
   2.5625120  36.9636850  20.1576450   1.6741820  37.3052820  20.0556330
   2.8466310  36.7637170  19.2657280  10.3838080  48.3833350  23.8961420
   9.7649520  48.8390850  23.3255860  11.2389860  48.5384810  23.4951120
   9.5776330  44.3672340  25.5028460   9.5084610  43.4262280  25.3417590
  10.3396190  44.4573750  26.0751030   1.7683000  34.9726860  27.8285080
   1.5885840  34.0752610  28.1087840   1.3663080  35.5198730  28.5032030
  10.6081500  37.1742720  25.7297390  10.9846320  36.3014600  25.6171060
  10.5101010  37.5101420  24.8387830   4.7386510  35.5468350  21.1914830
   4.8453260  36.4472080  21.4983590   3.8278870  35.4986320  20.9009480
  14.3905620  34.6693160  22.6625730  15.2115240  34.1789730  22.7051210
  14.4239700  35.2590820  23.4157570   2.3869670  37.4687360  26.4367420
   3.0679780  37.7325730  27.0554820   2.0717720  36.6288230  26.7705430
   6.5794240  38.5154720  25.5240010   7.0872460  39.0135690  26.1645030
   7.1107480  37.7389920  25.3479370  18.6805170  36.6859910  29.2269360
  17.9757340  37.0741620  28.7084470  18.9463090  37.3810200  29.8290290
   4.8630340  33.1553280  29.7903430   4.8648780  33.6725670  28.9849330
   4.0334650  32.6783460  29.7673360  11.2501430  43.2672590  21.2893330
  10.6318700  43.7322040  20.7256050  11.7624680  43.9600070  21.7062840
   6.1133190  42.7948460  27.9676930   5.7802570  43.4217380  28.6098000
   6.2899870  43.3210340  27.1878600  14.6267100  36.6093540  25.4353270
  13.9222670  36.8978430  26.0156380  14.9879260  37.4193650  25.0752830
   4.5445670  34.8663240  27.7973880   4.8862480  35.7105290  27.5027750
   3.6061480  35.0146980  27.9139220   5.3252290  44.7629260  29.7826110
   5.9426290  45.4380340  29.5010560   4.4645410  45.1717240  29.6913610
  16.2429880  46.2268670  27.6980750  15.5593400  46.8967780  27.6897420
  16.7824170  46.4249320  26.9325610  17.6954020  36.0548330  25.8262480
  16.7478930  36.0887310  25.9577910  18.0204010  36.8687280  26.2111840
   8.2273560  32.3545510  24.1218470   8.5348540  31.7992400  23.4053970
   7.2974260  32.4889970  23.9391460  13.7788620  48.0712800  26.4125930
  13.7915780  47.6675090  25.5448190  13.2263840  48.8460090  26.3087360
  15.0734040  44.7929020  21.5016100  14.9630370  43.8503350  21.6265520
  15.0702290  45.1544660  22.3878860  13.1774060  42.9742640  27.7408540
  13.5942850  42.7602750  26.9062000  13.9013880  43.2315430  28.3117160
  10.6154320  40.4194340  20.8578590   9.6883600  40.3531720  21.0867060
  10.7679140  41.3574470  20.7433830  10.6023400  36.6911340  17.8545750
   9.6627070  36.8525300  17.9398210  10.9206660  37.4097020  17.3081740
  17.1236160  41.3729860  27.8324780  16.2954790  41.4422950  27.3574910
  17.7186640  41.9584170  27.3640610  14.6451610  41.9814640  21.3613840
  14.0264030  41.6434190  20.7140140  14.6276060  41.3374400  22.0693030
  14.0878170  38.1599180  28.7779650  13.6749350  38.9852890  29.0319640
  13.3554120  37.5744220  28.5856010   6.2210960  40.9459080  23.6398320
   5.8167960  40.2336330  23.1444220   6.3074080  40.6012320  24.5286360
   6.6892660  44.6326640  25.8037530   6.3920950  44.0272110  25.1245310
   7.6392480  44.6703950  25.6926890   4.9339580  37.7202290  27.4197360
   5.4854170  37.8297630  26.6450610   5.4483090  38.0939890  28.1352590
  14.7778270  48.2058510  29.4660630  14.3008830  49.0130700  29.2733240
  14.0940060  47.5536840  29.6186840   5.7811090  44.3708330  32.4545330
   4.8839620  44.5948300  32.7018730   5.8063960  44.4943270  31.5056730
  12.8216310  41.2201450  18.3686590  13.2609590  40.3823880  18.2224410
  13.5344730  41.8530850  18.4550730   4.6082310  41.2421650  31.0302700
   4.4690080  42.1144450  31.3990100   3.7263670  40.8994460  30.8850640
  10.9311690  46.1597520  22.3367830  11.3707600  46.9021850  21.9223220
  10.8698580  46.4024090  23.2606790   6.4062660  47.1843350  33.2387850
   6.3778090  47.5886300  32.3716280   6.2427630  46.2553710  33.0759450
  16.4033450  32.4744260  16.6827630  16.0906110  32.5671090  17.5826700
  17.1645920  33.0525290  16.6325060   2.9215590  39.8404060  21.1404970
   2.8013190  40.5666150  20.5286240   2.6116480  39.0706970  20.6632880
  18.3577480  47.9670450  34.5352020  18.8337200  48.4453340  35.2141100
  18.9784640  47.8987940  33.8097520   1.8048590  44.7119390  23.3579790
   1.3976670  44.8533980  22.5033390   2.6961600  44.4279550  23.1551000
  17.7610730  45.1583300  31.6952030  17.8873790  44.9195180  30.7769210
  17.8032110  44.3267840  32.1674110  11.6227470  48.8611300  30.2646840
  12.1372140  48.7719310  31.0669270  10.7796550  49.2071000  30.5574750
  13.5981870  49.1466640  19.6930840  13.4383010  48.8569580  20.5912670
  13.4328580  48.3706770  19.1576070   6.0770250  48.9265170  21.4702460
   5.9012730  48.0100710  21.2570260   5.2225990  49.2852460  21.7100260
  13.3008000  46.6554200  18.2528840  12.6073160  46.6531490  17.5931120
  14.0430860  46.2313520  17.8223010  12.8657930  48.2816910  22.3277330
  13.3214880  47.5006290  22.6415950  13.2050450  48.9923730  22.8718510
  17.6134740  37.2115760  32.6601770  16.9979010  37.7195430  32.1317230
  17.2931160  36.3114090  32.6027710   5.3879250  33.1839130  24.5228640
   4.9447400  33.9648670  24.1913160   5.9464240  33.5069020  25.2299580
   9.6749060  36.0507650  30.1263960   9.2128430  36.2590670  30.9383900
   9.2727170  35.2367000  29.8234630  14.6753570  37.2716600  31.2560620
  13.8247160  36.9722350  31.5769690  14.5155360  37.5158610  30.3444440
  11.7703280  38.7718350  33.3559410  12.0956690  37.9382100  33.0161640
  12.5583610  39.2946870  33.5037740   8.5038070  32.8049830  19.4034470
   7.8792250  32.8009700  20.1287780   8.4168190  31.9380790  19.0070440
   7.4255150  33.7286460  26.3818240   7.7227480  34.6349290  26.3010260
   7.9740710  33.2405240  25.7677810   5.1793470  38.3072700  22.2509890
   4.9534390  38.0909870  23.1556510   4.3986000  38.7401160  21.9055860
  12.4091230  38.3136070  20.8500540  11.8100120  39.0371870  20.6664160
  12.9570840  38.2512850  20.0676990   7.6192680  39.2058280  32.9170160
   7.5236280  38.2653010  32.7670560   8.4624660  39.4273350  32.5218230
  11.0156100  36.9499610  22.8803820  11.4085670  37.2671810  22.0672510
  11.3772950  36.0711490  22.9948340   2.7503220  35.6171950  31.0703940
   2.3566610  36.4647160  31.2776720   2.0621620  34.9798320  31.2612580
   9.3248270  35.7006920  34.1400680   8.6346590  35.5079120  34.7746770
  10.0680570  35.9841560  34.6724980  11.6011240  39.5405360  26.9754600
  10.8692360  40.0492170  27.3244700  11.2035580  38.7235340  26.6743380
   8.0388630  36.2159560  25.3807090   8.0424690  35.7749510  24.5311630
   8.9339750  36.5376890  25.4878910   3.8891010  36.0986050  24.3401300
   3.5491060  36.5761280  25.0968350   3.1268330  35.6451170  23.9802400
   8.1008780  37.2171640  18.3713850   8.2221600  37.1758120  19.3199670
   7.7157290  38.0795790  18.2160580  12.0637150  34.9939040  26.3877540
  12.0809890  35.4447690  27.2319390  11.8152730  34.0944680  26.6010980
   7.1130280  39.5272780  17.7697150   6.5447180  39.0791030  17.1433060
   7.8219280  39.8865560  17.2362300  15.4907900  32.4071220  32.2263920
  15.8153670  31.6760880  32.7521900  15.5264410  32.0884860  31.3244910
   2.1899460  43.4284800  31.6463880   1.8054250  42.7878470  32.2446840
   2.5011650  44.1320920  32.2158610   8.3396600  40.2761340  27.1272500
   8.7066730  39.8019910  27.8733840   8.1501660  41.1502910  27.4680840
   6.1295970  39.3169980  29.4456710   5.8253040  40.1961960  29.6707070
   7.0842430  39.3769770  29.4814150   4.6577760  43.5230970  20.0423560
   3.8840020  42.9828590  19.8822280   5.3872390  43.0037580  19.7041320
  15.4165740  42.5196330  25.8349950  16.1364860  43.0151620  25.4446060
  15.2147560  41.8414220  25.1903820  10.8775680  33.9134290  19.9779340
  10.0640290  33.4147460  19.9024650  10.6837630  34.7532540  19.5615690
  10.7984540  42.5905390  31.7218950  10.7321850  41.6701060  31.4676540
  10.1689680  42.6880830  32.4363590  13.5924070  38.2853940  18.2741500
  14.4803690  38.5971170  18.0992840  13.5629160  37.4126190  17.8822080
   4.7015160  43.1911350  23.6802370   5.2193830  42.3879610  23.6259260
   4.2499180  43.1290490  24.5219200   9.5884660  44.4577630  18.9529670
   9.9300360  45.2019860  18.4572990   8.7597370  44.7708750  19.3154500
   2.1859700  40.1572720  30.5928070   1.8274640  40.8226570  31.1801410
   1.8914260  39.3256270  30.9640690   5.3872820  40.6156960  33.4767620
   5.0872960  40.7614140  32.5795440   6.1584060  40.0562250  33.3841010
  10.7301270  45.4125960  31.4722750  10.7445810  44.4806920  31.2541660
  10.0226370  45.4985720  32.1112520  15.8638340  39.5965780  17.7421360
  15.7802060  40.0280000  16.8917800  16.5832530  40.0564130  18.1748180
  16.9412480  42.0533300  30.8191330  16.2160670  42.6462080  30.6220720
  17.4687940  42.0456840  30.0204700  16.8925590  46.4508040  20.4703490
  16.2501750  45.7963660  20.7447210  16.5056250  46.8563130  19.6944160
  12.4712070  43.7793470  24.3175180  12.8235890  43.1821600  23.6576550
  11.5874400  43.4537700  24.4883430   8.5575350  44.5391160  21.7245590
   9.2446480  45.0860370  22.1053180   7.7707770  45.0831890  21.7595200
   7.8602560  41.5437190  21.3370950   8.3165340  42.3542440  21.5631140
   7.5090770  41.2260330  22.1689440  10.1635170  47.0543530  28.5663250
  10.8077390  47.2602910  29.2436670  10.5264610  46.2931930  28.1134100
   3.7614340  31.8874840  21.8093470   3.6328970  31.8792740  22.7578390
   2.9376360  32.2257930  21.4584480  11.4367250  45.0575880  27.2840700
  12.0789480  44.3569040  27.3972870  11.9616600  45.8374320  27.1037590
  15.2822970  45.3424500  17.0079840  15.0560550  44.6254940  17.6004480
  14.8919170  45.0936940  16.1701590  13.2104870  45.8570780  30.4876760
  13.5461110  46.4437470  31.1654680  12.2905210  45.7263490  30.7174550
  14.8639220  43.2596440  18.6694000  14.5760920  43.7209130  19.4571880
  15.6591390  42.7994210  18.9378220   9.0393450  45.9062110  33.6564820
   8.7190320  45.1871350  34.2010510   8.3651810  46.5817180  33.7300880
   7.0807620  46.7522560  18.5997970   7.0717720  47.4852250  17.9842480
   6.1605980  46.5054140  18.6924930   2.6814260  41.9737450  19.3444730
   2.0742210  42.7136350  19.3540030   3.1563610  42.0636810  18.5182930
  12.2547050  36.1388270  29.0201620  12.6227870  35.3183480  29.3481190
  11.3945250  36.1990160  29.4357270  15.6209080  35.0945210  19.8289180
  14.9922240  35.1990880  19.1147410  15.1261000  35.3141990  20.6183060
  10.0667220  46.8150800  17.2623160  10.1679200  46.6114790  16.3325140
   9.1668960  46.5609080  17.4670940   7.5893110  37.3731160  21.2447060
   6.8809260  37.8417500  21.6860670   7.8737590  36.7153170  21.8792250
   9.2149040  38.7927860  29.2439590   9.7134290  39.2673680  29.9091440
   9.3571990  37.8691380  29.4509620  11.6208540  34.0981820  22.6842850
  11.4976320  34.1167950  21.7352360  12.5693100  34.1460760  22.8041250
   8.7085330  49.3337120  21.9570830   8.9626830  49.2958510  21.0350200
   7.7597810  49.2070450  21.9499080   5.7928130  35.6816240  18.6197770
   6.6418660  36.1186390  18.5537960   5.4259400  35.9936500  19.4469830
  16.4215900  35.0095820  30.0867980  15.9189500  35.7501220  30.4261790
  17.2372560  35.3979820  29.7704770  14.7137910  40.2529000  23.5329340
  13.7728050  40.2679230  23.7077030  15.0281980  39.4664960  23.9789640
   4.6919550  41.9348600  17.0933300   5.4582820  41.8229960  17.6558730
   4.7694240  41.2386570  16.4410070   3.3866310  39.3673670  17.7766190
   3.4669900  38.4201180  17.8883590   4.2786060  39.6980550  17.8826850
  16.7163490  47.4237850  25.2083600  16.8410910  48.2469020  25.6807410
  17.5829050  47.2128580  24.8607750   4.1881020  49.5169060  24.8800730
   4.9243500  48.9684520  25.1509300   4.5721940  50.3825070  24.7406720
   3.1939300  48.7015130  34.0686310   3.9952030  49.0227180  34.4821710
   2.6791120  48.3410710  34.7906220   7.2983330  48.6899370  16.7026300
   8.0911940  48.9788200  16.2508090   6.7787680  48.2591540  16.0238780
  12.0303930  44.8095000  34.0161720  11.4242090  44.8326600  33.2757470
  11.7258040  44.0778040  34.5528970  13.4604300  48.5375290  32.6271130
  14.4126050  48.4533310  32.5771370  13.3132520  49.2017000  33.3004920
  16.3513500  47.9169500  18.1263040  16.0655010  47.5034640  17.3117220
  16.1533050  48.8457210  18.0063560   7.8160730  43.9102780  16.5668650
   7.7111370  43.2955130  17.2930030   7.6484950  43.3868670  15.7831660
   7.9675050  42.5959580  32.5457880   7.2020720  43.1644580  32.4612550
   8.1491010  42.3035790  31.6526110  11.0563460  42.9722810  17.1710640
  10.5073560  43.4192110  17.8153380  11.6782720  42.4672060  17.6948310
  15.1098400  44.3264910  33.1032900  15.8507870  44.6640670  32.6000360
  14.3471080  44.4956970  32.5502670   2.9460190  39.3318180  33.9072430
   2.9865530  39.0332050  34.8157660   3.8005690  39.7325790  33.7479950
   6.7238580  41.9313730  19.0675940   7.1455000  41.7653600  19.9107330
   6.8489420  41.1213960  18.5731080   4.8866000  37.9110280  31.8746920
   4.3562460  37.4201230  31.2470260   5.5554070  38.3394480  31.3404850
   9.2366220  40.9551340  16.3153040   9.7571880  40.2400360  15.9494190
   9.8834620  41.5937210  16.6153550  13.7844060  42.3779740  31.6388110
  14.1985080  42.5324820  32.4878530  12.8495060  42.5034960  31.8013890
  14.2566230  39.7175900  33.6427260  14.8387000  38.9628220  33.5547740
  14.4328000  40.2483340  32.8658740   5.3738300  34.8772650  31.9544210
   5.2795170  34.2593400  31.2295080   4.7935690  35.6038940  31.7274120
   8.1399740  33.4345890  28.9871600   7.6917040  33.4570150  28.1417150
   7.5064940  33.0364910  29.5841900   8.5459290  42.3300220  29.6084040
   8.9647400  43.1732950  29.4360280   7.6267920  42.4672260  29.3790820
  10.8823190  40.0616400  30.9921880  11.0019400  39.4657540  31.7316720
  11.7417190  40.0986090  30.5723180  13.2211090  40.6153590  29.5684390
  12.6946310  41.1396210  28.9649530  13.5642430  41.2480980  30.1994120
   5.6197480  38.0046960  16.0134100   5.4186540  37.1414320  16.3747440
   5.4489530  37.9180320  15.0755700   6.3966710  48.6353230  30.7241770
   5.8587800  49.3599290  30.4050470   6.6500670  48.1583570  29.9339110
   7.6491960  36.6037750  32.2497700   8.2391650  36.2953600  32.9375520
   6.8312200  36.1317500  32.4057600  12.4685390  36.2203560  32.4830720
  11.7800910  35.5585100  32.4180710  13.1891410  35.7741830  32.9279180
  13.0985790  32.8155190  18.5420980  13.3788080  31.9723090  18.8980400
  12.3251520  33.0478300  19.0559730   4.4180280  35.1047580  16.0011980
   4.7206180  35.1115010  15.0931130   5.1574870  34.7545440  16.4979640
   9.2528920  49.8704440  30.9828420   9.1787620  50.7739580  31.2900790
   8.3507760  49.5516340  30.9550490   7.6365210  34.0482200  16.9868180
   7.2887210  33.3706190  16.4070630   7.8377980  33.5871710  17.8011570
   9.8014250  49.0362950  18.6054780  10.6965040  49.3747920  18.6273540
   9.8331880  48.3142360  17.9779060   3.4410410  44.4090000  16.8341780
   3.8785280  44.9519670  17.4899360   3.9258140  43.5836950  16.8438120
   5.2518130  45.5288040  21.9464010   4.9513670  45.4053010  22.8467920
   5.1455620  44.6696630  21.5379740  16.7808600  47.5666620  31.3120980
  16.1810590  47.6259180  30.5684900  16.9102500  46.6271600  31.4417830
  18.0210050  45.3084440  16.6490690  17.1903010  45.3761090  17.1197920
  18.1981880  46.1988560  16.3457550  17.4766510  42.0531920  19.1524890
  18.2385420  42.6228570  19.2584580  17.4920880  41.4859120  19.9233200
  18.4826480  42.9082020  23.9966820  18.8535310  42.1249340  23.5902790
  19.1228410  43.5971120  23.8184120  15.4660240  44.2918600  29.4097140
  14.6520080  44.7215760  29.6722930  15.8734440  44.9037010  28.7966190
  17.5285680  42.3466290  16.3097410  17.8034520  43.2545170  16.1816630
  17.3396420  42.2828820  17.2459400  13.9261290  35.3711140  17.6051040
  14.3446170  35.1842120  16.7647700  13.6197350  34.5190190  17.9153970
  17.4251020  40.2835280  21.3026840  17.0494620  39.5163210  20.8708130
  16.6954140  40.6657980  21.7901770   2.0146780  40.9622420  27.9235890
   2.3819820  40.8749820  28.8031910   1.4457600  40.1988970  27.8242750
  16.8150640  39.4306800  30.9366360  16.5836730  39.2019550  30.0364310
  17.0755190  40.3506350  30.8911250  15.2538710  34.6563230  33.7146060
  16.1308890  34.6646630  34.0980060  15.2659550  33.9194070  33.1038410
  16.7001980  38.5092770  24.6034080  17.2239460  38.0155420  23.9724250
  17.2861400  38.6443130  25.3481650  16.8791700  38.5932640  28.1253630
  15.9294410  38.5596180  28.2398620  17.0604710  39.5032750  27.8903400
   2.7336140  36.8434320  17.2352260   3.4427840  36.4217540  16.7499540
   2.0176080  36.9109550  16.6035610   2.3810300  32.8973650  16.2754910
   3.1038430  33.4382590  16.5936130   2.6534820  32.6237070  15.3996450
  16.1901950  37.7666120  20.5426490  16.6861070  37.5336990  21.3275370
  15.9918020  36.9277960  20.1264130   2.0702490  32.1479840  26.1777530
   2.7178680  31.5977220  25.7372690   2.4904330  32.4022990  26.9993340
  17.6189110  36.4027070  23.0764170  17.5088390  36.2483110  24.0146440
  18.3796700  35.8748010  22.8339580  15.9654830  32.3421200  29.5347170
  16.6027050  32.9555340  29.9006360  16.1129720  32.3781860  28.5896400
  18.5079380  34.2334990  16.3170310  19.4328690  34.1016170  16.1088600
  18.4855170  34.3127810  17.2706760  18.5817870  35.0045650  18.9427020
  17.7869370  34.9390770  19.4719930  18.7861150  35.9396290  18.9312370
  15.5236290  49.0437200  22.9365410  16.1195360  48.7221770  22.2599830
  15.7814440  48.5709020  23.7278680   1.8234490  32.3035510  28.9202850
   1.4749310  32.7599330  29.6861030   1.4922190  31.4092640  29.0025280
   3.4298860  45.4755110  33.0856040   3.3868490  45.1048020  33.9670500
   3.5609870  46.4132680  33.2257860   7.1304890  47.0314700  28.6865760
   6.8896250  47.2989260  27.7996280   8.0707530  47.2020430  28.7416620
   9.3359310  33.4947390  32.4422270   9.2748200  34.0869220  33.1917680
  10.2759690  33.3873350  32.2972530  11.9733870  33.1517450  32.0814560
  12.5874280  33.4696740  31.4195640  12.5183430  32.6666040  32.7010420
  18.3909050  49.0509080  29.4876400  17.8967330  49.4477950  28.7703530
  17.7822340  48.4258290  29.8813680   2.4955130  31.8311710  32.1953620
   3.0438120  31.6499760  31.4319730   2.5610440  31.0405820  32.7309930
   3.2686890  48.4217360  30.2053820   2.6747210  48.2902060  30.9443860
   3.2610730  47.5855500  29.7395920  12.7141910  31.7149590  28.4083850
  11.8401750  32.0484700  28.2056780  12.6052660  31.2422770  29.2335720
  13.6213890  33.9220460  29.7925570  13.2927250  33.1072220  29.4127300
  14.5696190  33.8790270  29.6691260  16.0748500  49.6932500  26.7663140
  15.6151470  50.4448310  26.3921160  15.4460960  48.9738970  26.7077940
   2.8999120  45.7875740  29.1561860   2.1733180  45.1681030  29.0887810
   2.9608270  46.1816350  28.2859940   6.5044220  48.0020740  25.9411270
   7.0209240  47.3908100  25.4159530   7.1541600  48.5049520  26.4322280
   9.2439720  48.8929230  26.7680250   9.5317530  48.6383530  25.8913260
   9.7562940  48.3406590  27.3585820  10.4616730  32.6319430  27.3476760
   9.6788520  33.1064930  27.6273520  10.1679660  31.7274260  27.2389940
  15.0137800  33.3342530  25.3925850  15.4545890  33.2787630  24.5447450
  14.7445390  34.2500540  25.4636030  16.8776370  32.9657770  23.4034670
  16.8164770  32.0218990  23.2565690  17.6568400  33.0737860  23.9488130
   1.8057140  32.9366910  19.8690480   2.5636500  33.0495790  19.2954510
   1.3434310  33.7736110  19.8233910   8.3470950  35.0506180  22.8592790
   7.5345460  34.6763070  22.5188670   8.8512590  34.2951260  23.1613980
  12.8495930  31.7148630  24.0975860  13.4525300  32.2868840  24.5724380
  12.1088920  32.2788070  23.8749760  15.9930530  32.1170190  19.3716140
  16.1881160  33.0153640  19.6383570  15.2060400  31.8857270  19.8649090
   2.7891820  47.7983360  19.8108760   2.2639440  48.1791390  19.1070720
   2.7136400  48.4234130  20.5318470   4.1782290  33.4630960  18.4092450
   4.7075050  32.6760760  18.2800400   4.8110610  34.1422150  18.6427980
   6.3720130  33.2006100  21.4637840   5.7422870  32.4993410  21.6307970
   5.8325270  33.9610230  21.2471000   9.3112080  49.8145330  34.1348450
  10.2379390  49.5789600  34.1784410   9.2962510  50.6417330  33.6534480
  17.5457140  49.3570900  21.1322700  17.7209330  48.6708640  20.4883620
  16.8478710  49.8817950  20.7399370   6.4975690  32.4790080  33.8990330
   6.2159960  32.9823680  33.1351150   6.8795390  31.6811830  33.5332460
   5.3884790  49.7465740  18.6858010   6.1203610  49.4625020  18.1381900
   5.6478460  49.5079020  19.5757390   4.5499580  45.8630470  18.6904340
   3.9208460  46.3315570  19.2390170   4.6647410  45.0179690  19.1250530
  13.0991150  31.8943660  34.4770800  12.9856600  32.2138270  35.3722320
  13.9160890  32.2956170  34.1808080  15.8789640  49.0415190  33.9589490
  16.6714960  48.5464420  33.7515450  16.1722790  49.7205330  34.5665100
  12.0049300  39.9136130   4.8405540  11.9243350  38.9990740   4.5697250
  11.5913720  40.4103200   4.1345250  10.1367340  41.6915150   6.7214810
   9.3609440  41.2115590   7.0113380  10.7880270  41.0120800   6.5470970
   4.1533170  42.0034960   7.5990570   3.3218050  41.7483670   7.9987080
   4.7614150  42.0745730   8.3348490  14.1574770  46.0975340   5.5013940
  13.6956300  45.3262580   5.8301110  14.9700320  46.1241410   6.0066390
   4.1334430  46.0375050   7.7948590   4.4362470  45.1472790   7.6158810
   4.8778020  46.5945270   7.5670840  10.3838080  48.3833350   5.1217930
   9.7649520  48.8390850   4.5512370  11.2389860  48.5384810   4.7207630
   9.5776330  44.3672340   6.7284970   9.5084610  43.4262280   6.5674100
  10.3396190  44.4573750   7.3007540   1.7683000  34.9726860   9.0541590
   1.5885840  34.0752610   9.3344350   1.3663080  35.5198730   9.7288540
  10.6081500  37.1742720   6.9553900  10.9846320  36.3014600   6.8427570
  10.5101010  37.5101420   6.0644340   4.7386510  35.5468350   2.4171340
   4.8453260  36.4472080   2.7240100   3.8278870  35.4986320   2.1265990
  14.3905620  34.6693160   3.8882240  15.2115240  34.1789730   3.9307720
  14.4239700  35.2590820   4.6414080   2.3869670  37.4687360   7.6623930
   3.0679780  37.7325730   8.2811330   2.0717720  36.6288230   7.9961940
   6.5794240  38.5154720   6.7496520   7.0872460  39.0135690   7.3901540
   7.1107480  37.7389920   6.5735880  18.6805170  36.6859910  10.4525870
  17.9757340  37.0741620   9.9340980  18.9463090  37.3810200  11.0546800
   4.8630340  33.1553280  11.0159940   4.8648780  33.6725670  10.2105840
   4.0334650  32.6783460  10.9929870  11.2501430  43.2672590   2.5149840
  10.6318700  43.7322040   1.9512560  11.7624680  43.9600070   2.9319350
   6.1133190  42.7948460   9.1933440   5.7802570  43.4217380   9.8354510
   6.2899870  43.3210340   8.4135110  14.6267100  36.6093540   6.6609780
  13.9222670  36.8978430   7.2412890  14.9879260  37.4193650   6.3009340
   4.5445670  34.8663240   9.0230390   4.8862480  35.7105290   8.7284260
   3.6061480  35.0146980   9.1395730   5.3252290  44.7629260  11.0082620
   5.9426290  45.4380340  10.7267070   4.4645410  45.1717240  10.9170120
  16.2429880  46.2268670   8.9237260  15.5593400  46.8967780   8.9153930
  16.7824170  46.4249320   8.1582120  17.6954020  36.0548330   7.0518990
  16.7478930  36.0887310   7.1834420  18.0204010  36.8687280   7.4368350
   8.2273560  32.3545510   5.3474980   8.5348540  31.7992400   4.6310480
   7.2974260  32.4889970   5.1647970  13.7788620  48.0712800   7.6382440
  13.7915780  47.6675090   6.7704700  13.2263840  48.8460090   7.5343870
  15.0734040  44.7929020   2.7272610  14.9630370  43.8503350   2.8522030
  15.0702290  45.1544660   3.6135370  13.1774060  42.9742640   8.9665050
  13.5942850  42.7602750   8.1318510  13.9013880  43.2315430   9.5373670
  10.6154320  40.4194340   2.0835100   9.6883600  40.3531720   2.3123570
  10.7679140  41.3574470   1.9690340  17.1236160  41.3729860   9.0581290
  16.2954790  41.4422950   8.5831420  17.7186640  41.9584170   8.5897120
  14.6451610  41.9814640   2.5870350  14.0264030  41.6434190   1.9396650
  14.6276060  41.3374400   3.2949540  14.0878170  38.1599180  10.0036160
  13.6749350  38.9852890  10.2576150  13.3554120  37.5744220   9.8112520
   6.2210960  40.9459080   4.8654830   5.8167960  40.2336330   4.3700730
   6.3074080  40.6012320   5.7542870   6.6892660  44.6326640   7.0294040
   6.3920950  44.0272110   6.3501820   7.6392480  44.6703950   6.9183400
   4.9339580  37.7202290   8.6453870   5.4854170  37.8297630   7.8707120
   5.4483090  38.0939890   9.3609100  14.7778270  48.2058510  10.6917140
  14.3008830  49.0130700  10.4989750  14.0940060  47.5536840  10.8443350
   5.7811090  44.3708330  13.6801840   4.8839620  44.5948300  13.9275240
   5.8063960  44.4943270  12.7313240   4.6082310  41.2421650  12.2559210
   4.4690080  42.1144450  12.6246610   3.7263670  40.8994460  12.1107150
  10.9311690  46.1597520   3.5624340  11.3707600  46.9021850   3.1479730
  10.8698580  46.4024090   4.4863300   6.4062660  47.1843350  14.4644360
   6.3778090  47.5886300  13.5972790   6.2427630  46.2553710  14.3015960
   2.9215590  39.8404060   2.3661480   2.8013190  40.5666150   1.7542750
   2.6116480  39.0706970   1.8889390  18.3577480  47.9670450  15.7608530
  18.8337200  48.4453340  16.4397610  18.9784640  47.8987940  15.0354030
   1.8048590  44.7119390   4.5836300   1.3976670  44.8533980   3.7289900
   2.6961600  44.4279550   4.3807510  17.7610730  45.1583300  12.9208540
  17.8873790  44.9195180  12.0025720  17.8032110  44.3267840  13.3930620
  11.6227470  48.8611300  11.4903350  12.1372140  48.7719310  12.2925780
  10.7796550  49.2071000  11.7831260   6.0770250  48.9265170   2.6958970
   5.9012730  48.0100710   2.4826770   5.2225990  49.2852460   2.9356770
  12.8657930  48.2816910   3.5533840  13.3214880  47.5006290   3.8672460
  13.2050450  48.9923730   4.0975020  17.6134740  37.2115760  13.8858280
  16.9979010  37.7195430  13.3573740  17.2931160  36.3114090  13.8284220
   5.3879250  33.1839130   5.7485150   4.9447400  33.9648670   5.4169670
   5.9464240  33.5069020   6.4556090   9.6749060  36.0507650  11.3520470
   9.2128430  36.2590670  12.1640410   9.2727170  35.2367000  11.0491140
  14.6753570  37.2716600  12.4817130  13.8247160  36.9722350  12.8026200
  14.5155360  37.5158610  11.5700950  11.7703280  38.7718350  14.5815920
  12.0956690  37.9382100  14.2418150  12.5583610  39.2946870  14.7294250
   7.4255150  33.7286460   7.6074750   7.7227480  34.6349290   7.5266770
   7.9740710  33.2405240   6.9934320   5.1793470  38.3072700   3.4766400
   4.9534390  38.0909870   4.3813020   4.3986000  38.7401160   3.1312370
  12.4091230  38.3136070   2.0757050  11.8100120  39.0371870   1.8920670
  12.9570840  38.2512850   1.2933500   7.6192680  39.2058280  14.1426670
   7.5236280  38.2653010  13.9927070   8.4624660  39.4273350  13.7474740
  11.0156100  36.9499610   4.1060330  11.4085670  37.2671810   3.2929020
  11.3772950  36.0711490   4.2204850   2.7503220  35.6171950  12.2960450
   2.3566610  36.4647160  12.5033230   2.0621620  34.9798320  12.4869090
   9.3248270  35.7006920  15.3657190   8.6346590  35.5079120  16.0003280
  10.0680570  35.9841560  15.8981490  11.6011240  39.5405360   8.2011110
  10.8692360  40.0492170   8.5501210  11.2035580  38.7235340   7.8999890
   8.0388630  36.2159560   6.6063600   8.0424690  35.7749510   5.7568140
   8.9339750  36.5376890   6.7135420   3.8891010  36.0986050   5.5657810
   3.5491060  36.5761280   6.3224860   3.1268330  35.6451170   5.2058910
  12.0637150  34.9939040   7.6134050  12.0809890  35.4447690   8.4575900
  11.8152730  34.0944680   7.8267490  15.4907900  32.4071220  13.4520430
  15.8153670  31.6760880  13.9778410  15.5264410  32.0884860  12.5501420
   2.1899460  43.4284800  12.8720390   1.8054250  42.7878470  13.4703350
   2.5011650  44.1320920  13.4415120   8.3396600  40.2761340   8.3529010
   8.7066730  39.8019910   9.0990350   8.1501660  41.1502910   8.6937350
   6.1295970  39.3169980  10.6713220   5.8253040  40.1961960  10.8963580
   7.0842430  39.3769770  10.7070660  15.4165740  42.5196330   7.0606460
  16.1364860  43.0151620   6.6702570  15.2147560  41.8414220   6.4160330
  10.7984540  42.5905390  12.9475460  10.7321850  41.6701060  12.6933050
  10.1689680  42.6880830  13.6620100   4.7015160  43.1911350   4.9058880
   5.2193830  42.3879610   4.8515770   4.2499180  43.1290490   5.7475710
   2.1859700  40.1572720  11.8184580   1.8274640  40.8226570  12.4057920
   1.8914260  39.3256270  12.1897200   5.3872820  40.6156960  14.7024130
   5.0872960  40.7614140  13.8051950   6.1584060  40.0562250  14.6097520
  10.7301270  45.4125960  12.6979260  10.7445810  44.4806920  12.4798170
  10.0226370  45.4985720  13.3369030  16.9412480  42.0533300  12.0447840
  16.2160670  42.6462080  11.8477230  17.4687940  42.0456840  11.2461210
  12.4712070  43.7793470   5.5431690  12.8235890  43.1821600   4.8833060
  11.5874400  43.4537700   5.7139940   8.5575350  44.5391160   2.9502100
   9.2446480  45.0860370   3.3309690   7.7707770  45.0831890   2.9851710
   7.8602560  41.5437190   2.5627460   8.3165340  42.3542440   2.7887650
   7.5090770  41.2260330   3.3945950  10.1635170  47.0543530   9.7919760
  10.8077390  47.2602910  10.4693180  10.5264610  46.2931930   9.3390610
   3.7614340  31.8874840   3.0349980   3.6328970  31.8792740   3.9834900
   2.9376360  32.2257930   2.6840990  11.4367250  45.0575880   8.5097210
  12.0789480  44.3569040   8.6229380  11.9616600  45.8374320   8.3294100
  13.2104870  45.8570780  11.7133270  13.5461110  46.4437470  12.3911190
  12.2905210  45.7263490  11.9431060   9.0393450  45.9062110  14.8821330
   8.7190320  45.1871350  15.4267020   8.3651810  46.5817180  14.9557390
  12.2547050  36.1388270  10.2458130  12.6227870  35.3183480  10.5737700
  11.3945250  36.1990160  10.6613780   7.5893110  37.3731160   2.4703570
   6.8809260  37.8417500   2.9117180   7.8737590  36.7153170   3.1048760
   9.2149040  38.7927860  10.4696100   9.7134290  39.2673680  11.1347950
   9.3571990  37.8691380  10.6766130  11.6208540  34.0981820   3.9099360
  11.4976320  34.1167950   2.9608870  12.5693100  34.1460760   4.0297760
   8.7085330  49.3337120   3.1827340   8.9626830  49.2958510   2.2606710
   7.7597810  49.2070450   3.1755590  16.4215900  35.0095820  11.3124490
  15.9189500  35.7501220  11.6518300  17.2372560  35.3979820  10.9961280
  14.7137910  40.2529000   4.7585850  13.7728050  40.2679230   4.9333540
  15.0281980  39.4664960   5.2046150  16.7163490  47.4237850   6.4340110
  16.8410910  48.2469020   6.9063920  17.5829050  47.2128580   6.0864260
   4.1881020  49.5169060   6.1057240   4.9243500  48.9684520   6.3765810
   4.5721940  50.3825070   5.9663230   3.1939300  48.7015130  15.2942820
   3.9952030  49.0227180  15.7078220   2.6791120  48.3410710  16.0162730
  12.0303930  44.8095000  15.2418230  11.4242090  44.8326600  14.5013980
  11.7258040  44.0778040  15.7785480  13.4604300  48.5375290  13.8527640
  14.4126050  48.4533310  13.8027880  13.3132520  49.2017000  14.5261430
   7.9675050  42.5959580  13.7714390   7.2020720  43.1644580  13.6869060
   8.1491010  42.3035790  12.8782620  15.1098400  44.3264910  14.3289410
  15.8507870  44.6640670  13.8256870  14.3471080  44.4956970  13.7759180
   2.9460190  39.3318180  15.1328940   2.9865530  39.0332050  16.0414170
   3.8005690  39.7325790  14.9736460   4.8866000  37.9110280  13.1003430
   4.3562460  37.4201230  12.4726770   5.5554070  38.3394480  12.5661360
  13.7844060  42.3779740  12.8644620  14.1985080  42.5324820  13.7135040
  12.8495060  42.5034960  13.0270400  14.2566230  39.7175900  14.8683770
  14.8387000  38.9628220  14.7804250  14.4328000  40.2483340  14.0915250
   5.3738300  34.8772650  13.1800720   5.2795170  34.2593400  12.4551590
   4.7935690  35.6038940  12.9530630   8.1399740  33.4345890  10.2128110
   7.6917040  33.4570150   9.3673660   7.5064940  33.0364910  10.8098410
   8.5459290  42.3300220  10.8340550   8.9647400  43.1732950  10.6616790
   7.6267920  42.4672260  10.6047330  10.8823190  40.0616400  12.2178390
  11.0019400  39.4657540  12.9573230  11.7417190  40.0986090  11.7979690
  13.2211090  40.6153590  10.7940900  12.6946310  41.1396210  10.1906040
  13.5642430  41.2480980  11.4250630   6.3966710  48.6353230  11.9498280
   5.8587800  49.3599290  11.6306980   6.6500670  48.1583570  11.1595620
   7.6491960  36.6037750  13.4754210   8.2391650  36.2953600  14.1632030
   6.8312200  36.1317500  13.6314110  12.4685390  36.2203560  13.7087230
  11.7800910  35.5585100  13.6437220  13.1891410  35.7741830  14.1535690
   9.2528920  49.8704440  12.2084930   9.1787620  50.7739580  12.5157300
   8.3507760  49.5516340  12.1807000   5.2518130  45.5288040   3.1720520
   4.9513670  45.4053010   4.0724430   5.1455620  44.6696630   2.7636250
  16.7808600  47.5666620  12.5377490  16.1810590  47.6259180  11.7941410
  16.9102500  46.6271600  12.6674340  18.4826480  42.9082020   5.2223330
  18.8535310  42.1249340   4.8159300  19.1228410  43.5971120   5.0440630
  15.4660240  44.2918600  10.6353650  14.6520080  44.7215760  10.8979440
  15.8734440  44.9037010  10.0222700  17.4251020  40.2835280   2.5283350
  17.0494620  39.5163210   2.0964640  16.6954140  40.6657980   3.0158280
   2.0146780  40.9622420   9.1492400   2.3819820  40.8749820  10.0288420
   1.4457600  40.1988970   9.0499260  16.8150640  39.4306800  12.1622870
  16.5836730  39.2019550  11.2620820  17.0755190  40.3506350  12.1167760
  15.2538710  34.6563230  14.9402570  16.1308890  34.6646630  15.3236570
  15.2659550  33.9194070  14.3294920  16.7001980  38.5092770   5.8290590
  17.2239460  38.0155420   5.1980760  17.2861400  38.6443130   6.5738160
  16.8791700  38.5932640   9.3510140  15.9294410  38.5596180   9.4655130
  17.0604710  39.5032750   9.1159910  16.1901950  37.7666120   1.7683000
  16.6861070  37.5336990   2.5531880  15.9918020  36.9277960   1.3520640
   2.0702490  32.1479840   7.4034040   2.7178680  31.5977220   6.9629200
   2.4904330  32.4022990   8.2249850  17.6189110  36.4027070   4.3020680
  17.5088390  36.2483110   5.2402950  18.3796700  35.8748010   4.0596090
  15.9654830  32.3421200  10.7603680  16.6027050  32.9555340  11.1262870
  16.1129720  32.3781860   9.8152910  15.5236290  49.0437200   4.1621920
  16.1195360  48.7221770   3.4856340  15.7814440  48.5709020   4.9535190
   1.8234490  32.3035510  10.1459360   1.4749310  32.7599330  10.9117540
   1.4922190  31.4092640  10.2281790   3.4298860  45.4755110  14.3112550
   3.3868490  45.1048020  15.1927010   3.5609870  46.4132680  14.4514370
   7.1304890  47.0314700   9.9122270   6.8896250  47.2989260   9.0252790
   8.0707530  47.2020430   9.9673130   9.3359310  33.4947390  13.6678780
   9.2748200  34.0869220  14.4174190  10.2759690  33.3873350  13.5229040
  11.9733870  33.1517450  13.3071070  12.5874280  33.4696740  12.6452150
  12.5183430  32.6666040  13.9266930  18.3909050  49.0509080  10.7132910
  17.8967330  49.4477950   9.9960040  17.7822340  48.4258290  11.1070190
   2.4955130  31.8311710  13.4210130   3.0438120  31.6499760  12.6576240
   2.5610440  31.0405820  13.9566440   3.2686890  48.4217360  11.4310330
   2.6747210  48.2902060  12.1700370   3.2610730  47.5855500  10.9652430
  12.7141910  31.7149590   9.6340360  11.8401750  32.0484700   9.4313290
  12.6052660  31.2422770  10.4592230  13.6213890  33.9220460  11.0182080
  13.2927250  33.1072220  10.6383810  14.5696190  33.8790270  10.8947770
  16.0748500  49.6932500   7.9919650  15.6151470  50.4448310   7.6177670
  15.4460960  48.9738970   7.9334450   2.8999120  45.7875740  10.3818370
   2.1733180  45.1681030  10.3144320   2.9608270  46.1816350   9.5116450
   6.5044220  48.0020740   7.1667780   7.0209240  47.3908100   6.6416040
   7.1541600  48.5049520   7.6578790   9.2439720  48.8929230   7.9936760
   9.5317530  48.6383530   7.1169770   9.7562940  48.3406590   8.5842330
  10.4616730  32.6319430   8.5733270   9.6788520  33.1064930   8.8530030
  10.1679660  31.7274260   8.4646450  15.0137800  33.3342530   6.6182360
  15.4545890  33.2787630   5.7703960  14.7445390  34.2500540   6.6892540
  16.8776370  32.9657770   4.6291180  16.8164770  32.0218990   4.4822200
  17.6568400  33.0737860   5.1744640   8.3470950  35.0506180   4.0849300
   7.5345460  34.6763070   3.7445180   8.8512590  34.2951260   4.3870490
  12.8495930  31.7148630   5.3232370  13.4525300  32.2868840   5.7980890
  12.1088920  32.2788070   5.1006270   6.3720130  33.2006100   2.6894350
   5.7422870  32.4993410   2.8564480   5.8325270  33.9610230   2.4727510
   9.3112080  49.8145330  15.3604960  10.2379390  49.5789600  15.4040920
   9.2962510  50.6417330  14.8790990  17.5457140  49.3570900   2.3579210
  17.7209330  48.6708640   1.7140130  16.8478710  49.8817950   1.9655880
   6.4975690  32.4790080  15.1246840   6.2159960  32.9823680  14.3607660
   6.8795390  31.6811830  14.7588970  13.0991150  31.8943660  15.7027310
  12.9856600  32.2138270  16.5978830  13.9160890  32.2956170  15.4064590
  15.8789640  49.0415190  15.1846000  16.6714960  48.5464420  14.9771960
  16.1722790  49.7205330  15.7921610  12.0049300  21.1392640  79.9379500
  11.9243350  20.2247250  79.6671210  11.5913720  21.6359710  79.2319210
  10.1367340  22.9171660  81.8188770   9.3609440  22.4372100  82.1087340
  10.7880270  22.2377310  81.6444930   4.1533170  23.2291470  82.6964530
   3.3218050  22.9740180  83.0961040   4.7614150  23.3002240  83.4322450
  14.1574770  27.3231850  80.5987900  13.6956300  26.5519090  80.9275070
  14.9700320  27.3497920  81.1040350   4.1334430  27.2631560  82.8922550
   4.4362470  26.3729300  82.7132770   4.8778020  27.8201780  82.6644800
   2.5625120  18.1893360  76.4806920   1.6741820  18.5309330  76.3786800
   2.8466310  17.9893680  75.5887750  10.3838080  29.6089860  80.2191890
   9.7649520  30.0647360  79.6486330  11.2389860  29.7641320  79.8181590
   9.5776330  25.5928850  81.8258930   9.5084610  24.6518790  81.6648060
  10.3396190  25.6830260  82.3981500   1.7683000  16.1983370  84.1515550
   1.5885840  15.3009120  84.4318310   1.3663080  16.7455240  84.8262500
  10.6081500  18.3999230  82.0527860  10.9846320  17.5271110  81.9401530
  10.5101010  18.7357930  81.1618300   4.7386510  16.7724860  77.5145300
   4.8453260  17.6728590  77.8214060   3.8278870  16.7242830  77.2239950
  14.3905620  15.8949670  78.9856200  15.2115240  15.4046240  79.0281680
  14.4239700  16.4847330  79.7388040   2.3869670  18.6943870  82.7597890
   3.0679780  18.9582240  83.3785290   2.0717720  17.8544740  83.0935900
   6.5794240  19.7411230  81.8470480   7.0872460  20.2392200  82.4875500
   7.1107480  18.9646430  81.6709840  18.6805170  17.9116420  85.5499830
  17.9757340  18.2998130  85.0314940  18.9463090  18.6066710  86.1520760
   4.8630340  14.3809790  86.1133900   4.8648780  14.8982180  85.3079800
   4.0334650  13.9039970  86.0903830  11.2501430  24.4929100  77.6123800
  10.6318700  24.9578550  77.0486520  11.7624680  25.1856580  78.0293310
   6.1133190  24.0204970  84.2907400   5.7802570  24.6473890  84.9328470
   6.2899870  24.5466850  83.5109070  14.6267100  17.8350050  81.7583740
  13.9222670  18.1234940  82.3386850  14.9879260  18.6450160  81.3983300
   4.5445670  16.0919750  84.1204350   4.8862480  16.9361800  83.8258220
   3.6061480  16.2403490  84.2369690   5.3252290  25.9885770  86.1056580
   5.9426290  26.6636850  85.8241030   4.4645410  26.3973750  86.0144080
  16.2429880  27.4525180  84.0211220  15.5593400  28.1224290  84.0127890
  16.7824170  27.6505830  83.2556080  17.6954020  17.2804840  82.1492950
  16.7478930  17.3143820  82.2808380  18.0204010  18.0943790  82.5342310
   8.2273560  13.5802020  80.4448940   8.5348540  13.0248910  79.7284440
   7.2974260  13.7146480  80.2621930  13.7788620  29.2969310  82.7356400
  13.7915780  28.8931600  81.8678660  13.2263840  30.0716600  82.6317830
  15.0734040  26.0185530  77.8246570  14.9630370  25.0759860  77.9495990
  15.0702290  26.3801170  78.7109330  13.1774060  24.1999150  84.0639010
  13.5942850  23.9859260  83.2292470  13.9013880  24.4571940  84.6347630
  10.6154320  21.6450850  77.1809060   9.6883600  21.5788230  77.4097530
  10.7679140  22.5830980  77.0664300  10.6023400  17.9167850  74.1776220
   9.6627070  18.0781810  74.2628680  10.9206660  18.6353530  73.6312210
  17.1236160  22.5986370  84.1555250  16.2954790  22.6679460  83.6805380
  17.7186640  23.1840680  83.6871080  14.6451610  23.2071150  77.6844310
  14.0264030  22.8690700  77.0370610  14.6276060  22.5630910  78.3923500
  14.0878170  19.3855690  85.1010120  13.6749350  20.2109400  85.3550110
  13.3554120  18.8000730  84.9086480   6.2210960  22.1715590  79.9628790
   5.8167960  21.4592840  79.4674690   6.3074080  21.8268830  80.8516830
   6.6892660  25.8583150  82.1268000   6.3920950  25.2528620  81.4475780
   7.6392480  25.8960460  82.0157360   4.9339580  18.9458800  83.7427830
   5.4854170  19.0554140  82.9681080   5.4483090  19.3196400  84.4583060
  14.7778270  29.4315020  85.7891100  14.3008830  30.2387210  85.5963710
  14.0940060  28.7793350  85.9417310  12.8216310  22.4457960  74.6917060
  13.2609590  21.6080390  74.5454880  13.5344730  23.0787360  74.7781200
  10.9311690  27.3854030  78.6598300  11.3707600  28.1278360  78.2453690
  10.8698580  27.6280600  79.5837260  16.4033450  13.7000770  73.0058100
  16.0906110  13.7927600  73.9057170  17.1645920  14.2781800  72.9555530
   2.9215590  21.0660570  77.4635440   2.8013190  21.7922660  76.8516710
   2.6116480  20.2963480  76.9863350   1.8048590  25.9375900  79.6810260
   1.3976670  26.0790490  78.8263860   2.6961600  25.6536060  79.4781470
  13.5981870  30.3723150  76.0161310  13.4383010  30.0826090  76.9143140
  13.4328580  29.5963280  75.4806540   6.0770250  30.1521680  77.7932930
   5.9012730  29.2357220  77.5800730   5.2225990  30.5108970  78.0330730
  13.3008000  27.8810710  74.5759310  12.6073160  27.8788000  73.9161590
  14.0430860  27.4570030  74.1453480  12.8657930  29.5073420  78.6507800
  13.3214880  28.7262800  78.9646420  13.2050450  30.2180240  79.1948980
   5.3879250  14.4095640  80.8459110   4.9447400  15.1905180  80.5143630
   5.9464240  14.7325530  81.5530050   8.5038070  14.0306340  75.7264940
   7.8792250  14.0266210  76.4518250   8.4168190  13.1637300  75.3300910
   7.4255150  14.9542970  82.7048710   7.7227480  15.8605800  82.6240730
   7.9740710  14.4661750  82.0908280   5.1793470  19.5329210  78.5740360
   4.9534390  19.3166380  79.4786980   4.3986000  19.9657670  78.2286330
  12.4091230  19.5392580  77.1731010  11.8100120  20.2628380  76.9894630
  12.9570840  19.4769360  76.3907460  11.0156100  18.1756120  79.2034290
  11.4085670  18.4928320  78.3902980  11.3772950  17.2968000  79.3178810
  11.6011240  20.7661870  83.2985070  10.8692360  21.2748680  83.6475170
  11.2035580  19.9491850  82.9973850   8.0388630  17.4416070  81.7037560
   8.0424690  17.0006020  80.8542100   8.9339750  17.7633400  81.8109380
   3.8891010  17.3242560  80.6631770   3.5491060  17.8017790  81.4198820
   3.1268330  16.8707680  80.3032870   8.1008780  18.4428150  74.6944320
   8.2221600  18.4014630  75.6430140   7.7157290  19.3052300  74.5391050
  12.0637150  16.2195550  82.7108010  12.0809890  16.6704200  83.5549860
  11.8152730  15.3201190  82.9241450   7.1130280  20.7529290  74.0927620
   6.5447180  20.3047540  73.4663530   7.8219280  21.1122070  73.5592770
   8.3396600  21.5017850  83.4502970   8.7066730  21.0276420  84.1964310
   8.1501660  22.3759420  83.7911310   6.1295970  20.5426490  85.7687180
   5.8253040  21.4218470  85.9937540   7.0842430  20.6026280  85.8044620
   4.6577760  24.7487480  76.3654030   3.8840020  24.2085100  76.2052750
   5.3872390  24.2294090  76.0271790  15.4165740  23.7452840  82.1580420
  16.1364860  24.2408130  81.7676530  15.2147560  23.0670730  81.5134290
  10.8775680  15.1390800  76.3009810  10.0640290  14.6403970  76.2255120
  10.6837630  15.9789050  75.8846160  13.5924070  19.5110450  74.5971970
  14.4803690  19.8227680  74.4223310  13.5629160  18.6382700  74.2052550
   4.7015160  24.4167860  80.0032840   5.2193830  23.6136120  79.9489730
   4.2499180  24.3547000  80.8449670   9.5884660  25.6834140  75.2760140
   9.9300360  26.4276370  74.7803460   8.7597370  25.9965260  75.6384970
  15.8638340  20.8222290  74.0651830  15.7802060  21.2536510  73.2148270
  16.5832530  21.2820640  74.4978650  16.8925590  27.6764550  76.7933960
  16.2501750  27.0220170  77.0677680  16.5056250  28.0819640  76.0174630
  12.4712070  25.0049980  80.6405650  12.8235890  24.4078110  79.9807020
  11.5874400  24.6794210  80.8113900   8.5575350  25.7647670  78.0476060
   9.2446480  26.3116880  78.4283650   7.7707770  26.3088400  78.0825670
   7.8602560  22.7693700  77.6601420   8.3165340  23.5798950  77.8861610
   7.5090770  22.4516840  78.4919910  10.1635170  28.2800040  84.8893720
  10.8077390  28.4859420  85.5667140  10.5264610  27.5188440  84.4364570
   3.7614340  13.1131350  78.1323940   3.6328970  13.1049250  79.0808860
   2.9376360  13.4514440  77.7814950  11.4367250  26.2832390  83.6071170
  12.0789480  25.5825550  83.7203340  11.9616600  27.0630830  83.4268060
  15.2822970  26.5681010  73.3310310  15.0560550  25.8511450  73.9234950
  14.8919170  26.3193450  72.4932060  14.8639220  24.4852950  74.9924470
  14.5760920  24.9465640  75.7802350  15.6591390  24.0250720  75.2608690
   7.0807620  27.9779070  74.9228440   7.0717720  28.7108760  74.3072950
   6.1605980  27.7310650  75.0155400   2.6814260  23.1993960  75.6675200
   2.0742210  23.9392860  75.6770500   3.1563610  23.2893320  74.8413400
  12.2547050  17.3644780  85.3432090  12.6227870  16.5439990  85.6711660
  11.3945250  17.4246670  85.7587740  15.6209080  16.3201720  76.1519650
  14.9922240  16.4247390  75.4377880  15.1261000  16.5398500  76.9413530
  10.0667220  28.0407310  73.5853630  10.1679200  27.8371300  72.6555610
   9.1668960  27.7865590  73.7901410   7.5893110  18.5987670  77.5677530
   6.8809260  19.0674010  78.0091140   7.8737590  17.9409680  78.2022720
   9.2149040  20.0184370  85.5670060   9.7134290  20.4930190  86.2321910
   9.3571990  19.0947890  85.7740090  11.6208540  15.3238330  79.0073320
  11.4976320  15.3424460  78.0582830  12.5693100  15.3717270  79.1271720
   8.7085330  30.5593630  78.2801300   8.9626830  30.5215020  77.3580670
   7.7597810  30.4326960  78.2729550   5.7928130  16.9072750  74.9428240
   6.6418660  17.3442900  74.8768430   5.4259400  17.2193010  75.7700300
  16.4215900  16.2352330  86.4098450  15.9189500  16.9757730  86.7492260
  17.2372560  16.6236330  86.0935240  14.7137910  21.4785510  79.8559810
  13.7728050  21.4935740  80.0307500  15.0281980  20.6921470  80.3020110
   4.6919550  23.1605110  73.4163770   5.4582820  23.0486470  73.9789200
   4.7694240  22.4643080  72.7640540   3.3866310  20.5930180  74.0996660
   3.4669900  19.6457690  74.2114060   4.2786060  20.9237060  74.2057320
  16.7163490  28.6494360  81.5314070  16.8410910  29.4725530  82.0037880
  17.5829050  28.4385090  81.1838220   4.1881020  30.7425570  81.2031200
   4.9243500  30.1941030  81.4739770   4.5721940  31.6081580  81.0637190
   7.2983330  29.9155880  73.0256770   8.0911940  30.2044710  72.5738560
   6.7787680  29.4848050  72.3469250  16.3513500  29.1426010  74.4493510
  16.0655010  28.7291150  73.6347690  16.1533050  30.0713720  74.3294030
   7.8160730  25.1359290  72.8899120   7.7111370  24.5211640  73.6160500
   7.6484950  24.6125180  72.1062130  11.0563460  24.1979320  73.4941110
  10.5073560  24.6448620  74.1383850  11.6782720  23.6928570  74.0178780
   6.7238580  23.1570240  75.3906410   7.1455000  22.9910110  76.2337800
   6.8489420  22.3470470  74.8961550   9.2366220  22.1807850  72.6383510
   9.7571880  21.4656870  72.2724660   9.8834620  22.8193720  72.9384020
   8.1399740  14.6602400  85.3102070   7.6917040  14.6826660  84.4647620
   7.5064940  14.2621420  85.9072370   8.5459290  23.5556730  85.9314510
   8.9647400  24.3989460  85.7590750   7.6267920  23.6928770  85.7021290
  13.2211090  21.8410100  85.8914860  12.6946310  22.3652720  85.2880000
  13.5642430  22.4737490  86.5224590   5.6197480  19.2303470  72.3364570
   5.4186540  18.3670830  72.6977910   5.4489530  19.1436830  71.3986170
  13.0985790  14.0411700  74.8651450  13.3788080  13.1979600  75.2210870
  12.3251520  14.2734810  75.3790200   4.4180280  16.3304090  72.3242450
   4.7206180  16.3371520  71.4161600   5.1574870  15.9801950  72.8210110
   7.6365210  15.2738710  73.3098650   7.2887210  14.5962700  72.7301100
   7.8377980  14.8128220  74.1242040   9.8014250  30.2619460  74.9285250
  10.6965040  30.6004430  74.9504010   9.8331880  29.5398870  74.3009530
   3.4410410  25.6346510  73.1572250   3.8785280  26.1776180  73.8129830
   3.9258140  24.8093460  73.1668590   5.2518130  26.7544550  78.2694480
   4.9513670  26.6309520  79.1698390   5.1455620  25.8953140  77.8610210
  18.0210050  26.5340950  72.9721160  17.1903010  26.6017600  73.4428390
  18.1981880  27.4245070  72.6688020  17.4766510  23.2788430  75.4755360
  18.2385420  23.8485080  75.5815050  17.4920880  22.7115630  76.2463670
  18.4826480  24.1338530  80.3197290  18.8535310  23.3505850  79.9133260
  19.1228410  24.8227630  80.1414590  15.4660240  25.5175110  85.7327610
  14.6520080  25.9472270  85.9953400  15.8734440  26.1293520  85.1196660
  17.5285680  23.5722800  72.6327880  17.8034520  24.4801680  72.5047100
  17.3396420  23.5085330  73.5689870  13.9261290  16.5967650  73.9281510
  14.3446170  16.4098630  73.0878170  13.6197350  15.7446700  74.2384440
  17.4251020  21.5091790  77.6257310  17.0494620  20.7419720  77.1938600
  16.6954140  21.8914490  78.1132240   2.0146780  22.1878930  84.2466360
   2.3819820  22.1006330  85.1262380   1.4457600  21.4245480  84.1473220
  16.7001980  19.7349280  80.9264550  17.2239460  19.2411930  80.2954720
  17.2861400  19.8699640  81.6712120  16.8791700  19.8189150  84.4484100
  15.9294410  19.7852690  84.5629090  17.0604710  20.7289260  84.2133870
   2.7336140  18.0690830  73.5582730   3.4427840  17.6474050  73.0730010
   2.0176080  18.1366060  72.9266080   2.3810300  14.1230160  72.5985380
   3.1038430  14.6639100  72.9166600   2.6534820  13.8493580  71.7226920
  16.1901950  18.9922630  76.8656960  16.6861070  18.7593500  77.6505840
  15.9918020  18.1534470  76.4494600   2.0702490  13.3736350  82.5008000
   2.7178680  12.8233730  82.0603160   2.4904330  13.6279500  83.3223810
  17.6189110  17.6283580  79.3994640  17.5088390  17.4739620  80.3376910
  18.3796700  17.1004520  79.1570050  15.9654830  13.5677710  85.8577640
  16.6027050  14.1811850  86.2236830  16.1129720  13.6038370  84.9126870
  18.5079380  15.4591500  72.6400780  19.4328690  15.3272680  72.4319070
  18.4855170  15.5384320  73.5937230  18.5817870  16.2302160  75.2657490
  17.7869370  16.1647280  75.7950400  18.7861150  17.1652800  75.2542840
  15.5236290  30.2693710  79.2595880  16.1195360  29.9478280  78.5830300
  15.7814440  29.7965530  80.0509150   1.8234490  13.5292020  85.2433320
   1.4749310  13.9855840  86.0091500   1.4922190  12.6349150  85.3255750
   7.1304890  28.2571210  85.0096230   6.8896250  28.5245770  84.1226750
   8.0707530  28.4276940  85.0647090  18.3909050  30.2765590  85.8106870
  17.8967330  30.6734460  85.0934000  17.7822340  29.6514800  86.2044150
  12.7141910  12.9406100  84.7314320  11.8401750  13.2741210  84.5287250
  12.6052660  12.4679280  85.5566190  13.6213890  15.1476970  86.1156040
  13.2927250  14.3328730  85.7357770  14.5696190  15.1046780  85.9921730
  16.0748500  30.9189010  83.0893610  15.6151470  31.6704820  82.7151630
  15.4460960  30.1995480  83.0308410   2.8999120  27.0132250  85.4792330
   2.1733180  26.3937540  85.4118280   2.9608270  27.4072860  84.6090410
   6.5044220  29.2277250  82.2641740   7.0209240  28.6164610  81.7390000
   7.1541600  29.7306030  82.7552750   9.2439720  30.1185740  83.0910720
   9.5317530  29.8640040  82.2143730   9.7562940  29.5663100  83.6816290
  10.4616730  13.8575940  83.6707230   9.6788520  14.3321440  83.9503990
  10.1679660  12.9530770  83.5620410  15.0137800  14.5599040  81.7156320
  15.4545890  14.5044140  80.8677920  14.7445390  15.4757050  81.7866500
  16.8776370  14.1914280  79.7265140  16.8164770  13.2475500  79.5796160
  17.6568400  14.2994370  80.2718600   1.8057140  14.1623420  76.1920950
   2.5636500  14.2752300  75.6184980   1.3434310  14.9992620  76.1464380
   8.3470950  16.2762690  79.1823260   7.5345460  15.9019580  78.8419140
   8.8512590  15.5207770  79.4844450  12.8495930  12.9405140  80.4206330
  13.4525300  13.5125350  80.8954850  12.1088920  13.5044580  80.1980230
  15.9930530  13.3426700  75.6946610  16.1881160  14.2410150  75.9614040
  15.2060400  13.1113780  76.1879560   2.7891820  29.0239870  76.1339230
   2.2639440  29.4047900  75.4301190   2.7136400  29.6490640  76.8548940
   4.1782290  14.6887470  74.7322920   4.7075050  13.9017270  74.6030870
   4.8110610  15.3678660  74.9658450   6.3720130  14.4262610  77.7868310
   5.7422870  13.7249920  77.9538440   5.8325270  15.1866740  77.5701470
  17.5457140  30.5827410  77.4553170  17.7209330  29.8965150  76.8114090
  16.8478710  31.1074460  77.0629840   5.3884790  30.9722250  75.0088480
   6.1203610  30.6881530  74.4612370   5.6478460  30.7335530  75.8987860
   4.5499580  27.0886980  75.0134810   3.9208460  27.5572080  75.5620640
   4.6647410  26.2436200  75.4481000  12.0049300  21.1392640  61.1636010
  11.9243350  20.2247250  60.8927720  11.5913720  21.6359710  60.4575720
  10.1367340  22.9171660  63.0445280   9.3609440  22.4372100  63.3343850
  10.7880270  22.2377310  62.8701440   4.1533170  23.2291470  63.9221040
   3.3218050  22.9740180  64.3217550   4.7614150  23.3002240  64.6578960
  14.1574770  27.3231850  61.8244410  13.6956300  26.5519090  62.1531580
  14.9700320  27.3497920  62.3296860   4.1334430  27.2631560  64.1179060
   4.4362470  26.3729300  63.9389280   4.8778020  27.8201780  63.8901310
   2.5625120  18.1893360  57.7063430   1.6741820  18.5309330  57.6043310
   2.8466310  17.9893680  56.8144260  10.3838080  29.6089860  61.4448400
   9.7649520  30.0647360  60.8742840  11.2389860  29.7641320  61.0438100
   9.5776330  25.5928850  63.0515440   9.5084610  24.6518790  62.8904570
  10.3396190  25.6830260  63.6238010   1.7683000  16.1983370  65.3772060
   1.5885840  15.3009120  65.6574820   1.3663080  16.7455240  66.0519010
  10.6081500  18.3999230  63.2784370  10.9846320  17.5271110  63.1658040
  10.5101010  18.7357930  62.3874810   4.7386510  16.7724860  58.7401810
   4.8453260  17.6728590  59.0470570   3.8278870  16.7242830  58.4496460
  14.3905620  15.8949670  60.2112710  15.2115240  15.4046240  60.2538190
  14.4239700  16.4847330  60.9644550   2.3869670  18.6943870  63.9854400
   3.0679780  18.9582240  64.6041800   2.0717720  17.8544740  64.3192410
   6.5794240  19.7411230  63.0726990   7.0872460  20.2392200  63.7132010
   7.1107480  18.9646430  62.8966350  18.6805170  17.9116420  66.7756340
  17.9757340  18.2998130  66.2571450  18.9463090  18.6066710  67.3777270
   4.8630340  14.3809790  67.3390410   4.8648780  14.8982180  66.5336310
   4.0334650  13.9039970  67.3160340  11.2501430  24.4929100  58.8380310
  10.6318700  24.9578550  58.2743030  11.7624680  25.1856580  59.2549820
   6.1133190  24.0204970  65.5163910   5.7802570  24.6473890  66.1584980
   6.2899870  24.5466850  64.7365580  14.6267100  17.8350050  62.9840250
  13.9222670  18.1234940  63.5643360  14.9879260  18.6450160  62.6239810
   4.5445670  16.0919750  65.3460860   4.8862480  16.9361800  65.0514730
   3.6061480  16.2403490  65.4626200   5.3252290  25.9885770  67.3313090
   5.9426290  26.6636850  67.0497540   4.4645410  26.3973750  67.2400590
  16.2429880  27.4525180  65.2467730  15.5593400  28.1224290  65.2384400
  16.7824170  27.6505830  64.4812590  17.6954020  17.2804840  63.3749460
  16.7478930  17.3143820  63.5064890  18.0204010  18.0943790  63.7598820
   8.2273560  13.5802020  61.6705450   8.5348540  13.0248910  60.9540950
   7.2974260  13.7146480  61.4878440  13.7788620  29.2969310  63.9612910
  13.7915780  28.8931600  63.0935170  13.2263840  30.0716600  63.8574340
  15.0734040  26.0185530  59.0503080  14.9630370  25.0759860  59.1752500
  15.0702290  26.3801170  59.9365840  13.1774060  24.1999150  65.2895520
  13.5942850  23.9859260  64.4548980  13.9013880  24.4571940  65.8604140
  10.6154320  21.6450850  58.4065570   9.6883600  21.5788230  58.6354040
  10.7679140  22.5830980  58.2920810  10.6023400  17.9167850  55.4032730
   9.6627070  18.0781810  55.4885190  10.9206660  18.6353530  54.8568720
  17.1236160  22.5986370  65.3811760  16.2954790  22.6679460  64.9061890
  17.7186640  23.1840680  64.9127590  14.6451610  23.2071150  58.9100820
  14.0264030  22.8690700  58.2627120  14.6276060  22.5630910  59.6180010
  14.0878170  19.3855690  66.3266630  13.6749350  20.2109400  66.5806620
  13.3554120  18.8000730  66.1342990   6.2210960  22.1715590  61.1885300
   5.8167960  21.4592840  60.6931200   6.3074080  21.8268830  62.0773340
   6.6892660  25.8583150  63.3524510   6.3920950  25.2528620  62.6732290
   7.6392480  25.8960460  63.2413870   4.9339580  18.9458800  64.9684340
   5.4854170  19.0554140  64.1937590   5.4483090  19.3196400  65.6839570
  14.7778270  29.4315020  67.0147610  14.3008830  30.2387210  66.8220220
  14.0940060  28.7793350  67.1673820   5.7811090  25.5964840  70.0032310
   4.8839620  25.8204810  70.2505710   5.8063960  25.7199780  69.0543710
  12.8216310  22.4457960  55.9173570  13.2609590  21.6080390  55.7711390
  13.5344730  23.0787360  56.0037710   4.6082310  22.4678160  68.5789680
   4.4690080  23.3400960  68.9477080   3.7263670  22.1250970  68.4337620
  10.9311690  27.3854030  59.8854810  11.3707600  28.1278360  59.4710200
  10.8698580  27.6280600  60.8093770   6.4062660  28.4099860  70.7874830
   6.3778090  28.8142810  69.9203260   6.2427630  27.4810220  70.6246430
  16.4033450  13.7000770  54.2314610  16.0906110  13.7927600  55.1313680
  17.1645920  14.2781800  54.1812040   2.9215590  21.0660570  58.6891950
   2.8013190  21.7922660  58.0773220   2.6116480  20.2963480  58.2119860
  18.3577480  29.1926960  72.0839000  18.8337200  29.6709850  72.7628080
  18.9784640  29.1244450  71.3584500   1.8048590  25.9375900  60.9066770
   1.3976670  26.0790490  60.0520370   2.6961600  25.6536060  60.7037980
  17.7610730  26.3839810  69.2439010  17.8873790  26.1451690  68.3256190
  17.8032110  25.5524350  69.7161090  11.6227470  30.0867810  67.8133820
  12.1372140  29.9975820  68.6156250  10.7796550  30.4327510  68.1061730
  13.5981870  30.3723150  57.2417820  13.4383010  30.0826090  58.1399650
  13.4328580  29.5963280  56.7063050   6.0770250  30.1521680  59.0189440
   5.9012730  29.2357220  58.8057240   5.2225990  30.5108970  59.2587240
  13.3008000  27.8810710  55.8015820  12.6073160  27.8788000  55.1418100
  14.0430860  27.4570030  55.3709990  12.8657930  29.5073420  59.8764310
  13.3214880  28.7262800  60.1902930  13.2050450  30.2180240  60.4205490
  17.6134740  18.4372270  70.2088750  16.9979010  18.9451940  69.6804210
  17.2931160  17.5370600  70.1514690   5.3879250  14.4095640  62.0715620
   4.9447400  15.1905180  61.7400140   5.9464240  14.7325530  62.7786560
   9.6749060  17.2764160  67.6750940   9.2128430  17.4847180  68.4870880
   9.2727170  16.4623510  67.3721610  14.6753570  18.4973110  68.8047600
  13.8247160  18.1978860  69.1256670  14.5155360  18.7415120  67.8931420
  11.7703280  19.9974860  70.9046390  12.0956690  19.1638610  70.5648620
  12.5583610  20.5203380  71.0524720   8.5038070  14.0306340  56.9521450
   7.8792250  14.0266210  57.6774760   8.4168190  13.1637300  56.5557420
   7.4255150  14.9542970  63.9305220   7.7227480  15.8605800  63.8497240
   7.9740710  14.4661750  63.3164790   5.1793470  19.5329210  59.7996870
   4.9534390  19.3166380  60.7043490   4.3986000  19.9657670  59.4542840
  12.4091230  19.5392580  58.3987520  11.8100120  20.2628380  58.2151140
  12.9570840  19.4769360  57.6163970   7.6192680  20.4314790  70.4657140
   7.5236280  19.4909520  70.3157540   8.4624660  20.6529860  70.0705210
  11.0156100  18.1756120  60.4290800  11.4085670  18.4928320  59.6159490
  11.3772950  17.2968000  60.5435320   2.7503220  16.8428460  68.6190920
   2.3566610  17.6903670  68.8263700   2.0621620  16.2054830  68.8099560
   9.3248270  16.9263430  71.6887660   8.6346590  16.7335630  72.3233750
  10.0680570  17.2098070  72.2211960  11.6011240  20.7661870  64.5241580
  10.8692360  21.2748680  64.8731680  11.2035580  19.9491850  64.2230360
   8.0388630  17.4416070  62.9294070   8.0424690  17.0006020  62.0798610
   8.9339750  17.7633400  63.0365890   3.8891010  17.3242560  61.8888280
   3.5491060  17.8017790  62.6455330   3.1268330  16.8707680  61.5289380
   8.1008780  18.4428150  55.9200830   8.2221600  18.4014630  56.8686650
   7.7157290  19.3052300  55.7647560  12.0637150  16.2195550  63.9364520
  12.0809890  16.6704200  64.7806370  11.8152730  15.3201190  64.1497960
   7.1130280  20.7529290  55.3184130   6.5447180  20.3047540  54.6920040
   7.8219280  21.1122070  54.7849280  15.4907900  13.6327730  69.7750900
  15.8153670  12.9017390  70.3008880  15.5264410  13.3141370  68.8731890
   2.1899460  24.6541310  69.1950860   1.8054250  24.0134980  69.7933820
   2.5011650  25.3577430  69.7645590   8.3396600  21.5017850  64.6759480
   8.7066730  21.0276420  65.4220820   8.1501660  22.3759420  65.0167820
   6.1295970  20.5426490  66.9943690   5.8253040  21.4218470  67.2194050
   7.0842430  20.6026280  67.0301130   4.6577760  24.7487480  57.5910540
   3.8840020  24.2085100  57.4309260   5.3872390  24.2294090  57.2528300
  15.4165740  23.7452840  63.3836930  16.1364860  24.2408130  62.9933040
  15.2147560  23.0670730  62.7390800  10.8775680  15.1390800  57.5266320
  10.0640290  14.6403970  57.4511630  10.6837630  15.9789050  57.1102670
  10.7984540  23.8161900  69.2705930  10.7321850  22.8957570  69.0163520
  10.1689680  23.9137340  69.9850570  13.5924070  19.5110450  55.8228480
  14.4803690  19.8227680  55.6479820  13.5629160  18.6382700  55.4309060
   4.7015160  24.4167860  61.2289350   5.2193830  23.6136120  61.1746240
   4.2499180  24.3547000  62.0706180   9.5884660  25.6834140  56.5016650
   9.9300360  26.4276370  56.0059970   8.7597370  25.9965260  56.8641480
   2.1859700  21.3829230  68.1415050   1.8274640  22.0483080  68.7288390
   1.8914260  20.5512780  68.5127670   5.3872820  21.8413470  71.0254600
   5.0872960  21.9870650  70.1282420   6.1584060  21.2818760  70.9327990
  10.7301270  26.6382470  69.0209730  10.7445810  25.7063430  68.8028640
  10.0226370  26.7242230  69.6599500  15.8638340  20.8222290  55.2908340
  15.7802060  21.2536510  54.4404780  16.5832530  21.2820640  55.7235160
  16.9412480  23.2789810  68.3678310  16.2160670  23.8718590  68.1707700
  17.4687940  23.2713350  67.5691680  16.8925590  27.6764550  58.0190470
  16.2501750  27.0220170  58.2934190  16.5056250  28.0819640  57.2431140
  12.4712070  25.0049980  61.8662160  12.8235890  24.4078110  61.2063530
  11.5874400  24.6794210  62.0370410   8.5575350  25.7647670  59.2732570
   9.2446480  26.3116880  59.6540160   7.7707770  26.3088400  59.3082180
   7.8602560  22.7693700  58.8857930   8.3165340  23.5798950  59.1118120
   7.5090770  22.4516840  59.7176420  10.1635170  28.2800040  66.1150230
  10.8077390  28.4859420  66.7923650  10.5264610  27.5188440  65.6621080
   3.7614340  13.1131350  59.3580450   3.6328970  13.1049250  60.3065370
   2.9376360  13.4514440  59.0071460  11.4367250  26.2832390  64.8327680
  12.0789480  25.5825550  64.9459850  11.9616600  27.0630830  64.6524570
  15.2822970  26.5681010  54.5566820  15.0560550  25.8511450  55.1491460
  14.8919170  26.3193450  53.7188570  13.2104870  27.0827290  68.0363740
  13.5461110  27.6693980  68.7141660  12.2905210  26.9520000  68.2661530
  14.8639220  24.4852950  56.2180980  14.5760920  24.9465640  57.0058860
  15.6591390  24.0250720  56.4865200   9.0393450  27.1318620  71.2051800
   8.7190320  26.4127860  71.7497490   8.3651810  27.8073690  71.2787860
   7.0807620  27.9779070  56.1484950   7.0717720  28.7108760  55.5329460
   6.1605980  27.7310650  56.2411910   2.6814260  23.1993960  56.8931710
   2.0742210  23.9392860  56.9027010   3.1563610  23.2893320  56.0669910
  12.2547050  17.3644780  66.5688600  12.6227870  16.5439990  66.8968170
  11.3945250  17.4246670  66.9844250  15.6209080  16.3201720  57.3776160
  14.9922240  16.4247390  56.6634390  15.1261000  16.5398500  58.1670040
  10.0667220  28.0407310  54.8110140  10.1679200  27.8371300  53.8812120
   9.1668960  27.7865590  55.0157920   7.5893110  18.5987670  58.7934040
   6.8809260  19.0674010  59.2347650   7.8737590  17.9409680  59.4279230
   9.2149040  20.0184370  66.7926570   9.7134290  20.4930190  67.4578420
   9.3571990  19.0947890  66.9996600  11.6208540  15.3238330  60.2329830
  11.4976320  15.3424460  59.2839340  12.5693100  15.3717270  60.3528230
   8.7085330  30.5593630  59.5057810   8.9626830  30.5215020  58.5837180
   7.7597810  30.4326960  59.4986060   5.7928130  16.9072750  56.1684750
   6.6418660  17.3442900  56.1024940   5.4259400  17.2193010  56.9956810
  16.4215900  16.2352330  67.6354960  15.9189500  16.9757730  67.9748770
  17.2372560  16.6236330  67.3191750  14.7137910  21.4785510  61.0816320
  13.7728050  21.4935740  61.2564010  15.0281980  20.6921470  61.5276620
   4.6919550  23.1605110  54.6420280   5.4582820  23.0486470  55.2045710
   4.7694240  22.4643080  53.9897050   3.3866310  20.5930180  55.3253170
   3.4669900  19.6457690  55.4370570   4.2786060  20.9237060  55.4313830
  16.7163490  28.6494360  62.7570580  16.8410910  29.4725530  63.2294390
  17.5829050  28.4385090  62.4094730   4.1881020  30.7425570  62.4287710
   4.9243500  30.1941030  62.6996280   4.5721940  31.6081580  62.2893700
   3.1939300  29.9271640  71.6173290   3.9952030  30.2483690  72.0308690
   2.6791120  29.5667220  72.3393200   7.2983330  29.9155880  54.2513280
   8.0911940  30.2044710  53.7995070   6.7787680  29.4848050  53.5725760
  12.0303930  26.0351510  71.5648700  11.4242090  26.0583110  70.8244450
  11.7258040  25.3034550  72.1015950  13.4604300  29.7631800  70.1758110
  14.4126050  29.6789820  70.1258350  13.3132520  30.4273510  70.8491900
  16.3513500  29.1426010  55.6750020  16.0655010  28.7291150  54.8604200
  16.1533050  30.0713720  55.5550540   7.8160730  25.1359290  54.1155630
   7.7111370  24.5211640  54.8417010   7.6484950  24.6125180  53.3318640
   7.9675050  23.8216090  70.0944860   7.2020720  24.3901090  70.0099530
   8.1491010  23.5292300  69.2013090  11.0563460  24.1979320  54.7197620
  10.5073560  24.6448620  55.3640360  11.6782720  23.6928570  55.2435290
  15.1098400  25.5521420  70.6519880  15.8507870  25.8897180  70.1487340
  14.3471080  25.7213480  70.0989650   2.9460190  20.5574690  71.4559410
   2.9865530  20.2588560  72.3644640   3.8005690  20.9582300  71.2966930
   6.7238580  23.1570240  56.6162920   7.1455000  22.9910110  57.4594310
   6.8489420  22.3470470  56.1218060   4.8866000  19.1366790  69.4233900
   4.3562460  18.6457740  68.7957240   5.5554070  19.5650990  68.8891830
   9.2366220  22.1807850  53.8640020   9.7571880  21.4656870  53.4981170
   9.8834620  22.8193720  54.1640530  13.7844060  23.6036250  69.1875090
  14.1985080  23.7581330  70.0365510  12.8495060  23.7291470  69.3500870
  14.2566230  20.9432410  71.1914240  14.8387000  20.1884730  71.1034720
  14.4328000  21.4739850  70.4145720   5.3738300  16.1029160  69.5031190
   5.2795170  15.4849910  68.7782060   4.7935690  16.8295450  69.2761100
   8.1399740  14.6602400  66.5358580   7.6917040  14.6826660  65.6904130
   7.5064940  14.2621420  67.1328880   8.5459290  23.5556730  67.1571020
   8.9647400  24.3989460  66.9847260   7.6267920  23.6928770  66.9277800
  10.8823190  21.2872910  68.5408860  11.0019400  20.6914050  69.2803700
  11.7417190  21.3242600  68.1210160  13.2211090  21.8410100  67.1171370
  12.6946310  22.3652720  66.5136510  13.5642430  22.4737490  67.7481100
   5.6197480  19.2303470  53.5621080   5.4186540  18.3670830  53.9234420
   5.4489530  19.1436830  52.6242680   6.3966710  29.8609740  68.2728750
   5.8587800  30.5855800  67.9537450   6.6500670  29.3840080  67.4826090
   7.6491960  17.8294260  69.7984680   8.2391650  17.5210110  70.4862500
   6.8312200  17.3574010  69.9544580  12.4685390  17.4460070  70.0317700
  11.7800910  16.7841610  69.9667690  13.1891410  16.9998340  70.4766160
  13.0985790  14.0411700  56.0907960  13.3788080  13.1979600  56.4467380
  12.3251520  14.2734810  56.6046710   4.4180280  16.3304090  53.5498960
   4.7206180  16.3371520  52.6418110   5.1574870  15.9801950  54.0466620
   9.2528920  31.0960950  68.5315400   9.1787620  31.9996090  68.8387770
   8.3507760  30.7772850  68.5037470   7.6365210  15.2738710  54.5355160
   7.2887210  14.5962700  53.9557610   7.8377980  14.8128220  55.3498550
   9.8014250  30.2619460  56.1541760  10.6965040  30.6004430  56.1760520
   9.8331880  29.5398870  55.5266040   3.4410410  25.6346510  54.3828760
   3.8785280  26.1776180  55.0386340   3.9258140  24.8093460  54.3925100
   5.2518130  26.7544550  59.4950990   4.9513670  26.6309520  60.3954900
   5.1455620  25.8953140  59.0866720  16.7808600  28.7923130  68.8607960
  16.1810590  28.8515690  68.1171880  16.9102500  27.8528110  68.9904810
  18.0210050  26.5340950  54.1977670  17.1903010  26.6017600  54.6684900
  18.1981880  27.4245070  53.8944530  17.4766510  23.2788430  56.7011870
  18.2385420  23.8485080  56.8071560  17.4920880  22.7115630  57.4720180
  18.4826480  24.1338530  61.5453800  18.8535310  23.3505850  61.1389770
  19.1228410  24.8227630  61.3671100  15.4660240  25.5175110  66.9584120
  14.6520080  25.9472270  67.2209910  15.8734440  26.1293520  66.3453170
  17.5285680  23.5722800  53.8584390  17.8034520  24.4801680  53.7303610
  17.3396420  23.5085330  54.7946380  13.9261290  16.5967650  55.1538020
  14.3446170  16.4098630  54.3134680  13.6197350  15.7446700  55.4640950
  17.4251020  21.5091790  58.8513820  17.0494620  20.7419720  58.4195110
  16.6954140  21.8914490  59.3388750   2.0146780  22.1878930  65.4722870
   2.3819820  22.1006330  66.3518890   1.4457600  21.4245480  65.3729730
  16.8150640  20.6563310  68.4853340  16.5836730  20.4276060  67.5851290
  17.0755190  21.5762860  68.4398230  15.2538710  15.8819740  71.2633040
  16.1308890  15.8903140  71.6467040  15.2659550  15.1450580  70.6525390
  16.7001980  19.7349280  62.1521060  17.2239460  19.2411930  61.5211230
  17.2861400  19.8699640  62.8968630  16.8791700  19.8189150  65.6740610
  15.9294410  19.7852690  65.7885600  17.0604710  20.7289260  65.4390380
   2.7336140  18.0690830  54.7839240   3.4427840  17.6474050  54.2986520
   2.0176080  18.1366060  54.1522590   2.3810300  14.1230160  53.8241890
   3.1038430  14.6639100  54.1423110   2.6534820  13.8493580  52.9483430
  16.1901950  18.9922630  58.0913470  16.6861070  18.7593500  58.8762350
  15.9918020  18.1534470  57.6751110   2.0702490  13.3736350  63.7264510
   2.7178680  12.8233730  63.2859670   2.4904330  13.6279500  64.5480320
  17.6189110  17.6283580  60.6251150  17.5088390  17.4739620  61.5633420
  18.3796700  17.1004520  60.3826560  15.9654830  13.5677710  67.0834150
  16.6027050  14.1811850  67.4493340  16.1129720  13.6038370  66.1383380
  18.5079380  15.4591500  53.8657290  19.4328690  15.3272680  53.6575580
  18.4855170  15.5384320  54.8193740  18.5817870  16.2302160  56.4914000
  17.7869370  16.1647280  57.0206910  18.7861150  17.1652800  56.4799350
  15.5236290  30.2693710  60.4852390  16.1195360  29.9478280  59.8086810
  15.7814440  29.7965530  61.2765660   1.8234490  13.5292020  66.4689830
   1.4749310  13.9855840  67.2348010   1.4922190  12.6349150  66.5512260
   3.4298860  26.7011620  70.6343020   3.3868490  26.3304530  71.5157480
   3.5609870  27.6389190  70.7744840   7.1304890  28.2571210  66.2352740
   6.8896250  28.5245770  65.3483260   8.0707530  28.4276940  66.2903600
   9.3359310  14.7203900  69.9909250   9.2748200  15.3125730  70.7404660
  10.2759690  14.6129860  69.8459510  11.9733870  14.3773960  69.6301540
  12.5874280  14.6953250  68.9682620  12.5183430  13.8922550  70.2497400
  18.3909050  30.2765590  67.0363380  17.8967330  30.6734460  66.3190510
  17.7822340  29.6514800  67.4300660   2.4955130  13.0568220  69.7440600
   3.0438120  12.8756270  68.9806710   2.5610440  12.2662330  70.2796910
   3.2686890  29.6473870  67.7540800   2.6747210  29.5158570  68.4930840
   3.2610730  28.8112010  67.2882900  12.7141910  12.9406100  65.9570830
  11.8401750  13.2741210  65.7543760  12.6052660  12.4679280  66.7822700
  13.6213890  15.1476970  67.3412550  13.2927250  14.3328730  66.9614280
  14.5696190  15.1046780  67.2178240  16.0748500  30.9189010  64.3150120
  15.6151470  31.6704820  63.9408140  15.4460960  30.1995480  64.2564920
   2.8999120  27.0132250  66.7048840   2.1733180  26.3937540  66.6374790
   2.9608270  27.4072860  65.8346920   6.5044220  29.2277250  63.4898250
   7.0209240  28.6164610  62.9646510   7.1541600  29.7306030  63.9809260
   9.2439720  30.1185740  64.3167230   9.5317530  29.8640040  63.4400240
   9.7562940  29.5663100  64.9072800  10.4616730  13.8575940  64.8963740
   9.6788520  14.3321440  65.1760500  10.1679660  12.9530770  64.7876920
  15.0137800  14.5599040  62.9412830  15.4545890  14.5044140  62.0934430
  14.7445390  15.4757050  63.0123010  16.8776370  14.1914280  60.9521650
  16.8164770  13.2475500  60.8052670  17.6568400  14.2994370  61.4975110
   1.8057140  14.1623420  57.4177460   2.5636500  14.2752300  56.8441490
   1.3434310  14.9992620  57.3720890   8.3470950  16.2762690  60.4079770
   7.5345460  15.9019580  60.0675650   8.8512590  15.5207770  60.7100960
  12.8495930  12.9405140  61.6462840  13.4525300  13.5125350  62.1211360
  12.1088920  13.5044580  61.4236740  15.9930530  13.3426700  56.9203120
  16.1881160  14.2410150  57.1870550  15.2060400  13.1113780  57.4136070
   2.7891820  29.0239870  57.3595740   2.2639440  29.4047900  56.6557700
   2.7136400  29.6490640  58.0805450   4.1782290  14.6887470  55.9579430
   4.7075050  13.9017270  55.8287380   4.8110610  15.3678660  56.1914960
   6.3720130  14.4262610  59.0124820   5.7422870  13.7249920  59.1794950
   5.8325270  15.1866740  58.7957980   9.3112080  31.0401840  71.6835430
  10.2379390  30.8046110  71.7271390   9.2962510  31.8673840  71.2021460
  17.5457140  30.5827410  58.6809680  17.7209330  29.8965150  58.0370600
  16.8478710  31.1074460  58.2886350   6.4975690  13.7046590  71.4477310
   6.2159960  14.2080190  70.6838130   6.8795390  12.9068340  71.0819440
   5.3884790  30.9722250  56.2344990   6.1203610  30.6881530  55.6868880
   5.6478460  30.7335530  57.1244370   4.5499580  27.0886980  56.2391320
   3.9208460  27.5572080  56.7877150   4.6647410  26.2436200  56.6737510
  13.0991150  13.1200170  72.0257780  12.9856600  13.4394780  72.9209300
  13.9160890  13.5212680  71.7295060  15.8789640  30.2671700  71.5076470
  16.6714960  29.7720930  71.3002430  16.1722790  30.9461840  72.1152080
  12.0049300  21.1392640  42.3892520  11.9243350  20.2247250  42.1184230
  11.5913720  21.6359710  41.6832230  10.1367340  22.9171660  44.2701790
   9.3609440  22.4372100  44.5600360  10.7880270  22.2377310  44.0957950
   4.1533170  23.2291470  45.1477550   3.3218050  22.9740180  45.5474060
   4.7614150  23.3002240  45.8835470  14.1574770  27.3231850  43.0500920
  13.6956300  26.5519090  43.3788090  14.9700320  27.3497920  43.5553370
   4.1334430  27.2631560  45.3435570   4.4362470  26.3729300  45.1645790
   4.8778020  27.8201780  45.1157820   2.5625120  18.1893360  38.9319940
   1.6741820  18.5309330  38.8299820   2.8466310  17.9893680  38.0400770
  10.3838080  29.6089860  42.6704910   9.7649520  30.0647360  42.0999350
  11.2389860  29.7641320  42.2694610   9.5776330  25.5928850  44.2771950
   9.5084610  24.6518790  44.1161080  10.3396190  25.6830260  44.8494520
   1.7683000  16.1983370  46.6028570   1.5885840  15.3009120  46.8831330
   1.3663080  16.7455240  47.2775520  10.6081500  18.3999230  44.5040880
  10.9846320  17.5271110  44.3914550  10.5101010  18.7357930  43.6131320
   4.7386510  16.7724860  39.9658320   4.8453260  17.6728590  40.2727080
   3.8278870  16.7242830  39.6752970  14.3905620  15.8949670  41.4369220
  15.2115240  15.4046240  41.4794700  14.4239700  16.4847330  42.1901060
   2.3869670  18.6943870  45.2110910   3.0679780  18.9582240  45.8298310
   2.0717720  17.8544740  45.5448920   6.5794240  19.7411230  44.2983500
   7.0872460  20.2392200  44.9388520   7.1107480  18.9646430  44.1222860
  18.6805170  17.9116420  48.0012850  17.9757340  18.2998130  47.4827960
  18.9463090  18.6066710  48.6033780   4.8630340  14.3809790  48.5646920
   4.8648780  14.8982180  47.7592820   4.0334650  13.9039970  48.5416850
  11.2501430  24.4929100  40.0636820  10.6318700  24.9578550  39.4999540
  11.7624680  25.1856580  40.4806330   6.1133190  24.0204970  46.7420420
   5.7802570  24.6473890  47.3841490   6.2899870  24.5466850  45.9622090
  14.6267100  17.8350050  44.2096760  13.9222670  18.1234940  44.7899870
  14.9879260  18.6450160  43.8496320   4.5445670  16.0919750  46.5717370
   4.8862480  16.9361800  46.2771240   3.6061480  16.2403490  46.6882710
   5.3252290  25.9885770  48.5569600   5.9426290  26.6636850  48.2754050
   4.4645410  26.3973750  48.4657100  16.2429880  27.4525180  46.4724240
  15.5593400  28.1224290  46.4640910  16.7824170  27.6505830  45.7069100
  17.6954020  17.2804840  44.6005970  16.7478930  17.3143820  44.7321400
  18.0204010  18.0943790  44.9855330   8.2273560  13.5802020  42.8961960
   8.5348540  13.0248910  42.1797460   7.2974260  13.7146480  42.7134950
  13.7788620  29.2969310  45.1869420  13.7915780  28.8931600  44.3191680
  13.2263840  30.0716600  45.0830850  15.0734040  26.0185530  40.2759590
  14.9630370  25.0759860  40.4009010  15.0702290  26.3801170  41.1622350
  13.1774060  24.1999150  46.5152030  13.5942850  23.9859260  45.6805490
  13.9013880  24.4571940  47.0860650  10.6154320  21.6450850  39.6322080
   9.6883600  21.5788230  39.8610550  10.7679140  22.5830980  39.5177320
  10.6023400  17.9167850  36.6289240   9.6627070  18.0781810  36.7141700
  10.9206660  18.6353530  36.0825230  17.1236160  22.5986370  46.6068270
  16.2954790  22.6679460  46.1318400  17.7186640  23.1840680  46.1384100
  14.6451610  23.2071150  40.1357330  14.0264030  22.8690700  39.4883630
  14.6276060  22.5630910  40.8436520  14.0878170  19.3855690  47.5523140
  13.6749350  20.2109400  47.8063130  13.3554120  18.8000730  47.3599500
   6.2210960  22.1715590  42.4141810   5.8167960  21.4592840  41.9187710
   6.3074080  21.8268830  43.3029850   6.6892660  25.8583150  44.5781020
   6.3920950  25.2528620  43.8988800   7.6392480  25.8960460  44.4670380
   4.9339580  18.9458800  46.1940850   5.4854170  19.0554140  45.4194100
   5.4483090  19.3196400  46.9096080  14.7778270  29.4315020  48.2404120
  14.3008830  30.2387210  48.0476730  14.0940060  28.7793350  48.3930330
   5.7811090  25.5964840  51.2288820   4.8839620  25.8204810  51.4762220
   5.8063960  25.7199780  50.2800220  12.8216310  22.4457960  37.1430080
  13.2609590  21.6080390  36.9967900  13.5344730  23.0787360  37.2294220
   4.6082310  22.4678160  49.8046190   4.4690080  23.3400960  50.1733590
   3.7263670  22.1250970  49.6594130  10.9311690  27.3854030  41.1111320
  11.3707600  28.1278360  40.6966710  10.8698580  27.6280600  42.0350280
   6.4062660  28.4099860  52.0131340   6.3778090  28.8142810  51.1459770
   6.2427630  27.4810220  51.8502940  16.4033450  13.7000770  35.4571120
  16.0906110  13.7927600  36.3570190  17.1645920  14.2781800  35.4068550
   2.9215590  21.0660570  39.9148460   2.8013190  21.7922660  39.3029730
   2.6116480  20.2963480  39.4376370  18.3577480  29.1926960  53.3095510
  18.8337200  29.6709850  53.9884590  18.9784640  29.1244450  52.5841010
   1.8048590  25.9375900  42.1323280   1.3976670  26.0790490  41.2776880
   2.6961600  25.6536060  41.9294490  17.7610730  26.3839810  50.4695520
  17.8873790  26.1451690  49.5512700  17.8032110  25.5524350  50.9417600
  11.6227470  30.0867810  49.0390330  12.1372140  29.9975820  49.8412760
  10.7796550  30.4327510  49.3318240  13.5981870  30.3723150  38.4674330
  13.4383010  30.0826090  39.3656160  13.4328580  29.5963280  37.9319560
   6.0770250  30.1521680  40.2445950   5.9012730  29.2357220  40.0313750
   5.2225990  30.5108970  40.4843750  13.3008000  27.8810710  37.0272330
  12.6073160  27.8788000  36.3674610  14.0430860  27.4570030  36.5966500
  12.8657930  29.5073420  41.1020820  13.3214880  28.7262800  41.4159440
  13.2050450  30.2180240  41.6462000  17.6134740  18.4372270  51.4345260
  16.9979010  18.9451940  50.9060720  17.2931160  17.5370600  51.3771200
   5.3879250  14.4095640  43.2972130   4.9447400  15.1905180  42.9656650
   5.9464240  14.7325530  44.0043070   9.6749060  17.2764160  48.9007450
   9.2128430  17.4847180  49.7127390   9.2727170  16.4623510  48.5978120
  14.6753570  18.4973110  50.0304110  13.8247160  18.1978860  50.3513180
  14.5155360  18.7415120  49.1187930  11.7703280  19.9974860  52.1302900
  12.0956690  19.1638610  51.7905130  12.5583610  20.5203380  52.2781230
   8.5038070  14.0306340  38.1777960   7.8792250  14.0266210  38.9031270
   8.4168190  13.1637300  37.7813930   7.4255150  14.9542970  45.1561730
   7.7227480  15.8605800  45.0753750   7.9740710  14.4661750  44.5421300
   5.1793470  19.5329210  41.0253380   4.9534390  19.3166380  41.9300000
   4.3986000  19.9657670  40.6799350  12.4091230  19.5392580  39.6244030
  11.8100120  20.2628380  39.4407650  12.9570840  19.4769360  38.8420480
   7.6192680  20.4314790  51.6913650   7.5236280  19.4909520  51.5414050
   8.4624660  20.6529860  51.2961720  11.0156100  18.1756120  41.6547310
  11.4085670  18.4928320  40.8416000  11.3772950  17.2968000  41.7691830
   2.7503220  16.8428460  49.8447430   2.3566610  17.6903670  50.0520210
   2.0621620  16.2054830  50.0356070   9.3248270  16.9263430  52.9144170
   8.6346590  16.7335630  53.5490260  10.0680570  17.2098070  53.4468470
  11.6011240  20.7661870  45.7498090  10.8692360  21.2748680  46.0988190
  11.2035580  19.9491850  45.4486870   8.0388630  17.4416070  44.1550580
   8.0424690  17.0006020  43.3055120   8.9339750  17.7633400  44.2622400
   3.8891010  17.3242560  43.1144790   3.5491060  17.8017790  43.8711840
   3.1268330  16.8707680  42.7545890   8.1008780  18.4428150  37.1457340
   8.2221600  18.4014630  38.0943160   7.7157290  19.3052300  36.9904070
  12.0637150  16.2195550  45.1621030  12.0809890  16.6704200  46.0062880
  11.8152730  15.3201190  45.3754470   7.1130280  20.7529290  36.5440640
   6.5447180  20.3047540  35.9176550   7.8219280  21.1122070  36.0105790
  15.4907900  13.6327730  51.0007410  15.8153670  12.9017390  51.5265390
  15.5264410  13.3141370  50.0988400   2.1899460  24.6541310  50.4207370
   1.8054250  24.0134980  51.0190330   2.5011650  25.3577430  50.9902100
   8.3396600  21.5017850  45.9015990   8.7066730  21.0276420  46.6477330
   8.1501660  22.3759420  46.2424330   6.1295970  20.5426490  48.2200200
   5.8253040  21.4218470  48.4450560   7.0842430  20.6026280  48.2557640
   4.6577760  24.7487480  38.8167050   3.8840020  24.2085100  38.6565770
   5.3872390  24.2294090  38.4784810  15.4165740  23.7452840  44.6093440
  16.1364860  24.2408130  44.2189550  15.2147560  23.0670730  43.9647310
  10.8775680  15.1390800  38.7522830  10.0640290  14.6403970  38.6768140
  10.6837630  15.9789050  38.3359180  10.7984540  23.8161900  50.4962440
  10.7321850  22.8957570  50.2420030  10.1689680  23.9137340  51.2107080
  13.5924070  19.5110450  37.0484990  14.4803690  19.8227680  36.8736330
  13.5629160  18.6382700  36.6565570   4.7015160  24.4167860  42.4545860
   5.2193830  23.6136120  42.4002750   4.2499180  24.3547000  43.2962690
   9.5884660  25.6834140  37.7273160   9.9300360  26.4276370  37.2316480
   8.7597370  25.9965260  38.0897990   2.1859700  21.3829230  49.3671560
   1.8274640  22.0483080  49.9544900   1.8914260  20.5512780  49.7384180
   5.3872820  21.8413470  52.2511110   5.0872960  21.9870650  51.3538930
   6.1584060  21.2818760  52.1584500  10.7301270  26.6382470  50.2466240
  10.7445810  25.7063430  50.0285150  10.0226370  26.7242230  50.8856010
  15.8638340  20.8222290  36.5164850  15.7802060  21.2536510  35.6661290
  16.5832530  21.2820640  36.9491670  16.9412480  23.2789810  49.5934820
  16.2160670  23.8718590  49.3964210  17.4687940  23.2713350  48.7948190
  16.8925590  27.6764550  39.2446980  16.2501750  27.0220170  39.5190700
  16.5056250  28.0819640  38.4687650  12.4712070  25.0049980  43.0918670
  12.8235890  24.4078110  42.4320040  11.5874400  24.6794210  43.2626920
   8.5575350  25.7647670  40.4989080   9.2446480  26.3116880  40.8796670
   7.7707770  26.3088400  40.5338690   7.8602560  22.7693700  40.1114440
   8.3165340  23.5798950  40.3374630   7.5090770  22.4516840  40.9432930
  10.1635170  28.2800040  47.3406740  10.8077390  28.4859420  48.0180160
  10.5264610  27.5188440  46.8877590   3.7614340  13.1131350  40.5836960
   3.6328970  13.1049250  41.5321880   2.9376360  13.4514440  40.2327970
  11.4367250  26.2832390  46.0584190  12.0789480  25.5825550  46.1716360
  11.9616600  27.0630830  45.8781080  15.2822970  26.5681010  35.7823330
  15.0560550  25.8511450  36.3747970  14.8919170  26.3193450  34.9445080
  13.2104870  27.0827290  49.2620250  13.5461110  27.6693980  49.9398170
  12.2905210  26.9520000  49.4918040  14.8639220  24.4852950  37.4437490
  14.5760920  24.9465640  38.2315370  15.6591390  24.0250720  37.7121710
   9.0393450  27.1318620  52.4308310   8.7190320  26.4127860  52.9754000
   8.3651810  27.8073690  52.5044370   7.0807620  27.9779070  37.3741460
   7.0717720  28.7108760  36.7585970   6.1605980  27.7310650  37.4668420
   2.6814260  23.1993960  38.1188220   2.0742210  23.9392860  38.1283520
   3.1563610  23.2893320  37.2926420  12.2547050  17.3644780  47.7945110
  12.6227870  16.5439990  48.1224680  11.3945250  17.4246670  48.2100760
  15.6209080  16.3201720  38.6032670  14.9922240  16.4247390  37.8890900
  15.1261000  16.5398500  39.3926550  10.0667220  28.0407310  36.0366650
  10.1679200  27.8371300  35.1068630   9.1668960  27.7865590  36.2414430
   7.5893110  18.5987670  40.0190550   6.8809260  19.0674010  40.4604160
   7.8737590  17.9409680  40.6535740   9.2149040  20.0184370  48.0183080
   9.7134290  20.4930190  48.6834930   9.3571990  19.0947890  48.2253110
  11.6208540  15.3238330  41.4586340  11.4976320  15.3424460  40.5095850
  12.5693100  15.3717270  41.5784740   8.7085330  30.5593630  40.7314320
   8.9626830  30.5215020  39.8093690   7.7597810  30.4326960  40.7242570
   5.7928130  16.9072750  37.3941260   6.6418660  17.3442900  37.3281450
   5.4259400  17.2193010  38.2213320  16.4215900  16.2352330  48.8611470
  15.9189500  16.9757730  49.2005280  17.2372560  16.6236330  48.5448260
  14.7137910  21.4785510  42.3072830  13.7728050  21.4935740  42.4820520
  15.0281980  20.6921470  42.7533130   4.6919550  23.1605110  35.8676790
   5.4582820  23.0486470  36.4302220   4.7694240  22.4643080  35.2153560
   3.3866310  20.5930180  36.5509680   3.4669900  19.6457690  36.6627080
   4.2786060  20.9237060  36.6570340  16.7163490  28.6494360  43.9827090
  16.8410910  29.4725530  44.4550900  17.5829050  28.4385090  43.6351240
   4.1881020  30.7425570  43.6544220   4.9243500  30.1941030  43.9252790
   4.5721940  31.6081580  43.5150210   3.1939300  29.9271640  52.8429800
   3.9952030  30.2483690  53.2565200   2.6791120  29.5667220  53.5649710
   7.2983330  29.9155880  35.4769790   8.0911940  30.2044710  35.0251580
   6.7787680  29.4848050  34.7982270  12.0303930  26.0351510  52.7905210
  11.4242090  26.0583110  52.0500960  11.7258040  25.3034550  53.3272460
  13.4604300  29.7631800  51.4014620  14.4126050  29.6789820  51.3514860
  13.3132520  30.4273510  52.0748410  16.3513500  29.1426010  36.9006530
  16.0655010  28.7291150  36.0860710  16.1533050  30.0713720  36.7807050
   7.8160730  25.1359290  35.3412140   7.7111370  24.5211640  36.0673520
   7.6484950  24.6125180  34.5575150   7.9675050  23.8216090  51.3201370
   7.2020720  24.3901090  51.2356040   8.1491010  23.5292300  50.4269600
  11.0563460  24.1979320  35.9454130  10.5073560  24.6448620  36.5896870
  11.6782720  23.6928570  36.4691800  15.1098400  25.5521420  51.8776390
  15.8507870  25.8897180  51.3743850  14.3471080  25.7213480  51.3246160
   2.9460190  20.5574690  52.6815920   2.9865530  20.2588560  53.5901150
   3.8005690  20.9582300  52.5223440   6.7238580  23.1570240  37.8419430
   7.1455000  22.9910110  38.6850820   6.8489420  22.3470470  37.3474570
   4.8866000  19.1366790  50.6490410   4.3562460  18.6457740  50.0213750
   5.5554070  19.5650990  50.1148340   9.2366220  22.1807850  35.0896530
   9.7571880  21.4656870  34.7237680   9.8834620  22.8193720  35.3897040
  13.7844060  23.6036250  50.4131600  14.1985080  23.7581330  51.2622020
  12.8495060  23.7291470  50.5757380  14.2566230  20.9432410  52.4170750
  14.8387000  20.1884730  52.3291230  14.4328000  21.4739850  51.6402230
   5.3738300  16.1029160  50.7287700   5.2795170  15.4849910  50.0038570
   4.7935690  16.8295450  50.5017610   8.1399740  14.6602400  47.7615090
   7.6917040  14.6826660  46.9160640   7.5064940  14.2621420  48.3585390
   8.5459290  23.5556730  48.3827530   8.9647400  24.3989460  48.2103770
   7.6267920  23.6928770  48.1534310  10.8823190  21.2872910  49.7665370
  11.0019400  20.6914050  50.5060210  11.7417190  21.3242600  49.3466670
  13.2211090  21.8410100  48.3427880  12.6946310  22.3652720  47.7393020
  13.5642430  22.4737490  48.9737610   5.6197480  19.2303470  34.7877590
   5.4186540  18.3670830  35.1490930   5.4489530  19.1436830  33.8499190
   6.3966710  29.8609740  49.4985260   5.8587800  30.5855800  49.1793960
   6.6500670  29.3840080  48.7082600   7.6491960  17.8294260  51.0241190
   8.2391650  17.5210110  51.7119010   6.8312200  17.3574010  51.1801090
  12.4685390  17.4460070  51.2574210  11.7800910  16.7841610  51.1924200
  13.1891410  16.9998340  51.7022670  13.0985790  14.0411700  37.3164470
  13.3788080  13.1979600  37.6723890  12.3251520  14.2734810  37.8303220
   4.4180280  16.3304090  34.7755470   4.7206180  16.3371520  33.8674620
   5.1574870  15.9801950  35.2723130   9.2528920  31.0960950  49.7571910
   9.1787620  31.9996090  50.0644280   8.3507760  30.7772850  49.7293980
   7.6365210  15.2738710  35.7611670   7.2887210  14.5962700  35.1814120
   7.8377980  14.8128220  36.5755060   9.8014250  30.2619460  37.3798270
  10.6965040  30.6004430  37.4017030   9.8331880  29.5398870  36.7522550
   3.4410410  25.6346510  35.6085270   3.8785280  26.1776180  36.2642850
   3.9258140  24.8093460  35.6181610   5.2518130  26.7544550  40.7207500
   4.9513670  26.6309520  41.6211410   5.1455620  25.8953140  40.3123230
  16.7808600  28.7923130  50.0864470  16.1810590  28.8515690  49.3428390
  16.9102500  27.8528110  50.2161320  18.0210050  26.5340950  35.4234180
  17.1903010  26.6017600  35.8941410  18.1981880  27.4245070  35.1201040
  17.4766510  23.2788430  37.9268380  18.2385420  23.8485080  38.0328070
  17.4920880  22.7115630  38.6976690  18.4826480  24.1338530  42.7710310
  18.8535310  23.3505850  42.3646280  19.1228410  24.8227630  42.5927610
  15.4660240  25.5175110  48.1840630  14.6520080  25.9472270  48.4466420
  15.8734440  26.1293520  47.5709680  17.5285680  23.5722800  35.0840900
  17.8034520  24.4801680  34.9560120  17.3396420  23.5085330  36.0202890
  13.9261290  16.5967650  36.3794530  14.3446170  16.4098630  35.5391190
  13.6197350  15.7446700  36.6897460  17.4251020  21.5091790  40.0770330
  17.0494620  20.7419720  39.6451620  16.6954140  21.8914490  40.5645260
   2.0146780  22.1878930  46.6979380   2.3819820  22.1006330  47.5775400
   1.4457600  21.4245480  46.5986240  16.8150640  20.6563310  49.7109850
  16.5836730  20.4276060  48.8107800  17.0755190  21.5762860  49.6654740
  15.2538710  15.8819740  52.4889550  16.1308890  15.8903140  52.8723550
  15.2659550  15.1450580  51.8781900  16.7001980  19.7349280  43.3777570
  17.2239460  19.2411930  42.7467740  17.2861400  19.8699640  44.1225140
  16.8791700  19.8189150  46.8997120  15.9294410  19.7852690  47.0142110
  17.0604710  20.7289260  46.6646890   2.7336140  18.0690830  36.0095750
   3.4427840  17.6474050  35.5243030   2.0176080  18.1366060  35.3779100
   2.3810300  14.1230160  35.0498400   3.1038430  14.6639100  35.3679620
   2.6534820  13.8493580  34.1739940  16.1901950  18.9922630  39.3169980
  16.6861070  18.7593500  40.1018860  15.9918020  18.1534470  38.9007620
   2.0702490  13.3736350  44.9521020   2.7178680  12.8233730  44.5116180
   2.4904330  13.6279500  45.7736830  17.6189110  17.6283580  41.8507660
  17.5088390  17.4739620  42.7889930  18.3796700  17.1004520  41.6083070
  15.9654830  13.5677710  48.3090660  16.6027050  14.1811850  48.6749850
  16.1129720  13.6038370  47.3639890  18.5079380  15.4591500  35.0913800
  19.4328690  15.3272680  34.8832090  18.4855170  15.5384320  36.0450250
  18.5817870  16.2302160  37.7170510  17.7869370  16.1647280  38.2463420
  18.7861150  17.1652800  37.7055860  15.5236290  30.2693710  41.7108900
  16.1195360  29.9478280  41.0343320  15.7814440  29.7965530  42.5022170
   1.8234490  13.5292020  47.6946340   1.4749310  13.9855840  48.4604520
   1.4922190  12.6349150  47.7768770   3.4298860  26.7011620  51.8599530
   3.3868490  26.3304530  52.7413990   3.5609870  27.6389190  52.0001350
   7.1304890  28.2571210  47.4609250   6.8896250  28.5245770  46.5739770
   8.0707530  28.4276940  47.5160110   9.3359310  14.7203900  51.2165760
   9.2748200  15.3125730  51.9661170  10.2759690  14.6129860  51.0716020
  11.9733870  14.3773960  50.8558050  12.5874280  14.6953250  50.1939130
  12.5183430  13.8922550  51.4753910  18.3909050  30.2765590  48.2619890
  17.8967330  30.6734460  47.5447020  17.7822340  29.6514800  48.6557170
   2.4955130  13.0568220  50.9697110   3.0438120  12.8756270  50.2063220
   2.5610440  12.2662330  51.5053420   3.2686890  29.6473870  48.9797310
   2.6747210  29.5158570  49.7187350   3.2610730  28.8112010  48.5139410
  12.7141910  12.9406100  47.1827340  11.8401750  13.2741210  46.9800270
  12.6052660  12.4679280  48.0079210  13.6213890  15.1476970  48.5669060
  13.2927250  14.3328730  48.1870790  14.5696190  15.1046780  48.4434750
  16.0748500  30.9189010  45.5406630  15.6151470  31.6704820  45.1664650
  15.4460960  30.1995480  45.4821430   2.8999120  27.0132250  47.9305350
   2.1733180  26.3937540  47.8631300   2.9608270  27.4072860  47.0603430
   6.5044220  29.2277250  44.7154760   7.0209240  28.6164610  44.1903020
   7.1541600  29.7306030  45.2065770   9.2439720  30.1185740  45.5423740
   9.5317530  29.8640040  44.6656750   9.7562940  29.5663100  46.1329310
  10.4616730  13.8575940  46.1220250   9.6788520  14.3321440  46.4017010
  10.1679660  12.9530770  46.0133430  15.0137800  14.5599040  44.1669340
  15.4545890  14.5044140  43.3190940  14.7445390  15.4757050  44.2379520
  16.8776370  14.1914280  42.1778160  16.8164770  13.2475500  42.0309180
  17.6568400  14.2994370  42.7231620   1.8057140  14.1623420  38.6433970
   2.5636500  14.2752300  38.0698000   1.3434310  14.9992620  38.5977400
   8.3470950  16.2762690  41.6336280   7.5345460  15.9019580  41.2932160
   8.8512590  15.5207770  41.9357470  12.8495930  12.9405140  42.8719350
  13.4525300  13.5125350  43.3467870  12.1088920  13.5044580  42.6493250
  15.9930530  13.3426700  38.1459630  16.1881160  14.2410150  38.4127060
  15.2060400  13.1113780  38.6392580   2.7891820  29.0239870  38.5852250
   2.2639440  29.4047900  37.8814210   2.7136400  29.6490640  39.3061960
   4.1782290  14.6887470  37.1835940   4.7075050  13.9017270  37.0543890
   4.8110610  15.3678660  37.4171470   6.3720130  14.4262610  40.2381330
   5.7422870  13.7249920  40.4051460   5.8325270  15.1866740  40.0214490
   9.3112080  31.0401840  52.9091940  10.2379390  30.8046110  52.9527900
   9.2962510  31.8673840  52.4277970  17.5457140  30.5827410  39.9066190
  17.7209330  29.8965150  39.2627110  16.8478710  31.1074460  39.5142860
   6.4975690  13.7046590  52.6733820   6.2159960  14.2080190  51.9094640
   6.8795390  12.9068340  52.3075950   5.3884790  30.9722250  37.4601500
   6.1203610  30.6881530  36.9125390   5.6478460  30.7335530  38.3500880
   4.5499580  27.0886980  37.4647830   3.9208460  27.5572080  38.0133660
   4.6647410  26.2436200  37.8994020  13.0991150  13.1200170  53.2514290
  12.9856600  13.4394780  54.1465810  13.9160890  13.5212680  52.9551570
  15.8789640  30.2671700  52.7332980  16.6714960  29.7720930  52.5258940
  16.1722790  30.9461840  53.3408590  12.0049300  21.1392640  23.6149030
  11.9243350  20.2247250  23.3440740  11.5913720  21.6359710  22.9088740
  10.1367340  22.9171660  25.4958300   9.3609440  22.4372100  25.7856870
  10.7880270  22.2377310  25.3214460   4.1533170  23.2291470  26.3734060
   3.3218050  22.9740180  26.7730570   4.7614150  23.3002240  27.1091980
  14.1574770  27.3231850  24.2757430  13.6956300  26.5519090  24.6044600
  14.9700320  27.3497920  24.7809880   4.1334430  27.2631560  26.5692080
   4.4362470  26.3729300  26.3902300   4.8778020  27.8201780  26.3414330
   2.5625120  18.1893360  20.1576450   1.6741820  18.5309330  20.0556330
   2.8466310  17.9893680  19.2657280  10.3838080  29.6089860  23.8961420
   9.7649520  30.0647360  23.3255860  11.2389860  29.7641320  23.4951120
   9.5776330  25.5928850  25.5028460   9.5084610  24.6518790  25.3417590
  10.3396190  25.6830260  26.0751030   1.7683000  16.1983370  27.8285080
   1.5885840  15.3009120  28.1087840   1.3663080  16.7455240  28.5032030
  10.6081500  18.3999230  25.7297390  10.9846320  17.5271110  25.6171060
  10.5101010  18.7357930  24.8387830   4.7386510  16.7724860  21.1914830
   4.8453260  17.6728590  21.4983590   3.8278870  16.7242830  20.9009480
  14.3905620  15.8949670  22.6625730  15.2115240  15.4046240  22.7051210
  14.4239700  16.4847330  23.4157570   2.3869670  18.6943870  26.4367420
   3.0679780  18.9582240  27.0554820   2.0717720  17.8544740  26.7705430
   6.5794240  19.7411230  25.5240010   7.0872460  20.2392200  26.1645030
   7.1107480  18.9646430  25.3479370  18.6805170  17.9116420  29.2269360
  17.9757340  18.2998130  28.7084470  18.9463090  18.6066710  29.8290290
   4.8630340  14.3809790  29.7903430   4.8648780  14.8982180  28.9849330
   4.0334650  13.9039970  29.7673360  11.2501430  24.4929100  21.2893330
  10.6318700  24.9578550  20.7256050  11.7624680  25.1856580  21.7062840
   6.1133190  24.0204970  27.9676930   5.7802570  24.6473890  28.6098000
   6.2899870  24.5466850  27.1878600  14.6267100  17.8350050  25.4353270
  13.9222670  18.1234940  26.0156380  14.9879260  18.6450160  25.0752830
   4.5445670  16.0919750  27.7973880   4.8862480  16.9361800  27.5027750
   3.6061480  16.2403490  27.9139220   5.3252290  25.9885770  29.7826110
   5.9426290  26.6636850  29.5010560   4.4645410  26.3973750  29.6913610
  16.2429880  27.4525180  27.6980750  15.5593400  28.1224290  27.6897420
  16.7824170  27.6505830  26.9325610  17.6954020  17.2804840  25.8262480
  16.7478930  17.3143820  25.9577910  18.0204010  18.0943790  26.2111840
   8.2273560  13.5802020  24.1218470   8.5348540  13.0248910  23.4053970
   7.2974260  13.7146480  23.9391460  13.7788620  29.2969310  26.4125930
  13.7915780  28.8931600  25.5448190  13.2263840  30.0716600  26.3087360
  15.0734040  26.0185530  21.5016100  14.9630370  25.0759860  21.6265520
  15.0702290  26.3801170  22.3878860  13.1774060  24.1999150  27.7408540
  13.5942850  23.9859260  26.9062000  13.9013880  24.4571940  28.3117160
  10.6154320  21.6450850  20.8578590   9.6883600  21.5788230  21.0867060
  10.7679140  22.5830980  20.7433830  10.6023400  17.9167850  17.8545750
   9.6627070  18.0781810  17.9398210  10.9206660  18.6353530  17.3081740
  17.1236160  22.5986370  27.8324780  16.2954790  22.6679460  27.3574910
  17.7186640  23.1840680  27.3640610  14.6451610  23.2071150  21.3613840
  14.0264030  22.8690700  20.7140140  14.6276060  22.5630910  22.0693030
  14.0878170  19.3855690  28.7779650  13.6749350  20.2109400  29.0319640
  13.3554120  18.8000730  28.5856010   6.2210960  22.1715590  23.6398320
   5.8167960  21.4592840  23.1444220   6.3074080  21.8268830  24.5286360
   6.6892660  25.8583150  25.8037530   6.3920950  25.2528620  25.1245310
   7.6392480  25.8960460  25.6926890   4.9339580  18.9458800  27.4197360
   5.4854170  19.0554140  26.6450610   5.4483090  19.3196400  28.1352590
  14.7778270  29.4315020  29.4660630  14.3008830  30.2387210  29.2733240
  14.0940060  28.7793350  29.6186840   5.7811090  25.5964840  32.4545330
   4.8839620  25.8204810  32.7018730   5.8063960  25.7199780  31.5056730
  12.8216310  22.4457960  18.3686590  13.2609590  21.6080390  18.2224410
  13.5344730  23.0787360  18.4550730   4.6082310  22.4678160  31.0302700
   4.4690080  23.3400960  31.3990100   3.7263670  22.1250970  30.8850640
  10.9311690  27.3854030  22.3367830  11.3707600  28.1278360  21.9223220
  10.8698580  27.6280600  23.2606790   6.4062660  28.4099860  33.2387850
   6.3778090  28.8142810  32.3716280   6.2427630  27.4810220  33.0759450
  16.4033450  13.7000770  16.6827630  16.0906110  13.7927600  17.5826700
  17.1645920  14.2781800  16.6325060   2.9215590  21.0660570  21.1404970
   2.8013190  21.7922660  20.5286240   2.6116480  20.2963480  20.6632880
  18.3577480  29.1926960  34.5352020  18.8337200  29.6709850  35.2141100
  18.9784640  29.1244450  33.8097520   1.8048590  25.9375900  23.3579790
   1.3976670  26.0790490  22.5033390   2.6961600  25.6536060  23.1551000
  17.7610730  26.3839810  31.6952030  17.8873790  26.1451690  30.7769210
  17.8032110  25.5524350  32.1674110  11.6227470  30.0867810  30.2646840
  12.1372140  29.9975820  31.0669270  10.7796550  30.4327510  30.5574750
  13.5981870  30.3723150  19.6930840  13.4383010  30.0826090  20.5912670
  13.4328580  29.5963280  19.1576070   6.0770250  30.1521680  21.4702460
   5.9012730  29.2357220  21.2570260   5.2225990  30.5108970  21.7100260
  13.3008000  27.8810710  18.2528840  12.6073160  27.8788000  17.5931120
  14.0430860  27.4570030  17.8223010  12.8657930  29.5073420  22.3277330
  13.3214880  28.7262800  22.6415950  13.2050450  30.2180240  22.8718510
  17.6134740  18.4372270  32.6601770  16.9979010  18.9451940  32.1317230
  17.2931160  17.5370600  32.6027710   5.3879250  14.4095640  24.5228640
   4.9447400  15.1905180  24.1913160   5.9464240  14.7325530  25.2299580
   9.6749060  17.2764160  30.1263960   9.2128430  17.4847180  30.9383900
   9.2727170  16.4623510  29.8234630  14.6753570  18.4973110  31.2560620
  13.8247160  18.1978860  31.5769690  14.5155360  18.7415120  30.3444440
  11.7703280  19.9974860  33.3559410  12.0956690  19.1638610  33.0161640
  12.5583610  20.5203380  33.5037740   8.5038070  14.0306340  19.4034470
   7.8792250  14.0266210  20.1287780   8.4168190  13.1637300  19.0070440
   7.4255150  14.9542970  26.3818240   7.7227480  15.8605800  26.3010260
   7.9740710  14.4661750  25.7677810   5.1793470  19.5329210  22.2509890
   4.9534390  19.3166380  23.1556510   4.3986000  19.9657670  21.9055860
  12.4091230  19.5392580  20.8500540  11.8100120  20.2628380  20.6664160
  12.9570840  19.4769360  20.0676990   7.6192680  20.4314790  32.9170160
   7.5236280  19.4909520  32.7670560   8.4624660  20.6529860  32.5218230
  11.0156100  18.1756120  22.8803820  11.4085670  18.4928320  22.0672510
  11.3772950  17.2968000  22.9948340   2.7503220  16.8428460  31.0703940
   2.3566610  17.6903670  31.2776720   2.0621620  16.2054830  31.2612580
   9.3248270  16.9263430  34.1400680   8.6346590  16.7335630  34.7746770
  10.0680570  17.2098070  34.6724980  11.6011240  20.7661870  26.9754600
  10.8692360  21.2748680  27.3244700  11.2035580  19.9491850  26.6743380
   8.0388630  17.4416070  25.3807090   8.0424690  17.0006020  24.5311630
   8.9339750  17.7633400  25.4878910   3.8891010  17.3242560  24.3401300
   3.5491060  17.8017790  25.0968350   3.1268330  16.8707680  23.9802400
   8.1008780  18.4428150  18.3713850   8.2221600  18.4014630  19.3199670
   7.7157290  19.3052300  18.2160580  12.0637150  16.2195550  26.3877540
  12.0809890  16.6704200  27.2319390  11.8152730  15.3201190  26.6010980
   7.1130280  20.7529290  17.7697150   6.5447180  20.3047540  17.1433060
   7.8219280  21.1122070  17.2362300  15.4907900  13.6327730  32.2263920
  15.8153670  12.9017390  32.7521900  15.5264410  13.3141370  31.3244910
   2.1899460  24.6541310  31.6463880   1.8054250  24.0134980  32.2446840
   2.5011650  25.3577430  32.2158610   8.3396600  21.5017850  27.1272500
   8.7066730  21.0276420  27.8733840   8.1501660  22.3759420  27.4680840
   6.1295970  20.5426490  29.4456710   5.8253040  21.4218470  29.6707070
   7.0842430  20.6026280  29.4814150   4.6577760  24.7487480  20.0423560
   3.8840020  24.2085100  19.8822280   5.3872390  24.2294090  19.7041320
  15.4165740  23.7452840  25.8349950  16.1364860  24.2408130  25.4446060
  15.2147560  23.0670730  25.1903820  10.8775680  15.1390800  19.9779340
  10.0640290  14.6403970  19.9024650  10.6837630  15.9789050  19.5615690
  10.7984540  23.8161900  31.7218950  10.7321850  22.8957570  31.4676540
  10.1689680  23.9137340  32.4363590  13.5924070  19.5110450  18.2741500
  14.4803690  19.8227680  18.0992840  13.5629160  18.6382700  17.8822080
   4.7015160  24.4167860  23.6802370   5.2193830  23.6136120  23.6259260
   4.2499180  24.3547000  24.5219200   9.5884660  25.6834140  18.9529670
   9.9300360  26.4276370  18.4572990   8.7597370  25.9965260  19.3154500
   2.1859700  21.3829230  30.5928070   1.8274640  22.0483080  31.1801410
   1.8914260  20.5512780  30.9640690   5.3872820  21.8413470  33.4767620
   5.0872960  21.9870650  32.5795440   6.1584060  21.2818760  33.3841010
  10.7301270  26.6382470  31.4722750  10.7445810  25.7063430  31.2541660
  10.0226370  26.7242230  32.1112520  15.8638340  20.8222290  17.7421360
  15.7802060  21.2536510  16.8917800  16.5832530  21.2820640  18.1748180
  16.9412480  23.2789810  30.8191330  16.2160670  23.8718590  30.6220720
  17.4687940  23.2713350  30.0204700  16.8925590  27.6764550  20.4703490
  16.2501750  27.0220170  20.7447210  16.5056250  28.0819640  19.6944160
  12.4712070  25.0049980  24.3175180  12.8235890  24.4078110  23.6576550
  11.5874400  24.6794210  24.4883430   8.5575350  25.7647670  21.7245590
   9.2446480  26.3116880  22.1053180   7.7707770  26.3088400  21.7595200
   7.8602560  22.7693700  21.3370950   8.3165340  23.5798950  21.5631140
   7.5090770  22.4516840  22.1689440  10.1635170  28.2800040  28.5663250
  10.8077390  28.4859420  29.2436670  10.5264610  27.5188440  28.1134100
   3.7614340  13.1131350  21.8093470   3.6328970  13.1049250  22.7578390
   2.9376360  13.4514440  21.4584480  11.4367250  26.2832390  27.2840700
  12.0789480  25.5825550  27.3972870  11.9616600  27.0630830  27.1037590
  15.2822970  26.5681010  17.0079840  15.0560550  25.8511450  17.6004480
  14.8919170  26.3193450  16.1701590  13.2104870  27.0827290  30.4876760
  13.5461110  27.6693980  31.1654680  12.2905210  26.9520000  30.7174550
  14.8639220  24.4852950  18.6694000  14.5760920  24.9465640  19.4571880
  15.6591390  24.0250720  18.9378220   9.0393450  27.1318620  33.6564820
   8.7190320  26.4127860  34.2010510   8.3651810  27.8073690  33.7300880
   7.0807620  27.9779070  18.5997970   7.0717720  28.7108760  17.9842480
   6.1605980  27.7310650  18.6924930   2.6814260  23.1993960  19.3444730
   2.0742210  23.9392860  19.3540030   3.1563610  23.2893320  18.5182930
  12.2547050  17.3644780  29.0201620  12.6227870  16.5439990  29.3481190
  11.3945250  17.4246670  29.4357270  15.6209080  16.3201720  19.8289180
  14.9922240  16.4247390  19.1147410  15.1261000  16.5398500  20.6183060
  10.0667220  28.0407310  17.2623160  10.1679200  27.8371300  16.3325140
   9.1668960  27.7865590  17.4670940   7.5893110  18.5987670  21.2447060
   6.8809260  19.0674010  21.6860670   7.8737590  17.9409680  21.8792250
   9.2149040  20.0184370  29.2439590   9.7134290  20.4930190  29.9091440
   9.3571990  19.0947890  29.4509620  11.6208540  15.3238330  22.6842850
  11.4976320  15.3424460  21.7352360  12.5693100  15.3717270  22.8041250
   8.7085330  30.5593630  21.9570830   8.9626830  30.5215020  21.0350200
   7.7597810  30.4326960  21.9499080   5.7928130  16.9072750  18.6197770
   6.6418660  17.3442900  18.5537960   5.4259400  17.2193010  19.4469830
  16.4215900  16.2352330  30.0867980  15.9189500  16.9757730  30.4261790
  17.2372560  16.6236330  29.7704770  14.7137910  21.4785510  23.5329340
  13.7728050  21.4935740  23.7077030  15.0281980  20.6921470  23.9789640
   4.6919550  23.1605110  17.0933300   5.4582820  23.0486470  17.6558730
   4.7694240  22.4643080  16.4410070   3.3866310  20.5930180  17.7766190
   3.4669900  19.6457690  17.8883590   4.2786060  20.9237060  17.8826850
  16.7163490  28.6494360  25.2083600  16.8410910  29.4725530  25.6807410
  17.5829050  28.4385090  24.8607750   4.1881020  30.7425570  24.8800730
   4.9243500  30.1941030  25.1509300   4.5721940  31.6081580  24.7406720
   3.1939300  29.9271640  34.0686310   3.9952030  30.2483690  34.4821710
   2.6791120  29.5667220  34.7906220   7.2983330  29.9155880  16.7026300
   8.0911940  30.2044710  16.2508090   6.7787680  29.4848050  16.0238780
  12.0303930  26.0351510  34.0161720  11.4242090  26.0583110  33.2757470
  11.7258040  25.3034550  34.5528970  13.4604300  29.7631800  32.6271130
  14.4126050  29.6789820  32.5771370  13.3132520  30.4273510  33.3004920
  16.3513500  29.1426010  18.1263040  16.0655010  28.7291150  17.3117220
  16.1533050  30.0713720  18.0063560   7.8160730  25.1359290  16.5668650
   7.7111370  24.5211640  17.2930030   7.6484950  24.6125180  15.7831660
   7.9675050  23.8216090  32.5457880   7.2020720  24.3901090  32.4612550
   8.1491010  23.5292300  31.6526110  11.0563460  24.1979320  17.1710640
  10.5073560  24.6448620  17.8153380  11.6782720  23.6928570  17.6948310
  15.1098400  25.5521420  33.1032900  15.8507870  25.8897180  32.6000360
  14.3471080  25.7213480  32.5502670   2.9460190  20.5574690  33.9072430
   2.9865530  20.2588560  34.8157660   3.8005690  20.9582300  33.7479950
   6.7238580  23.1570240  19.0675940   7.1455000  22.9910110  19.9107330
   6.8489420  22.3470470  18.5731080   4.8866000  19.1366790  31.8746920
   4.3562460  18.6457740  31.2470260   5.5554070  19.5650990  31.3404850
   9.2366220  22.1807850  16.3153040   9.7571880  21.4656870  15.9494190
   9.8834620  22.8193720  16.6153550  13.7844060  23.6036250  31.6388110
  14.1985080  23.7581330  32.4878530  12.8495060  23.7291470  31.8013890
  14.2566230  20.9432410  33.6427260  14.8387000  20.1884730  33.5547740
  14.4328000  21.4739850  32.8658740   5.3738300  16.1029160  31.9544210
   5.2795170  15.4849910  31.2295080   4.7935690  16.8295450  31.7274120
   8.1399740  14.6602400  28.9871600   7.6917040  14.6826660  28.1417150
   7.5064940  14.2621420  29.5841900   8.5459290  23.5556730  29.6084040
   8.9647400  24.3989460  29.4360280   7.6267920  23.6928770  29.3790820
  10.8823190  21.2872910  30.9921880  11.0019400  20.6914050  31.7316720
  11.7417190  21.3242600  30.5723180  13.2211090  21.8410100  29.5684390
  12.6946310  22.3652720  28.9649530  13.5642430  22.4737490  30.1994120
   5.6197480  19.2303470  16.0134100   5.4186540  18.3670830  16.3747440
   5.4489530  19.1436830  15.0755700   6.3966710  29.8609740  30.7241770
   5.8587800  30.5855800  30.4050470   6.6500670  29.3840080  29.9339110
   7.6491960  17.8294260  32.2497700   8.2391650  17.5210110  32.9375520
   6.8312200  17.3574010  32.4057600  12.4685390  17.4460070  32.4830720
  11.7800910  16.7841610  32.4180710  13.1891410  16.9998340  32.9279180
  13.0985790  14.0411700  18.5420980  13.3788080  13.1979600  18.8980400
  12.3251520  14.2734810  19.0559730   4.4180280  16.3304090  16.0011980
   4.7206180  16.3371520  15.0931130   5.1574870  15.9801950  16.4979640
   9.2528920  31.0960950  30.9828420   9.1787620  31.9996090  31.2900790
   8.3507760  30.7772850  30.9550490   7.6365210  15.2738710  16.9868180
   7.2887210  14.5962700  16.4070630   7.8377980  14.8128220  17.8011570
   9.8014250  30.2619460  18.6054780  10.6965040  30.6004430  18.6273540
   9.8331880  29.5398870  17.9779060   3.4410410  25.6346510  16.8341780
   3.8785280  26.1776180  17.4899360   3.9258140  24.8093460  16.8438120
   5.2518130  26.7544550  21.9464010   4.9513670  26.6309520  22.8467920
   5.1455620  25.8953140  21.5379740  16.7808600  28.7923130  31.3120980
  16.1810590  28.8515690  30.5684900  16.9102500  27.8528110  31.4417830
  18.0210050  26.5340950  16.6490690  17.1903010  26.6017600  17.1197920
  18.1981880  27.4245070  16.3457550  17.4766510  23.2788430  19.1524890
  18.2385420  23.8485080  19.2584580  17.4920880  22.7115630  19.9233200
  18.4826480  24.1338530  23.9966820  18.8535310  23.3505850  23.5902790
  19.1228410  24.8227630  23.8184120  15.4660240  25.5175110  29.4097140
  14.6520080  25.9472270  29.6722930  15.8734440  26.1293520  28.7966190
  17.5285680  23.5722800  16.3097410  17.8034520  24.4801680  16.1816630
  17.3396420  23.5085330  17.2459400  13.9261290  16.5967650  17.6051040
  14.3446170  16.4098630  16.7647700  13.6197350  15.7446700  17.9153970
  17.4251020  21.5091790  21.3026840  17.0494620  20.7419720  20.8708130
  16.6954140  21.8914490  21.7901770   2.0146780  22.1878930  27.9235890
   2.3819820  22.1006330  28.8031910   1.4457600  21.4245480  27.8242750
  16.8150640  20.6563310  30.9366360  16.5836730  20.4276060  30.0364310
  17.0755190  21.5762860  30.8911250  15.2538710  15.8819740  33.7146060
  16.1308890  15.8903140  34.0980060  15.2659550  15.1450580  33.1038410
  16.7001980  19.7349280  24.6034080  17.2239460  19.2411930  23.9724250
  17.2861400  19.8699640  25.3481650  16.8791700  19.8189150  28.1253630
  15.9294410  19.7852690  28.2398620  17.0604710  20.7289260  27.8903400
   2.7336140  18.0690830  17.2352260   3.4427840  17.6474050  16.7499540
   2.0176080  18.1366060  16.6035610   2.3810300  14.1230160  16.2754910
   3.1038430  14.6639100  16.5936130   2.6534820  13.8493580  15.3996450
  16.1901950  18.9922630  20.5426490  16.6861070  18.7593500  21.3275370
  15.9918020  18.1534470  20.1264130   2.0702490  13.3736350  26.1777530
   2.7178680  12.8233730  25.7372690   2.4904330  13.6279500  26.9993340
  17.6189110  17.6283580  23.0764170  17.5088390  17.4739620  24.0146440
  18.3796700  17.1004520  22.8339580  15.9654830  13.5677710  29.5347170
  16.6027050  14.1811850  29.9006360  16.1129720  13.6038370  28.5896400
  18.5079380  15.4591500  16.3170310  19.4328690  15.3272680  16.1088600
  18.4855170  15.5384320  17.2706760  18.5817870  16.2302160  18.9427020
  17.7869370  16.1647280  19.4719930  18.7861150  17.1652800  18.9312370
  15.5236290  30.2693710  22.9365410  16.1195360  29.9478280  22.2599830
  15.7814440  29.7965530  23.7278680   1.8234490  13.5292020  28.9202850
   1.4749310  13.9855840  29.6861030   1.4922190  12.6349150  29.0025280
   3.4298860  26.7011620  33.0856040   3.3868490  26.3304530  33.9670500
   3.5609870  27.6389190  33.2257860   7.1304890  28.2571210  28.6865760
   6.8896250  28.5245770  27.7996280   8.0707530  28.4276940  28.7416620
   9.3359310  14.7203900  32.4422270   9.2748200  15.3125730  33.1917680
  10.2759690  14.6129860  32.2972530  11.9733870  14.3773960  32.0814560
  12.5874280  14.6953250  31.4195640  12.5183430  13.8922550  32.7010420
  18.3909050  30.2765590  29.4876400  17.8967330  30.6734460  28.7703530
  17.7822340  29.6514800  29.8813680   2.4955130  13.0568220  32.1953620
   3.0438120  12.8756270  31.4319730   2.5610440  12.2662330  32.7309930
   3.2686890  29.6473870  30.2053820   2.6747210  29.5158570  30.9443860
   3.2610730  28.8112010  29.7395920  12.7141910  12.9406100  28.4083850
  11.8401750  13.2741210  28.2056780  12.6052660  12.4679280  29.2335720
  13.6213890  15.1476970  29.7925570  13.2927250  14.3328730  29.4127300
  14.5696190  15.1046780  29.6691260  16.0748500  30.9189010  26.7663140
  15.6151470  31.6704820  26.3921160  15.4460960  30.1995480  26.7077940
   2.8999120  27.0132250  29.1561860   2.1733180  26.3937540  29.0887810
   2.9608270  27.4072860  28.2859940   6.5044220  29.2277250  25.9411270
   7.0209240  28.6164610  25.4159530   7.1541600  29.7306030  26.4322280
   9.2439720  30.1185740  26.7680250   9.5317530  29.8640040  25.8913260
   9.7562940  29.5663100  27.3585820  10.4616730  13.8575940  27.3476760
   9.6788520  14.3321440  27.6273520  10.1679660  12.9530770  27.2389940
  15.0137800  14.5599040  25.3925850  15.4545890  14.5044140  24.5447450
  14.7445390  15.4757050  25.4636030  16.8776370  14.1914280  23.4034670
  16.8164770  13.2475500  23.2565690  17.6568400  14.2994370  23.9488130
   1.8057140  14.1623420  19.8690480   2.5636500  14.2752300  19.2954510
   1.3434310  14.9992620  19.8233910   8.3470950  16.2762690  22.8592790
   7.5345460  15.9019580  22.5188670   8.8512590  15.5207770  23.1613980
  12.8495930  12.9405140  24.0975860  13.4525300  13.5125350  24.5724380
  12.1088920  13.5044580  23.8749760  15.9930530  13.3426700  19.3716140
  16.1881160  14.2410150  19.6383570  15.2060400  13.1113780  19.8649090
   2.7891820  29.0239870  19.8108760   2.2639440  29.4047900  19.1070720
   2.7136400  29.6490640  20.5318470   4.1782290  14.6887470  18.4092450
   4.7075050  13.9017270  18.2800400   4.8110610  15.3678660  18.6427980
   6.3720130  14.4262610  21.4637840   5.7422870  13.7249920  21.6307970
   5.8325270  15.1866740  21.2471000   9.3112080  31.0401840  34.1348450
  10.2379390  30.8046110  34.1784410   9.2962510  31.8673840  33.6534480
  17.5457140  30.5827410  21.1322700  17.7209330  29.8965150  20.4883620
  16.8478710  31.1074460  20.7399370   6.4975690  13.7046590  33.8990330
   6.2159960  14.2080190  33.1351150   6.8795390  12.9068340  33.5332460
   5.3884790  30.9722250  18.6858010   6.1203610  30.6881530  18.1381900
   5.6478460  30.7335530  19.5757390   4.5499580  27.0886980  18.6904340
   3.9208460  27.5572080  19.2390170   4.6647410  26.2436200  19.1250530
  13.0991150  13.1200170  34.4770800  12.9856600  13.4394780  35.3722320
  13.9160890  13.5212680  34.1808080  15.8789640  30.2671700  33.9589490
  16.6714960  29.7720930  33.7515450  16.1722790  30.9461840  34.5665100
  12.0049300  21.1392640   4.8405540  11.9243350  20.2247250   4.5697250
  11.5913720  21.6359710   4.1345250  10.1367340  22.9171660   6.7214810
   9.3609440  22.4372100   7.0113380  10.7880270  22.2377310   6.5470970
   4.1533170  23.2291470   7.5990570   3.3218050  22.9740180   7.9987080
   4.7614150  23.3002240   8.3348490  14.1574770  27.3231850   5.5013940
  13.6956300  26.5519090   5.8301110  14.9700320  27.3497920   6.0066390
   4.1334430  27.2631560   7.7948590   4.4362470  26.3729300   7.6158810
   4.8778020  27.8201780   7.5670840  10.3838080  29.6089860   5.1217930
   9.7649520  30.0647360   4.5512370  11.2389860  29.7641320   4.7207630
   9.5776330  25.5928850   6.7284970   9.5084610  24.6518790   6.5674100
  10.3396190  25.6830260   7.3007540   1.7683000  16.1983370   9.0541590
   1.5885840  15.3009120   9.3344350   1.3663080  16.7455240   9.7288540
  10.6081500  18.3999230   6.9553900  10.9846320  17.5271110   6.8427570
  10.5101010  18.7357930   6.0644340   4.7386510  16.7724860   2.4171340
   4.8453260  17.6728590   2.7240100   3.8278870  16.7242830   2.1265990
  14.3905620  15.8949670   3.8882240  15.2115240  15.4046240   3.9307720
  14.4239700  16.4847330   4.6414080   2.3869670  18.6943870   7.6623930
   3.0679780  18.9582240   8.2811330   2.0717720  17.8544740   7.9961940
   6.5794240  19.7411230   6.7496520   7.0872460  20.2392200   7.3901540
   7.1107480  18.9646430   6.5735880  18.6805170  17.9116420  10.4525870
  17.9757340  18.2998130   9.9340980  18.9463090  18.6066710  11.0546800
   4.8630340  14.3809790  11.0159940   4.8648780  14.8982180  10.2105840
   4.0334650  13.9039970  10.9929870  11.2501430  24.4929100   2.5149840
  10.6318700  24.9578550   1.9512560  11.7624680  25.1856580   2.9319350
   6.1133190  24.0204970   9.1933440   5.7802570  24.6473890   9.8354510
   6.2899870  24.5466850   8.4135110  14.6267100  17.8350050   6.6609780
  13.9222670  18.1234940   7.2412890  14.9879260  18.6450160   6.3009340
   4.5445670  16.0919750   9.0230390   4.8862480  16.9361800   8.7284260
   3.6061480  16.2403490   9.1395730   5.3252290  25.9885770  11.0082620
   5.9426290  26.6636850  10.7267070   4.4645410  26.3973750  10.9170120
  16.2429880  27.4525180   8.9237260  15.5593400  28.1224290   8.9153930
  16.7824170  27.6505830   8.1582120  17.6954020  17.2804840   7.0518990
  16.7478930  17.3143820   7.1834420  18.0204010  18.0943790   7.4368350
   8.2273560  13.5802020   5.3474980   8.5348540  13.0248910   4.6310480
   7.2974260  13.7146480   5.1647970  13.7788620  29.2969310   7.6382440
  13.7915780  28.8931600   6.7704700  13.2263840  30.0716600   7.5343870
  15.0734040  26.0185530   2.7272610  14.9630370  25.0759860   2.8522030
  15.0702290  26.3801170   3.6135370  13.1774060  24.1999150   8.9665050
  13.5942850  23.9859260   8.1318510  13.9013880  24.4571940   9.5373670
  10.6154320  21.6450850   2.0835100   9.6883600  21.5788230   2.3123570
  10.7679140  22.5830980   1.9690340  17.1236160  22.5986370   9.0581290
  16.2954790  22.6679460   8.5831420  17.7186640  23.1840680   8.5897120
  14.6451610  23.2071150   2.5870350  14.0264030  22.8690700   1.9396650
  14.6276060  22.5630910   3.2949540  14.0878170  19.3855690  10.0036160
  13.6749350  20.2109400  10.2576150  13.3554120  18.8000730   9.8112520
   6.2210960  22.1715590   4.8654830   5.8167960  21.4592840   4.3700730
   6.3074080  21.8268830   5.7542870   6.6892660  25.8583150   7.0294040
   6.3920950  25.2528620   6.3501820   7.6392480  25.8960460   6.9183400
   4.9339580  18.9458800   8.6453870   5.4854170  19.0554140   7.8707120
   5.4483090  19.3196400   9.3609100  14.7778270  29.4315020  10.6917140
  14.3008830  30.2387210  10.4989750  14.0940060  28.7793350  10.8443350
   5.7811090  25.5964840  13.6801840   4.8839620  25.8204810  13.9275240
   5.8063960  25.7199780  12.7313240   4.6082310  22.4678160  12.2559210
   4.4690080  23.3400960  12.6246610   3.7263670  22.1250970  12.1107150
  10.9311690  27.3854030   3.5624340  11.3707600  28.1278360   3.1479730
  10.8698580  27.6280600   4.4863300   6.4062660  28.4099860  14.4644360
   6.3778090  28.8142810  13.5972790   6.2427630  27.4810220  14.3015960
   2.9215590  21.0660570   2.3661480   2.8013190  21.7922660   1.7542750
   2.6116480  20.2963480   1.8889390  18.3577480  29.1926960  15.7608530
  18.8337200  29.6709850  16.4397610  18.9784640  29.1244450  15.0354030
   1.8048590  25.9375900   4.5836300   1.3976670  26.0790490   3.7289900
   2.6961600  25.6536060   4.3807510  17.7610730  26.3839810  12.9208540
  17.8873790  26.1451690  12.0025720  17.8032110  25.5524350  13.3930620
  11.6227470  30.0867810  11.4903350  12.1372140  29.9975820  12.2925780
  10.7796550  30.4327510  11.7831260   6.0770250  30.1521680   2.6958970
   5.9012730  29.2357220   2.4826770   5.2225990  30.5108970   2.9356770
  12.8657930  29.5073420   3.5533840  13.3214880  28.7262800   3.8672460
  13.2050450  30.2180240   4.0975020  17.6134740  18.4372270  13.8858280
  16.9979010  18.9451940  13.3573740  17.2931160  17.5370600  13.8284220
   5.3879250  14.4095640   5.7485150   4.9447400  15.1905180   5.4169670
   5.9464240  14.7325530   6.4556090   9.6749060  17.2764160  11.3520470
   9.2128430  17.4847180  12.1640410   9.2727170  16.4623510  11.0491140
  14.6753570  18.4973110  12.4817130  13.8247160  18.1978860  12.8026200
  14.5155360  18.7415120  11.5700950  11.7703280  19.9974860  14.5815920
  12.0956690  19.1638610  14.2418150  12.5583610  20.5203380  14.7294250
   7.4255150  14.9542970   7.6074750   7.7227480  15.8605800   7.5266770
   7.9740710  14.4661750   6.9934320   5.1793470  19.5329210   3.4766400
   4.9534390  19.3166380   4.3813020   4.3986000  19.9657670   3.1312370
  12.4091230  19.5392580   2.0757050  11.8100120  20.2628380   1.8920670
  12.9570840  19.4769360   1.2933500   7.6192680  20.4314790  14.1426670
   7.5236280  19.4909520  13.9927070   8.4624660  20.6529860  13.7474740
  11.0156100  18.1756120   4.1060330  11.4085670  18.4928320   3.2929020
  11.3772950  17.2968000   4.2204850   2.7503220  16.8428460  12.2960450
   2.3566610  17.6903670  12.5033230   2.0621620  16.2054830  12.4869090
   9.3248270  16.9263430  15.3657190   8.6346590  16.7335630  16.0003280
  10.0680570  17.2098070  15.8981490  11.6011240  20.7661870   8.2011110
  10.8692360  21.2748680   8.5501210  11.2035580  19.9491850   7.8999890
   8.0388630  17.4416070   6.6063600   8.0424690  17.0006020   5.7568140
   8.9339750  17.7633400   6.7135420   3.8891010  17.3242560   5.5657810
   3.5491060  17.8017790   6.3224860   3.1268330  16.8707680   5.2058910
  12.0637150  16.2195550   7.6134050  12.0809890  16.6704200   8.4575900
  11.8152730  15.3201190   7.8267490  15.4907900  13.6327730  13.4520430
  15.8153670  12.9017390  13.9778410  15.5264410  13.3141370  12.5501420
   2.1899460  24.6541310  12.8720390   1.8054250  24.0134980  13.4703350
   2.5011650  25.3577430  13.4415120   8.3396600  21.5017850   8.3529010
   8.7066730  21.0276420   9.0990350   8.1501660  22.3759420   8.6937350
   6.1295970  20.5426490  10.6713220   5.8253040  21.4218470  10.8963580
   7.0842430  20.6026280  10.7070660  15.4165740  23.7452840   7.0606460
  16.1364860  24.2408130   6.6702570  15.2147560  23.0670730   6.4160330
  10.7984540  23.8161900  12.9475460  10.7321850  22.8957570  12.6933050
  10.1689680  23.9137340  13.6620100   4.7015160  24.4167860   4.9058880
   5.2193830  23.6136120   4.8515770   4.2499180  24.3547000   5.7475710
   2.1859700  21.3829230  11.8184580   1.8274640  22.0483080  12.4057920
   1.8914260  20.5512780  12.1897200   5.3872820  21.8413470  14.7024130
   5.0872960  21.9870650  13.8051950   6.1584060  21.2818760  14.6097520
  10.7301270  26.6382470  12.6979260  10.7445810  25.7063430  12.4798170
  10.0226370  26.7242230  13.3369030  16.9412480  23.2789810  12.0447840
  16.2160670  23.8718590  11.8477230  17.4687940  23.2713350  11.2461210
  12.4712070  25.0049980   5.5431690  12.8235890  24.4078110   4.8833060
  11.5874400  24.6794210   5.7139940   8.5575350  25.7647670   2.9502100
   9.2446480  26.3116880   3.3309690   7.7707770  26.3088400   2.9851710
   7.8602560  22.7693700   2.5627460   8.3165340  23.5798950   2.7887650
   7.5090770  22.4516840   3.3945950  10.1635170  28.2800040   9.7919760
  10.8077390  28.4859420  10.4693180  10.5264610  27.5188440   9.3390610
   3.7614340  13.1131350   3.0349980   3.6328970  13.1049250   3.9834900
   2.9376360  13.4514440   2.6840990  11.4367250  26.2832390   8.5097210
  12.0789480  25.5825550   8.6229380  11.9616600  27.0630830   8.3294100
  13.2104870  27.0827290  11.7133270  13.5461110  27.6693980  12.3911190
  12.2905210  26.9520000  11.9431060   9.0393450  27.1318620  14.8821330
   8.7190320  26.4127860  15.4267020   8.3651810  27.8073690  14.9557390
  12.2547050  17.3644780  10.2458130  12.6227870  16.5439990  10.5737700
  11.3945250  17.4246670  10.6613780   7.5893110  18.5987670   2.4703570
   6.8809260  19.0674010   2.9117180   7.8737590  17.9409680   3.1048760
   9.2149040  20.0184370  10.4696100   9.7134290  20.4930190  11.1347950
   9.3571990  19.0947890  10.6766130  11.6208540  15.3238330   3.9099360
  11.4976320  15.3424460   2.9608870  12.5693100  15.3717270   4.0297760
   8.7085330  30.5593630   3.1827340   8.9626830  30.5215020   2.2606710
   7.7597810  30.4326960   3.1755590  16.4215900  16.2352330  11.3124490
  15.9189500  16.9757730  11.6518300  17.2372560  16.6236330  10.9961280
  14.7137910  21.4785510   4.7585850  13.7728050  21.4935740   4.9333540
  15.0281980  20.6921470   5.2046150  16.7163490  28.6494360   6.4340110
  16.8410910  29.4725530   6.9063920  17.5829050  28.4385090   6.0864260
   4.1881020  30.7425570   6.1057240   4.9243500  30.1941030   6.3765810
   4.5721940  31.6081580   5.9663230   3.1939300  29.9271640  15.2942820
   3.9952030  30.2483690  15.7078220   2.6791120  29.5667220  16.0162730
  12.0303930  26.0351510  15.2418230  11.4242090  26.0583110  14.5013980
  11.7258040  25.3034550  15.7785480  13.4604300  29.7631800  13.8527640
  14.4126050  29.6789820  13.8027880  13.3132520  30.4273510  14.5261430
   7.9675050  23.8216090  13.7714390   7.2020720  24.3901090  13.6869060
   8.1491010  23.5292300  12.8782620  15.1098400  25.5521420  14.3289410
  15.8507870  25.8897180  13.8256870  14.3471080  25.7213480  13.7759180
   2.9460190  20.5574690  15.1328940   2.9865530  20.2588560  16.0414170
   3.8005690  20.9582300  14.9736460   4.8866000  19.1366790  13.1003430
   4.3562460  18.6457740  12.4726770   5.5554070  19.5650990  12.5661360
  13.7844060  23.6036250  12.8644620  14.1985080  23.7581330  13.7135040
  12.8495060  23.7291470  13.0270400  14.2566230  20.9432410  14.8683770
  14.8387000  20.1884730  14.7804250  14.4328000  21.4739850  14.0915250
   5.3738300  16.1029160  13.1800720   5.2795170  15.4849910  12.4551590
   4.7935690  16.8295450  12.9530630   8.1399740  14.6602400  10.2128110
   7.6917040  14.6826660   9.3673660   7.5064940  14.2621420  10.8098410
   8.5459290  23.5556730  10.8340550   8.9647400  24.3989460  10.6616790
   7.6267920  23.6928770  10.6047330  10.8823190  21.2872910  12.2178390
  11.0019400  20.6914050  12.9573230  11.7417190  21.3242600  11.7979690
  13.2211090  21.8410100  10.7940900  12.6946310  22.3652720  10.1906040
  13.5642430  22.4737490  11.4250630   6.3966710  29.8609740  11.9498280
   5.8587800  30.5855800  11.6306980   6.6500670  29.3840080  11.1595620
   7.6491960  17.8294260  13.4754210   8.2391650  17.5210110  14.1632030
   6.8312200  17.3574010  13.6314110  12.4685390  17.4460070  13.7087230
  11.7800910  16.7841610  13.6437220  13.1891410  16.9998340  14.1535690
   9.2528920  31.0960950  12.2084930   9.1787620  31.9996090  12.5157300
   8.3507760  30.7772850  12.1807000   5.2518130  26.7544550   3.1720520
   4.9513670  26.6309520   4.0724430   5.1455620  25.8953140   2.7636250
  16.7808600  28.7923130  12.5377490  16.1810590  28.8515690  11.7941410
  16.9102500  27.8528110  12.6674340  18.4826480  24.1338530   5.2223330
  18.8535310  23.3505850   4.8159300  19.1228410  24.8227630   5.0440630
  15.4660240  25.5175110  10.6353650  14.6520080  25.9472270  10.8979440
  15.8734440  26.1293520  10.0222700  17.4251020  21.5091790   2.5283350
  17.0494620  20.7419720   2.0964640  16.6954140  21.8914490   3.0158280
   2.0146780  22.1878930   9.1492400   2.3819820  22.1006330  10.0288420
   1.4457600  21.4245480   9.0499260  16.8150640  20.6563310  12.1622870
  16.5836730  20.4276060  11.2620820  17.0755190  21.5762860  12.1167760
  15.2538710  15.8819740  14.9402570  16.1308890  15.8903140  15.3236570
  15.2659550  15.1450580  14.3294920  16.7001980  19.7349280   5.8290590
  17.2239460  19.2411930   5.1980760  17.2861400  19.8699640   6.5738160
  16.8791700  19.8189150   9.3510140  15.9294410  19.7852690   9.4655130
  17.0604710  20.7289260   9.1159910  16.1901950  18.9922630   1.7683000
  16.6861070  18.7593500   2.5531880  15.9918020  18.1534470   1.3520640
   2.0702490  13.3736350   7.4034040   2.7178680  12.8233730   6.9629200
   2.4904330  13.6279500   8.2249850  17.6189110  17.6283580   4.3020680
  17.5088390  17.4739620   5.2402950  18.3796700  17.1004520   4.0596090
  15.9654830  13.5677710  10.7603680  16.6027050  14.1811850  11.1262870
  16.1129720  13.6038370   9.8152910  15.5236290  30.2693710   4.1621920
  16.1195360  29.9478280   3.4856340  15.7814440  29.7965530   4.9535190
   1.8234490  13.5292020  10.1459360   1.4749310  13.9855840  10.9117540
   1.4922190  12.6349150  10.2281790   3.4298860  26.7011620  14.3112550
   3.3868490  26.3304530  15.1927010   3.5609870  27.6389190  14.4514370
   7.1304890  28.2571210   9.9122270   6.8896250  28.5245770   9.0252790
   8.0707530  28.4276940   9.9673130   9.3359310  14.7203900  13.6678780
   9.2748200  15.3125730  14.4174190  10.2759690  14.6129860  13.5229040
  11.9733870  14.3773960  13.3071070  12.5874280  14.6953250  12.6452150
  12.5183430  13.8922550  13.9266930  18.3909050  30.2765590  10.7132910
  17.8967330  30.6734460   9.9960040  17.7822340  29.6514800  11.1070190
   2.4955130  13.0568220  13.4210130   3.0438120  12.8756270  12.6576240
   2.5610440  12.2662330  13.9566440   3.2686890  29.6473870  11.4310330
   2.6747210  29.5158570  12.1700370   3.2610730  28.8112010  10.9652430
  12.7141910  12.9406100   9.6340360  11.8401750  13.2741210   9.4313290
  12.6052660  12.4679280  10.4592230  13.6213890  15.1476970  11.0182080
  13.2927250  14.3328730  10.6383810  14.5696190  15.1046780  10.8947770
  16.0748500  30.9189010   7.9919650  15.6151470  31.6704820   7.6177670
  15.4460960  30.1995480   7.9334450   2.8999120  27.0132250  10.3818370
   2.1733180  26.3937540  10.3144320   2.9608270  27.4072860   9.5116450
   6.5044220  29.2277250   7.1667780   7.0209240  28.6164610   6.6416040
   7.1541600  29.7306030   7.6578790   9.2439720  30.1185740   7.9936760
   9.5317530  29.8640040   7.1169770   9.7562940  29.5663100   8.5842330
  10.4616730  13.8575940   8.5733270   9.6788520  14.3321440   8.8530030
  10.1679660  12.9530770   8.4646450  15.0137800  14.5599040   6.6182360
  15.4545890  14.5044140   5.7703960  14.7445390  15.4757050   6.6892540
  16.8776370  14.1914280   4.6291180  16.8164770  13.2475500   4.4822200
  17.6568400  14.2994370   5.1744640   8.3470950  16.2762690   4.0849300
   7.5345460  15.9019580   3.7445180   8.8512590  15.5207770   4.3870490
  12.8495930  12.9405140   5.3232370  13.4525300  13.5125350   5.7980890
  12.1088920  13.5044580   5.1006270   6.3720130  14.4262610   2.6894350
   5.7422870  13.7249920   2.8564480   5.8325270  15.1866740   2.4727510
   9.3112080  31.0401840  15.3604960  10.2379390  30.8046110  15.4040920
   9.2962510  31.8673840  14.8790990  17.5457140  30.5827410   2.3579210
  17.7209330  29.8965150   1.7140130  16.8478710  31.1074460   1.9655880
   6.4975690  13.7046590  15.1246840   6.2159960  14.2080190  14.3607660
   6.8795390  12.9068340  14.7588970  13.0991150  13.1200170  15.7027310
  12.9856600  13.4394780  16.5978830  13.9160890  13.5212680  15.4064590
  15.8789640  30.2671700  15.1846000  16.6714960  29.7720930  14.9771960
  16.1722790  30.9461840  15.7921610  10.1367340   4.1428170  81.8188770
   9.3609440   3.6628610  82.1087340  10.7880270   3.4633820  81.6444930
   4.1533170   4.4547980  82.6964530   3.3218050   4.1996690  83.0961040
   4.7614150   4.5258750  83.4322450  14.1574770   8.5488360  80.5987900
  13.6956300   7.7775600  80.9275070  14.9700320   8.5754430  81.1040350
   4.1334430   8.4888070  82.8922550   4.4362470   7.5985810  82.7132770
   4.8778020   9.0458290  82.6644800  10.3838080  10.8346370  80.2191890
   9.7649520  11.2903870  79.6486330  11.2389860  10.9897830  79.8181590
   9.5776330   6.8185360  81.8258930   9.5084610   5.8775300  81.6648060
  10.3396190   6.9086770  82.3981500  11.2501430   5.7185610  77.6123800
  10.6318700   6.1835060  77.0486520  11.7624680   6.4113090  78.0293310
   6.1133190   5.2461480  84.2907400   5.7802570   5.8730400  84.9328470
   6.2899870   5.7723360  83.5109070   5.3252290   7.2142280  86.1056580
   5.9426290   7.8893360  85.8241030   4.4645410   7.6230260  86.0144080
  16.2429880   8.6781690  84.0211220  15.5593400   9.3480800  84.0127890
  16.7824170   8.8762340  83.2556080  13.7788620  10.5225820  82.7356400
  13.7915780  10.1188110  81.8678660  13.2263840  11.2973110  82.6317830
  15.0734040   7.2442040  77.8246570  14.9630370   6.3016370  77.9495990
  15.0702290   7.6057680  78.7109330  13.1774060   5.4255660  84.0639010
  13.5942850   5.2115770  83.2292470  13.9013880   5.6828450  84.6347630
  10.6154320   2.8707360  77.1809060   9.6883600   2.8044740  77.4097530
  10.7679140   3.8087490  77.0664300  17.1236160   3.8242880  84.1555250
  16.2954790   3.8935970  83.6805380  17.7186640   4.4097190  83.6871080
  14.6451610   4.4327660  77.6844310  14.0264030   4.0947210  77.0370610
  14.6276060   3.7887420  78.3923500   6.2210960   3.3972100  79.9628790
   5.8167960   2.6849350  79.4674690   6.3074080   3.0525340  80.8516830
   6.6892660   7.0839660  82.1268000   6.3920950   6.4785130  81.4475780
   7.6392480   7.1216970  82.0157360  14.7778270  10.6571530  85.7891100
  14.3008830  11.4643720  85.5963710  14.0940060  10.0049860  85.9417310
  12.8216310   3.6714470  74.6917060  13.2609590   2.8336900  74.5454880
  13.5344730   4.3043870  74.7781200  10.9311690   8.6110540  78.6598300
  11.3707600   9.3534870  78.2453690  10.8698580   8.8537110  79.5837260
   2.9215590   2.2917080  77.4635440   2.8013190   3.0179170  76.8516710
   2.6116480   1.5219990  76.9863350   1.8048590   7.1632410  79.6810260
   1.3976670   7.3047000  78.8263860   2.6961600   6.8792570  79.4781470
  13.5981870  11.5979660  76.0161310  13.4383010  11.3082600  76.9143140
  13.4328580  10.8219790  75.4806540   6.0770250  11.3778190  77.7932930
   5.9012730  10.4613730  77.5800730   5.2225990  11.7365480  78.0330730
  13.3008000   9.1067220  74.5759310  12.6073160   9.1044510  73.9161590
  14.0430860   8.6826540  74.1453480  12.8657930  10.7329930  78.6507800
  13.3214880   9.9519310  78.9646420  13.2050450  11.4436750  79.1948980
   7.1130280   1.9785800  74.0927620   6.5447180   1.5304050  73.4663530
   7.8219280   2.3378580  73.5592770   8.3396600   2.7274360  83.4502970
   8.7066730   2.2532930  84.1964310   8.1501660   3.6015930  83.7911310
   6.1295970   1.7683000  85.7687180   5.8253040   2.6474980  85.9937540
   7.0842430   1.8282790  85.8044620   4.6577760   5.9743990  76.3654030
   3.8840020   5.4341610  76.2052750   5.3872390   5.4550600  76.0271790
  15.4165740   4.9709350  82.1580420  16.1364860   5.4664640  81.7676530
  15.2147560   4.2927240  81.5134290   4.7015160   5.6424370  80.0032840
   5.2193830   4.8392630  79.9489730   4.2499180   5.5803510  80.8449670
   9.5884660   6.9090650  75.2760140   9.9300360   7.6532880  74.7803460
   8.7597370   7.2221770  75.6384970  15.8638340   2.0478800  74.0651830
  15.7802060   2.4793020  73.2148270  16.5832530   2.5077150  74.4978650
  16.8925590   8.9021060  76.7933960  16.2501750   8.2476680  77.0677680
  16.5056250   9.3076150  76.0174630  12.4712070   6.2306490  80.6405650
  12.8235890   5.6334620  79.9807020  11.5874400   5.9050720  80.8113900
   8.5575350   6.9904180  78.0476060   9.2446480   7.5373390  78.4283650
   7.7707770   7.5344910  78.0825670   7.8602560   3.9950210  77.6601420
   8.3165340   4.8055460  77.8861610   7.5090770   3.6773350  78.4919910
  10.1635170   9.5056550  84.8893720  10.8077390   9.7115930  85.5667140
  10.5264610   8.7444950  84.4364570  11.4367250   7.5088900  83.6071170
  12.0789480   6.8082060  83.7203340  11.9616600   8.2887340  83.4268060
  15.2822970   7.7937520  73.3310310  15.0560550   7.0767960  73.9234950
  14.8919170   7.5449960  72.4932060  14.8639220   5.7109460  74.9924470
  14.5760920   6.1722150  75.7802350  15.6591390   5.2507230  75.2608690
   7.0807620   9.2035580  74.9228440   7.0717720   9.9365270  74.3072950
   6.1605980   8.9567160  75.0155400   2.6814260   4.4250470  75.6675200
   2.0742210   5.1649370  75.6770500   3.1563610   4.5149830  74.8413400
  10.0667220   9.2663820  73.5853630  10.1679200   9.0627810  72.6555610
   9.1668960   9.0122100  73.7901410   8.7085330  11.7850140  78.2801300
   8.9626830  11.7471530  77.3580670   7.7597810  11.6583470  78.2729550
  14.7137910   2.7042020  79.8559810  13.7728050   2.7192250  80.0307500
  15.0281980   1.9177980  80.3020110   4.6919550   4.3861620  73.4163770
   5.4582820   4.2742980  73.9789200   4.7694240   3.6899590  72.7640540
  16.7163490   9.8750870  81.5314070  16.8410910  10.6982040  82.0037880
  17.5829050   9.6641600  81.1838220   4.1881020  11.9682080  81.2031200
   4.9243500  11.4197540  81.4739770   4.5721940  12.8338090  81.0637190
   7.2983330  11.1412390  73.0256770   8.0911940  11.4301220  72.5738560
   6.7787680  10.7104560  72.3469250  16.3513500  10.3682520  74.4493510
  16.0655010   9.9547660  73.6347690  16.1533050  11.2970230  74.3294030
   7.8160730   6.3615800  72.8899120   7.7111370   5.7468150  73.6160500
   7.6484950   5.8381690  72.1062130  11.0563460   5.4235830  73.4941110
  10.5073560   5.8705130  74.1383850  11.6782720   4.9185080  74.0178780
   6.7238580   4.3826750  75.3906410   7.1455000   4.2166620  76.2337800
   6.8489420   3.5726980  74.8961550   9.2366220   3.4064360  72.6383510
   9.7571880   2.6913380  72.2724660   9.8834620   4.0450230  72.9384020
   8.5459290   4.7813240  85.9314510   8.9647400   5.6245970  85.7590750
   7.6267920   4.9185280  85.7021290  13.2211090   3.0666610  85.8914860
  12.6946310   3.5909230  85.2880000  13.5642430   3.6994000  86.5224590
   9.8014250  11.4875970  74.9285250  10.6965040  11.8260940  74.9504010
   9.8331880  10.7655380  74.3009530   3.4410410   6.8603020  73.1572250
   3.8785280   7.4032690  73.8129830   3.9258140   6.0349970  73.1668590
   5.2518130   7.9801060  78.2694480   4.9513670   7.8566030  79.1698390
   5.1455620   7.1209650  77.8610210  18.0210050   7.7597460  72.9721160
  17.1903010   7.8274110  73.4428390  18.1981880   8.6501580  72.6688020
  17.4766510   4.5044940  75.4755360  18.2385420   5.0741590  75.5815050
  17.4920880   3.9372140  76.2463670  18.4826480   5.3595040  80.3197290
  18.8535310   4.5762360  79.9133260  19.1228410   6.0484140  80.1414590
  15.4660240   6.7431620  85.7327610  14.6520080   7.1728780  85.9953400
  15.8734440   7.3550030  85.1196660  17.5285680   4.7979310  72.6327880
  17.8034520   5.7058190  72.5047100  17.3396420   4.7341840  73.5689870
  17.4251020   2.7348300  77.6257310  17.0494620   1.9676230  77.1938600
  16.6954140   3.1171000  78.1132240   2.0146780   3.4135440  84.2466360
   2.3819820   3.3262840  85.1262380   1.4457600   2.6501990  84.1473220
  15.5236290  11.4950220  79.2595880  16.1195360  11.1734790  78.5830300
  15.7814440  11.0222040  80.0509150   7.1304890   9.4827720  85.0096230
   6.8896250   9.7502280  84.1226750   8.0707530   9.6533450  85.0647090
  18.3909050  11.5022100  85.8106870  17.8967330  11.8990970  85.0934000
  17.7822340  10.8771310  86.2044150  16.0748500  12.1445520  83.0893610
  15.6151470  12.8961330  82.7151630  15.4460960  11.4251990  83.0308410
   2.8999120   8.2388760  85.4792330   2.1733180   7.6194050  85.4118280
   2.9608270   8.6329370  84.6090410   6.5044220  10.4533760  82.2641740
   7.0209240   9.8421120  81.7390000   7.1541600  10.9562540  82.7552750
   9.2439720  11.3442250  83.0910720   9.5317530  11.0896550  82.2143730
   9.7562940  10.7919610  83.6816290   2.7891820  10.2496380  76.1339230
   2.2639440  10.6304410  75.4301190   2.7136400  10.8747150  76.8548940
  17.5457140  11.8083920  77.4553170  17.7209330  11.1221660  76.8114090
  16.8478710  12.3330970  77.0629840   5.3884790  12.1978760  75.0088480
   6.1203610  11.9138040  74.4612370   5.6478460  11.9592040  75.8987860
   4.5499580   8.3143490  75.0134810   3.9208460   8.7828590  75.5620640
   4.6647410   7.4692710  75.4481000  10.1367340   4.1428170  63.0445280
   9.3609440   3.6628610  63.3343850  10.7880270   3.4633820  62.8701440
   4.1533170   4.4547980  63.9221040   3.3218050   4.1996690  64.3217550
   4.7614150   4.5258750  64.6578960  14.1574770   8.5488360  61.8244410
  13.6956300   7.7775600  62.1531580  14.9700320   8.5754430  62.3296860
   4.1334430   8.4888070  64.1179060   4.4362470   7.5985810  63.9389280
   4.8778020   9.0458290  63.8901310  10.3838080  10.8346370  61.4448400
   9.7649520  11.2903870  60.8742840  11.2389860  10.9897830  61.0438100
   9.5776330   6.8185360  63.0515440   9.5084610   5.8775300  62.8904570
  10.3396190   6.9086770  63.6238010  11.2501430   5.7185610  58.8380310
  10.6318700   6.1835060  58.2743030  11.7624680   6.4113090  59.2549820
   6.1133190   5.2461480  65.5163910   5.7802570   5.8730400  66.1584980
   6.2899870   5.7723360  64.7365580   5.3252290   7.2142280  67.3313090
   5.9426290   7.8893360  67.0497540   4.4645410   7.6230260  67.2400590
  16.2429880   8.6781690  65.2467730  15.5593400   9.3480800  65.2384400
  16.7824170   8.8762340  64.4812590  13.7788620  10.5225820  63.9612910
  13.7915780  10.1188110  63.0935170  13.2263840  11.2973110  63.8574340
  15.0734040   7.2442040  59.0503080  14.9630370   6.3016370  59.1752500
  15.0702290   7.6057680  59.9365840  13.1774060   5.4255660  65.2895520
  13.5942850   5.2115770  64.4548980  13.9013880   5.6828450  65.8604140
  10.6154320   2.8707360  58.4065570   9.6883600   2.8044740  58.6354040
  10.7679140   3.8087490  58.2920810  17.1236160   3.8242880  65.3811760
  16.2954790   3.8935970  64.9061890  17.7186640   4.4097190  64.9127590
  14.6451610   4.4327660  58.9100820  14.0264030   4.0947210  58.2627120
  14.6276060   3.7887420  59.6180010   6.2210960   3.3972100  61.1885300
   5.8167960   2.6849350  60.6931200   6.3074080   3.0525340  62.0773340
   6.6892660   7.0839660  63.3524510   6.3920950   6.4785130  62.6732290
   7.6392480   7.1216970  63.2413870  14.7778270  10.6571530  67.0147610
  14.3008830  11.4643720  66.8220220  14.0940060  10.0049860  67.1673820
   5.7811090   6.8221350  70.0032310   4.8839620   7.0461320  70.2505710
   5.8063960   6.9456290  69.0543710  12.8216310   3.6714470  55.9173570
  13.2609590   2.8336900  55.7711390  13.5344730   4.3043870  56.0037710
   4.6082310   3.6934670  68.5789680   4.4690080   4.5657470  68.9477080
   3.7263670   3.3507480  68.4337620  10.9311690   8.6110540  59.8854810
  11.3707600   9.3534870  59.4710200  10.8698580   8.8537110  60.8093770
   6.4062660   9.6356370  70.7874830   6.3778090  10.0399320  69.9203260
   6.2427630   8.7066730  70.6246430   2.9215590   2.2917080  58.6891950
   2.8013190   3.0179170  58.0773220   2.6116480   1.5219990  58.2119860
  18.3577480  10.4183470  72.0839000  18.8337200  10.8966360  72.7628080
  18.9784640  10.3500960  71.3584500   1.8048590   7.1632410  60.9066770
   1.3976670   7.3047000  60.0520370   2.6961600   6.8792570  60.7037980
  17.7610730   7.6096320  69.2439010  17.8873790   7.3708200  68.3256190
  17.8032110   6.7780860  69.7161090  11.6227470  11.3124320  67.8133820
  12.1372140  11.2232330  68.6156250  10.7796550  11.6584020  68.1061730
  13.5981870  11.5979660  57.2417820  13.4383010  11.3082600  58.1399650
  13.4328580  10.8219790  56.7063050   6.0770250  11.3778190  59.0189440
   5.9012730  10.4613730  58.8057240   5.2225990  11.7365480  59.2587240
  13.3008000   9.1067220  55.8015820  12.6073160   9.1044510  55.1418100
  14.0430860   8.6826540  55.3709990  12.8657930  10.7329930  59.8764310
  13.3214880   9.9519310  60.1902930  13.2050450  11.4436750  60.4205490
   7.1130280   1.9785800  55.3184130   6.5447180   1.5304050  54.6920040
   7.8219280   2.3378580  54.7849280   2.1899460   5.8797820  69.1950860
   1.8054250   5.2391490  69.7933820   2.5011650   6.5833940  69.7645590
   8.3396600   2.7274360  64.6759480   8.7066730   2.2532930  65.4220820
   8.1501660   3.6015930  65.0167820   6.1295970   1.7683000  66.9943690
   5.8253040   2.6474980  67.2194050   7.0842430   1.8282790  67.0301130
   4.6577760   5.9743990  57.5910540   3.8840020   5.4341610  57.4309260
   5.3872390   5.4550600  57.2528300  15.4165740   4.9709350  63.3836930
  16.1364860   5.4664640  62.9933040  15.2147560   4.2927240  62.7390800
  10.7984540   5.0418410  69.2705930  10.7321850   4.1214080  69.0163520
  10.1689680   5.1393850  69.9850570   4.7015160   5.6424370  61.2289350
   5.2193830   4.8392630  61.1746240   4.2499180   5.5803510  62.0706180
   9.5884660   6.9090650  56.5016650   9.9300360   7.6532880  56.0059970
   8.7597370   7.2221770  56.8641480   2.1859700   2.6085740  68.1415050
   1.8274640   3.2739590  68.7288390   1.8914260   1.7769290  68.5127670
   5.3872820   3.0669980  71.0254600   5.0872960   3.2127160  70.1282420
   6.1584060   2.5075270  70.9327990  10.7301270   7.8638980  69.0209730
  10.7445810   6.9319940  68.8028640  10.0226370   7.9498740  69.6599500
  15.8638340   2.0478800  55.2908340  15.7802060   2.4793020  54.4404780
  16.5832530   2.5077150  55.7235160  16.9412480   4.5046320  68.3678310
  16.2160670   5.0975100  68.1707700  17.4687940   4.4969860  67.5691680
  16.8925590   8.9021060  58.0190470  16.2501750   8.2476680  58.2934190
  16.5056250   9.3076150  57.2431140  12.4712070   6.2306490  61.8662160
  12.8235890   5.6334620  61.2063530  11.5874400   5.9050720  62.0370410
   8.5575350   6.9904180  59.2732570   9.2446480   7.5373390  59.6540160
   7.7707770   7.5344910  59.3082180   7.8602560   3.9950210  58.8857930
   8.3165340   4.8055460  59.1118120   7.5090770   3.6773350  59.7176420
  10.1635170   9.5056550  66.1150230  10.8077390   9.7115930  66.7923650
  10.5264610   8.7444950  65.6621080  11.4367250   7.5088900  64.8327680
  12.0789480   6.8082060  64.9459850  11.9616600   8.2887340  64.6524570
  15.2822970   7.7937520  54.5566820  15.0560550   7.0767960  55.1491460
  14.8919170   7.5449960  53.7188570  13.2104870   8.3083800  68.0363740
  13.5461110   8.8950490  68.7141660  12.2905210   8.1776510  68.2661530
  14.8639220   5.7109460  56.2180980  14.5760920   6.1722150  57.0058860
  15.6591390   5.2507230  56.4865200   9.0393450   8.3575130  71.2051800
   8.7190320   7.6384370  71.7497490   8.3651810   9.0330200  71.2787860
   7.0807620   9.2035580  56.1484950   7.0717720   9.9365270  55.5329460
   6.1605980   8.9567160  56.2411910   2.6814260   4.4250470  56.8931710
   2.0742210   5.1649370  56.9027010   3.1563610   4.5149830  56.0669910
  10.0667220   9.2663820  54.8110140  10.1679200   9.0627810  53.8812120
   9.1668960   9.0122100  55.0157920   8.7085330  11.7850140  59.5057810
   8.9626830  11.7471530  58.5837180   7.7597810  11.6583470  59.4986060
  14.7137910   2.7042020  61.0816320  13.7728050   2.7192250  61.2564010
  15.0281980   1.9177980  61.5276620   4.6919550   4.3861620  54.6420280
   5.4582820   4.2742980  55.2045710   4.7694240   3.6899590  53.9897050
  16.7163490   9.8750870  62.7570580  16.8410910  10.6982040  63.2294390
  17.5829050   9.6641600  62.4094730   4.1881020  11.9682080  62.4287710
   4.9243500  11.4197540  62.6996280   4.5721940  12.8338090  62.2893700
   3.1939300  11.1528150  71.6173290   3.9952030  11.4740200  72.0308690
   2.6791120  10.7923730  72.3393200   7.2983330  11.1412390  54.2513280
   8.0911940  11.4301220  53.7995070   6.7787680  10.7104560  53.5725760
  12.0303930   7.2608020  71.5648700  11.4242090   7.2839620  70.8244450
  11.7258040   6.5291060  72.1015950  13.4604300  10.9888310  70.1758110
  14.4126050  10.9046330  70.1258350  13.3132520  11.6530020  70.8491900
  16.3513500  10.3682520  55.6750020  16.0655010   9.9547660  54.8604200
  16.1533050  11.2970230  55.5550540   7.8160730   6.3615800  54.1155630
   7.7111370   5.7468150  54.8417010   7.6484950   5.8381690  53.3318640
   7.9675050   5.0472600  70.0944860   7.2020720   5.6157600  70.0099530
   8.1491010   4.7548810  69.2013090  11.0563460   5.4235830  54.7197620
  10.5073560   5.8705130  55.3640360  11.6782720   4.9185080  55.2435290
  15.1098400   6.7777930  70.6519880  15.8507870   7.1153690  70.1487340
  14.3471080   6.9469990  70.0989650   2.9460190   1.7831200  71.4559410
   2.9865530   1.4845070  72.3644640   3.8005690   2.1838810  71.2966930
   6.7238580   4.3826750  56.6162920   7.1455000   4.2166620  57.4594310
   6.8489420   3.5726980  56.1218060   9.2366220   3.4064360  53.8640020
   9.7571880   2.6913380  53.4981170   9.8834620   4.0450230  54.1640530
  13.7844060   4.8292760  69.1875090  14.1985080   4.9837840  70.0365510
  12.8495060   4.9547980  69.3500870   8.5459290   4.7813240  67.1571020
   8.9647400   5.6245970  66.9847260   7.6267920   4.9185280  66.9277800
  10.8823190   2.5129420  68.5408860  11.0019400   1.9170560  69.2803700
  11.7417190   2.5499110  68.1210160  13.2211090   3.0666610  67.1171370
  12.6946310   3.5909230  66.5136510  13.5642430   3.6994000  67.7481100
   6.3966710  11.0866250  68.2728750   5.8587800  11.8112310  67.9537450
   6.6500670  10.6096590  67.4826090   9.2528920  12.3217460  68.5315400
   9.1787620  13.2252600  68.8387770   8.3507760  12.0029360  68.5037470
   9.8014250  11.4875970  56.1541760  10.6965040  11.8260940  56.1760520
   9.8331880  10.7655380  55.5266040   3.4410410   6.8603020  54.3828760
   3.8785280   7.4032690  55.0386340   3.9258140   6.0349970  54.3925100
   5.2518130   7.9801060  59.4950990   4.9513670   7.8566030  60.3954900
   5.1455620   7.1209650  59.0866720  16.7808600  10.0179640  68.8607960
  16.1810590  10.0772200  68.1171880  16.9102500   9.0784620  68.9904810
  18.0210050   7.7597460  54.1977670  17.1903010   7.8274110  54.6684900
  18.1981880   8.6501580  53.8944530  17.4766510   4.5044940  56.7011870
  18.2385420   5.0741590  56.8071560  17.4920880   3.9372140  57.4720180
  18.4826480   5.3595040  61.5453800  18.8535310   4.5762360  61.1389770
  19.1228410   6.0484140  61.3671100  15.4660240   6.7431620  66.9584120
  14.6520080   7.1728780  67.2209910  15.8734440   7.3550030  66.3453170
  17.5285680   4.7979310  53.8584390  17.8034520   5.7058190  53.7303610
  17.3396420   4.7341840  54.7946380  17.4251020   2.7348300  58.8513820
  17.0494620   1.9676230  58.4195110  16.6954140   3.1171000  59.3388750
   2.0146780   3.4135440  65.4722870   2.3819820   3.3262840  66.3518890
   1.4457600   2.6501990  65.3729730  16.8150640   1.8819820  68.4853340
  16.5836730   1.6532570  67.5851290  17.0755190   2.8019370  68.4398230
  15.5236290  11.4950220  60.4852390  16.1195360  11.1734790  59.8086810
  15.7814440  11.0222040  61.2765660   3.4298860   7.9268130  70.6343020
   3.3868490   7.5561040  71.5157480   3.5609870   8.8645700  70.7744840
   7.1304890   9.4827720  66.2352740   6.8896250   9.7502280  65.3483260
   8.0707530   9.6533450  66.2903600  18.3909050  11.5022100  67.0363380
  17.8967330  11.8990970  66.3190510  17.7822340  10.8771310  67.4300660
   3.2686890  10.8730380  67.7540800   2.6747210  10.7415080  68.4930840
   3.2610730  10.0368520  67.2882900  16.0748500  12.1445520  64.3150120
  15.6151470  12.8961330  63.9408140  15.4460960  11.4251990  64.2564920
   2.8999120   8.2388760  66.7048840   2.1733180   7.6194050  66.6374790
   2.9608270   8.6329370  65.8346920   6.5044220  10.4533760  63.4898250
   7.0209240   9.8421120  62.9646510   7.1541600  10.9562540  63.9809260
   9.2439720  11.3442250  64.3167230   9.5317530  11.0896550  63.4400240
   9.7562940  10.7919610  64.9072800   2.7891820  10.2496380  57.3595740
   2.2639440  10.6304410  56.6557700   2.7136400  10.8747150  58.0805450
   9.3112080  12.2658350  71.6835430  10.2379390  12.0302620  71.7271390
   9.2962510  13.0930350  71.2021460  17.5457140  11.8083920  58.6809680
  17.7209330  11.1221660  58.0370600  16.8478710  12.3330970  58.2886350
   5.3884790  12.1978760  56.2344990   6.1203610  11.9138040  55.6868880
   5.6478460  11.9592040  57.1244370   4.5499580   8.3143490  56.2391320
   3.9208460   8.7828590  56.7877150   4.6647410   7.4692710  56.6737510
  15.8789640  11.4928210  71.5076470  16.6714960  10.9977440  71.3002430
  16.1722790  12.1718350  72.1152080  10.1367340   4.1428170  44.2701790
   9.3609440   3.6628610  44.5600360  10.7880270   3.4633820  44.0957950
   4.1533170   4.4547980  45.1477550   3.3218050   4.1996690  45.5474060
   4.7614150   4.5258750  45.8835470  14.1574770   8.5488360  43.0500920
  13.6956300   7.7775600  43.3788090  14.9700320   8.5754430  43.5553370
   4.1334430   8.4888070  45.3435570   4.4362470   7.5985810  45.1645790
   4.8778020   9.0458290  45.1157820  10.3838080  10.8346370  42.6704910
   9.7649520  11.2903870  42.0999350  11.2389860  10.9897830  42.2694610
   9.5776330   6.8185360  44.2771950   9.5084610   5.8775300  44.1161080
  10.3396190   6.9086770  44.8494520  11.2501430   5.7185610  40.0636820
  10.6318700   6.1835060  39.4999540  11.7624680   6.4113090  40.4806330
   6.1133190   5.2461480  46.7420420   5.7802570   5.8730400  47.3841490
   6.2899870   5.7723360  45.9622090   5.3252290   7.2142280  48.5569600
   5.9426290   7.8893360  48.2754050   4.4645410   7.6230260  48.4657100
  16.2429880   8.6781690  46.4724240  15.5593400   9.3480800  46.4640910
  16.7824170   8.8762340  45.7069100  13.7788620  10.5225820  45.1869420
  13.7915780  10.1188110  44.3191680  13.2263840  11.2973110  45.0830850
  15.0734040   7.2442040  40.2759590  14.9630370   6.3016370  40.4009010
  15.0702290   7.6057680  41.1622350  13.1774060   5.4255660  46.5152030
  13.5942850   5.2115770  45.6805490  13.9013880   5.6828450  47.0860650
  10.6154320   2.8707360  39.6322080   9.6883600   2.8044740  39.8610550
  10.7679140   3.8087490  39.5177320  17.1236160   3.8242880  46.6068270
  16.2954790   3.8935970  46.1318400  17.7186640   4.4097190  46.1384100
  14.6451610   4.4327660  40.1357330  14.0264030   4.0947210  39.4883630
  14.6276060   3.7887420  40.8436520   6.2210960   3.3972100  42.4141810
   5.8167960   2.6849350  41.9187710   6.3074080   3.0525340  43.3029850
   6.6892660   7.0839660  44.5781020   6.3920950   6.4785130  43.8988800
   7.6392480   7.1216970  44.4670380  14.7778270  10.6571530  48.2404120
  14.3008830  11.4643720  48.0476730  14.0940060  10.0049860  48.3930330
   5.7811090   6.8221350  51.2288820   4.8839620   7.0461320  51.4762220
   5.8063960   6.9456290  50.2800220  12.8216310   3.6714470  37.1430080
  13.2609590   2.8336900  36.9967900  13.5344730   4.3043870  37.2294220
   4.6082310   3.6934670  49.8046190   4.4690080   4.5657470  50.1733590
   3.7263670   3.3507480  49.6594130  10.9311690   8.6110540  41.1111320
  11.3707600   9.3534870  40.6966710  10.8698580   8.8537110  42.0350280
   6.4062660   9.6356370  52.0131340   6.3778090  10.0399320  51.1459770
   6.2427630   8.7066730  51.8502940   2.9215590   2.2917080  39.9148460
   2.8013190   3.0179170  39.3029730   2.6116480   1.5219990  39.4376370
  18.3577480  10.4183470  53.3095510  18.8337200  10.8966360  53.9884590
  18.9784640  10.3500960  52.5841010   1.8048590   7.1632410  42.1323280
   1.3976670   7.3047000  41.2776880   2.6961600   6.8792570  41.9294490
  17.7610730   7.6096320  50.4695520  17.8873790   7.3708200  49.5512700
  17.8032110   6.7780860  50.9417600  11.6227470  11.3124320  49.0390330
  12.1372140  11.2232330  49.8412760  10.7796550  11.6584020  49.3318240
  13.5981870  11.5979660  38.4674330  13.4383010  11.3082600  39.3656160
  13.4328580  10.8219790  37.9319560   6.0770250  11.3778190  40.2445950
   5.9012730  10.4613730  40.0313750   5.2225990  11.7365480  40.4843750
  13.3008000   9.1067220  37.0272330  12.6073160   9.1044510  36.3674610
  14.0430860   8.6826540  36.5966500  12.8657930  10.7329930  41.1020820
  13.3214880   9.9519310  41.4159440  13.2050450  11.4436750  41.6462000
   7.1130280   1.9785800  36.5440640   6.5447180   1.5304050  35.9176550
   7.8219280   2.3378580  36.0105790   2.1899460   5.8797820  50.4207370
   1.8054250   5.2391490  51.0190330   2.5011650   6.5833940  50.9902100
   8.3396600   2.7274360  45.9015990   8.7066730   2.2532930  46.6477330
   8.1501660   3.6015930  46.2424330   6.1295970   1.7683000  48.2200200
   5.8253040   2.6474980  48.4450560   7.0842430   1.8282790  48.2557640
   4.6577760   5.9743990  38.8167050   3.8840020   5.4341610  38.6565770
   5.3872390   5.4550600  38.4784810  15.4165740   4.9709350  44.6093440
  16.1364860   5.4664640  44.2189550  15.2147560   4.2927240  43.9647310
  10.7984540   5.0418410  50.4962440  10.7321850   4.1214080  50.2420030
  10.1689680   5.1393850  51.2107080   4.7015160   5.6424370  42.4545860
   5.2193830   4.8392630  42.4002750   4.2499180   5.5803510  43.2962690
   9.5884660   6.9090650  37.7273160   9.9300360   7.6532880  37.2316480
   8.7597370   7.2221770  38.0897990   2.1859700   2.6085740  49.3671560
   1.8274640   3.2739590  49.9544900   1.8914260   1.7769290  49.7384180
   5.3872820   3.0669980  52.2511110   5.0872960   3.2127160  51.3538930
   6.1584060   2.5075270  52.1584500  10.7301270   7.8638980  50.2466240
  10.7445810   6.9319940  50.0285150  10.0226370   7.9498740  50.8856010
  15.8638340   2.0478800  36.5164850  15.7802060   2.4793020  35.6661290
  16.5832530   2.5077150  36.9491670  16.9412480   4.5046320  49.5934820
  16.2160670   5.0975100  49.3964210  17.4687940   4.4969860  48.7948190
  16.8925590   8.9021060  39.2446980  16.2501750   8.2476680  39.5190700
  16.5056250   9.3076150  38.4687650  12.4712070   6.2306490  43.0918670
  12.8235890   5.6334620  42.4320040  11.5874400   5.9050720  43.2626920
   8.5575350   6.9904180  40.4989080   9.2446480   7.5373390  40.8796670
   7.7707770   7.5344910  40.5338690   7.8602560   3.9950210  40.1114440
   8.3165340   4.8055460  40.3374630   7.5090770   3.6773350  40.9432930
  10.1635170   9.5056550  47.3406740  10.8077390   9.7115930  48.0180160
  10.5264610   8.7444950  46.8877590  11.4367250   7.5088900  46.0584190
  12.0789480   6.8082060  46.1716360  11.9616600   8.2887340  45.8781080
  15.2822970   7.7937520  35.7823330  15.0560550   7.0767960  36.3747970
  14.8919170   7.5449960  34.9445080  13.2104870   8.3083800  49.2620250
  13.5461110   8.8950490  49.9398170  12.2905210   8.1776510  49.4918040
  14.8639220   5.7109460  37.4437490  14.5760920   6.1722150  38.2315370
  15.6591390   5.2507230  37.7121710   9.0393450   8.3575130  52.4308310
   8.7190320   7.6384370  52.9754000   8.3651810   9.0330200  52.5044370
   7.0807620   9.2035580  37.3741460   7.0717720   9.9365270  36.7585970
   6.1605980   8.9567160  37.4668420   2.6814260   4.4250470  38.1188220
   2.0742210   5.1649370  38.1283520   3.1563610   4.5149830  37.2926420
  10.0667220   9.2663820  36.0366650  10.1679200   9.0627810  35.1068630
   9.1668960   9.0122100  36.2414430   8.7085330  11.7850140  40.7314320
   8.9626830  11.7471530  39.8093690   7.7597810  11.6583470  40.7242570
  14.7137910   2.7042020  42.3072830  13.7728050   2.7192250  42.4820520
  15.0281980   1.9177980  42.7533130   4.6919550   4.3861620  35.8676790
   5.4582820   4.2742980  36.4302220   4.7694240   3.6899590  35.2153560
  16.7163490   9.8750870  43.9827090  16.8410910  10.6982040  44.4550900
  17.5829050   9.6641600  43.6351240   4.1881020  11.9682080  43.6544220
   4.9243500  11.4197540  43.9252790   4.5721940  12.8338090  43.5150210
   3.1939300  11.1528150  52.8429800   3.9952030  11.4740200  53.2565200
   2.6791120  10.7923730  53.5649710   7.2983330  11.1412390  35.4769790
   8.0911940  11.4301220  35.0251580   6.7787680  10.7104560  34.7982270
  12.0303930   7.2608020  52.7905210  11.4242090   7.2839620  52.0500960
  11.7258040   6.5291060  53.3272460  13.4604300  10.9888310  51.4014620
  14.4126050  10.9046330  51.3514860  13.3132520  11.6530020  52.0748410
  16.3513500  10.3682520  36.9006530  16.0655010   9.9547660  36.0860710
  16.1533050  11.2970230  36.7807050   7.8160730   6.3615800  35.3412140
   7.7111370   5.7468150  36.0673520   7.6484950   5.8381690  34.5575150
   7.9675050   5.0472600  51.3201370   7.2020720   5.6157600  51.2356040
   8.1491010   4.7548810  50.4269600  11.0563460   5.4235830  35.9454130
  10.5073560   5.8705130  36.5896870  11.6782720   4.9185080  36.4691800
  15.1098400   6.7777930  51.8776390  15.8507870   7.1153690  51.3743850
  14.3471080   6.9469990  51.3246160   2.9460190   1.7831200  52.6815920
   2.9865530   1.4845070  53.5901150   3.8005690   2.1838810  52.5223440
   6.7238580   4.3826750  37.8419430   7.1455000   4.2166620  38.6850820
   6.8489420   3.5726980  37.3474570   9.2366220   3.4064360  35.0896530
   9.7571880   2.6913380  34.7237680   9.8834620   4.0450230  35.3897040
  13.7844060   4.8292760  50.4131600  14.1985080   4.9837840  51.2622020
  12.8495060   4.9547980  50.5757380   8.5459290   4.7813240  48.3827530
   8.9647400   5.6245970  48.2103770   7.6267920   4.9185280  48.1534310
  10.8823190   2.5129420  49.7665370  11.0019400   1.9170560  50.5060210
  11.7417190   2.5499110  49.3466670  13.2211090   3.0666610  48.3427880
  12.6946310   3.5909230  47.7393020  13.5642430   3.6994000  48.9737610
   6.3966710  11.0866250  49.4985260   5.8587800  11.8112310  49.1793960
   6.6500670  10.6096590  48.7082600   9.2528920  12.3217460  49.7571910
   9.1787620  13.2252600  50.0644280   8.3507760  12.0029360  49.7293980
   9.8014250  11.4875970  37.3798270  10.6965040  11.8260940  37.4017030
   9.8331880  10.7655380  36.7522550   3.4410410   6.8603020  35.6085270
   3.8785280   7.4032690  36.2642850   3.9258140   6.0349970  35.6181610
   5.2518130   7.9801060  40.7207500   4.9513670   7.8566030  41.6211410
   5.1455620   7.1209650  40.3123230  16.7808600  10.0179640  50.0864470
  16.1810590  10.0772200  49.3428390  16.9102500   9.0784620  50.2161320
  18.0210050   7.7597460  35.4234180  17.1903010   7.8274110  35.8941410
  18.1981880   8.6501580  35.1201040  17.4766510   4.5044940  37.9268380
  18.2385420   5.0741590  38.0328070  17.4920880   3.9372140  38.6976690
  18.4826480   5.3595040  42.7710310  18.8535310   4.5762360  42.3646280
  19.1228410   6.0484140  42.5927610  15.4660240   6.7431620  48.1840630
  14.6520080   7.1728780  48.4466420  15.8734440   7.3550030  47.5709680
  17.5285680   4.7979310  35.0840900  17.8034520   5.7058190  34.9560120
  17.3396420   4.7341840  36.0202890  17.4251020   2.7348300  40.0770330
  17.0494620   1.9676230  39.6451620  16.6954140   3.1171000  40.5645260
   2.0146780   3.4135440  46.6979380   2.3819820   3.3262840  47.5775400
   1.4457600   2.6501990  46.5986240  16.8150640   1.8819820  49.7109850
  16.5836730   1.6532570  48.8107800  17.0755190   2.8019370  49.6654740
  15.5236290  11.4950220  41.7108900  16.1195360  11.1734790  41.0343320
  15.7814440  11.0222040  42.5022170   3.4298860   7.9268130  51.8599530
   3.3868490   7.5561040  52.7413990   3.5609870   8.8645700  52.0001350
   7.1304890   9.4827720  47.4609250   6.8896250   9.7502280  46.5739770
   8.0707530   9.6533450  47.5160110  18.3909050  11.5022100  48.2619890
  17.8967330  11.8990970  47.5447020  17.7822340  10.8771310  48.6557170
   3.2686890  10.8730380  48.9797310   2.6747210  10.7415080  49.7187350
   3.2610730  10.0368520  48.5139410  16.0748500  12.1445520  45.5406630
  15.6151470  12.8961330  45.1664650  15.4460960  11.4251990  45.4821430
   2.8999120   8.2388760  47.9305350   2.1733180   7.6194050  47.8631300
   2.9608270   8.6329370  47.0603430   6.5044220  10.4533760  44.7154760
   7.0209240   9.8421120  44.1903020   7.1541600  10.9562540  45.2065770
   9.2439720  11.3442250  45.5423740   9.5317530  11.0896550  44.6656750
   9.7562940  10.7919610  46.1329310   2.7891820  10.2496380  38.5852250
   2.2639440  10.6304410  37.8814210   2.7136400  10.8747150  39.3061960
   9.3112080  12.2658350  52.9091940  10.2379390  12.0302620  52.9527900
   9.2962510  13.0930350  52.4277970  17.5457140  11.8083920  39.9066190
  17.7209330  11.1221660  39.2627110  16.8478710  12.3330970  39.5142860
   5.3884790  12.1978760  37.4601500   6.1203610  11.9138040  36.9125390
   5.6478460  11.9592040  38.3500880   4.5499580   8.3143490  37.4647830
   3.9208460   8.7828590  38.0133660   4.6647410   7.4692710  37.8994020
  15.8789640  11.4928210  52.7332980  16.6714960  10.9977440  52.5258940
  16.1722790  12.1718350  53.3408590  10.1367340   4.1428170  25.4958300
   9.3609440   3.6628610  25.7856870  10.7880270   3.4633820  25.3214460
   4.1533170   4.4547980  26.3734060   3.3218050   4.1996690  26.7730570
   4.7614150   4.5258750  27.1091980  14.1574770   8.5488360  24.2757430
  13.6956300   7.7775600  24.6044600  14.9700320   8.5754430  24.7809880
   4.1334430   8.4888070  26.5692080   4.4362470   7.5985810  26.3902300
   4.8778020   9.0458290  26.3414330  10.3838080  10.8346370  23.8961420
   9.7649520  11.2903870  23.3255860  11.2389860  10.9897830  23.4951120
   9.5776330   6.8185360  25.5028460   9.5084610   5.8775300  25.3417590
  10.3396190   6.9086770  26.0751030  11.2501430   5.7185610  21.2893330
  10.6318700   6.1835060  20.7256050  11.7624680   6.4113090  21.7062840
   6.1133190   5.2461480  27.9676930   5.7802570   5.8730400  28.6098000
   6.2899870   5.7723360  27.1878600   5.3252290   7.2142280  29.7826110
   5.9426290   7.8893360  29.5010560   4.4645410   7.6230260  29.6913610
  16.2429880   8.6781690  27.6980750  15.5593400   9.3480800  27.6897420
  16.7824170   8.8762340  26.9325610  13.7788620  10.5225820  26.4125930
  13.7915780  10.1188110  25.5448190  13.2263840  11.2973110  26.3087360
  15.0734040   7.2442040  21.5016100  14.9630370   6.3016370  21.6265520
  15.0702290   7.6057680  22.3878860  13.1774060   5.4255660  27.7408540
  13.5942850   5.2115770  26.9062000  13.9013880   5.6828450  28.3117160
  10.6154320   2.8707360  20.8578590   9.6883600   2.8044740  21.0867060
  10.7679140   3.8087490  20.7433830  17.1236160   3.8242880  27.8324780
  16.2954790   3.8935970  27.3574910  17.7186640   4.4097190  27.3640610
  14.6451610   4.4327660  21.3613840  14.0264030   4.0947210  20.7140140
  14.6276060   3.7887420  22.0693030   6.2210960   3.3972100  23.6398320
   5.8167960   2.6849350  23.1444220   6.3074080   3.0525340  24.5286360
   6.6892660   7.0839660  25.8037530   6.3920950   6.4785130  25.1245310
   7.6392480   7.1216970  25.6926890  14.7778270  10.6571530  29.4660630
  14.3008830  11.4643720  29.2733240  14.0940060  10.0049860  29.6186840
   5.7811090   6.8221350  32.4545330   4.8839620   7.0461320  32.7018730
   5.8063960   6.9456290  31.5056730  12.8216310   3.6714470  18.3686590
  13.2609590   2.8336900  18.2224410  13.5344730   4.3043870  18.4550730
   4.6082310   3.6934670  31.0302700   4.4690080   4.5657470  31.3990100
   3.7263670   3.3507480  30.8850640  10.9311690   8.6110540  22.3367830
  11.3707600   9.3534870  21.9223220  10.8698580   8.8537110  23.2606790
   6.4062660   9.6356370  33.2387850   6.3778090  10.0399320  32.3716280
   6.2427630   8.7066730  33.0759450   2.9215590   2.2917080  21.1404970
   2.8013190   3.0179170  20.5286240   2.6116480   1.5219990  20.6632880
  18.3577480  10.4183470  34.5352020  18.8337200  10.8966360  35.2141100
  18.9784640  10.3500960  33.8097520   1.8048590   7.1632410  23.3579790
   1.3976670   7.3047000  22.5033390   2.6961600   6.8792570  23.1551000
  17.7610730   7.6096320  31.6952030  17.8873790   7.3708200  30.7769210
  17.8032110   6.7780860  32.1674110  11.6227470  11.3124320  30.2646840
  12.1372140  11.2232330  31.0669270  10.7796550  11.6584020  30.5574750
  13.5981870  11.5979660  19.6930840  13.4383010  11.3082600  20.5912670
  13.4328580  10.8219790  19.1576070   6.0770250  11.3778190  21.4702460
   5.9012730  10.4613730  21.2570260   5.2225990  11.7365480  21.7100260
  13.3008000   9.1067220  18.2528840  12.6073160   9.1044510  17.5931120
  14.0430860   8.6826540  17.8223010  12.8657930  10.7329930  22.3277330
  13.3214880   9.9519310  22.6415950  13.2050450  11.4436750  22.8718510
   7.1130280   1.9785800  17.7697150   6.5447180   1.5304050  17.1433060
   7.8219280   2.3378580  17.2362300   2.1899460   5.8797820  31.6463880
   1.8054250   5.2391490  32.2446840   2.5011650   6.5833940  32.2158610
   8.3396600   2.7274360  27.1272500   8.7066730   2.2532930  27.8733840
   8.1501660   3.6015930  27.4680840   6.1295970   1.7683000  29.4456710
   5.8253040   2.6474980  29.6707070   7.0842430   1.8282790  29.4814150
   4.6577760   5.9743990  20.0423560   3.8840020   5.4341610  19.8822280
   5.3872390   5.4550600  19.7041320  15.4165740   4.9709350  25.8349950
  16.1364860   5.4664640  25.4446060  15.2147560   4.2927240  25.1903820
  10.7984540   5.0418410  31.7218950  10.7321850   4.1214080  31.4676540
  10.1689680   5.1393850  32.4363590   4.7015160   5.6424370  23.6802370
   5.2193830   4.8392630  23.6259260   4.2499180   5.5803510  24.5219200
   9.5884660   6.9090650  18.9529670   9.9300360   7.6532880  18.4572990
   8.7597370   7.2221770  19.3154500   2.1859700   2.6085740  30.5928070
   1.8274640   3.2739590  31.1801410   1.8914260   1.7769290  30.9640690
   5.3872820   3.0669980  33.4767620   5.0872960   3.2127160  32.5795440
   6.1584060   2.5075270  33.3841010  10.7301270   7.8638980  31.4722750
  10.7445810   6.9319940  31.2541660  10.0226370   7.9498740  32.1112520
  15.8638340   2.0478800  17.7421360  15.7802060   2.4793020  16.8917800
  16.5832530   2.5077150  18.1748180  16.9412480   4.5046320  30.8191330
  16.2160670   5.0975100  30.6220720  17.4687940   4.4969860  30.0204700
  16.8925590   8.9021060  20.4703490  16.2501750   8.2476680  20.7447210
  16.5056250   9.3076150  19.6944160  12.4712070   6.2306490  24.3175180
  12.8235890   5.6334620  23.6576550  11.5874400   5.9050720  24.4883430
   8.5575350   6.9904180  21.7245590   9.2446480   7.5373390  22.1053180
   7.7707770   7.5344910  21.7595200   7.8602560   3.9950210  21.3370950
   8.3165340   4.8055460  21.5631140   7.5090770   3.6773350  22.1689440
  10.1635170   9.5056550  28.5663250  10.8077390   9.7115930  29.2436670
  10.5264610   8.7444950  28.1134100  11.4367250   7.5088900  27.2840700
  12.0789480   6.8082060  27.3972870  11.9616600   8.2887340  27.1037590
  15.2822970   7.7937520  17.0079840  15.0560550   7.0767960  17.6004480
  14.8919170   7.5449960  16.1701590  13.2104870   8.3083800  30.4876760
  13.5461110   8.8950490  31.1654680  12.2905210   8.1776510  30.7174550
  14.8639220   5.7109460  18.6694000  14.5760920   6.1722150  19.4571880
  15.6591390   5.2507230  18.9378220   9.0393450   8.3575130  33.6564820
   8.7190320   7.6384370  34.2010510   8.3651810   9.0330200  33.7300880
   7.0807620   9.2035580  18.5997970   7.0717720   9.9365270  17.9842480
   6.1605980   8.9567160  18.6924930   2.6814260   4.4250470  19.3444730
   2.0742210   5.1649370  19.3540030   3.1563610   4.5149830  18.5182930
  10.0667220   9.2663820  17.2623160  10.1679200   9.0627810  16.3325140
   9.1668960   9.0122100  17.4670940   8.7085330  11.7850140  21.9570830
   8.9626830  11.7471530  21.0350200   7.7597810  11.6583470  21.9499080
  14.7137910   2.7042020  23.5329340  13.7728050   2.7192250  23.7077030
  15.0281980   1.9177980  23.9789640   4.6919550   4.3861620  17.0933300
   5.4582820   4.2742980  17.6558730   4.7694240   3.6899590  16.4410070
  16.7163490   9.8750870  25.2083600  16.8410910  10.6982040  25.6807410
  17.5829050   9.6641600  24.8607750   4.1881020  11.9682080  24.8800730
   4.9243500  11.4197540  25.1509300   4.5721940  12.8338090  24.7406720
   3.1939300  11.1528150  34.0686310   3.9952030  11.4740200  34.4821710
   2.6791120  10.7923730  34.7906220   7.2983330  11.1412390  16.7026300
   8.0911940  11.4301220  16.2508090   6.7787680  10.7104560  16.0238780
  12.0303930   7.2608020  34.0161720  11.4242090   7.2839620  33.2757470
  11.7258040   6.5291060  34.5528970  13.4604300  10.9888310  32.6271130
  14.4126050  10.9046330  32.5771370  13.3132520  11.6530020  33.3004920
  16.3513500  10.3682520  18.1263040  16.0655010   9.9547660  17.3117220
  16.1533050  11.2970230  18.0063560   7.8160730   6.3615800  16.5668650
   7.7111370   5.7468150  17.2930030   7.6484950   5.8381690  15.7831660
   7.9675050   5.0472600  32.5457880   7.2020720   5.6157600  32.4612550
   8.1491010   4.7548810  31.6526110  11.0563460   5.4235830  17.1710640
  10.5073560   5.8705130  17.8153380  11.6782720   4.9185080  17.6948310
  15.1098400   6.7777930  33.1032900  15.8507870   7.1153690  32.6000360
  14.3471080   6.9469990  32.5502670   2.9460190   1.7831200  33.9072430
   2.9865530   1.4845070  34.8157660   3.8005690   2.1838810  33.7479950
   6.7238580   4.3826750  19.0675940   7.1455000   4.2166620  19.9107330
   6.8489420   3.5726980  18.5731080   9.2366220   3.4064360  16.3153040
   9.7571880   2.6913380  15.9494190   9.8834620   4.0450230  16.6153550
  13.7844060   4.8292760  31.6388110  14.1985080   4.9837840  32.4878530
  12.8495060   4.9547980  31.8013890   8.5459290   4.7813240  29.6084040
   8.9647400   5.6245970  29.4360280   7.6267920   4.9185280  29.3790820
  10.8823190   2.5129420  30.9921880  11.0019400   1.9170560  31.7316720
  11.7417190   2.5499110  30.5723180  13.2211090   3.0666610  29.5684390
  12.6946310   3.5909230  28.9649530  13.5642430   3.6994000  30.1994120
   6.3966710  11.0866250  30.7241770   5.8587800  11.8112310  30.4050470
   6.6500670  10.6096590  29.9339110   9.2528920  12.3217460  30.9828420
   9.1787620  13.2252600  31.2900790   8.3507760  12.0029360  30.9550490
   9.8014250  11.4875970  18.6054780  10.6965040  11.8260940  18.6273540
   9.8331880  10.7655380  17.9779060   3.4410410   6.8603020  16.8341780
   3.8785280   7.4032690  17.4899360   3.9258140   6.0349970  16.8438120
   5.2518130   7.9801060  21.9464010   4.9513670   7.8566030  22.8467920
   5.1455620   7.1209650  21.5379740  16.7808600  10.0179640  31.3120980
  16.1810590  10.0772200  30.5684900  16.9102500   9.0784620  31.4417830
  18.0210050   7.7597460  16.6490690  17.1903010   7.8274110  17.1197920
  18.1981880   8.6501580  16.3457550  17.4766510   4.5044940  19.1524890
  18.2385420   5.0741590  19.2584580  17.4920880   3.9372140  19.9233200
  18.4826480   5.3595040  23.9966820  18.8535310   4.5762360  23.5902790
  19.1228410   6.0484140  23.8184120  15.4660240   6.7431620  29.4097140
  14.6520080   7.1728780  29.6722930  15.8734440   7.3550030  28.7966190
  17.5285680   4.7979310  16.3097410  17.8034520   5.7058190  16.1816630
  17.3396420   4.7341840  17.2459400  17.4251020   2.7348300  21.3026840
  17.0494620   1.9676230  20.8708130  16.6954140   3.1171000  21.7901770
   2.0146780   3.4135440  27.9235890   2.3819820   3.3262840  28.8031910
   1.4457600   2.6501990  27.8242750  16.8150640   1.8819820  30.9366360
  16.5836730   1.6532570  30.0364310  17.0755190   2.8019370  30.8911250
  15.5236290  11.4950220  22.9365410  16.1195360  11.1734790  22.2599830
  15.7814440  11.0222040  23.7278680   3.4298860   7.9268130  33.0856040
   3.3868490   7.5561040  33.9670500   3.5609870   8.8645700  33.2257860
   7.1304890   9.4827720  28.6865760   6.8896250   9.7502280  27.7996280
   8.0707530   9.6533450  28.7416620  18.3909050  11.5022100  29.4876400
  17.8967330  11.8990970  28.7703530  17.7822340  10.8771310  29.8813680
   3.2686890  10.8730380  30.2053820   2.6747210  10.7415080  30.9443860
   3.2610730  10.0368520  29.7395920  16.0748500  12.1445520  26.7663140
  15.6151470  12.8961330  26.3921160  15.4460960  11.4251990  26.7077940
   2.8999120   8.2388760  29.1561860   2.1733180   7.6194050  29.0887810
   2.9608270   8.6329370  28.2859940   6.5044220  10.4533760  25.9411270
   7.0209240   9.8421120  25.4159530   7.1541600  10.9562540  26.4322280
   9.2439720  11.3442250  26.7680250   9.5317530  11.0896550  25.8913260
   9.7562940  10.7919610  27.3585820   2.7891820  10.2496380  19.8108760
   2.2639440  10.6304410  19.1070720   2.7136400  10.8747150  20.5318470
   9.3112080  12.2658350  34.1348450  10.2379390  12.0302620  34.1784410
   9.2962510  13.0930350  33.6534480  17.5457140  11.8083920  21.1322700
  17.7209330  11.1221660  20.4883620  16.8478710  12.3330970  20.7399370
   5.3884790  12.1978760  18.6858010   6.1203610  11.9138040  18.1381900
   5.6478460  11.9592040  19.5757390   4.5499580   8.3143490  18.6904340
   3.9208460   8.7828590  19.2390170   4.6647410   7.4692710  19.1250530
  15.8789640  11.4928210  33.9589490  16.6714960  10.9977440  33.7515450
  16.1722790  12.1718350  34.5665100  10.1367340   4.1428170   6.7214810
   9.3609440   3.6628610   7.0113380  10.7880270   3.4633820   6.5470970
   4.1533170   4.4547980   7.5990570   3.3218050   4.1996690   7.9987080
   4.7614150   4.5258750   8.3348490  14.1574770   8.5488360   5.5013940
  13.6956300   7.7775600   5.8301110  14.9700320   8.5754430   6.0066390
   4.1334430   8.4888070   7.7948590   4.4362470   7.5985810   7.6158810
   4.8778020   9.0458290   7.5670840  10.3838080  10.8346370   5.1217930
   9.7649520  11.2903870   4.5512370  11.2389860  10.9897830   4.7207630
   9.5776330   6.8185360   6.7284970   9.5084610   5.8775300   6.5674100
  10.3396190   6.9086770   7.3007540  11.2501430   5.7185610   2.5149840
  10.6318700   6.1835060   1.9512560  11.7624680   6.4113090   2.9319350
   6.1133190   5.2461480   9.1933440   5.7802570   5.8730400   9.8354510
   6.2899870   5.7723360   8.4135110   5.3252290   7.2142280  11.0082620
   5.9426290   7.8893360  10.7267070   4.4645410   7.6230260  10.9170120
  16.2429880   8.6781690   8.9237260  15.5593400   9.3480800   8.9153930
  16.7824170   8.8762340   8.1582120  13.7788620  10.5225820   7.6382440
  13.7915780  10.1188110   6.7704700  13.2263840  11.2973110   7.5343870
  15.0734040   7.2442040   2.7272610  14.9630370   6.3016370   2.8522030
  15.0702290   7.6057680   3.6135370  13.1774060   5.4255660   8.9665050
  13.5942850   5.2115770   8.1318510  13.9013880   5.6828450   9.5373670
  10.6154320   2.8707360   2.0835100   9.6883600   2.8044740   2.3123570
  10.7679140   3.8087490   1.9690340  17.1236160   3.8242880   9.0581290
  16.2954790   3.8935970   8.5831420  17.7186640   4.4097190   8.5897120
  14.6451610   4.4327660   2.5870350  14.0264030   4.0947210   1.9396650
  14.6276060   3.7887420   3.2949540   6.2210960   3.3972100   4.8654830
   5.8167960   2.6849350   4.3700730   6.3074080   3.0525340   5.7542870
   6.6892660   7.0839660   7.0294040   6.3920950   6.4785130   6.3501820
   7.6392480   7.1216970   6.9183400  14.7778270  10.6571530  10.6917140
  14.3008830  11.4643720  10.4989750  14.0940060  10.0049860  10.8443350
   5.7811090   6.8221350  13.6801840   4.8839620   7.0461320  13.9275240
   5.8063960   6.9456290  12.7313240   4.6082310   3.6934670  12.2559210
   4.4690080   4.5657470  12.6246610   3.7263670   3.3507480  12.1107150
  10.9311690   8.6110540   3.5624340  11.3707600   9.3534870   3.1479730
  10.8698580   8.8537110   4.4863300   6.4062660   9.6356370  14.4644360
   6.3778090  10.0399320  13.5972790   6.2427630   8.7066730  14.3015960
   2.9215590   2.2917080   2.3661480   2.8013190   3.0179170   1.7542750
   2.6116480   1.5219990   1.8889390  18.3577480  10.4183470  15.7608530
  18.8337200  10.8966360  16.4397610  18.9784640  10.3500960  15.0354030
   1.8048590   7.1632410   4.5836300   1.3976670   7.3047000   3.7289900
   2.6961600   6.8792570   4.3807510  17.7610730   7.6096320  12.9208540
  17.8873790   7.3708200  12.0025720  17.8032110   6.7780860  13.3930620
  11.6227470  11.3124320  11.4903350  12.1372140  11.2232330  12.2925780
  10.7796550  11.6584020  11.7831260   6.0770250  11.3778190   2.6958970
   5.9012730  10.4613730   2.4826770   5.2225990  11.7365480   2.9356770
  12.8657930  10.7329930   3.5533840  13.3214880   9.9519310   3.8672460
  13.2050450  11.4436750   4.0975020   2.1899460   5.8797820  12.8720390
   1.8054250   5.2391490  13.4703350   2.5011650   6.5833940  13.4415120
   8.3396600   2.7274360   8.3529010   8.7066730   2.2532930   9.0990350
   8.1501660   3.6015930   8.6937350   6.1295970   1.7683000  10.6713220
   5.8253040   2.6474980  10.8963580   7.0842430   1.8282790  10.7070660
  15.4165740   4.9709350   7.0606460  16.1364860   5.4664640   6.6702570
  15.2147560   4.2927240   6.4160330  10.7984540   5.0418410  12.9475460
  10.7321850   4.1214080  12.6933050  10.1689680   5.1393850  13.6620100
   4.7015160   5.6424370   4.9058880   5.2193830   4.8392630   4.8515770
   4.2499180   5.5803510   5.7475710   2.1859700   2.6085740  11.8184580
   1.8274640   3.2739590  12.4057920   1.8914260   1.7769290  12.1897200
   5.3872820   3.0669980  14.7024130   5.0872960   3.2127160  13.8051950
   6.1584060   2.5075270  14.6097520  10.7301270   7.8638980  12.6979260
  10.7445810   6.9319940  12.4798170  10.0226370   7.9498740  13.3369030
  16.9412480   4.5046320  12.0447840  16.2160670   5.0975100  11.8477230
  17.4687940   4.4969860  11.2461210  12.4712070   6.2306490   5.5431690
  12.8235890   5.6334620   4.8833060  11.5874400   5.9050720   5.7139940
   8.5575350   6.9904180   2.9502100   9.2446480   7.5373390   3.3309690
   7.7707770   7.5344910   2.9851710   7.8602560   3.9950210   2.5627460
   8.3165340   4.8055460   2.7887650   7.5090770   3.6773350   3.3945950
  10.1635170   9.5056550   9.7919760  10.8077390   9.7115930  10.4693180
  10.5264610   8.7444950   9.3390610  11.4367250   7.5088900   8.5097210
  12.0789480   6.8082060   8.6229380  11.9616600   8.2887340   8.3294100
  13.2104870   8.3083800  11.7133270  13.5461110   8.8950490  12.3911190
  12.2905210   8.1776510  11.9431060   9.0393450   8.3575130  14.8821330
   8.7190320   7.6384370  15.4267020   8.3651810   9.0330200  14.9557390
   8.7085330  11.7850140   3.1827340   8.9626830  11.7471530   2.2606710
   7.7597810  11.6583470   3.1755590  14.7137910   2.7042020   4.7585850
  13.7728050   2.7192250   4.9333540  15.0281980   1.9177980   5.2046150
  16.7163490   9.8750870   6.4340110  16.8410910  10.6982040   6.9063920
  17.5829050   9.6641600   6.0864260   4.1881020  11.9682080   6.1057240
   4.9243500  11.4197540   6.3765810   4.5721940  12.8338090   5.9663230
   3.1939300  11.1528150  15.2942820   3.9952030  11.4740200  15.7078220
   2.6791120  10.7923730  16.0162730  12.0303930   7.2608020  15.2418230
  11.4242090   7.2839620  14.5013980  11.7258040   6.5291060  15.7785480
  13.4604300  10.9888310  13.8527640  14.4126050  10.9046330  13.8027880
  13.3132520  11.6530020  14.5261430   7.9675050   5.0472600  13.7714390
   7.2020720   5.6157600  13.6869060   8.1491010   4.7548810  12.8782620
  15.1098400   6.7777930  14.3289410  15.8507870   7.1153690  13.8256870
  14.3471080   6.9469990  13.7759180   2.9460190   1.7831200  15.1328940
   2.9865530   1.4845070  16.0414170   3.8005690   2.1838810  14.9736460
  13.7844060   4.8292760  12.8644620  14.1985080   4.9837840  13.7135040
  12.8495060   4.9547980  13.0270400   8.5459290   4.7813240  10.8340550
   8.9647400   5.6245970  10.6616790   7.6267920   4.9185280  10.6047330
  10.8823190   2.5129420  12.2178390  11.0019400   1.9170560  12.9573230
  11.7417190   2.5499110  11.7979690  13.2211090   3.0666610  10.7940900
  12.6946310   3.5909230  10.1906040  13.5642430   3.6994000  11.4250630
   6.3966710  11.0866250  11.9498280   5.8587800  11.8112310  11.6306980
   6.6500670  10.6096590  11.1595620   9.2528920  12.3217460  12.2084930
   9.1787620  13.2252600  12.5157300   8.3507760  12.0029360  12.1807000
   5.2518130   7.9801060   3.1720520   4.9513670   7.8566030   4.0724430
   5.1455620   7.1209650   2.7636250  16.7808600  10.0179640  12.5377490
  16.1810590  10.0772200  11.7941410  16.9102500   9.0784620  12.6674340
  18.4826480   5.3595040   5.2223330  18.8535310   4.5762360   4.8159300
  19.1228410   6.0484140   5.0440630  15.4660240   6.7431620  10.6353650
  14.6520080   7.1728780  10.8979440  15.8734440   7.3550030  10.0222700
  17.4251020   2.7348300   2.5283350  17.0494620   1.9676230   2.0964640
  16.6954140   3.1171000   3.0158280   2.0146780   3.4135440   9.1492400
   2.3819820   3.3262840  10.0288420   1.4457600   2.6501990   9.0499260
  16.8150640   1.8819820  12.1622870  16.5836730   1.6532570  11.2620820
  17.0755190   2.8019370  12.1167760  15.5236290  11.4950220   4.1621920
  16.1195360  11.1734790   3.4856340  15.7814440  11.0222040   4.9535190
   3.4298860   7.9268130  14.3112550   3.3868490   7.5561040  15.1927010
   3.5609870   8.8645700  14.4514370   7.1304890   9.4827720   9.9122270
   6.8896250   9.7502280   9.0252790   8.0707530   9.6533450   9.9673130
  18.3909050  11.5022100  10.7132910  17.8967330  11.8990970   9.9960040
  17.7822340  10.8771310  11.1070190   3.2686890  10.8730380  11.4310330
   2.6747210  10.7415080  12.1700370   3.2610730  10.0368520  10.9652430
  16.0748500  12.1445520   7.9919650  15.6151470  12.8961330   7.6177670
  15.4460960  11.4251990   7.9334450   2.8999120   8.2388760  10.3818370
   2.1733180   7.6194050  10.3144320   2.9608270   8.6329370   9.5116450
   6.5044220  10.4533760   7.1667780   7.0209240   9.8421120   6.6416040
   7.1541600  10.9562540   7.6578790   9.2439720  11.3442250   7.9936760
   9.5317530  11.0896550   7.1169770   9.7562940  10.7919610   8.5842330
   9.3112080  12.2658350  15.3604960  10.2379390  12.0302620  15.4040920
   9.2962510  13.0930350  14.8790990  17.5457140  11.8083920   2.3579210
  17.7209330  11.1221660   1.7140130  16.8478710  12.3330970   1.9655880
  15.8789640  11.4928210  15.1846000  16.6714960  10.9977440  14.9771960
  16.1722790  12.1718350  15.7921610
  93.7582550 100.0948430  88.1781450  90.0000000  90.0000000  90.0000000
